                         Program Version 4.2.0 -  RELEASE  -
|  1> # ORCA input file
|  2> # SCF done       -172.075869656484          0.000461067551
|  3> ! CAM-B3LYP def2-SVP def2/J RIJCOSX Grid4 TightSCF
|  4> %maxcore 5000
|  5> %tddft
|  6>     Mode sTDDFT
|  7>     Ethresh 5.0
|  8>     maxcore 5000
|  9> end
| 10>
| 11> %pal
| 12>   nprocs 6
| 13>   end
| 14> * xyz 0 1
| 15>    C        5.02893         4.05281        -1.03514
| 16>    C        4.91492         5.34990        -0.64112
| 17>    S        6.27916         5.83980         0.29558
| 18>    C        7.02112         4.26256         0.15952
| 19>   Cl        8.51786         3.92523         0.87725
| 20>    C        6.23527         3.42921        -0.57899
| 21>    C        6.27702         2.03320        -1.02587
| 22>    O        7.10227         1.19143        -0.75562
| 23>    C        5.01582         1.84820        -1.80897
| 24>    C        4.26389         3.09351        -1.80633
| 25>    C        3.08346         3.36681        -2.44441
| 26>    C        2.48253         4.64057        -2.35821
| 27>    N        1.98232         5.67096        -2.29405
| 28>    C        2.35795         2.46501        -3.24840
| 29>    N        1.72924         1.78309        -3.92475
| 30>    C        4.58956         0.64851        -2.29241
| 31>    C        5.36582        -0.53847        -2.39825
| 32>    C        4.87591        -1.81844        -2.26205
| 33>    C        5.95150        -2.74791        -2.40207
| 34>    C        7.14779        -1.94481        -2.69484
| 35>    C        6.79289        -0.63270        -2.68348
| 36>    C        8.45532        -2.41026        -2.88935
| 37>    N        9.54674        -2.74215        -3.01999
| 38>    C        5.89924        -4.11664        -2.25977
| 39>    C        6.95749        -5.04216        -2.45545
| 40>    C        6.53569        -6.30591        -2.08586
| 41>    C        5.14556        -6.20148        -1.66285
| 42>    C        4.74699        -4.90903        -1.79136
| 43>    C        3.46488        -4.43808        -1.48660
| 44>    N        2.40252        -4.08982        -1.22302
| 45>    C        7.37616        -7.44771        -2.13877
| 46>    N        7.25289        -8.62119        -1.43314
| 47>    C        6.28622        -8.95249        -0.41181
| 48>    C        6.42372        -8.06744         0.82266
| 49>    C        8.32776        -9.49483        -1.68440
| 50>    O        8.44792       -10.58100        -1.15151
| 51>    C        9.14107        -8.80189        -2.65598
| 52>    C        8.53567        -7.55448        -2.91363
| 53>    C        9.30685        -6.88702        -3.94639
| 54>    O        9.15539        -5.84144        -4.53366
| 55>    N       10.36746        -7.78185        -4.21321
| 56>    C       11.40946        -7.43119        -5.14889
| 57>    C       12.63197        -6.85321        -4.44086
| 58>    C       10.29207        -8.91412        -3.44762
| 59>    C       11.24591        -9.95858        -3.47830
| 60>    C       11.15154       -11.05612        -2.67744
| 61>    C       12.11761       -12.04089        -2.66667
| 62>    C       12.99477       -12.89195        -2.64212
| 63>    C       13.98120       -13.79108        -2.60944
| 64>    C       14.92956       -14.56337        -2.63476
| 65>    C       15.95232       -15.47976        -2.56442
| 66>    C       16.77080       -15.91645        -3.56171
| 67>    C       17.64703       -17.09735        -3.28364
| 68>    O       17.84772       -17.59456        -2.20110
| 69>    C       18.14414       -17.50471        -4.60056
| 70>    C       18.92107       -18.49937        -5.11422
| 71>    S       19.05744       -18.33423        -6.84923
| 72>    C       18.06874       -16.91961        -6.85621
| 73>    C       17.65741       -16.59874        -5.60006
| 74>    C       16.87841       -15.55124        -4.96127
| 75>    C       16.45366       -14.41440        -5.59662
| 76>    C       16.61778       -14.25639        -6.99042
| 77>    N       16.72491       -14.11449        -8.12387
| 78>    C       15.91847       -13.25840        -4.99820
| 79>    N       15.54253       -12.24900        -4.60111
| 80>   Cl       19.69134       -19.75931        -4.28468
| 81>    H        4.12726         6.05210        -0.82957
| 82>    H        3.55287         0.55066        -2.59328
| 83>    H        3.85874        -2.08255        -2.04563
| 84>    H        7.43872         0.19711        -2.89328
| 85>    H        7.92961        -4.78875        -2.82768
| 86>    H        4.51653        -7.01150        -1.34744
| 87>    H        6.49409        -9.99297        -0.14387
| 88>    H        5.27535        -8.90296        -0.82385
| 89>    H        7.42475        -8.15897         1.23753
| 90>    H        5.70605        -8.37869         1.57654
| 91>    H        6.24296        -7.02204         0.58193
| 92>    H       10.97926        -6.67336        -5.80959
| 93>    H       11.67760        -8.30868        -5.74291
| 94>    H       12.35251        -5.95613        -3.89391
| 95>    H       13.38853        -6.59042        -5.17455
| 96>    H       13.05692        -7.57129        -3.74275
| 97>    H       12.09226        -9.86405        -4.14412
| 98>    H       10.31399       -11.17723        -1.99868
| 99>    H       16.09603       -15.96476        -1.60080
|100>    H       17.85891       -16.43215        -7.78744
|101> *
|102>
|103>                          ****END OF INPUT****

CARTESIAN COORDINATES (ANGSTROEM)
---------------------------------
  C      5.028930    4.052810   -1.035140
  C      4.914920    5.349900   -0.641120
  S      6.279160    5.839800    0.295580
  C      7.021120    4.262560    0.159520
  Cl     8.517860    3.925230    0.877250
  C      6.235270    3.429210   -0.578990
  C      6.277020    2.033200   -1.025870
  O      7.102270    1.191430   -0.755620
  C      5.015820    1.848200   -1.808970
  C      4.263890    3.093510   -1.806330
  C      3.083460    3.366810   -2.444410
  C      2.482530    4.640570   -2.358210
  N      1.982320    5.670960   -2.294050
  C      2.357950    2.465010   -3.248400
  N      1.729240    1.783090   -3.924750
  C      4.589560    0.648510   -2.292410
  C      5.365820   -0.538470   -2.398250
  C      4.875910   -1.818440   -2.262050
  C      5.951500   -2.747910   -2.402070
  C      7.147790   -1.944810   -2.694840
  C      6.792890   -0.632700   -2.683480
  C      8.455320   -2.410260   -2.889350
  N      9.546740   -2.742150   -3.019990
  C      5.899240   -4.116640   -2.259770
  C      6.957490   -5.042160   -2.455450
  C      6.535690   -6.305910   -2.085860
  C      5.145560   -6.201480   -1.662850
  C      4.746990   -4.909030   -1.791360
  C      3.464880   -4.438080   -1.486600
  N      2.402520   -4.089820   -1.223020
  C      7.376160   -7.447710   -2.138770
  N      7.252890   -8.621190   -1.433140
  C      6.286220   -8.952490   -0.411810
  C      6.423720   -8.067440    0.822660
  C      8.327760   -9.494830   -1.684400
  O      8.447920  -10.581000   -1.151510
  C      9.141070   -8.801890   -2.655980
  C      8.535670   -7.554480   -2.913630
  C      9.306850   -6.887020   -3.946390
  O      9.155390   -5.841440   -4.533660
  N     10.367460   -7.781850   -4.213210
  C     11.409460   -7.431190   -5.148890
  C     12.631970   -6.853210   -4.440860
  C     10.292070   -8.914120   -3.447620
  C     11.245910   -9.958580   -3.478300
  C     11.151540  -11.056120   -2.677440
  C     12.117610  -12.040890   -2.666670
  C     12.994770  -12.891950   -2.642120
  C     13.981200  -13.791080   -2.609440
  C     14.929560  -14.563370   -2.634760
  C     15.952320  -15.479760   -2.564420
  C     16.770800  -15.916450   -3.561710
  C     17.647030  -17.097350   -3.283640
  O     17.847720  -17.594560   -2.201100
  C     18.144140  -17.504710   -4.600560
  C     18.921070  -18.499370   -5.114220
  S     19.057440  -18.334230   -6.849230
  C     18.068740  -16.919610   -6.856210
  C     17.657410  -16.598740   -5.600060
  C     16.878410  -15.551240   -4.961270
  C     16.453660  -14.414400   -5.596620
  C     16.617780  -14.256390   -6.990420
  N     16.724910  -14.114490   -8.123870
  C     15.918470  -13.258400   -4.998200
  N     15.542530  -12.249000   -4.601110
  Cl    19.691340  -19.759310   -4.284680
  H      4.127260    6.052100   -0.829570
  H      3.552870    0.550660   -2.593280
  H      3.858740   -2.082550   -2.045630
  H      7.438720    0.197110   -2.893280
  H      7.929610   -4.788750   -2.827680
  H      4.516530   -7.011500   -1.347440
  H      6.494090   -9.992970   -0.143870
  H      5.275350   -8.902960   -0.823850
  H      7.424750   -8.158970    1.237530
  H      5.706050   -8.378690    1.576540
  H      6.242960   -7.022040    0.581930
  H     10.979260   -6.673360   -5.809590
  H     11.677600   -8.308680   -5.742910
  H     12.352510   -5.956130   -3.893910
  H     13.388530   -6.590420   -5.174550
  H     13.056920   -7.571290   -3.742750
  H     12.092260   -9.864050   -4.144120
  H     10.313990  -11.177230   -1.998680
  H     16.096030  -15.964760   -1.600800
  H     17.858910  -16.432150   -7.787440

 Total Charge           Charge          ....    0
 Multiplicity           Mult            ....    1
 Number of Electrons    NEL             ....  474
 Basis Dimension        Dim             .... 1040

ORBITAL ENERGIES
----------------

  NO   OCC          E(Eh)            E(eV)
   0   2.0000    -101.623416     -2765.3137
   1   2.0000    -101.620551     -2765.2358
   2   2.0000     -89.000241     -2421.8197
   3   2.0000     -88.996759     -2421.7249
   4   2.0000     -19.232909      -523.3540
   5   2.0000     -19.225645      -523.1564
   6   2.0000     -19.204686      -522.5861
   7   2.0000     -19.204192      -522.5726
   8   2.0000     -14.468334      -393.7034
   9   2.0000     -14.465501      -393.6263
  10   2.0000     -14.427424      -392.5902
  11   2.0000     -14.426887      -392.5755
  12   2.0000     -14.425847      -392.5472
  13   2.0000     -14.420301      -392.3963
  14   2.0000     -14.417436      -392.3184
  15   2.0000     -14.404004      -391.9529
  16   2.0000     -10.388558      -282.6870
  17   2.0000     -10.387034      -282.6456
  18   2.0000     -10.386701      -282.6365
  19   2.0000     -10.383275      -282.5433
  20   2.0000     -10.380967      -282.4805
  21   2.0000     -10.380090      -282.4566
  22   2.0000     -10.356882      -281.8251
  23   2.0000     -10.356141      -281.8049
  24   2.0000     -10.355993      -281.8009
  25   2.0000     -10.355623      -281.7908
  26   2.0000     -10.354286      -281.7544
  27   2.0000     -10.354248      -281.7534
  28   2.0000     -10.338295      -281.3193
  29   2.0000     -10.336261      -281.2640
  30   2.0000     -10.333186      -281.1803
  31   2.0000     -10.333020      -281.1758
  32   2.0000     -10.332343      -281.1573
  33   2.0000     -10.331880      -281.1447
  34   2.0000     -10.328888      -281.0633
  35   2.0000     -10.328469      -281.0519
  36   2.0000     -10.327292      -281.0199
  37   2.0000     -10.326532      -280.9992
  38   2.0000     -10.322807      -280.8979
  39   2.0000     -10.322263      -280.8830
  40   2.0000     -10.319895      -280.8186
  41   2.0000     -10.319238      -280.8007
  42   2.0000     -10.319198      -280.7997
  43   2.0000     -10.319109      -280.7972
  44   2.0000     -10.318758      -280.7877
  45   2.0000     -10.317825      -280.7623
  46   2.0000     -10.317700      -280.7589
  47   2.0000     -10.317310      -280.7483
  48   2.0000     -10.317253      -280.7467
  49   2.0000     -10.315274      -280.6929
  50   2.0000     -10.314839      -280.6810
  51   2.0000     -10.313502      -280.6446
  52   2.0000     -10.313305      -280.6393
  53   2.0000     -10.313238      -280.6375
  54   2.0000     -10.309780      -280.5434
  55   2.0000     -10.307506      -280.4815
  56   2.0000     -10.307393      -280.4784
  57   2.0000     -10.307045      -280.4690
  58   2.0000     -10.305970      -280.4397
  59   2.0000     -10.305677      -280.4317
  60   2.0000     -10.304261      -280.3932
  61   2.0000     -10.293371      -280.0969
  62   2.0000     -10.279559      -279.7210
  63   2.0000     -10.276680      -279.6427
  64   2.0000     -10.273763      -279.5633
  65   2.0000     -10.264380      -279.3080
  66   2.0000      -9.578149      -260.6347
  67   2.0000      -9.575363      -260.5589
  68   2.0000      -8.096000      -220.3033
  69   2.0000      -8.092482      -220.2076
  70   2.0000      -7.348799      -199.9710
  71   2.0000      -7.346010      -199.8951
  72   2.0000      -7.338197      -199.6825
  73   2.0000      -7.337629      -199.6670
  74   2.0000      -7.335386      -199.6060
  75   2.0000      -7.334847      -199.5913
  76   2.0000      -6.065369      -165.0471
  77   2.0000      -6.061863      -164.9517
  78   2.0000      -6.060751      -164.9214
  79   2.0000      -6.058251      -164.8534
  80   2.0000      -6.057257      -164.8264
  81   2.0000      -6.054729      -164.7575
  82   2.0000      -1.150025       -31.2938
  83   2.0000      -1.147437       -31.2233
  84   2.0000      -1.142005       -31.0755
  85   2.0000      -1.140779       -31.0422
  86   2.0000      -1.077799       -29.3284
  87   2.0000      -1.069291       -29.0969
  88   2.0000      -1.045373       -28.4460
  89   2.0000      -1.042032       -28.3551
  90   2.0000      -1.024871       -27.8882
  91   2.0000      -1.023563       -27.8526
  92   2.0000      -1.021093       -27.7854
  93   2.0000      -1.006676       -27.3930
  94   2.0000      -1.005279       -27.3550
  95   2.0000      -1.001015       -27.2390
  96   2.0000      -0.995502       -27.0890
  97   2.0000      -0.992513       -27.0077
  98   2.0000      -0.991558       -26.9817
  99   2.0000      -0.982771       -26.7426
 100   2.0000      -0.961331       -26.1592
 101   2.0000      -0.959445       -26.1078
 102   2.0000      -0.942594       -25.6493
 103   2.0000      -0.934504       -25.4291
 104   2.0000      -0.923654       -25.1339
 105   2.0000      -0.919460       -25.0198
 106   2.0000      -0.908156       -24.7122
 107   2.0000      -0.906062       -24.6552
 108   2.0000      -0.892773       -24.2936
 109   2.0000      -0.884947       -24.0806
 110   2.0000      -0.877962       -23.8906
 111   2.0000      -0.864121       -23.5139
 112   2.0000      -0.851195       -23.1622
 113   2.0000      -0.849107       -23.1054
 114   2.0000      -0.839711       -22.8497
 115   2.0000      -0.836718       -22.7682
 116   2.0000      -0.829938       -22.5837
 117   2.0000      -0.822606       -22.3843
 118   2.0000      -0.813188       -22.1280
 119   2.0000      -0.795810       -21.6551
 120   2.0000      -0.787437       -21.4272
 121   2.0000      -0.770441       -20.9648
 122   2.0000      -0.769344       -20.9349
 123   2.0000      -0.762463       -20.7477
 124   2.0000      -0.760668       -20.6988
 125   2.0000      -0.732845       -19.9417
 126   2.0000      -0.727247       -19.7894
 127   2.0000      -0.720928       -19.6174
 128   2.0000      -0.715538       -19.4708
 129   2.0000      -0.711333       -19.3564
 130   2.0000      -0.698516       -19.0076
 131   2.0000      -0.696280       -18.9468
 132   2.0000      -0.688642       -18.7389
 133   2.0000      -0.684218       -18.6185
 134   2.0000      -0.680824       -18.5262
 135   2.0000      -0.680137       -18.5075
 136   2.0000      -0.675705       -18.3869
 137   2.0000      -0.667340       -18.1592
 138   2.0000      -0.658491       -17.9184
 139   2.0000      -0.653265       -17.7762
 140   2.0000      -0.640788       -17.4367
 141   2.0000      -0.624805       -17.0018
 142   2.0000      -0.623742       -16.9729
 143   2.0000      -0.622163       -16.9299
 144   2.0000      -0.620778       -16.8922
 145   2.0000      -0.611899       -16.6506
 146   2.0000      -0.601898       -16.3785
 147   2.0000      -0.592911       -16.1339
 148   2.0000      -0.586903       -15.9704
 149   2.0000      -0.585320       -15.9274
 150   2.0000      -0.576664       -15.6918
 151   2.0000      -0.568437       -15.4680
 152   2.0000      -0.564569       -15.3627
 153   2.0000      -0.561996       -15.2927
 154   2.0000      -0.560534       -15.2529
 155   2.0000      -0.559848       -15.2342
 156   2.0000      -0.557517       -15.1708
 157   2.0000      -0.552427       -15.0323
 158   2.0000      -0.552345       -15.0301
 159   2.0000      -0.544434       -14.8148
 160   2.0000      -0.542885       -14.7727
 161   2.0000      -0.536994       -14.6123
 162   2.0000      -0.535230       -14.5643
 163   2.0000      -0.533216       -14.5096
 164   2.0000      -0.531688       -14.4680
 165   2.0000      -0.529760       -14.4155
 166   2.0000      -0.528949       -14.3934
 167   2.0000      -0.525041       -14.2871
 168   2.0000      -0.521863       -14.2006
 169   2.0000      -0.516568       -14.0565
 170   2.0000      -0.515017       -14.0143
 171   2.0000      -0.512032       -13.9331
 172   2.0000      -0.510979       -13.9045
 173   2.0000      -0.510046       -13.8791
 174   2.0000      -0.509430       -13.8623
 175   2.0000      -0.506591       -13.7850
 176   2.0000      -0.499268       -13.5858
 177   2.0000      -0.499002       -13.5785
 178   2.0000      -0.494382       -13.4528
 179   2.0000      -0.493134       -13.4189
 180   2.0000      -0.492537       -13.4026
 181   2.0000      -0.490437       -13.3455
 182   2.0000      -0.489023       -13.3070
 183   2.0000      -0.484788       -13.1918
 184   2.0000      -0.480196       -13.0668
 185   2.0000      -0.475701       -12.9445
 186   2.0000      -0.471487       -12.8298
 187   2.0000      -0.468223       -12.7410
 188   2.0000      -0.464705       -12.6453
 189   2.0000      -0.462678       -12.5901
 190   2.0000      -0.461872       -12.5682
 191   2.0000      -0.459943       -12.5157
 192   2.0000      -0.458826       -12.4853
 193   2.0000      -0.457007       -12.4358
 194   2.0000      -0.454487       -12.3672
 195   2.0000      -0.453498       -12.3403
 196   2.0000      -0.451248       -12.2791
 197   2.0000      -0.451105       -12.2752
 198   2.0000      -0.449651       -12.2356
 199   2.0000      -0.446366       -12.1462
 200   2.0000      -0.446180       -12.1412
 201   2.0000      -0.444367       -12.0918
 202   2.0000      -0.440044       -11.9742
 203   2.0000      -0.438702       -11.9377
 204   2.0000      -0.436133       -11.8678
 205   2.0000      -0.435722       -11.8566
 206   2.0000      -0.435142       -11.8408
 207   2.0000      -0.432904       -11.7799
 208   2.0000      -0.432120       -11.7586
 209   2.0000      -0.428186       -11.6515
 210   2.0000      -0.423925       -11.5356
 211   2.0000      -0.421572       -11.4716
 212   2.0000      -0.419581       -11.4174
 213   2.0000      -0.418924       -11.3995
 214   2.0000      -0.411672       -11.2022
 215   2.0000      -0.410523       -11.1709
 216   2.0000      -0.409218       -11.1354
 217   2.0000      -0.406520       -11.0620
 218   2.0000      -0.400280       -10.8922
 219   2.0000      -0.397894       -10.8272
 220   2.0000      -0.374608       -10.1936
 221   2.0000      -0.367357        -9.9963
 222   2.0000      -0.360465        -9.8087
 223   2.0000      -0.358727        -9.7615
 224   2.0000      -0.351426        -9.5628
 225   2.0000      -0.345759        -9.4086
 226   2.0000      -0.344413        -9.3720
 227   2.0000      -0.339178        -9.2295
 228   2.0000      -0.330236        -8.9862
 229   2.0000      -0.329535        -8.9671
 230   2.0000      -0.321474        -8.7477
 231   2.0000      -0.321273        -8.7423
 232   2.0000      -0.320083        -8.7099
 233   2.0000      -0.318661        -8.6712
 234   2.0000      -0.303065        -8.2468
 235   2.0000      -0.300772        -8.1844
 236   2.0000      -0.248649        -6.7661
 237   0.0000      -0.142489        -3.8773
 238   0.0000      -0.113179        -3.0798
 239   0.0000      -0.089821        -2.4442
 240   0.0000      -0.076700        -2.0871
 241   0.0000      -0.058863        -1.6017

MULLIKEN ATOMIC CHARGES
-----------------------
   0 C :    0.032265
   1 C :   -0.128876
   2 S :    0.193249
   3 C :   -0.169551
   4 Cl:    0.005238
   5 C :    0.076375
   6 C :    0.140518
   7 O :   -0.127540
   8 C :   -0.103402
   9 C :    0.290784
  10 C :   -0.318729
  11 C :   -0.192707
  12 N :    0.159838
  13 C :   -0.193137
  14 N :    0.172858
  15 C :   -0.023559
  16 C :    0.084484
  17 C :   -0.070725
  18 C :    0.104292
  19 C :   -0.117708
  20 C :    0.072057
  21 C :   -0.180186
  22 N :    0.144352
  23 C :    0.124550
  24 C :   -0.099187
  25 C :    0.032289
  26 C :   -0.026449
  27 C :   -0.095515
  28 C :   -0.181632
  29 N :    0.149387
  30 C :    0.153116
  31 N :   -0.258078
  32 C :    0.098310
  33 C :   -0.009089
  34 C :    0.167185
  35 O :   -0.205987
  36 C :   -0.071540
  37 C :   -0.044643
  38 C :    0.149876
  39 O :   -0.170087
  40 N :   -0.257782
  41 C :    0.091964
  42 C :    0.001229
  43 C :    0.145083
  44 C :   -0.018901
  45 C :   -0.101954
  46 C :    0.073549
  47 C :    0.011787
  48 C :    0.025493
  49 C :    0.059796
  50 C :   -0.064065
  51 C :   -0.124696
  52 C :    0.130943
  53 O :   -0.126621
  54 C :    0.088460
  55 C :   -0.170854
  56 S :    0.188743
  57 C :   -0.129121
  58 C :    0.018644
  59 C :    0.297288
  60 C :   -0.316863
  61 C :   -0.197454
  62 N :    0.152573
  63 C :   -0.195332
  64 N :    0.183123
  65 Cl:    0.002318
  66 H :    0.056758
  67 H :    0.040113
  68 H :    0.014802
  69 H :    0.004570
  70 H :    0.027405
  71 H :   -0.008694
  72 H :    0.050320
  73 H :    0.025008
  74 H :    0.030319
  75 H :    0.030219
  76 H :    0.031223
  77 H :    0.049347
  78 H :    0.028881
  79 H :    0.041371
  80 H :    0.029247
  81 H :    0.018966
  82 H :    0.013729
  83 H :    0.072410
  84 H :    0.059355
  85 H :    0.054605
Sum of atomic charges:   -0.0000000

LOEWDIN ATOMIC CHARGES
----------------------
   0 C :   -0.059195
   1 C :   -0.147414
   2 S :    0.481362
   3 C :   -0.270147
   4 Cl:    0.196077
   5 C :   -0.118382
   6 C :    0.081991
   7 O :   -0.120073
   8 C :   -0.077547
   9 C :    0.070984
  10 C :   -0.127740
  11 C :   -0.015007
  12 N :   -0.045175
  13 C :   -0.025415
  14 N :   -0.036450
  15 C :    0.075171
  16 C :   -0.024781
  17 C :    0.018659
  18 C :    0.042433
  19 C :   -0.090288
  20 C :    0.078247
  21 C :   -0.031673
  22 N :   -0.053948
  23 C :    0.037418
  24 C :    0.015050
  25 C :   -0.031978
  26 C :    0.048201
  27 C :   -0.077485
  28 C :   -0.033350
  29 N :   -0.056567
  30 C :    0.070877
  31 N :    0.000422
  32 C :    0.035715
  33 C :   -0.060819
  34 C :    0.081625
  35 O :   -0.193476
  36 C :   -0.117079
  37 C :   -0.098214
  38 C :    0.084152
  39 O :   -0.165104
  40 N :    0.004343
  41 C :    0.037148
  42 C :   -0.059443
  43 C :    0.081624
  44 C :   -0.007315
  45 C :    0.008650
  46 C :    0.033406
  47 C :   -0.032865
  48 C :    0.014094
  49 C :   -0.014125
  50 C :    0.047218
  51 C :   -0.063734
  52 C :    0.079459
  53 O :   -0.129248
  54 C :   -0.119321
  55 C :   -0.270806
  56 S :    0.477375
  57 C :   -0.151623
  58 C :   -0.056590
  59 C :    0.065646
  60 C :   -0.121778
  61 C :   -0.013321
  62 N :   -0.047457
  63 C :   -0.018523
  64 N :   -0.039145
  65 Cl:    0.193977
  66 H :    0.038779
  67 H :    0.053814
  68 H :    0.040067
  69 H :    0.037925
  70 H :    0.040558
  71 H :    0.036163
  72 H :    0.040281
  73 H :    0.020033
  74 H :    0.033574
  75 H :    0.034585
  76 H :    0.024339
  77 H :    0.040341
  78 H :    0.025555
  79 H :    0.036477
  80 H :    0.033788
  81 H :    0.023361
  82 H :    0.043560
  83 H :    0.054602
  84 H :    0.065894
  85 H :    0.037584

  Mayer bond orders larger than 0.100000
B(  0-C ,  1-C ) :   1.5450 B(  0-C ,  5-C ) :   1.2209 B(  0-C ,  9-C ) :   1.0013
B(  1-C ,  2-S ) :   1.1641 B(  1-C , 66-H ) :   0.9537 B(  2-S ,  3-C ) :   1.1546
B(  3-C ,  4-Cl) :   1.1333 B(  3-C ,  5-C ) :   1.4715 B(  5-C ,  6-C ) :   0.9537
B(  6-C ,  7-O ) :   2.2262 B(  6-C ,  8-C ) :   0.9340 B(  8-C ,  9-C ) :   1.0515
B(  8-C , 15-C ) :   1.6464 B(  9-C , 10-C ) :   1.6692 B( 10-C , 11-C ) :   1.1451
B( 10-C , 13-C ) :   1.1361 B( 11-C , 12-N ) :   2.9906 B( 13-C , 14-N ) :   2.9831
B( 15-C , 16-C ) :   1.0884 B( 15-C , 67-H ) :   0.9471 B( 16-C , 17-C ) :   1.5284
B( 16-C , 20-C ) :   1.0475 B( 17-C , 18-C ) :   1.0974 B( 17-C , 68-H ) :   1.0075
B( 18-C , 19-C ) :   1.1201 B( 18-C , 23-C ) :   1.4008 B( 19-C , 20-C ) :   1.6789
B( 19-C , 21-C ) :   1.0910 B( 20-C , 69-H ) :   1.0070 B( 21-C , 22-N ) :   2.9810
B( 23-C , 24-C ) :   1.1220 B( 23-C , 27-C ) :   1.0985 B( 24-C , 25-C ) :   1.5467
B( 24-C , 70-H ) :   0.9930 B( 25-C , 26-C ) :   1.0206 B( 25-C , 30-C ) :   1.0408
B( 26-C , 27-C ) :   1.6736 B( 26-C , 71-H ) :   1.0285 B( 27-C , 28-C ) :   1.0836
B( 28-C , 29-N ) :   2.9725 B( 30-C , 31-N ) :   1.1946 B( 30-C , 37-C ) :   1.3762
B( 31-N , 32-C ) :   0.9413 B( 31-N , 34-C ) :   1.0521 B( 32-C , 33-C ) :   1.1161
B( 32-C , 72-H ) :   0.9226 B( 32-C , 73-H ) :   0.9518 B( 33-C , 74-H ) :   0.9617
B( 33-C , 75-H ) :   0.9662 B( 33-C , 76-H ) :   0.9663 B( 34-C , 35-O ) :   2.0237
B( 34-C , 36-C ) :   0.9927 B( 35-O , 83-H ) :   0.1079 B( 36-C , 37-C ) :   1.2618
B( 36-C , 43-C ) :   1.3010 B( 37-C , 38-C ) :   0.9608 B( 38-C , 39-O ) :   2.1180
B( 38-C , 40-N ) :   1.0334 B( 40-N , 41-C ) :   0.9373 B( 40-N , 43-C ) :   1.1844
B( 41-C , 42-C ) :   1.1217 B( 41-C , 77-H ) :   0.9280 B( 41-C , 78-H ) :   0.9504
B( 42-C , 79-H ) :   0.9635 B( 42-C , 80-H ) :   0.9677 B( 42-C , 81-H ) :   0.9684
B( 43-C , 44-C ) :   1.1637 B( 44-C , 45-C ) :   1.6358 B( 44-C , 82-H ) :   0.9680
B( 45-C , 46-C ) :   1.0158 B( 45-C , 83-H ) :   0.9142 B( 46-C , 47-C ) :   2.1091
B( 46-C , 49-C ) :   0.1723 B( 47-C , 48-C ) :   0.8992 B( 48-C , 49-C ) :   2.0815
B( 49-C , 50-C ) :   0.9399 B( 50-C , 51-C ) :   1.6880 B( 50-C , 84-H ) :   0.9469
B( 51-C , 52-C ) :   0.9359 B( 51-C , 59-C ) :   1.0317 B( 52-C , 53-O ) :   2.2737
B( 52-C , 54-C ) :   0.9313 B( 54-C , 55-C ) :   1.4797 B( 54-C , 58-C ) :   1.2226
B( 55-C , 56-S ) :   1.1528 B( 55-C , 65-Cl) :   1.1314 B( 56-S , 57-C ) :   1.1598
B( 57-C , 58-C ) :   1.5507 B( 57-C , 85-H ) :   0.9532 B( 58-C , 59-C ) :   1.0111
B( 59-C , 60-C ) :   1.6546 B( 60-C , 61-C ) :   1.1347 B( 60-C , 63-C ) :   1.1647
B( 61-C , 62-N ) :   2.9918 B( 63-C , 64-N ) :   2.9941

-----------------------------------------------------------------------------
         ABSORPTION SPECTRUM VIA TRANSITION ELECTRIC DIPOLE MOMENTS
-----------------------------------------------------------------------------
State   Energy  Wavelength   fosc         T2         TX        TY        TZ
        (cm-1)    (nm)                  (au**2)     (au)      (au)      (au)
-----------------------------------------------------------------------------
   0    8376.5   1193.8   0.546122526  21.46351   2.38751  -3.91514  -0.65950
   1   16007.3    624.7   0.501565832  10.31536  -2.56104   1.71674   0.89959
   2   16713.4    598.3   0.030130150   0.59349   0.20937   0.73917  -0.05724
   3   19750.1    506.3   0.016925095   0.28212  -0.44103   0.23947   0.17400
   4   21982.4    454.9   0.140929751   2.11059  -1.03060   0.89059   0.50528
   5   22296.8    448.5   0.187811199   2.77303  -0.89184   1.38047   0.26827
   6   22596.4    442.5   0.441809942   6.43683  -0.44386   2.48838  -0.21865
   7   23143.8    432.1   0.011832491   0.16831   0.39028  -0.06450  -0.10877
   8   23377.4    427.8   0.030171356   0.42489  -0.42949   0.48403  -0.07839
   9   23610.9    423.5   0.038823236   0.54132  -0.67561   0.20204   0.20989
  10   24749.0    404.1   0.004324732   0.05753   0.07821  -0.18091  -0.13668
  11   24939.8    401.0   0.061508704   0.81193   0.43833   0.78172   0.09333
  12   26545.8    376.7   0.081877329   1.01541  -0.22586   0.92083  -0.34127
  13   27266.1    366.8   0.220941871   2.66766  -1.02008   1.05050   0.72356
  14   27396.9    365.0   0.091465634   1.09909   0.00771   1.01109  -0.27701
  15   28006.9    357.1   0.040107162   0.47145   0.38507  -0.56187  -0.08641
  16   28235.5    354.2   0.343990095   4.01076  -0.39007   1.96358  -0.05434
  17   28809.3    347.1   0.002553027   0.02917   0.10435  -0.04428  -0.12777
  18   29539.1    338.5   0.129963198   1.44843  -0.28007  -1.16912  -0.05616
  19   29832.5    335.2   0.006781444   0.07484   0.12110   0.17594  -0.17093
  20   30202.9    331.1   0.120505831   1.31352  -0.63189  -0.91893  -0.26420
  21   30540.3    327.4   0.055474835   0.59800   0.13444  -0.72496   0.23315
  22   30609.3    326.7   0.050516123   0.54332  -0.15000   0.57802  -0.43210
  23   31083.6    321.7   0.067695136   0.71697   0.43525  -0.70724   0.16533
  24   32003.2    312.5   0.057830879   0.59490  -0.59199   0.48298  -0.10567
  25   32223.1    310.3   0.038263384   0.39092   0.35648  -0.38084  -0.34468
  26   32520.9    307.5   0.011722199   0.11866  -0.07718   0.25620   0.21695
  27   32684.9    306.0   0.188231277   1.89592   0.32841  -1.33434   0.08717
  28   32807.7    304.8   0.030856527   0.30963   0.44228  -0.02142   0.33699
  29   33303.2    300.3   0.051462099   0.50872   0.09379  -0.39390   0.58716
  30   33401.4    299.4   0.143209086   1.41150   0.03801  -1.13496   0.34919
  31   33666.7    297.0   0.009261366   0.09056  -0.16111   0.17281  -0.18639
  32   34169.0    292.7   0.159061350   1.53253   0.85161   0.70363   0.55875
  33   34482.4    290.0   0.079170611   0.75586   0.27108  -0.82391   0.05959
  34   34604.5    289.0   0.035417208   0.33694   0.35899   0.11600   0.44115
  35   34754.8    287.7   0.005960126   0.05646  -0.21431  -0.04653   0.09144
  36   35257.4    283.6   0.039156782   0.36562  -0.38205   0.05621  -0.46529
  37   35344.9    282.9   0.020629963   0.19215  -0.33843   0.27045   0.06687
  38   36113.4    276.9   0.043556687   0.39707  -0.52279  -0.01136  -0.35160
  39   36303.6    275.5   0.138220160   1.25342  -0.46656   1.01704   0.03707
  40   36587.5    273.3   0.074303005   0.66857   0.04982  -0.81377   0.06221
  41   36616.4    273.1   0.022126904   0.19894  -0.35901   0.18210  -0.19206
  42   36954.0    270.6   0.007207592   0.06421  -0.18459  -0.14863   0.08970
  43   37089.4    269.6   0.027786969   0.24664  -0.29618   0.39774  -0.02689
  44   37275.3    268.3   0.187087823   1.65234   0.77804  -1.01552   0.12530
  45   37552.5    266.3   0.253674398   2.22389   0.45032  -1.41925  -0.08256
  46   37874.6    264.0   0.334597179   2.90837  -1.64486   0.34582  -0.28849
  47   37993.0    263.2   0.281048666   2.43530  -0.52755  -1.03276  -1.04422
  48   38193.0    261.8   0.144905605   1.24904  -0.47778   0.71110  -0.71771
  49   38304.9    261.1   0.150728315   1.29544   0.92035  -0.61940   0.25442
  50   38826.5    257.6   0.029589048   0.25089   0.40253   0.01899   0.29749
  51   39372.9    254.0   0.030413193   0.25430  -0.23549   0.24912   0.36984
  52   39414.5    253.7   0.063602242   0.53124  -0.38612  -0.44034  -0.43388
  53   39596.4    252.5   0.017604969   0.14637  -0.28157  -0.25130   0.06278
  54   40133.6    249.2   0.020372310   0.16711  -0.31506  -0.15737  -0.20756
  55   40310.0    248.1   0.020254009   0.16541   0.11768  -0.38555   0.05405

FINAL SINGLE POINT ENERGY     -4368.866598536197

DIPOLE MOMENT
-------------
                                X             Y             Z
Electronic contribution:     31.27995      -0.53503      -2.05351
Nuclear contribution   :    -29.86189      -0.42377       2.84174
                        -----------------------------------------
Total Dipole Moment    :      1.41806      -0.95881       0.78822
                        -----------------------------------------
Magnitude (a.u.)       :      1.88455
Magnitude (Debye)      :      4.79014

Rotational constants in cm-1:     0.002620     0.000202     0.000196
Rotational constants in MHz :    78.552450     6.047120     5.869969

                             ****ORCA TERMINATED NORMALLY****
TOTAL RUN TIME: 0 days 0 hours 8 minutes 5 seconds 351 msec
