                         Program Version 4.2.0 -  RELEASE  -
|  1> # ORCA input file
|  2> # SCF done       -168.560209935376          0.000899841331
|  3> ! CAM-B3LYP def2-SVP def2/J RIJCOSX Grid4 TightSCF
|  4> %maxcore 5000
|  5> %tddft
|  6>     Mode sTDDFT
|  7>     Ethresh 5.0
|  8>     maxcore 5000
|  9> end
| 10>
| 11> %pal
| 12>   nprocs 6
| 13>   end
| 14> * xyz 0 1
| 15>    C        9.56783         1.04619         5.97571
| 16>    C        9.91771         2.04450         6.83209
| 17>    S       11.45885         1.74211         7.54575
| 18>    C       11.64120         0.23826         6.67379
| 19>   Cl       13.01710        -0.73082         6.86136
| 20>    C       10.55267         0.01073         5.88479
| 21>    C       10.11030        -1.02969         4.95127
| 22>    O       10.70855        -2.02726         4.62494
| 23>    C        8.78718        -0.53948         4.43879
| 24>    C        8.45517         0.71488         5.11137
| 25>    C        7.29868         1.43889         5.01731
| 26>    C        7.11932         2.63166         5.75134
| 27>    N        6.96094         3.60514         6.33676
| 28>    C        6.17454         1.10244         4.23562
| 29>    N        5.22304         0.87962         3.63347
| 30>    C        8.10357        -1.06013         3.39088
| 31>    C        8.34150        -2.31477         2.71772
| 32>    C        8.14302        -2.38145         1.33626
| 33>    C        8.38350        -3.55156         0.64126
| 34>    N        8.33970        -3.45785        -0.79985
| 35>    O        7.44172        -2.80455        -1.28437
| 36>    O        9.22858        -3.99224        -1.42590
| 37>    C        8.75202        -4.73815         1.30140
| 38>    C        8.93070        -4.65517         2.68991
| 39>    C        8.73533        -3.48399         3.38284
| 40>    C        8.89668        -6.01998         0.65874
| 41>    C        8.19650        -6.45085        -0.41224
| 42>    C        8.37166        -7.72214        -1.01787
| 43>    S        7.40676        -8.16553        -2.39857
| 44>    C        8.19449        -9.70223        -2.59849
| 45>    C        9.15217        -9.87856        -1.59550
| 46>    C        9.24398        -8.75655        -0.72300
| 47>    S       10.41903        -8.99401         0.52264
| 48>    C       10.75478       -10.60240        -0.09359
| 49>    C       11.74295       -11.37666         0.65899
| 50>    O       12.23417       -10.92371         1.66987
| 51>    C       12.12607       -12.72582         0.09316
| 52>    C       13.07267       -12.54641        -1.09591
| 53>    C       10.01858       -10.92405        -1.19681
| 54>    C        7.82233       -10.53536        -3.68457
| 55>    C        8.57002       -11.55153        -4.17217
| 56>    C        8.19995       -12.41525        -5.25484
| 57>    C        9.15133       -13.25885        -5.85615
| 58>    N        8.86290       -14.08666        -6.83047
| 59>    C        7.58960       -14.15530        -7.21970
| 60>    N        6.60681       -13.38536        -6.74057
| 61>    C        6.90814       -12.52620        -5.79675
| 62>    C        7.27911       -15.09093        -8.27724
| 63>    C        6.09250       -15.68063        -8.52595
| 64>    C        5.84344       -16.31392        -9.86678
| 65>    O        6.67400       -16.59280       -10.69404
| 66>    C        4.38380       -16.44551        -9.93374
| 67>    C        3.45571       -16.83131       -10.85539
| 68>    S        1.84514       -16.71747       -10.18648
| 69>    C        2.44411       -16.16032        -8.66701
| 70>    C        3.80043       -16.06154        -8.67999
| 71>    C        4.85840       -15.71647        -7.75093
| 72>    C        4.71813       -15.66400        -6.39383
| 73>    C        3.45145       -15.77717        -5.78182
| 74>    N        2.42705       -15.85401        -5.27190
| 75>    C        5.77910       -15.58418        -5.46856
| 76>    N        6.58993       -15.58415        -4.65621
| 77>   Cl        3.71700       -17.36218       -12.44191
| 78>    H        9.38386         2.93708         7.09148
| 79>    H        7.30411        -0.46637         2.96291
| 80>    H        7.85061        -1.49977         0.78367
| 81>    H        9.21076        -5.54974         3.22476
| 82>    H        8.85564        -3.47538         4.45300
| 83>    H        9.58615        -6.69856         1.14115
| 84>    H        7.43114        -5.83302        -0.86272
| 85>    H       11.23270       -13.27131        -0.21298
| 86>    H       12.63307       -13.28798         0.87843
| 87>    H       12.60199       -11.96925        -1.88862
| 88>    H       13.35697       -13.51755        -1.49316
| 89>    H       13.97348       -12.02510        -0.78143
| 90>    H       10.06642       -11.88105        -1.68124
| 91>    H        6.88872       -10.27646        -4.16534
| 92>    H        9.55158       -11.73263        -3.75783
| 93>    H       10.18715       -13.24379        -5.53837
| 94>    H        6.08530       -11.92053        -5.43985
| 95>    H        8.08715       -15.29086        -8.97119
| 96>    H        1.75420       -15.93697        -7.87748
| 97> *
| 98>
| 99>                          ****END OF INPUT****

CARTESIAN COORDINATES (ANGSTROEM)
---------------------------------
  C      9.567830    1.046190    5.975710
  C      9.917710    2.044500    6.832090
  S     11.458850    1.742110    7.545750
  C     11.641200    0.238260    6.673790
  Cl    13.017100   -0.730820    6.861360
  C     10.552670    0.010730    5.884790
  C     10.110300   -1.029690    4.951270
  O     10.708550   -2.027260    4.624940
  C      8.787180   -0.539480    4.438790
  C      8.455170    0.714880    5.111370
  C      7.298680    1.438890    5.017310
  C      7.119320    2.631660    5.751340
  N      6.960940    3.605140    6.336760
  C      6.174540    1.102440    4.235620
  N      5.223040    0.879620    3.633470
  C      8.103570   -1.060130    3.390880
  C      8.341500   -2.314770    2.717720
  C      8.143020   -2.381450    1.336260
  C      8.383500   -3.551560    0.641260
  N      8.339700   -3.457850   -0.799850
  O      7.441720   -2.804550   -1.284370
  O      9.228580   -3.992240   -1.425900
  C      8.752020   -4.738150    1.301400
  C      8.930700   -4.655170    2.689910
  C      8.735330   -3.483990    3.382840
  C      8.896680   -6.019980    0.658740
  C      8.196500   -6.450850   -0.412240
  C      8.371660   -7.722140   -1.017870
  S      7.406760   -8.165530   -2.398570
  C      8.194490   -9.702230   -2.598490
  C      9.152170   -9.878560   -1.595500
  C      9.243980   -8.756550   -0.723000
  S     10.419030   -8.994010    0.522640
  C     10.754780  -10.602400   -0.093590
  C     11.742950  -11.376660    0.658990
  O     12.234170  -10.923710    1.669870
  C     12.126070  -12.725820    0.093160
  C     13.072670  -12.546410   -1.095910
  C     10.018580  -10.924050   -1.196810
  C      7.822330  -10.535360   -3.684570
  C      8.570020  -11.551530   -4.172170
  C      8.199950  -12.415250   -5.254840
  C      9.151330  -13.258850   -5.856150
  N      8.862900  -14.086660   -6.830470
  C      7.589600  -14.155300   -7.219700
  N      6.606810  -13.385360   -6.740570
  C      6.908140  -12.526200   -5.796750
  C      7.279110  -15.090930   -8.277240
  C      6.092500  -15.680630   -8.525950
  C      5.843440  -16.313920   -9.866780
  O      6.674000  -16.592800  -10.694040
  C      4.383800  -16.445510   -9.933740
  C      3.455710  -16.831310  -10.855390
  S      1.845140  -16.717470  -10.186480
  C      2.444110  -16.160320   -8.667010
  C      3.800430  -16.061540   -8.679990
  C      4.858400  -15.716470   -7.750930
  C      4.718130  -15.664000   -6.393830
  C      3.451450  -15.777170   -5.781820
  N      2.427050  -15.854010   -5.271900
  C      5.779100  -15.584180   -5.468560
  N      6.589930  -15.584150   -4.656210
  Cl     3.717000  -17.362180  -12.441910
  H      9.383860    2.937080    7.091480
  H      7.304110   -0.466370    2.962910
  H      7.850610   -1.499770    0.783670
  H      9.210760   -5.549740    3.224760
  H      8.855640   -3.475380    4.453000
  H      9.586150   -6.698560    1.141150
  H      7.431140   -5.833020   -0.862720
  H     11.232700  -13.271310   -0.212980
  H     12.633070  -13.287980    0.878430
  H     12.601990  -11.969250   -1.888620
  H     13.356970  -13.517550   -1.493160
  H     13.973480  -12.025100   -0.781430
  H     10.066420  -11.881050   -1.681240
  H      6.888720  -10.276460   -4.165340
  H      9.551580  -11.732630   -3.757830
  H     10.187150  -13.243790   -5.538370
  H      6.085300  -11.920530   -5.439850
  H      8.087150  -15.290860   -8.971190
  H      1.754200  -15.936970   -7.877480

 Total Charge           Charge          ....    0
 Multiplicity           Mult            ....    1
 Number of Electrons    NEL             ....  476
 Basis Dimension        Dim             .... 1001

ORBITAL ENERGIES
----------------

  NO   OCC          E(Eh)            E(eV)
   0   2.0000    -101.622454     -2765.2875
   1   2.0000    -101.618614     -2765.1831
   2   2.0000     -88.999461     -2421.7984
   3   2.0000     -88.995031     -2421.6779
   4   2.0000     -88.980070     -2421.2708
   5   2.0000     -88.966102     -2420.8907
   6   2.0000     -19.249512      -523.8059
   7   2.0000     -19.248049      -523.7660
   8   2.0000     -19.228370      -523.2305
   9   2.0000     -19.222379      -523.0675
  10   2.0000     -19.214144      -522.8434
  11   2.0000     -14.653250      -398.7352
  12   2.0000     -14.429245      -392.6397
  13   2.0000     -14.426683      -392.5700
  14   2.0000     -14.426158      -392.5557
  15   2.0000     -14.425349      -392.5337
  16   2.0000     -14.422716      -392.4621
  17   2.0000     -14.420437      -392.4000
  18   2.0000     -10.386187      -282.6225
  19   2.0000     -10.381959      -282.5075
  20   2.0000     -10.378575      -282.4154
  21   2.0000     -10.377793      -282.3941
  22   2.0000     -10.367727      -282.1202
  23   2.0000     -10.358461      -281.8681
  24   2.0000     -10.354923      -281.7718
  25   2.0000     -10.354313      -281.7552
  26   2.0000     -10.350308      -281.6462
  27   2.0000     -10.348984      -281.6102
  28   2.0000     -10.337397      -281.2949
  29   2.0000     -10.336096      -281.2595
  30   2.0000     -10.335232      -281.2360
  31   2.0000     -10.334146      -281.2064
  32   2.0000     -10.330256      -281.1005
  33   2.0000     -10.330111      -281.0966
  34   2.0000     -10.328072      -281.0411
  35   2.0000     -10.327869      -281.0356
  36   2.0000     -10.327183      -281.0169
  37   2.0000     -10.324221      -280.9363
  38   2.0000     -10.323431      -280.9148
  39   2.0000     -10.322630      -280.8930
  40   2.0000     -10.320298      -280.8296
  41   2.0000     -10.318459      -280.7795
  42   2.0000     -10.316725      -280.7323
  43   2.0000     -10.316238      -280.7191
  44   2.0000     -10.315609      -280.7020
  45   2.0000     -10.315561      -280.7007
  46   2.0000     -10.314659      -280.6761
  47   2.0000     -10.311185      -280.5816
  48   2.0000     -10.310662      -280.5674
  49   2.0000     -10.310479      -280.5624
  50   2.0000     -10.310350      -280.5589
  51   2.0000     -10.309314      -280.5307
  52   2.0000     -10.306988      -280.4674
  53   2.0000     -10.305735      -280.4333
  54   2.0000     -10.304657      -280.4040
  55   2.0000     -10.303614      -280.3756
  56   2.0000     -10.302661      -280.3497
  57   2.0000     -10.302187      -280.3368
  58   2.0000     -10.301990      -280.3314
  59   2.0000     -10.295464      -280.1538
  60   2.0000     -10.292862      -280.0830
  61   2.0000     -10.279784      -279.7272
  62   2.0000     -10.273855      -279.5658
  63   2.0000      -9.577210      -260.6091
  64   2.0000      -9.573397      -260.5054
  65   2.0000      -8.095115      -220.2793
  66   2.0000      -8.090724      -220.1598
  67   2.0000      -8.075338      -219.7411
  68   2.0000      -8.060760      -219.3444
  69   2.0000      -7.347851      -199.9452
  70   2.0000      -7.344032      -199.8413
  71   2.0000      -7.337256      -199.6569
  72   2.0000      -7.336689      -199.6414
  73   2.0000      -7.333446      -199.5532
  74   2.0000      -7.332883      -199.5379
  75   2.0000      -6.064502      -165.0235
  76   2.0000      -6.060106      -164.9039
  77   2.0000      -6.059849      -164.8969
  78   2.0000      -6.057412      -164.8306
  79   2.0000      -6.055478      -164.7779
  80   2.0000      -6.053008      -164.7107
  81   2.0000      -6.044451      -164.4779
  82   2.0000      -6.040406      -164.3678
  83   2.0000      -6.037751      -164.2956
  84   2.0000      -6.030548      -164.0995
  85   2.0000      -6.026165      -163.9803
  86   2.0000      -6.022139      -163.8707
  87   2.0000      -1.330073       -36.1931
  88   2.0000      -1.148664       -31.2567
  89   2.0000      -1.146346       -31.1937
  90   2.0000      -1.139647       -31.0114
  91   2.0000      -1.132431       -30.8150
  92   2.0000      -1.100550       -29.9475
  93   2.0000      -1.044058       -28.4103
  94   2.0000      -1.039473       -28.2855
  95   2.0000      -1.023563       -27.8526
  96   2.0000      -1.023132       -27.8408
  97   2.0000      -1.018850       -27.7243
  98   2.0000      -1.004287       -27.3280
  99   2.0000      -1.001049       -27.2399
 100   2.0000      -0.999904       -27.2088
 101   2.0000      -0.993838       -27.0437
 102   2.0000      -0.992811       -27.0158
 103   2.0000      -0.989512       -26.9260
 104   2.0000      -0.964761       -26.2525
 105   2.0000      -0.960938       -26.1485
 106   2.0000      -0.956655       -26.0319
 107   2.0000      -0.943547       -25.6752
 108   2.0000      -0.932715       -25.3805
 109   2.0000      -0.917440       -24.9648
 110   2.0000      -0.910543       -24.7771
 111   2.0000      -0.908330       -24.7169
 112   2.0000      -0.899013       -24.4634
 113   2.0000      -0.887761       -24.1572
 114   2.0000      -0.885458       -24.0945
 115   2.0000      -0.871313       -23.7096
 116   2.0000      -0.852423       -23.1956
 117   2.0000      -0.843408       -22.9503
 118   2.0000      -0.838325       -22.8120
 119   2.0000      -0.834647       -22.7119
 120   2.0000      -0.833908       -22.6918
 121   2.0000      -0.815186       -22.1823
 122   2.0000      -0.800637       -21.7864
 123   2.0000      -0.794675       -21.6242
 124   2.0000      -0.776516       -21.1301
 125   2.0000      -0.765003       -20.8168
 126   2.0000      -0.760824       -20.7031
 127   2.0000      -0.758844       -20.6492
 128   2.0000      -0.752985       -20.4898
 129   2.0000      -0.744465       -20.2579
 130   2.0000      -0.727662       -19.8007
 131   2.0000      -0.713600       -19.4181
 132   2.0000      -0.712310       -19.3829
 133   2.0000      -0.699152       -19.0249
 134   2.0000      -0.694665       -18.9028
 135   2.0000      -0.693351       -18.8670
 136   2.0000      -0.686848       -18.6901
 137   2.0000      -0.682694       -18.5771
 138   2.0000      -0.677425       -18.4337
 139   2.0000      -0.666818       -18.1450
 140   2.0000      -0.663049       -18.0425
 141   2.0000      -0.651928       -17.7399
 142   2.0000      -0.641934       -17.4679
 143   2.0000      -0.636670       -17.3247
 144   2.0000      -0.632842       -17.2205
 145   2.0000      -0.623537       -16.9673
 146   2.0000      -0.621293       -16.9063
 147   2.0000      -0.615210       -16.7407
 148   2.0000      -0.611417       -16.6375
 149   2.0000      -0.606523       -16.5043
 150   2.0000      -0.604522       -16.4499
 151   2.0000      -0.600270       -16.3342
 152   2.0000      -0.597102       -16.2480
 153   2.0000      -0.592582       -16.1250
 154   2.0000      -0.584483       -15.9046
 155   2.0000      -0.577543       -15.7157
 156   2.0000      -0.571491       -15.5511
 157   2.0000      -0.568509       -15.4699
 158   2.0000      -0.562173       -15.2975
 159   2.0000      -0.558937       -15.2095
 160   2.0000      -0.556807       -15.1515
 161   2.0000      -0.550495       -14.9797
 162   2.0000      -0.549238       -14.9455
 163   2.0000      -0.543626       -14.7928
 164   2.0000      -0.540753       -14.7146
 165   2.0000      -0.537849       -14.6356
 166   2.0000      -0.536747       -14.6056
 167   2.0000      -0.533888       -14.5278
 168   2.0000      -0.532794       -14.4981
 169   2.0000      -0.531757       -14.4698
 170   2.0000      -0.526204       -14.3187
 171   2.0000      -0.524351       -14.2683
 172   2.0000      -0.521705       -14.1963
 173   2.0000      -0.520796       -14.1716
 174   2.0000      -0.515139       -14.0176
 175   2.0000      -0.512440       -13.9442
 176   2.0000      -0.511562       -13.9203
 177   2.0000      -0.506962       -13.7951
 178   2.0000      -0.503880       -13.7113
 179   2.0000      -0.501817       -13.6551
 180   2.0000      -0.499458       -13.5909
 181   2.0000      -0.497871       -13.5478
 182   2.0000      -0.496755       -13.5174
 183   2.0000      -0.492484       -13.4012
 184   2.0000      -0.488929       -13.3044
 185   2.0000      -0.487374       -13.2621
 186   2.0000      -0.483888       -13.1673
 187   2.0000      -0.472197       -12.8491
 188   2.0000      -0.469738       -12.7822
 189   2.0000      -0.469119       -12.7654
 190   2.0000      -0.463245       -12.6055
 191   2.0000      -0.458245       -12.4695
 192   2.0000      -0.458012       -12.4631
 193   2.0000      -0.456631       -12.4256
 194   2.0000      -0.456464       -12.4210
 195   2.0000      -0.455038       -12.3822
 196   2.0000      -0.452131       -12.3031
 197   2.0000      -0.451346       -12.2818
 198   2.0000      -0.449558       -12.2331
 199   2.0000      -0.448603       -12.2071
 200   2.0000      -0.445664       -12.1271
 201   2.0000      -0.443342       -12.0639
 202   2.0000      -0.440764       -11.9938
 203   2.0000      -0.438389       -11.9292
 204   2.0000      -0.437024       -11.8920
 205   2.0000      -0.436549       -11.8791
 206   2.0000      -0.434964       -11.8360
 207   2.0000      -0.430749       -11.7213
 208   2.0000      -0.427226       -11.6254
 209   2.0000      -0.423122       -11.5137
 210   2.0000      -0.422439       -11.4952
 211   2.0000      -0.421810       -11.4780
 212   2.0000      -0.418544       -11.3892
 213   2.0000      -0.412978       -11.2377
 214   2.0000      -0.408492       -11.1156
 215   2.0000      -0.406104       -11.0507
 216   2.0000      -0.404526       -11.0077
 217   2.0000      -0.399169       -10.8619
 218   2.0000      -0.396344       -10.7851
 219   2.0000      -0.390914       -10.6373
 220   2.0000      -0.390652       -10.6302
 221   2.0000      -0.386419       -10.5150
 222   2.0000      -0.376943       -10.2571
 223   2.0000      -0.361244        -9.8299
 224   2.0000      -0.356287        -9.6951
 225   2.0000      -0.351879        -9.5751
 226   2.0000      -0.346547        -9.4300
 227   2.0000      -0.341657        -9.2970
 228   2.0000      -0.338687        -9.2161
 229   2.0000      -0.337882        -9.1942
 230   2.0000      -0.335936        -9.1413
 231   2.0000      -0.333679        -9.0799
 232   2.0000      -0.326087        -8.8733
 233   2.0000      -0.322283        -8.7698
 234   2.0000      -0.319010        -8.6807
 235   2.0000      -0.309727        -8.4281
 236   2.0000      -0.303332        -8.2541
 237   2.0000      -0.252817        -6.8795
 238   0.0000      -0.106508        -2.8982
 239   0.0000      -0.098483        -2.6798
 240   0.0000      -0.075134        -2.0445
 241   0.0000      -0.058624        -1.5952
 242   0.0000      -0.050103        -1.3634

MULLIKEN ATOMIC CHARGES
-----------------------
   0 C :    0.030878
   1 C :   -0.126982
   2 S :    0.192124
   3 C :   -0.170306
   4 Cl:    0.003816
   5 C :    0.072822
   6 C :    0.143181
   7 O :   -0.124954
   8 C :   -0.088772
   9 C :    0.286806
  10 C :   -0.322902
  11 C :   -0.193478
  12 N :    0.159407
  13 C :   -0.196720
  14 N :    0.169887
  15 C :   -0.033621
  16 C :    0.055103
  17 C :   -0.020711
  18 C :    0.094579
  19 N :    0.220547
  20 O :   -0.232678
  21 O :   -0.216892
  22 C :    0.113712
  23 C :   -0.045849
  24 C :    0.101059
  25 C :   -0.043754
  26 C :    0.091764
  27 C :   -0.177423
  28 S :    0.176018
  29 C :   -0.132984
  30 C :    0.126920
  31 C :   -0.030832
  32 S :    0.152476
  33 C :   -0.117835
  34 C :    0.047443
  35 O :   -0.172203
  36 C :    0.028670
  37 C :   -0.010445
  38 C :   -0.014337
  39 C :    0.075902
  40 C :   -0.012357
  41 C :    0.052328
  42 C :    0.029582
  43 N :   -0.033465
  44 C :   -0.092473
  45 N :   -0.069568
  46 C :    0.041440
  47 C :    0.095832
  48 C :   -0.112533
  49 C :    0.134415
  50 O :   -0.120024
  51 C :    0.081381
  52 C :   -0.168708
  53 S :    0.187313
  54 C :   -0.125339
  55 C :    0.014744
  56 C :    0.297052
  57 C :   -0.297363
  58 C :   -0.199623
  59 N :    0.154956
  60 C :   -0.179292
  61 N :    0.160535
  62 Cl:    0.001796
  63 H :    0.054919
  64 H :    0.037503
  65 H :    0.003783
  66 H :   -0.005578
  67 H :   -0.002027
  68 H :    0.004346
  69 H :   -0.006152
  70 H :    0.023529
  71 H :    0.024319
  72 H :    0.014731
  73 H :    0.030908
  74 H :    0.031163
  75 H :   -0.002926
  76 H :   -0.008668
  77 H :   -0.014948
  78 H :    0.006443
  79 H :    0.008821
  80 H :    0.035899
  81 H :    0.053864
Sum of atomic charges:   -0.0000000

LOEWDIN ATOMIC CHARGES
----------------------
   0 C :   -0.060114
   1 C :   -0.147840
   2 S :    0.480814
   3 C :   -0.271484
   4 Cl:    0.195044
   5 C :   -0.117965
   6 C :    0.080162
   7 O :   -0.123287
   8 C :   -0.083484
   9 C :    0.073818
  10 C :   -0.131847
  11 C :   -0.015219
  12 N :   -0.047309
  13 C :   -0.026368
  14 N :   -0.039769
  15 C :    0.079555
  16 C :   -0.042606
  17 C :    0.024290
  18 C :   -0.029782
  19 N :    0.278404
  20 O :   -0.200290
  21 O :   -0.190192
  22 C :    0.011725
  23 C :   -0.008214
  24 C :    0.041088
  25 C :   -0.035732
  26 C :   -0.015548
  27 C :   -0.193087
  28 S :    0.480273
  29 C :   -0.168470
  30 C :   -0.071229
  31 C :   -0.177597
  32 S :    0.445940
  33 C :   -0.186574
  34 C :    0.061432
  35 O :   -0.145454
  36 C :   -0.055087
  37 C :   -0.046433
  38 C :   -0.028262
  39 C :   -0.021895
  40 C :   -0.023256
  41 C :   -0.053035
  42 C :    0.054013
  43 N :   -0.059640
  44 C :    0.009440
  45 N :   -0.066044
  46 C :    0.059788
  47 C :    0.065520
  48 C :   -0.058704
  49 C :    0.082152
  50 O :   -0.124118
  51 C :   -0.119038
  52 C :   -0.272028
  53 S :    0.477175
  54 C :   -0.152592
  55 C :   -0.055302
  56 C :    0.075257
  57 C :   -0.118754
  58 C :   -0.015629
  59 N :   -0.049127
  60 C :   -0.017368
  61 N :   -0.052730
  62 Cl:    0.193478
  63 H :    0.038313
  64 H :    0.048964
  65 H :    0.043015
  66 H :    0.038116
  67 H :    0.036848
  68 H :    0.022568
  69 H :    0.028856
  70 H :    0.031299
  71 H :    0.039696
  72 H :    0.020212
  73 H :    0.031098
  74 H :    0.032344
  75 H :    0.032333
  76 H :    0.031310
  77 H :    0.029877
  78 H :    0.026740
  79 H :    0.025337
  80 H :    0.054315
  81 H :    0.037902

  Mayer bond orders larger than 0.100000
B(  0-C ,  1-C ) :   1.5414 B(  0-C ,  5-C ) :   1.2191 B(  0-C ,  9-C ) :   1.0047
B(  1-C ,  2-S ) :   1.1655 B(  1-C , 63-H ) :   0.9544 B(  2-S ,  3-C ) :   1.1540
B(  3-C ,  4-Cl) :   1.1321 B(  3-C ,  5-C ) :   1.4741 B(  5-C ,  6-C ) :   0.9544
B(  6-C ,  7-O ) :   2.2440 B(  6-C ,  8-C ) :   0.9203 B(  8-C ,  9-C ) :   1.0462
B(  8-C , 15-C ) :   1.6868 B(  9-C , 10-C ) :   1.6697 B( 10-C , 11-C ) :   1.1437
B( 10-C , 13-C ) :   1.1344 B( 11-C , 12-N ) :   2.9934 B( 13-C , 14-N ) :   2.9868
B( 15-C , 16-C ) :   1.0598 B( 15-C , 64-H ) :   0.9498 B( 16-C , 17-C ) :   1.2892
B( 16-C , 24-C ) :   1.3328 B( 17-C , 18-C ) :   1.4042 B( 17-C , 65-H ) :   0.9976
B( 18-C , 19-N ) :   0.8546 B( 18-C , 22-C ) :   1.3416 B( 19-N , 20-O ) :   1.5336
B( 19-N , 21-O ) :   1.5521 B( 20-O , 21-O ) :   0.2727 B( 22-C , 23-C ) :   1.3233
B( 22-C , 25-C ) :   1.0952 B( 23-C , 24-C ) :   1.4150 B( 23-C , 66-H ) :   0.9954
B( 24-C , 67-H ) :   0.9833 B( 25-C , 26-C ) :   1.6875 B( 25-C , 68-H ) :   0.9505
B( 26-C , 27-C ) :   1.1721 B( 26-C , 69-H ) :   0.9486 B( 27-C , 28-S ) :   1.1290
B( 27-C , 29-C ) :   0.1010 B( 27-C , 31-C ) :   1.4649 B( 28-S , 29-C ) :   1.1478
B( 29-C , 30-C ) :   1.3620 B( 29-C , 39-C ) :   1.1419 B( 30-C , 31-C ) :   1.2646
B( 30-C , 38-C ) :   1.1590 B( 31-C , 32-S ) :   1.0657 B( 32-S , 33-C ) :   1.0659
B( 33-C , 34-C ) :   0.9364 B( 33-C , 38-C ) :   1.6069 B( 34-C , 35-O ) :   2.2121
B( 34-C , 36-C ) :   1.0468 B( 36-C , 37-C ) :   1.0883 B( 36-C , 70-H ) :   0.9260
B( 36-C , 71-H ) :   0.9196 B( 37-C , 72-H ) :   0.9742 B( 37-C , 73-H ) :   0.9692
B( 37-C , 74-H ) :   0.9671 B( 38-C , 75-H ) :   0.9790 B( 39-C , 40-C ) :   1.6790
B( 39-C , 76-H ) :   0.9505 B( 40-C , 41-C ) :   1.0921 B( 40-C , 77-H ) :   0.9754
B( 41-C , 42-C ) :   1.2942 B( 41-C , 46-C ) :   1.2974 B( 42-C , 43-N ) :   1.5749
B( 42-C , 78-H ) :   0.9873 B( 43-N , 44-C ) :   1.5058 B( 44-C , 45-N ) :   1.4665
B( 44-C , 47-C ) :   1.0017 B( 45-N , 46-C ) :   1.5710 B( 46-C , 79-H ) :   0.9815
B( 47-C , 48-C ) :   1.7408 B( 47-C , 80-H ) :   0.9475 B( 48-C , 49-C ) :   0.9219
B( 48-C , 56-C ) :   1.0077 B( 49-C , 50-O ) :   2.2940 B( 49-C , 51-C ) :   0.9221
B( 51-C , 52-C ) :   1.4828 B( 51-C , 55-C ) :   1.2203 B( 52-C , 53-S ) :   1.1549
B( 52-C , 62-Cl) :   1.1303 B( 53-S , 54-C ) :   1.1598 B( 54-C , 55-C ) :   1.5498
B( 54-C , 81-H ) :   0.9555 B( 55-C , 56-C ) :   1.0141 B( 56-C , 57-C ) :   1.7000
B( 57-C , 58-C ) :   1.1375 B( 57-C , 60-C ) :   1.1498 B( 58-C , 59-N ) :   3.0004
B( 60-C , 61-N ) :   2.9886

-----------------------------------------------------------------------------
         ABSORPTION SPECTRUM VIA TRANSITION ELECTRIC DIPOLE MOMENTS
-----------------------------------------------------------------------------
State   Energy  Wavelength   fosc         T2         TX        TY        TZ
        (cm-1)    (nm)                  (au**2)     (au)      (au)      (au)
-----------------------------------------------------------------------------
   0   17933.9    557.6   1.744391265  32.02174   0.89360   4.31495   3.55027
   1   21055.2    474.9   0.101279643   1.58358   0.88479  -0.86456  -0.23075
   2   24454.5    408.9   0.087300036   1.17525  -0.09469  -0.55398  -0.92703
   3   26260.1    380.8   0.054499604   0.68324   0.04106   0.10318   0.81909
   4   26335.6    379.7   0.022268258   0.27837   0.01287   0.15344   0.50464
   5   27085.8    369.2   0.041666054   0.50643   0.39054  -0.58171   0.12458
   6   28068.4    356.3   0.028134984   0.32999   0.28832   0.28099  -0.40977
   7   29463.0    339.4   0.006150751   0.06873   0.18873   0.12199   0.13500
   8   29618.4    337.6   0.030540066   0.33946  -0.52243   0.25453  -0.04167
   9   30102.9    332.2   0.055247406   0.60420   0.66871  -0.28142   0.27897
  10   30605.3    326.7   0.037774545   0.40633  -0.62661  -0.04075   0.10970
  11   31259.9    319.9   0.098751687   1.04000  -0.06754  -0.42191  -0.92597
  12   32024.6    312.3   0.470592699   4.83768   0.43241   1.74663   1.26491
  13   32780.8    305.1   0.085406452   0.85772  -0.07405  -0.33131  -0.86167
  14   33298.3    300.3   0.069943771   0.69152  -0.44444   0.58888  -0.38367
  15   33577.0    297.8   0.113176206   1.10966   0.50127  -0.79683   0.47270
  16   33865.9    295.3   0.158425021   1.54006  -0.79915  -0.43914  -0.84177
  17   33910.5    294.9   0.122772352   1.19190  -0.51108  -0.67409  -0.69014
  18   34079.5    293.4   0.044854885   0.43330  -0.39628   0.47339  -0.22840
  19   34528.8    289.6   0.015094399   0.14392   0.37319  -0.06470   0.02151
  20   35107.8    284.8   0.158432096   1.48564   0.18087  -0.41012  -1.13346
  21   35583.9    281.0   0.091900249   0.85024  -0.54544  -0.27212  -0.69187
  22   35610.7    280.8   0.088187398   0.81527   0.50219  -0.55144  -0.50891
  23   36432.6    274.5   0.049852761   0.45048  -0.17185   0.12852   0.63595
  24   36740.2    272.2   0.065758156   0.58923   0.57218   0.14096   0.49190
  25   36963.1    270.5   0.011798668   0.10508   0.11152  -0.28512  -0.10655
  26   37096.4    269.6   0.014873075   0.13199   0.31819   0.16343   0.06355
  27   37794.9    264.6   0.505247336   4.40095  -1.75309   0.16643  -1.14014
  28   38064.1    262.7   0.199508542   1.72552  -1.25941  -0.09224  -0.36179
  29   38524.9    259.6   0.141964241   1.21315  -0.99325   0.44275  -0.17486
  30   38622.4    258.9   0.151521838   1.29155  -0.23116  -0.29958  -1.07162
  31   38880.1    257.2   0.374505609   3.17107   0.94717   0.22840   1.49056
  32   39333.2    254.2   0.030862323   0.25831  -0.21546  -0.04549  -0.45806
  33   39785.8    251.3   0.016923253   0.14003   0.02905  -0.24146  -0.28441
  34   40111.9    249.3   0.064123238   0.52628  -0.02109  -0.54617  -0.47700

FINAL SINGLE POINT ENERGY     -4994.656483244291

DIPOLE MOMENT
-------------
                                X             Y             Z
Electronic contribution:    -21.38364      14.99664      -9.07163
Nuclear contribution   :     22.29611     -15.40642       9.13329
                        -----------------------------------------
Total Dipole Moment    :      0.91247      -0.40978       0.06166
                        -----------------------------------------
Magnitude (a.u.)       :      1.00216
Magnitude (Debye)      :      2.54728

Rotational constants in cm-1:     0.002436     0.000224     0.000211
Rotational constants in MHz :    73.029054     6.723000     6.331962

                             ****ORCA TERMINATED NORMALLY****
TOTAL RUN TIME: 0 days 0 hours 6 minutes 46 seconds 740 msec
