                         Program Version 4.2.0 -  RELEASE  -
|  1> # ORCA input file
|  2> # SCF done       -167.969597901882          0.000570375000
|  3> ! CAM-B3LYP def2-SVP def2/J RIJCOSX Grid4 TightSCF
|  4> %maxcore 5000
|  5> %tddft
|  6>     Mode sTDDFT
|  7>     Ethresh 5.0
|  8>     maxcore 5000
|  9> end
| 10>
| 11> %pal
| 12>   nprocs 6
| 13>   end
| 14> * xyz 0 1
| 15>    C       -5.76177        -1.20192         1.68432
| 16>    N       -6.23430         0.03347         1.99986
| 17>    C       -7.38712         0.31296         2.81901
| 18>    C       -7.08823         0.09957         4.30048
| 19>    C       -5.41030         1.05014         1.47195
| 20>    O       -5.63361         2.23822         1.62058
| 21>    C       -4.36891         0.33260         0.78056
| 22>    C       -4.62531        -1.06703         0.93711
| 23>    C       -3.58234        -1.79266         0.23881
| 24>    O       -3.36760        -2.97352         0.08941
| 25>    N       -2.75806        -0.77781        -0.29113
| 26>    C       -1.61521        -1.09812        -1.11143
| 27>    C       -1.90926        -0.91333        -2.59827
| 28>    C       -3.21786         0.48214         0.01899
| 29>    C       -2.57229         1.67519        -0.39596
| 30>    C       -3.06023         2.90731        -0.09985
| 31>    C       -2.45221         4.11237        -0.51915
| 32>    S       -3.15600         5.65720        -0.10386
| 33>    C       -1.93307         6.57388        -0.94798
| 34>    C       -1.03015         5.69028        -1.51045
| 35>    C       -1.31494         4.33225        -1.27538
| 36>    S       -0.10886         3.34178        -2.04654
| 37>    C        0.70851         4.81381        -2.63793
| 38>    S        2.05564         4.82823        -3.53208
| 39>    O        0.07658         5.92601        -2.25346
| 40>    C       -1.97956         7.99452        -0.99438
| 41>    C       -1.07413         8.75434        -1.64564
| 42>    C       -1.09055        10.19182        -1.74842
| 43>    C       -0.07522        10.82601        -2.46653
| 44>    C       -0.04556        12.20242        -2.61023
| 45>    N        1.07686        12.75316        -3.32753
| 46>    O        1.64983        12.02245        -4.10634
| 47>    O        1.39335        13.90454        -3.10695
| 48>    C       -1.04402        13.02470        -2.05299
| 49>    C       -2.05497        12.37306        -1.33205
| 50>    C       -2.07903        11.00787        -1.17612
| 51>    C       -1.08756        14.45266        -2.26574
| 52>    C       -1.64326        15.33216        -1.41158
| 53>    C       -1.70894        16.73977        -1.65079
| 54>    S       -2.56187        17.75950        -0.54349
| 55>    C       -2.26405        19.16390        -1.51301
| 56>    C       -2.72989        20.43698        -1.03154
| 57>    O       -2.65992        21.49700        -1.61583
| 58>    C       -1.50408        18.83979        -2.64047
| 59>    C       -1.17540        17.47662        -2.68618
| 60>    C       -1.03327        19.77063        -3.64066
| 61>    C       -1.70544        20.76682        -4.24406
| 62>    C       -0.94239        21.82453        -4.99102
| 63>    O        0.19959        21.74942        -5.36889
| 64>    C       -1.88660        22.94124        -5.08594
| 65>    C       -1.86370        24.23731        -5.50865
| 66>    S       -3.42584        24.98444        -5.27381
| 67>    C       -4.09504        23.53684        -4.61780
| 68>    C       -3.16778        22.54333        -4.57608
| 69>    C       -3.11065        21.15349        -4.17793
| 70>    C       -4.19391        20.34548        -3.98030
| 71>    C       -4.13817        18.94974        -3.80243
| 72>    N       -4.15716        17.80626        -3.69957
| 73>    C       -5.50756        20.86156        -3.99088
| 74>    N       -6.58122        21.26440        -3.98869
| 75>   Cl       -0.56667        25.09529        -6.17833
| 76>    H       -6.27345        -2.08944         2.00761
| 77>    H       -8.21623        -0.32599         2.50113
| 78>    H       -7.64922         1.35887         2.63816
| 79>    H       -6.79900        -0.93186         4.48960
| 80>    H       -7.97011         0.32912         4.89173
| 81>    H       -6.27751         0.75185         4.61569
| 82>    H       -1.38830        -2.14915        -0.91159
| 83>    H       -0.76004        -0.48857        -0.80560
| 84>    H       -2.73341        -1.55691        -2.89577
| 85>    H       -1.03223        -1.17921        -3.18153
| 86>    H       -2.17707         0.11739        -2.82000
| 87>    H       -1.66145         1.58294        -0.97016
| 88>    H       -3.96853         3.00220         0.48016
| 89>    H       -2.81264         8.43701        -0.46833
| 90>    H       -0.25647         8.26382        -2.15501
| 91>    H        0.71684        10.24638        -2.91847
| 92>    H       -2.85492        12.96542        -0.91659
| 93>    H       -2.88342        10.56212        -0.61307
| 94>    H       -0.62848        14.82635        -3.16838
| 95>    H       -2.06458        14.99849        -0.47329
| 96>    H       -3.19252        20.37223        -0.02818
| 97>    H       -0.58361        17.04967        -3.47488
| 98>    H        0.01119        19.66520        -3.91901
| 99>    H       -5.11713        23.52508        -4.29509
|100> *
|101>
|102>                          ****END OF INPUT****

CARTESIAN COORDINATES (ANGSTROEM)
---------------------------------
  C     -5.761770   -1.201920    1.684320
  N     -6.234300    0.033470    1.999860
  C     -7.387120    0.312960    2.819010
  C     -7.088230    0.099570    4.300480
  C     -5.410300    1.050140    1.471950
  O     -5.633610    2.238220    1.620580
  C     -4.368910    0.332600    0.780560
  C     -4.625310   -1.067030    0.937110
  C     -3.582340   -1.792660    0.238810
  O     -3.367600   -2.973520    0.089410
  N     -2.758060   -0.777810   -0.291130
  C     -1.615210   -1.098120   -1.111430
  C     -1.909260   -0.913330   -2.598270
  C     -3.217860    0.482140    0.018990
  C     -2.572290    1.675190   -0.395960
  C     -3.060230    2.907310   -0.099850
  C     -2.452210    4.112370   -0.519150
  S     -3.156000    5.657200   -0.103860
  C     -1.933070    6.573880   -0.947980
  C     -1.030150    5.690280   -1.510450
  C     -1.314940    4.332250   -1.275380
  S     -0.108860    3.341780   -2.046540
  C      0.708510    4.813810   -2.637930
  S      2.055640    4.828230   -3.532080
  O      0.076580    5.926010   -2.253460
  C     -1.979560    7.994520   -0.994380
  C     -1.074130    8.754340   -1.645640
  C     -1.090550   10.191820   -1.748420
  C     -0.075220   10.826010   -2.466530
  C     -0.045560   12.202420   -2.610230
  N      1.076860   12.753160   -3.327530
  O      1.649830   12.022450   -4.106340
  O      1.393350   13.904540   -3.106950
  C     -1.044020   13.024700   -2.052990
  C     -2.054970   12.373060   -1.332050
  C     -2.079030   11.007870   -1.176120
  C     -1.087560   14.452660   -2.265740
  C     -1.643260   15.332160   -1.411580
  C     -1.708940   16.739770   -1.650790
  S     -2.561870   17.759500   -0.543490
  C     -2.264050   19.163900   -1.513010
  C     -2.729890   20.436980   -1.031540
  O     -2.659920   21.497000   -1.615830
  C     -1.504080   18.839790   -2.640470
  C     -1.175400   17.476620   -2.686180
  C     -1.033270   19.770630   -3.640660
  C     -1.705440   20.766820   -4.244060
  C     -0.942390   21.824530   -4.991020
  O      0.199590   21.749420   -5.368890
  C     -1.886600   22.941240   -5.085940
  C     -1.863700   24.237310   -5.508650
  S     -3.425840   24.984440   -5.273810
  C     -4.095040   23.536840   -4.617800
  C     -3.167780   22.543330   -4.576080
  C     -3.110650   21.153490   -4.177930
  C     -4.193910   20.345480   -3.980300
  C     -4.138170   18.949740   -3.802430
  N     -4.157160   17.806260   -3.699570
  C     -5.507560   20.861560   -3.990880
  N     -6.581220   21.264400   -3.988690
  Cl    -0.566670   25.095290   -6.178330
  H     -6.273450   -2.089440    2.007610
  H     -8.216230   -0.325990    2.501130
  H     -7.649220    1.358870    2.638160
  H     -6.799000   -0.931860    4.489600
  H     -7.970110    0.329120    4.891730
  H     -6.277510    0.751850    4.615690
  H     -1.388300   -2.149150   -0.911590
  H     -0.760040   -0.488570   -0.805600
  H     -2.733410   -1.556910   -2.895770
  H     -1.032230   -1.179210   -3.181530
  H     -2.177070    0.117390   -2.820000
  H     -1.661450    1.582940   -0.970160
  H     -3.968530    3.002200    0.480160
  H     -2.812640    8.437010   -0.468330
  H     -0.256470    8.263820   -2.155010
  H      0.716840   10.246380   -2.918470
  H     -2.854920   12.965420   -0.916590
  H     -2.883420   10.562120   -0.613070
  H     -0.628480   14.826350   -3.168380
  H     -2.064580   14.998490   -0.473290
  H     -3.192520   20.372230   -0.028180
  H     -0.583610   17.049670   -3.474880
  H      0.011190   19.665200   -3.919010
  H     -5.117130   23.525080   -4.295090

 Total Charge           Charge          ....    0
 Multiplicity           Mult            ....    1
 Number of Electrons    NEL             ....  470
 Basis Dimension        Dim             ....  998

ORBITAL ENERGIES
----------------

  NO   OCC          E(Eh)            E(eV)
   0   2.0000    -101.613472     -2765.0432
   1   2.0000     -88.990279     -2421.5486
   2   2.0000     -88.989542     -2421.5285
   3   2.0000     -88.983618     -2421.3673
   4   2.0000     -88.978956     -2421.2405
   5   2.0000     -88.903116     -2419.1768
   6   2.0000     -19.326971      -525.9136
   7   2.0000     -19.250402      -523.8301
   8   2.0000     -19.248966      -523.7910
   9   2.0000     -19.220320      -523.0115
  10   2.0000     -19.217567      -522.9366
  11   2.0000     -19.191415      -522.2249
  12   2.0000     -19.186996      -522.1047
  13   2.0000     -14.655306      -398.7911
  14   2.0000     -14.454449      -393.3256
  15   2.0000     -14.452179      -393.2638
  16   2.0000     -14.416934      -392.3047
  17   2.0000     -14.415491      -392.2655
  18   2.0000     -10.421270      -283.5772
  19   2.0000     -10.373468      -282.2764
  20   2.0000     -10.373283      -282.2714
  21   2.0000     -10.373012      -282.2640
  22   2.0000     -10.371926      -282.2345
  23   2.0000     -10.369672      -282.1731
  24   2.0000     -10.369042      -282.1560
  25   2.0000     -10.345755      -281.5223
  26   2.0000     -10.343998      -281.4745
  27   2.0000     -10.343373      -281.4575
  28   2.0000     -10.339579      -281.3542
  29   2.0000     -10.335088      -281.2320
  30   2.0000     -10.334317      -281.2111
  31   2.0000     -10.332807      -281.1700
  32   2.0000     -10.329097      -281.0690
  33   2.0000     -10.328268      -281.0465
  34   2.0000     -10.324125      -280.9337
  35   2.0000     -10.320277      -280.8290
  36   2.0000     -10.318866      -280.7906
  37   2.0000     -10.318391      -280.7777
  38   2.0000     -10.316382      -280.7230
  39   2.0000     -10.314383      -280.6686
  40   2.0000     -10.313403      -280.6420
  41   2.0000     -10.310567      -280.5648
  42   2.0000     -10.309112      -280.5252
  43   2.0000     -10.308707      -280.5142
  44   2.0000     -10.307895      -280.4921
  45   2.0000     -10.307716      -280.4872
  46   2.0000     -10.307040      -280.4688
  47   2.0000     -10.304603      -280.4025
  48   2.0000     -10.304487      -280.3993
  49   2.0000     -10.304135      -280.3898
  50   2.0000     -10.302494      -280.3451
  51   2.0000     -10.301861      -280.3279
  52   2.0000     -10.299869      -280.2737
  53   2.0000     -10.299372      -280.2602
  54   2.0000     -10.298751      -280.2433
  55   2.0000     -10.296430      -280.1801
  56   2.0000     -10.292277      -280.0671
  57   2.0000     -10.266618      -279.3689
  58   2.0000     -10.264876      -279.3215
  59   2.0000     -10.259877      -279.1855
  60   2.0000     -10.259078      -279.1637
  61   2.0000      -9.568296      -260.3666
  62   2.0000      -8.085429      -220.0157
  63   2.0000      -8.085223      -220.0101
  64   2.0000      -8.078688      -219.8323
  65   2.0000      -8.074698      -219.7237
  66   2.0000      -8.000847      -217.7141
  67   2.0000      -7.338931      -199.7025
  68   2.0000      -7.328324      -199.4138
  69   2.0000      -7.327790      -199.3993
  70   2.0000      -6.055423      -164.7764
  71   2.0000      -6.054575      -164.7534
  72   2.0000      -6.051167      -164.6606
  73   2.0000      -6.049993      -164.6287
  74   2.0000      -6.048111      -164.5775
  75   2.0000      -6.047527      -164.5616
  76   2.0000      -6.046054      -164.5215
  77   2.0000      -6.044084      -164.4679
  78   2.0000      -6.043682      -164.4569
  79   2.0000      -6.040418      -164.3681
  80   2.0000      -6.039735      -164.3495
  81   2.0000      -6.037204      -164.2807
  82   2.0000      -5.970412      -162.4632
  83   2.0000      -5.967520      -162.3845
  84   2.0000      -5.960823      -162.2022
  85   2.0000      -1.331018       -36.2188
  86   2.0000      -1.249188       -33.9921
  87   2.0000      -1.149319       -31.2746
  88   2.0000      -1.134950       -30.8835
  89   2.0000      -1.132754       -30.8238
  90   2.0000      -1.132191       -30.8085
  91   2.0000      -1.125523       -30.6270
  92   2.0000      -1.063152       -28.9298
  93   2.0000      -1.054753       -28.7013
  94   2.0000      -1.033949       -28.1352
  95   2.0000      -1.019445       -27.7405
  96   2.0000      -1.015376       -27.6298
  97   2.0000      -1.007109       -27.4048
  98   2.0000      -0.998828       -27.1795
  99   2.0000      -0.993925       -27.0461
 100   2.0000      -0.984044       -26.7772
 101   2.0000      -0.956902       -26.0386
 102   2.0000      -0.950750       -25.8712
 103   2.0000      -0.935071       -25.4446
 104   2.0000      -0.929227       -25.2855
 105   2.0000      -0.920957       -25.0605
 106   2.0000      -0.917140       -24.9566
 107   2.0000      -0.906722       -24.6732
 108   2.0000      -0.901737       -24.5375
 109   2.0000      -0.896194       -24.3867
 110   2.0000      -0.890552       -24.2331
 111   2.0000      -0.876445       -23.8493
 112   2.0000      -0.870931       -23.6992
 113   2.0000      -0.848842       -23.0982
 114   2.0000      -0.840734       -22.8775
 115   2.0000      -0.828935       -22.5565
 116   2.0000      -0.826453       -22.4889
 117   2.0000      -0.821302       -22.3488
 118   2.0000      -0.810925       -22.0664
 119   2.0000      -0.801228       -21.8025
 120   2.0000      -0.795557       -21.6482
 121   2.0000      -0.781498       -21.2656
 122   2.0000      -0.777955       -21.1692
 123   2.0000      -0.761929       -20.7332
 124   2.0000      -0.756120       -20.5751
 125   2.0000      -0.751061       -20.4374
 126   2.0000      -0.737278       -20.0623
 127   2.0000      -0.725623       -19.7452
 128   2.0000      -0.719298       -19.5731
 129   2.0000      -0.710826       -19.3426
 130   2.0000      -0.703837       -19.1524
 131   2.0000      -0.701217       -19.0811
 132   2.0000      -0.693993       -18.8845
 133   2.0000      -0.685676       -18.6582
 134   2.0000      -0.673918       -18.3382
 135   2.0000      -0.672905       -18.3107
 136   2.0000      -0.671979       -18.2855
 137   2.0000      -0.665537       -18.1102
 138   2.0000      -0.652497       -17.7553
 139   2.0000      -0.645991       -17.5783
 140   2.0000      -0.637972       -17.3601
 141   2.0000      -0.630715       -17.1626
 142   2.0000      -0.621048       -16.8996
 143   2.0000      -0.616081       -16.7644
 144   2.0000      -0.612447       -16.6655
 145   2.0000      -0.610223       -16.6050
 146   2.0000      -0.609053       -16.5732
 147   2.0000      -0.605956       -16.4889
 148   2.0000      -0.598881       -16.2964
 149   2.0000      -0.595869       -16.2144
 150   2.0000      -0.593465       -16.1490
 151   2.0000      -0.590396       -16.0655
 152   2.0000      -0.586546       -15.9607
 153   2.0000      -0.578415       -15.7395
 154   2.0000      -0.577492       -15.7144
 155   2.0000      -0.573529       -15.6065
 156   2.0000      -0.567983       -15.4556
 157   2.0000      -0.564630       -15.3644
 158   2.0000      -0.561968       -15.2919
 159   2.0000      -0.552529       -15.0351
 160   2.0000      -0.546965       -14.8837
 161   2.0000      -0.542671       -14.7668
 162   2.0000      -0.536712       -14.6047
 163   2.0000      -0.532895       -14.5008
 164   2.0000      -0.531764       -14.4700
 165   2.0000      -0.529390       -14.4054
 166   2.0000      -0.529219       -14.4008
 167   2.0000      -0.527357       -14.3501
 168   2.0000      -0.524932       -14.2841
 169   2.0000      -0.520766       -14.1708
 170   2.0000      -0.516933       -14.0665
 171   2.0000      -0.513333       -13.9685
 172   2.0000      -0.512638       -13.9496
 173   2.0000      -0.508790       -13.8449
 174   2.0000      -0.504474       -13.7274
 175   2.0000      -0.502877       -13.6840
 176   2.0000      -0.501919       -13.6579
 177   2.0000      -0.499541       -13.5932
 178   2.0000      -0.496652       -13.5146
 179   2.0000      -0.494792       -13.4640
 180   2.0000      -0.492543       -13.4028
 181   2.0000      -0.490239       -13.3401
 182   2.0000      -0.481515       -13.1027
 183   2.0000      -0.480924       -13.0866
 184   2.0000      -0.478368       -13.0170
 185   2.0000      -0.473453       -12.8833
 186   2.0000      -0.471969       -12.8429
 187   2.0000      -0.469303       -12.7704
 188   2.0000      -0.467092       -12.7102
 189   2.0000      -0.464322       -12.6349
 190   2.0000      -0.460830       -12.5398
 191   2.0000      -0.459626       -12.5071
 192   2.0000      -0.456383       -12.4188
 193   2.0000      -0.453366       -12.3367
 194   2.0000      -0.452714       -12.3190
 195   2.0000      -0.451579       -12.2881
 196   2.0000      -0.450715       -12.2646
 197   2.0000      -0.446063       -12.1380
 198   2.0000      -0.444358       -12.0916
 199   2.0000      -0.443477       -12.0676
 200   2.0000      -0.439340       -11.9550
 201   2.0000      -0.438356       -11.9283
 202   2.0000      -0.437682       -11.9099
 203   2.0000      -0.435320       -11.8457
 204   2.0000      -0.433154       -11.7867
 205   2.0000      -0.431400       -11.7390
 206   2.0000      -0.428779       -11.6677
 207   2.0000      -0.424809       -11.5596
 208   2.0000      -0.422973       -11.5097
 209   2.0000      -0.415073       -11.2947
 210   2.0000      -0.406864       -11.0713
 211   2.0000      -0.405640       -11.0380
 212   2.0000      -0.399755       -10.8779
 213   2.0000      -0.396651       -10.7934
 214   2.0000      -0.388893       -10.5823
 215   2.0000      -0.387080       -10.5330
 216   2.0000      -0.378513       -10.2999
 217   2.0000      -0.377720       -10.2783
 218   2.0000      -0.370602       -10.0846
 219   2.0000      -0.365523        -9.9464
 220   2.0000      -0.354055        -9.6343
 221   2.0000      -0.347110        -9.4454
 222   2.0000      -0.346623        -9.4321
 223   2.0000      -0.340014        -9.2523
 224   2.0000      -0.337570        -9.1858
 225   2.0000      -0.330277        -8.9873
 226   2.0000      -0.329649        -8.9702
 227   2.0000      -0.320449        -8.7199
 228   2.0000      -0.314087        -8.5467
 229   2.0000      -0.308974        -8.4076
 230   2.0000      -0.304415        -8.2836
 231   2.0000      -0.298276        -8.1165
 232   2.0000      -0.296609        -8.0712
 233   2.0000      -0.274141        -7.4597
 234   2.0000      -0.244469        -6.6524
 235   0.0000      -0.095369        -2.5951
 236   0.0000      -0.088878        -2.4185
 237   0.0000      -0.067841        -1.8460
 238   0.0000      -0.045186        -1.2296
 239   0.0000      -0.041970        -1.1421

MULLIKEN ATOMIC CHARGES
-----------------------
   0 C :    0.034801
   1 N :   -0.256945
   2 C :    0.113989
   3 C :   -0.001541
   4 C :    0.173943
   5 O :   -0.221306
   6 C :   -0.107834
   7 C :    0.007911
   8 C :    0.162145
   9 O :   -0.183077
  10 N :   -0.270751
  11 C :    0.100896
  12 C :    0.003208
  13 C :    0.152665
  14 C :   -0.033138
  15 C :    0.088881
  16 C :   -0.207423
  17 S :    0.186807
  18 C :   -0.179911
  19 C :    0.211959
  20 C :   -0.008442
  21 S :    0.141799
  22 C :    0.064833
  23 S :   -0.117798
  24 O :   -0.157111
  25 C :    0.086870
  26 C :   -0.018187
  27 C :    0.115825
  28 C :   -0.076588
  29 C :    0.147587
  30 N :    0.243224
  31 O :   -0.225881
  32 O :   -0.236215
  33 C :    0.057337
  34 C :   -0.026398
  35 C :    0.020283
  36 C :    0.013848
  37 C :    0.064842
  38 C :   -0.053312
  39 S :    0.166935
  40 C :   -0.189795
  41 C :    0.204887
  42 O :   -0.201228
  43 C :    0.080262
  44 C :   -0.001801
  45 C :    0.000312
  46 C :   -0.106802
  47 C :    0.131320
  48 O :   -0.123544
  49 C :    0.095624
  50 C :   -0.174356
  51 S :    0.184354
  52 C :   -0.120665
  53 C :    0.017718
  54 C :    0.320245
  55 C :   -0.330460
  56 C :   -0.196193
  57 N :    0.171632
  58 C :   -0.191793
  59 N :    0.157435
  60 Cl:   -0.001683
  61 H :    0.014868
  62 H :    0.018294
  63 H :    0.041163
  64 H :    0.015324
  65 H :    0.023346
  66 H :    0.030217
  67 H :    0.044376
  68 H :    0.022227
  69 H :    0.030421
  70 H :    0.025165
  71 H :    0.011597
  72 H :   -0.034082
  73 H :    0.001522
  74 H :   -0.023256
  75 H :    0.008493
  76 H :    0.011445
  77 H :   -0.009959
  78 H :   -0.013896
  79 H :    0.016651
  80 H :   -0.011068
  81 H :   -0.013626
  82 H :   -0.000495
  83 H :    0.034734
  84 H :    0.052341
Sum of atomic charges:    0.0000000

LOEWDIN ATOMIC CHARGES
----------------------
   0 C :    0.086905
   1 N :    0.001626
   2 C :    0.038681
   3 C :   -0.060384
   4 C :    0.075882
   5 O :   -0.211518
   6 C :   -0.133580
   7 C :   -0.126922
   8 C :    0.082559
   9 O :   -0.187972
  10 N :   -0.009275
  11 C :    0.035473
  12 C :   -0.061333
  13 C :    0.084745
  14 C :   -0.054892
  15 C :    0.013020
  16 C :   -0.193045
  17 S :    0.473829
  18 C :   -0.184680
  19 C :   -0.007473
  20 C :   -0.204055
  21 S :    0.393285
  22 C :   -0.236933
  23 S :    0.013459
  24 O :   -0.006614
  25 C :   -0.036109
  26 C :   -0.006315
  27 C :   -0.022752
  28 C :    0.011962
  29 C :   -0.025163
  30 N :    0.284706
  31 O :   -0.194087
  32 O :   -0.195907
  33 C :   -0.005046
  34 C :   -0.003338
  35 C :    0.011811
  36 C :    0.008364
  37 C :   -0.033948
  38 C :   -0.136424
  39 S :    0.483046
  40 C :   -0.234945
  41 C :    0.083989
  42 O :   -0.145813
  43 C :   -0.028796
  44 C :   -0.031390
  45 C :    0.062939
  46 C :   -0.057623
  47 C :    0.084497
  48 O :   -0.127559
  49 C :   -0.115190
  50 C :   -0.272789
  51 S :    0.477074
  52 C :   -0.147759
  53 C :   -0.048683
  54 C :    0.083210
  55 C :   -0.132037
  56 C :   -0.020491
  57 N :   -0.051815
  58 C :   -0.015068
  59 N :   -0.051349
  60 Cl:    0.191168
  61 H :    0.032504
  62 H :    0.024753
  63 H :    0.035826
  64 H :    0.022661
  65 H :    0.030234
  66 H :    0.031480
  67 H :    0.038505
  68 H :    0.021786
  69 H :    0.032644
  70 H :    0.031453
  71 H :    0.019656
  72 H :    0.016099
  73 H :    0.039303
  74 H :    0.028808
  75 H :    0.035044
  76 H :    0.043411
  77 H :    0.035290
  78 H :    0.032274
  79 H :    0.031853
  80 H :    0.027974
  81 H :   -0.001848
  82 H :    0.037160
  83 H :    0.051813
  84 H :    0.038162

  Mayer bond orders larger than 0.100000
B(  0-C ,  1-N ) :   1.1873 B(  0-C ,  7-C ) :   1.4584 B(  0-C , 61-H ) :   0.9908
B(  1-N ,  2-C ) :   0.9429 B(  1-N ,  4-C ) :   1.0625 B(  2-C ,  3-C ) :   1.1178
B(  2-C , 62-H ) :   0.9536 B(  2-C , 63-H ) :   0.9347 B(  3-C , 64-H ) :   0.9695
B(  3-C , 65-H ) :   0.9690 B(  3-C , 66-H ) :   0.9674 B(  4-C ,  5-O ) :   2.0047
B(  4-C ,  6-C ) :   1.0097 B(  5-O , 73-H ) :   0.1195 B(  6-C ,  7-C ) :   1.2025
B(  6-C , 13-C ) :   1.3717 B(  7-C ,  8-C ) :   0.9478 B(  8-C ,  9-O ) :   2.1796
B(  8-C , 10-N ) :   1.0148 B( 10-N , 11-C ) :   0.9464 B( 10-N , 13-C ) :   1.1592
B( 11-C , 12-C ) :   1.1188 B( 11-C , 67-H ) :   0.9270 B( 11-C , 68-H ) :   0.9493
B( 12-C , 69-H ) :   0.9638 B( 12-C , 70-H ) :   0.9680 B( 12-C , 71-H ) :   0.9678
B( 13-C , 14-C ) :   1.1769 B( 14-C , 15-C ) :   1.6007 B( 14-C , 72-H ) :   0.9535
B( 15-C , 16-C ) :   1.1589 B( 15-C , 73-H ) :   0.9358 B( 16-C , 17-S ) :   1.1204
B( 16-C , 18-C ) :   0.1047 B( 16-C , 20-C ) :   1.5059 B( 17-S , 18-C ) :   1.1133
B( 18-C , 19-C ) :   1.4941 B( 18-C , 25-C ) :   1.1215 B( 19-C , 20-C ) :   1.2811
B( 19-C , 24-O ) :   1.0718 B( 20-C , 21-S ) :   1.0074 B( 21-S , 22-C ) :   1.0453
B( 21-S , 23-S ) :   0.1168 B( 22-C , 23-S ) :   1.7856 B( 22-C , 24-O ) :   1.0825
B( 25-C , 26-C ) :   1.6774 B( 25-C , 74-H ) :   0.9507 B( 26-C , 27-C ) :   1.0788
B( 26-C , 75-H ) :   0.9828 B( 27-C , 28-C ) :   1.2897 B( 27-C , 35-C ) :   1.3104
B( 28-C , 29-C ) :   1.3652 B( 28-C , 76-H ) :   1.0015 B( 29-C , 30-N ) :   0.8790
B( 29-C , 33-C ) :   1.3456 B( 30-N , 31-O ) :   1.5623 B( 30-N , 32-O ) :   1.5175
B( 31-O , 32-O ) :   0.2653 B( 33-C , 34-C ) :   1.3314 B( 33-C , 36-C ) :   1.0716
B( 34-C , 35-C ) :   1.4284 B( 34-C , 77-H ) :   0.9858 B( 35-C , 78-H ) :   0.9885
B( 36-C , 37-C ) :   1.7635 B( 36-C , 79-H ) :   0.9425 B( 37-C , 38-C ) :   1.0966
B( 37-C , 80-H ) :   0.9584 B( 38-C , 39-S ) :   1.1620 B( 38-C , 44-C ) :   1.4715
B( 39-S , 40-C ) :   1.1095 B( 40-C , 41-C ) :   1.0434 B( 40-C , 43-C ) :   1.4282
B( 41-C , 42-O ) :   2.0857 B( 41-C , 81-H ) :   0.9547 B( 43-C , 44-C ) :   1.3007
B( 43-C , 45-C ) :   1.0051 B( 44-C , 82-H ) :   0.9986 B( 45-C , 46-C ) :   1.8122
B( 45-C , 83-H ) :   0.9410 B( 46-C , 47-C ) :   0.9278 B( 46-C , 54-C ) :   0.9861
B( 47-C , 48-O ) :   2.2883 B( 47-C , 49-C ) :   0.9242 B( 49-C , 50-C ) :   1.4753
B( 49-C , 53-C ) :   1.2262 B( 50-C , 51-S ) :   1.1556 B( 50-C , 60-Cl) :   1.1274
B( 51-S , 52-C ) :   1.1598 B( 52-C , 53-C ) :   1.5500 B( 52-C , 84-H ) :   0.9556
B( 53-C , 54-C ) :   1.0196 B( 54-C , 55-C ) :   1.6885 B( 55-C , 56-C ) :   1.1639
B( 55-C , 58-C ) :   1.1312 B( 56-C , 57-N ) :   3.0098 B( 58-C , 59-N ) :   3.0068

-----------------------------------------------------------------------------
         ABSORPTION SPECTRUM VIA TRANSITION ELECTRIC DIPOLE MOMENTS
-----------------------------------------------------------------------------
State   Energy  Wavelength   fosc         T2         TX        TY        TZ
        (cm-1)    (nm)                  (au**2)     (au)      (au)      (au)
-----------------------------------------------------------------------------
   0   18664.2    535.8   0.971571777  17.13728  -1.75338  -3.51109   1.31727
   1   23263.0    429.9   0.365654758   5.17464   0.58789  -2.11323  -0.60273
   2   24754.0    404.0   1.214070521  16.14631   0.53193  -3.97284   0.28265
   3   25881.7    386.4   0.091359125   1.16208   0.86970   0.57083  -0.28257
   4   26770.2    373.6   0.018101525   0.22261   0.14399   0.13073  -0.42987
   5   27683.0    361.2   0.053849684   0.64039  -0.34104  -0.48733  -0.53534
   6   27780.1    360.0   0.072846231   0.86328  -0.88062  -0.06173   0.28977
   7   28329.8    353.0   0.061779138   0.71792   0.72487  -0.04388  -0.43652
   8   28653.0    349.0   0.097040089   1.11496  -0.74727  -0.59321   0.45237
   9   29179.5    342.7   0.125115723   1.41160  -0.61224   0.88022   0.51182
  10   29620.5    337.6   0.059182524   0.65777  -0.09037   0.74581  -0.30557
  11   29738.4    336.3   0.000366139   0.00405   0.01750   0.04518   0.04130
  12   30459.0    328.3   0.200716984   2.16942  -0.65123   1.31818  -0.08791
  13   30935.5    323.3   0.071616394   0.76213   0.24977  -0.45236   0.70364
  14   32112.8    311.4   0.158003231   1.61981   0.21452   1.25434  -0.02033
  15   32487.7    307.8   0.001527049   0.01547   0.02854  -0.00700   0.12088
  16   32838.3    304.5   0.000444806   0.00446  -0.01410   0.05776  -0.03040
  17   33550.0    298.1   0.018554807   0.18207  -0.01938   0.30188  -0.30093
  18   34280.3    291.7   0.102177320   0.98126  -0.01321   0.98827  -0.06648
  19   34725.1    288.0   0.028737449   0.27245  -0.06061  -0.50008   0.13674
  20   34930.7    286.3   0.028002216   0.26391   0.31198   0.36433  -0.18396
  21   35070.4    285.1   0.000146735   0.00138   0.01182   0.00210   0.03512
  22   35347.7    282.9   0.054777418   0.51017   0.19609  -0.68040   0.09370
  23   35700.8    280.1   0.005501899   0.05074   0.06335   0.06091   0.20739
  24   35789.0    279.4   0.003456101   0.03179  -0.02335   0.16693  -0.05814
  25   36211.9    276.2   0.044482050   0.40440   0.51620  -0.10878  -0.35511
  26   36428.5    274.5   0.143551574   1.29731   0.40544   0.59023  -0.88575
  27   36596.7    273.2   0.020605316   0.18536   0.29692   0.31025  -0.03070
  28   37472.8    266.9   0.315833534   2.77471   0.11999  -1.65641  -0.12893
  29   37626.8    265.8   0.013895447   0.12158   0.25947  -0.21630  -0.08642
  30   38374.2    260.6   0.010760380   0.09231  -0.00356   0.30245   0.02867
  31   38445.6    260.1   0.032159132   0.27538  -0.36788   0.28035   0.24789
  32   38685.9    258.5   0.629558740   5.35746   1.09284   1.88764  -0.77458
  33   39053.3    256.1   0.041488520   0.34974   0.02724   0.49701  -0.31934
  34   39068.9    256.0   0.000868033   0.00731  -0.00544   0.06424  -0.05619
  35   39266.9    254.7   0.006578365   0.05515   0.17709   0.05112  -0.14553
  36   39568.8    252.7   0.093656830   0.77922   0.01547  -0.88252  -0.01230
  37   39967.5    250.2   0.161096072   1.32695   0.09614   1.04743  -0.46968

FINAL SINGLE POINT ENERGY     -4900.546379413155

DIPOLE MOMENT
-------------
                                X             Y             Z
Electronic contribution:     22.75616     124.19267     -37.67404
Nuclear contribution   :    -24.05343    -124.96619      39.66482
                        -----------------------------------------
Total Dipole Moment    :     -1.29727      -0.77351       1.99079
                        -----------------------------------------
Magnitude (a.u.)       :      2.49890
Magnitude (Debye)      :      6.35169

Rotational constants in cm-1:     0.002755     0.000217     0.000205
Rotational constants in MHz :    82.585575     6.501692     6.159726

                             ****ORCA TERMINATED NORMALLY****
TOTAL RUN TIME: 0 days 0 hours 6 minutes 19 seconds 648 msec
