                         Program Version 4.2.0 -  RELEASE  -
|  1> # ORCA input file
|  2> # SCF done       -174.485878714653          0.000586486354
|  3> ! CAM-B3LYP def2-SVP def2/J RIJCOSX Grid4 TightSCF
|  4> %maxcore 5000
|  5> %tddft
|  6>     Mode sTDDFT
|  7>     Ethresh 5.0
|  8>     maxcore 5000
|  9> end
| 10>
| 11> %pal
| 12>   nprocs 6
| 13>   end
| 14> * xyz 0 1
| 15>    C       -1.15915         1.03906         7.18615
| 16>    C       -1.57225        -0.09938         6.55116
| 17>    C       -0.84741        -1.29749         6.66596
| 18>    F       -1.34757        -2.37678         6.03188
| 19>    C        0.30633        -1.43032         7.41094
| 20>    C        0.75160        -0.25418         8.06100
| 21>    C        0.01764         0.97696         7.95140
| 22>    N        0.60221         1.96194         8.63612
| 23>    S        1.92533         1.38971         9.33614
| 24>    N        1.85047        -0.12120         8.80187
| 25>    C        1.02077        -2.67951         7.58676
| 26>    C        1.37080        -3.25841         8.78135
| 27>    N        1.07793        -2.80151        10.08218
| 28>    O        1.66508        -3.33793        11.00440
| 29>    O        0.24531        -1.92228        10.22015
| 30>    C        2.04607        -4.51575         8.52702
| 31>    C        2.04789        -4.73735         7.19505
| 32>    C        1.43999        -3.60545         6.53253
| 33>    C        1.38427        -3.35971         5.17859
| 34>    C        1.37279        -2.07328         4.55403
| 35>    C        1.56564        -2.23919         3.21939
| 36>    C        1.65096        -3.63954         2.91668
| 37>    N        1.81240        -4.04825         1.58422
| 38>    O        1.62207        -3.20939         0.71937
| 39>    O        2.15414        -5.19770         1.33779
| 40>    C        1.50000        -4.37179         4.10278
| 41>    C        1.22595        -5.72292         4.37951
| 42>    C        1.37594        -6.80607         3.55060
| 43>    C        1.04007        -8.10601         3.96282
| 44>    N        1.21121        -9.22066         3.17699
| 45>    C        1.76048        -9.24909         1.84057
| 46>    C        3.28383        -9.16205         1.84923
| 47>    C        0.82469       -10.40156         3.83307
| 48>    O        0.88652       -11.50796         3.34347
| 49>    C        0.36838        -9.94452         5.13243
| 50>    C        0.50232        -8.54829         5.18689
| 51>    C        0.04658        -8.12086         6.49251
| 52>    O       -0.01917        -7.02686         7.01501
| 53>    N       -0.33725        -9.31110         7.14732
| 54>    C       -0.88833        -9.23791         8.47896
| 55>    C       -2.41408        -9.30085         8.46571
| 56>    C       -0.15326       -10.41260         6.34649
| 57>    C       -0.36464       -11.78517         6.60169
| 58>    C       -0.89247       -12.40463         7.69189
| 59>    C       -0.99434       -13.81019         7.81737
| 60>    S       -0.40351       -14.92153         6.60944
| 61>    C       -0.88105       -16.29972         7.54808
| 62>    C       -1.48028       -15.89304         8.74537
| 63>    C       -1.53689       -14.49910         8.88541
| 64>    C       -1.99081       -16.73964         9.74572
| 65>    N       -2.42754       -17.36261        10.60434
| 66>    C       -0.61436       -17.59774         7.03650
| 67>    C       -0.91129       -18.75897         7.66196
| 68>    C       -0.62884       -20.07770         7.16622
| 69>    C        0.01584       -20.36885         5.97624
| 70>    C        0.25309       -21.69207         5.58258
| 71>    F        0.88901       -21.87500         4.40994
| 72>    C       -0.11730       -22.79232         6.31098
| 73>    C       -0.77489       -22.54209         7.52384
| 74>    C       -1.03116       -21.19191         7.95394
| 75>    N       -1.66134       -21.15572         9.12520
| 76>    S       -1.90497       -22.65891         9.63084
| 77>    N       -1.22989       -23.43856         8.40158
| 78>    H       -1.70918         1.96279         7.12004
| 79>    H       -2.47216        -0.11357         5.95655
| 80>    H        2.45038        -5.13393         9.30507
| 81>    H        2.51871        -5.55648         6.68947
| 82>    H        1.33692        -1.13705         5.07558
| 83>    H        1.65713        -1.47278         2.47255
| 84>    H        0.83500        -5.90762         5.37120
| 85>    H        1.78299        -6.67586         2.56025
| 86>    H        1.33399        -8.43246         1.25360
| 87>    H        1.44833       -10.20290         1.40658
| 88>    H        3.61706        -8.21945         2.27597
| 89>    H        3.65616        -9.23036         0.83140
| 90>    H        3.70313        -9.98030         2.42994
| 91>    H       -0.57336        -8.26951         8.87965
| 92>    H       -0.45438       -10.02677         9.09799
| 93>    H       -2.81121        -8.44257         7.92967
| 94>    H       -2.79300        -9.27736         9.48370
| 95>    H       -2.76992       -10.20500         7.97625
| 96>    H       -0.04136       -12.41019         5.77620
| 97>    H       -1.27206       -11.85022         8.53626
| 98>    H       -1.96268       -14.01325         9.74606
| 99>    H       -0.12729       -17.60828         6.07091
|100>    H       -1.40169       -18.74404         8.62486
|101>    H        0.35691       -19.58558         5.31884
|102>    H        0.08360       -23.79539         5.97584
|103> *
|104>
|105>                          ****END OF INPUT****

CARTESIAN COORDINATES (ANGSTROEM)
---------------------------------
  C     -1.159150    1.039060    7.186150
  C     -1.572250   -0.099380    6.551160
  C     -0.847410   -1.297490    6.665960
  F     -1.347570   -2.376780    6.031880
  C      0.306330   -1.430320    7.410940
  C      0.751600   -0.254180    8.061000
  C      0.017640    0.976960    7.951400
  N      0.602210    1.961940    8.636120
  S      1.925330    1.389710    9.336140
  N      1.850470   -0.121200    8.801870
  C      1.020770   -2.679510    7.586760
  C      1.370800   -3.258410    8.781350
  N      1.077930   -2.801510   10.082180
  O      1.665080   -3.337930   11.004400
  O      0.245310   -1.922280   10.220150
  C      2.046070   -4.515750    8.527020
  C      2.047890   -4.737350    7.195050
  C      1.439990   -3.605450    6.532530
  C      1.384270   -3.359710    5.178590
  C      1.372790   -2.073280    4.554030
  C      1.565640   -2.239190    3.219390
  C      1.650960   -3.639540    2.916680
  N      1.812400   -4.048250    1.584220
  O      1.622070   -3.209390    0.719370
  O      2.154140   -5.197700    1.337790
  C      1.500000   -4.371790    4.102780
  C      1.225950   -5.722920    4.379510
  C      1.375940   -6.806070    3.550600
  C      1.040070   -8.106010    3.962820
  N      1.211210   -9.220660    3.176990
  C      1.760480   -9.249090    1.840570
  C      3.283830   -9.162050    1.849230
  C      0.824690  -10.401560    3.833070
  O      0.886520  -11.507960    3.343470
  C      0.368380   -9.944520    5.132430
  C      0.502320   -8.548290    5.186890
  C      0.046580   -8.120860    6.492510
  O     -0.019170   -7.026860    7.015010
  N     -0.337250   -9.311100    7.147320
  C     -0.888330   -9.237910    8.478960
  C     -2.414080   -9.300850    8.465710
  C     -0.153260  -10.412600    6.346490
  C     -0.364640  -11.785170    6.601690
  C     -0.892470  -12.404630    7.691890
  C     -0.994340  -13.810190    7.817370
  S     -0.403510  -14.921530    6.609440
  C     -0.881050  -16.299720    7.548080
  C     -1.480280  -15.893040    8.745370
  C     -1.536890  -14.499100    8.885410
  C     -1.990810  -16.739640    9.745720
  N     -2.427540  -17.362610   10.604340
  C     -0.614360  -17.597740    7.036500
  C     -0.911290  -18.758970    7.661960
  C     -0.628840  -20.077700    7.166220
  C      0.015840  -20.368850    5.976240
  C      0.253090  -21.692070    5.582580
  F      0.889010  -21.875000    4.409940
  C     -0.117300  -22.792320    6.310980
  C     -0.774890  -22.542090    7.523840
  C     -1.031160  -21.191910    7.953940
  N     -1.661340  -21.155720    9.125200
  S     -1.904970  -22.658910    9.630840
  N     -1.229890  -23.438560    8.401580
  H     -1.709180    1.962790    7.120040
  H     -2.472160   -0.113570    5.956550
  H      2.450380   -5.133930    9.305070
  H      2.518710   -5.556480    6.689470
  H      1.336920   -1.137050    5.075580
  H      1.657130   -1.472780    2.472550
  H      0.835000   -5.907620    5.371200
  H      1.782990   -6.675860    2.560250
  H      1.333990   -8.432460    1.253600
  H      1.448330  -10.202900    1.406580
  H      3.617060   -8.219450    2.275970
  H      3.656160   -9.230360    0.831400
  H      3.703130   -9.980300    2.429940
  H     -0.573360   -8.269510    8.879650
  H     -0.454380  -10.026770    9.097990
  H     -2.811210   -8.442570    7.929670
  H     -2.793000   -9.277360    9.483700
  H     -2.769920  -10.205000    7.976250
  H     -0.041360  -12.410190    5.776200
  H     -1.272060  -11.850220    8.536260
  H     -1.962680  -14.013250    9.746060
  H     -0.127290  -17.608280    6.070910
  H     -1.401690  -18.744040    8.624860
  H      0.356910  -19.585580    5.318840
  H      0.083600  -23.795390    5.975840

 Total Charge           Charge          ....    0
 Multiplicity           Mult            ....    1
 Number of Electrons    NEL             ....  460
 Basis Dimension        Dim             .... 1019

ORBITAL ENERGIES
----------------

  NO   OCC          E(Eh)            E(eV)
   0   2.0000     -89.025269     -2422.5007
   1   2.0000     -89.022676     -2422.4302
   2   2.0000     -88.983991     -2421.3775
   3   2.0000     -24.794814      -674.7012
   4   2.0000     -24.787463      -674.5012
   5   2.0000     -19.239722      -523.5395
   6   2.0000     -19.237432      -523.4771
   7   2.0000     -19.234327      -523.3926
   8   2.0000     -19.233296      -523.3646
   9   2.0000     -19.208254      -522.6832
  10   2.0000     -19.195522      -522.3367
  11   2.0000     -14.647470      -398.5779
  12   2.0000     -14.641340      -398.4111
  13   2.0000     -14.467120      -393.6703
  14   2.0000     -14.459169      -393.4540
  15   2.0000     -14.440407      -392.9435
  16   2.0000     -14.437145      -392.8547
  17   2.0000     -14.436101      -392.8263
  18   2.0000     -14.434258      -392.7761
  19   2.0000     -14.413438      -392.2096
  20   2.0000     -10.388643      -282.6893
  21   2.0000     -10.380225      -282.4603
  22   2.0000     -10.377108      -282.3755
  23   2.0000     -10.374203      -282.2964
  24   2.0000     -10.352101      -281.6950
  25   2.0000     -10.347306      -281.5645
  26   2.0000     -10.341857      -281.4162
  27   2.0000     -10.330806      -281.1155
  28   2.0000     -10.328318      -281.0478
  29   2.0000     -10.327956      -281.0380
  30   2.0000     -10.327919      -281.0370
  31   2.0000     -10.326150      -280.9888
  32   2.0000     -10.326037      -280.9858
  33   2.0000     -10.325042      -280.9587
  34   2.0000     -10.324361      -280.9401
  35   2.0000     -10.322670      -280.8941
  36   2.0000     -10.322520      -280.8901
  37   2.0000     -10.322518      -280.8900
  38   2.0000     -10.318823      -280.7894
  39   2.0000     -10.317367      -280.7498
  40   2.0000     -10.314037      -280.6592
  41   2.0000     -10.314002      -280.6583
  42   2.0000     -10.311437      -280.5885
  43   2.0000     -10.310238      -280.5558
  44   2.0000     -10.308788      -280.5164
  45   2.0000     -10.306305      -280.4488
  46   2.0000     -10.306013      -280.4409
  47   2.0000     -10.304850      -280.4092
  48   2.0000     -10.300805      -280.2992
  49   2.0000     -10.300769      -280.2982
  50   2.0000     -10.300531      -280.2917
  51   2.0000     -10.299126      -280.2535
  52   2.0000     -10.298474      -280.2357
  53   2.0000     -10.298037      -280.2238
  54   2.0000     -10.296919      -280.1934
  55   2.0000     -10.291838      -280.0552
  56   2.0000     -10.288177      -279.9555
  57   2.0000     -10.284077      -279.8440
  58   2.0000     -10.281004      -279.7603
  59   2.0000     -10.276850      -279.6473
  60   2.0000     -10.273461      -279.5551
  61   2.0000     -10.272911      -279.5401
  62   2.0000     -10.262522      -279.2574
  63   2.0000      -8.117102      -220.8776
  64   2.0000      -8.114565      -220.8085
  65   2.0000      -8.079593      -219.8569
  66   2.0000      -6.088246      -165.6696
  67   2.0000      -6.085673      -165.5996
  68   2.0000      -6.080505      -165.4590
  69   2.0000      -6.079609      -165.4346
  70   2.0000      -6.077957      -165.3896
  71   2.0000      -6.077109      -165.3665
  72   2.0000      -6.048708      -164.5937
  73   2.0000      -6.044714      -164.4850
  74   2.0000      -6.041809      -164.4060
  75   2.0000      -1.316946       -35.8359
  76   2.0000      -1.312696       -35.7203
  77   2.0000      -1.308331       -35.6015
  78   2.0000      -1.302601       -35.4456
  79   2.0000      -1.147117       -31.2146
  80   2.0000      -1.135027       -30.8857
  81   2.0000      -1.133020       -30.8310
  82   2.0000      -1.130494       -30.7623
  83   2.0000      -1.126190       -30.6452
  84   2.0000      -1.123128       -30.5619
  85   2.0000      -1.074618       -29.2418
  86   2.0000      -1.064120       -28.9562
  87   2.0000      -1.021553       -27.7979
  88   2.0000      -1.015023       -27.6202
  89   2.0000      -0.995823       -27.0977
  90   2.0000      -0.993354       -27.0305
  91   2.0000      -0.981948       -26.7202
  92   2.0000      -0.975581       -26.5469
  93   2.0000      -0.971099       -26.4249
  94   2.0000      -0.965665       -26.2771
  95   2.0000      -0.938997       -25.5514
  96   2.0000      -0.933474       -25.4011
  97   2.0000      -0.916443       -24.9377
  98   2.0000      -0.909002       -24.7352
  99   2.0000      -0.907860       -24.7041
 100   2.0000      -0.882635       -24.0177
 101   2.0000      -0.880447       -23.9582
 102   2.0000      -0.875123       -23.8133
 103   2.0000      -0.875112       -23.8130
 104   2.0000      -0.867992       -23.6193
 105   2.0000      -0.861018       -23.4295
 106   2.0000      -0.858844       -23.3703
 107   2.0000      -0.847627       -23.0651
 108   2.0000      -0.833843       -22.6900
 109   2.0000      -0.827849       -22.5269
 110   2.0000      -0.820319       -22.3220
 111   2.0000      -0.797667       -21.7056
 112   2.0000      -0.788773       -21.4636
 113   2.0000      -0.767950       -20.8970
 114   2.0000      -0.767272       -20.8785
 115   2.0000      -0.762008       -20.7353
 116   2.0000      -0.747023       -20.3275
 117   2.0000      -0.732167       -19.9233
 118   2.0000      -0.725523       -19.7425
 119   2.0000      -0.722978       -19.6732
 120   2.0000      -0.716253       -19.4902
 121   2.0000      -0.714427       -19.4405
 122   2.0000      -0.713002       -19.4018
 123   2.0000      -0.706931       -19.2366
 124   2.0000      -0.697883       -18.9904
 125   2.0000      -0.692790       -18.8518
 126   2.0000      -0.684555       -18.6277
 127   2.0000      -0.675336       -18.3768
 128   2.0000      -0.669366       -18.2144
 129   2.0000      -0.659825       -17.9548
 130   2.0000      -0.655022       -17.8241
 131   2.0000      -0.646695       -17.5975
 132   2.0000      -0.638314       -17.3694
 133   2.0000      -0.634526       -17.2663
 134   2.0000      -0.631700       -17.1894
 135   2.0000      -0.627947       -17.0873
 136   2.0000      -0.625023       -17.0077
 137   2.0000      -0.623409       -16.9638
 138   2.0000      -0.622056       -16.9270
 139   2.0000      -0.616878       -16.7861
 140   2.0000      -0.612998       -16.6805
 141   2.0000      -0.611660       -16.6441
 142   2.0000      -0.604309       -16.4441
 143   2.0000      -0.600347       -16.3363
 144   2.0000      -0.595397       -16.2016
 145   2.0000      -0.591543       -16.0967
 146   2.0000      -0.585554       -15.9337
 147   2.0000      -0.583828       -15.8868
 148   2.0000      -0.580773       -15.8036
 149   2.0000      -0.578479       -15.7412
 150   2.0000      -0.573624       -15.6091
 151   2.0000      -0.573130       -15.5957
 152   2.0000      -0.564622       -15.3642
 153   2.0000      -0.564524       -15.3615
 154   2.0000      -0.562413       -15.3040
 155   2.0000      -0.550679       -14.9847
 156   2.0000      -0.547923       -14.9098
 157   2.0000      -0.542599       -14.7649
 158   2.0000      -0.541509       -14.7352
 159   2.0000      -0.539820       -14.6892
 160   2.0000      -0.537907       -14.6372
 161   2.0000      -0.534727       -14.5507
 162   2.0000      -0.534009       -14.5311
 163   2.0000      -0.531753       -14.4697
 164   2.0000      -0.528436       -14.3795
 165   2.0000      -0.524433       -14.2705
 166   2.0000      -0.521522       -14.1913
 167   2.0000      -0.520961       -14.1761
 168   2.0000      -0.515791       -14.0354
 169   2.0000      -0.513220       -13.9654
 170   2.0000      -0.513063       -13.9612
 171   2.0000      -0.510021       -13.8784
 172   2.0000      -0.506870       -13.7926
 173   2.0000      -0.503674       -13.7057
 174   2.0000      -0.501571       -13.6484
 175   2.0000      -0.497439       -13.5360
 176   2.0000      -0.487082       -13.2542
 177   2.0000      -0.484568       -13.1858
 178   2.0000      -0.481030       -13.0895
 179   2.0000      -0.480055       -13.0630
 180   2.0000      -0.476100       -12.9553
 181   2.0000      -0.473780       -12.8922
 182   2.0000      -0.470523       -12.8036
 183   2.0000      -0.468079       -12.7371
 184   2.0000      -0.466416       -12.6918
 185   2.0000      -0.465639       -12.6707
 186   2.0000      -0.463235       -12.6053
 187   2.0000      -0.461644       -12.5620
 188   2.0000      -0.460693       -12.5361
 189   2.0000      -0.458779       -12.4840
 190   2.0000      -0.456962       -12.4346
 191   2.0000      -0.455089       -12.3836
 192   2.0000      -0.453883       -12.3508
 193   2.0000      -0.447727       -12.1833
 194   2.0000      -0.445260       -12.1161
 195   2.0000      -0.440858       -11.9964
 196   2.0000      -0.439060       -11.9474
 197   2.0000      -0.437252       -11.8982
 198   2.0000      -0.433380       -11.7929
 199   2.0000      -0.431778       -11.7493
 200   2.0000      -0.425722       -11.5845
 201   2.0000      -0.420271       -11.4362
 202   2.0000      -0.411107       -11.1868
 203   2.0000      -0.409228       -11.1357
 204   2.0000      -0.408625       -11.1192
 205   2.0000      -0.401571       -10.9273
 206   2.0000      -0.400811       -10.9066
 207   2.0000      -0.388356       -10.5677
 208   2.0000      -0.383304       -10.4302
 209   2.0000      -0.380134       -10.3440
 210   2.0000      -0.375018       -10.2048
 211   2.0000      -0.373923       -10.1750
 212   2.0000      -0.369406       -10.0520
 213   2.0000      -0.367289        -9.9944
 214   2.0000      -0.365287        -9.9400
 215   2.0000      -0.364701        -9.9240
 216   2.0000      -0.360117        -9.7993
 217   2.0000      -0.358400        -9.7526
 218   2.0000      -0.345589        -9.4039
 219   2.0000      -0.340955        -9.2779
 220   2.0000      -0.334253        -9.0955
 221   2.0000      -0.333623        -9.0784
 222   2.0000      -0.330341        -8.9890
 223   2.0000      -0.327208        -8.9038
 224   2.0000      -0.325729        -8.8635
 225   2.0000      -0.320320        -8.7164
 226   2.0000      -0.303015        -8.2454
 227   2.0000      -0.289280        -7.8717
 228   2.0000      -0.279110        -7.5950
 229   2.0000      -0.237893        -6.4734
 230   0.0000      -0.137334        -3.7370
 231   0.0000      -0.095994        -2.6121
 232   0.0000      -0.075471        -2.0537
 233   0.0000      -0.059870        -1.6291
 234   0.0000      -0.044164        -1.2018

MULLIKEN ATOMIC CHARGES
-----------------------
   0 C :   -0.018138
   1 C :   -0.027941
   2 C :    0.210659
   3 F :   -0.179433
   4 C :   -0.044640
   5 C :    0.001121
   6 C :    0.061324
   7 N :   -0.261204
   8 S :    0.514470
   9 N :   -0.273284
  10 C :    0.048889
  11 C :    0.082128
  12 N :    0.269056
  13 O :   -0.246595
  14 O :   -0.239631
  15 C :    0.014873
  16 C :    0.036608
  17 C :    0.054065
  18 C :   -0.001551
  19 C :    0.018892
  20 C :    0.019364
  21 C :    0.062280
  22 N :    0.279714
  23 O :   -0.248353
  24 O :   -0.260505
  25 C :    0.091359
  26 C :   -0.083730
  27 C :   -0.009538
  28 C :    0.142815
  29 N :   -0.263156
  30 C :    0.098352
  31 C :    0.007869
  32 C :    0.152833
  33 O :   -0.193690
  34 C :   -0.050067
  35 C :   -0.052818
  36 C :    0.162007
  37 O :   -0.200180
  38 N :   -0.264902
  39 C :    0.100450
  40 C :    0.001163
  41 C :    0.125161
  42 C :   -0.054387
  43 C :    0.043378
  44 C :   -0.042374
  45 S :    0.158016
  46 C :   -0.052340
  47 C :   -0.062816
  48 C :    0.009082
  49 C :   -0.179695
  50 N :    0.128110
  51 C :    0.071743
  52 C :   -0.038183
  53 C :    0.100278
  54 C :   -0.099093
  55 C :    0.321633
  56 F :   -0.192704
  57 C :   -0.112878
  58 C :    0.069751
  59 C :   -0.006657
  60 N :   -0.269381
  61 S :    0.514881
  62 N :   -0.276237
  63 H :   -0.005945
  64 H :    0.007787
  65 H :   -0.004129
  66 H :   -0.007872
  67 H :    0.002045
  68 H :    0.005838
  69 H :    0.032498
  70 H :   -0.000285
  71 H :    0.038160
  72 H :    0.040148
  73 H :    0.020647
  74 H :    0.027033
  75 H :    0.024049
  76 H :    0.045782
  77 H :    0.024904
  78 H :    0.031789
  79 H :    0.025610
  80 H :    0.020902
  81 H :    0.016479
  82 H :   -0.007949
  83 H :   -0.000160
  84 H :   -0.015787
  85 H :    0.028404
  86 H :   -0.006370
  87 H :   -0.009800
Sum of atomic charges:    0.0000000

LOEWDIN ATOMIC CHARGES
----------------------
   0 C :    0.004755
   1 C :   -0.037414
   2 C :    0.100908
   3 F :   -0.058130
   4 C :   -0.070996
   5 C :   -0.041243
   6 C :   -0.060132
   7 N :   -0.281983
   8 S :    0.655832
   9 N :   -0.294165
  10 C :    0.010923
  11 C :   -0.015036
  12 N :    0.287428
  13 O :   -0.208292
  14 O :   -0.204942
  15 C :    0.008713
  16 C :   -0.022755
  17 C :    0.046010
  18 C :    0.047905
  19 C :   -0.039004
  20 C :    0.017604
  21 C :   -0.047783
  22 N :    0.287648
  23 O :   -0.211828
  24 O :   -0.222501
  25 C :    0.009019
  26 C :    0.007966
  27 C :   -0.009166
  28 C :    0.070839
  29 N :    0.001336
  30 C :    0.038465
  31 C :   -0.058637
  32 C :    0.076389
  33 O :   -0.195914
  34 C :   -0.109804
  35 C :   -0.109650
  36 C :    0.083746
  37 O :   -0.183715
  38 N :   -0.000872
  39 C :    0.035257
  40 C :   -0.062305
  41 C :    0.074916
  42 C :   -0.043298
  43 C :   -0.011601
  44 C :   -0.171759
  45 S :    0.475497
  46 C :   -0.126642
  47 C :   -0.107413
  48 C :   -0.011148
  49 C :   -0.032230
  50 N :   -0.047650
  51 C :   -0.040383
  52 C :    0.016053
  53 C :   -0.019874
  54 C :   -0.028915
  55 C :    0.091989
  56 F :   -0.066067
  57 C :   -0.048901
  58 C :   -0.049030
  59 C :   -0.052820
  60 N :   -0.279080
  61 S :    0.653580
  62 N :   -0.292050
  63 H :    0.042911
  64 H :    0.044148
  65 H :    0.036190
  66 H :    0.029611
  67 H :    0.031744
  68 H :    0.038185
  69 H :    0.040946
  70 H :    0.028367
  71 H :    0.029473
  72 H :    0.037128
  73 H :    0.024388
  74 H :    0.033260
  75 H :    0.029689
  76 H :    0.038590
  77 H :    0.021901
  78 H :    0.034592
  79 H :    0.032129
  80 H :    0.021871
  81 H :    0.040195
  82 H :    0.037203
  83 H :    0.041417
  84 H :    0.028577
  85 H :    0.043869
  86 H :    0.038775
  87 H :    0.047192

  Mayer bond orders larger than 0.100000
B(  0-C ,  1-C ) :   1.4639 B(  0-C ,  4-C ) :   0.1152 B(  0-C ,  6-C ) :   1.1871
B(  0-C , 63-H ) :   1.0261 B(  1-C ,  2-C ) :   1.1989 B(  1-C , 64-H ) :   0.9924
B(  2-C ,  3-F ) :   1.1249 B(  2-C ,  4-C ) :   1.4827 B(  4-C ,  5-C ) :   1.2184
B(  4-C , 10-C ) :   0.9141 B(  5-C ,  6-C ) :   1.1668 B(  5-C ,  9-N ) :   1.5521
B(  6-C ,  7-N ) :   1.5101 B(  7-N ,  8-S ) :   1.2930 B(  7-N ,  9-N ) :   0.1496
B(  8-S ,  9-N ) :   1.2622 B( 10-C , 11-C ) :   1.6683 B( 10-C , 17-C ) :   1.0898
B( 11-C , 12-N ) :   0.9281 B( 11-C , 15-C ) :   1.1010 B( 12-N , 13-O ) :   1.5265
B( 12-N , 14-O ) :   1.5254 B( 13-O , 14-O ) :   0.2694 B( 15-C , 16-C ) :   1.6182
B( 15-C , 65-H ) :   1.0153 B( 16-C , 17-C ) :   1.0976 B( 16-C , 66-H ) :   1.0010
B( 17-C , 18-C ) :   1.5067 B( 18-C , 19-C ) :   1.1397 B( 18-C , 25-C ) :   1.0146
B( 19-C , 20-C ) :   1.5579 B( 19-C , 67-H ) :   0.9994 B( 20-C , 21-C ) :   1.1512
B( 20-C , 68-H ) :   1.0079 B( 21-C , 22-N ) :   0.9666 B( 21-C , 25-C ) :   1.4319
B( 22-N , 23-O ) :   1.5353 B( 22-N , 24-O ) :   1.4557 B( 23-O , 24-O ) :   0.2478
B( 24-O , 70-H ) :   0.1081 B( 25-C , 26-C ) :   1.1993 B( 26-C , 27-C ) :   1.5203
B( 26-C , 69-H ) :   0.9415 B( 27-C , 28-C ) :   1.1828 B( 27-C , 70-H ) :   0.9439
B( 28-C , 29-N ) :   1.1664 B( 28-C , 35-C ) :   1.2738 B( 29-N , 30-C ) :   0.9359
B( 29-N , 32-C ) :   1.0456 B( 30-C , 31-C ) :   1.1243 B( 30-C , 71-H ) :   0.9483
B( 30-C , 72-H ) :   0.9286 B( 31-C , 73-H ) :   0.9679 B( 31-C , 74-H ) :   0.9675
B( 31-C , 75-H ) :   0.9636 B( 32-C , 33-O ) :   2.1283 B( 32-C , 34-C ) :   0.9735
B( 34-C , 35-C ) :   1.2857 B( 34-C , 41-C ) :   1.3099 B( 35-C , 36-C ) :   0.9850
B( 36-C , 37-O ) :   2.0156 B( 36-C , 38-N ) :   1.0574 B( 37-O , 69-H ) :   0.1002
B( 38-N , 39-C ) :   0.9412 B( 38-N , 41-C ) :   1.1686 B( 39-C , 40-C ) :   1.1158
B( 39-C , 76-H ) :   0.9247 B( 39-C , 77-H ) :   0.9504 B( 40-C , 78-H ) :   0.9611
B( 40-C , 79-H ) :   0.9687 B( 40-C , 80-H ) :   0.9684 B( 41-C , 42-C ) :   1.2209
B( 42-C , 43-C ) :   1.5404 B( 42-C , 81-H ) :   0.9410 B( 43-C , 44-C ) :   1.1757
B( 43-C , 82-H ) :   0.9774 B( 44-C , 45-S ) :   1.1000 B( 44-C , 48-C ) :   1.4367
B( 45-S , 46-C ) :   1.1500 B( 46-C , 47-C ) :   1.4366 B( 46-C , 51-C ) :   1.1518
B( 47-C , 48-C ) :   1.2954 B( 47-C , 49-C ) :   1.1129 B( 48-C , 83-H ) :   1.0095
B( 49-C , 50-N ) :   2.9769 B( 51-C , 52-C ) :   1.6591 B( 51-C , 84-H ) :   0.9403
B( 52-C , 53-C ) :   1.1190 B( 52-C , 85-H ) :   0.9698 B( 53-C , 54-C ) :   1.4305
B( 53-C , 57-C ) :   0.1098 B( 53-C , 59-C ) :   1.1644 B( 54-C , 55-C ) :   1.2119
B( 54-C , 86-H ) :   0.9961 B( 55-C , 56-F ) :   1.0734 B( 55-C , 57-C ) :   1.4366
B( 57-C , 58-C ) :   1.1547 B( 57-C , 87-H ) :   1.0380 B( 58-C , 59-C ) :   1.1650
B( 58-C , 62-N ) :   1.5071 B( 59-C , 60-N ) :   1.5454 B( 60-N , 61-S ) :   1.2714
B( 60-N , 62-N ) :   0.1510 B( 61-S , 62-N ) :   1.2742

-----------------------------------------------------------------------------
         ABSORPTION SPECTRUM VIA TRANSITION ELECTRIC DIPOLE MOMENTS
-----------------------------------------------------------------------------
State   Energy  Wavelength   fosc         T2         TX        TY        TZ
        (cm-1)    (nm)                  (au**2)     (au)      (au)      (au)
-----------------------------------------------------------------------------
   0    6785.7   1473.7   0.335490853  16.27654   0.81520   3.90489  -0.60320
   1   13778.7    725.8   0.015171835   0.36250   0.42334   0.08085  -0.42041
   2   16438.0    608.3   0.645905667  12.93591   0.79963   2.96945  -1.86517
   3   17645.8    566.7   0.011731343   0.21887  -0.00119   0.34521   0.31575
   4   20337.0    491.7   0.304942710   4.93637  -0.02369  -2.22087   0.05950
   5   21843.6    457.8   0.203895923   3.07298   0.43853  -1.65117  -0.39281
   6   22024.7    454.0   0.069887904   1.04464  -0.02376   0.97955   0.29078
   7   23281.2    429.5   0.016031437   0.22670  -0.07084   0.46476   0.07534
   8   24448.4    409.0   0.082400169   1.10957  -0.10065   0.28164   1.01001
   9   24684.3    405.1   0.013352672   0.17808  -0.02350  -0.33107  -0.26063
  10   25530.3    391.7   0.157481290   2.03071  -0.20508   0.08093   1.40787
  11   25983.6    384.9   0.162142063   2.05434  -0.22882   1.07358   0.92163
  12   26473.7    377.7   0.177224865   2.20387   0.22709  -1.46575   0.06232
  13   26938.8    371.2   0.125311198   1.53139  -0.19697   0.44243   1.13879
  14   27466.1    364.1   0.015793338   0.18930  -0.20778  -0.32882  -0.19495
  15   27782.3    359.9   0.022217264   0.26327  -0.08026   0.49317   0.11665
  16   28447.8    351.5   0.193721477   2.24184  -0.00692  -1.01941  -1.09662
  17   28902.6    346.0   0.008210095   0.09352   0.04971  -0.07077  -0.29332
  18   29515.6    338.8   0.093611795   1.04413  -0.26902  -0.97412   0.15114
  19   30216.4    330.9   0.328933378   3.58377  -0.28132  -1.24220   1.40056
  20   30736.3    325.3   0.049523755   0.53044  -0.04043  -0.68857   0.23382
  21   31206.7    320.4   0.125952381   1.32872   0.43246  -0.86199   0.63141
  22   31431.3    318.2   0.014833161   0.15536  -0.05348  -0.20579  -0.33189
  23   31488.5    317.6   0.121791280   1.27333  -0.13515   0.95987  -0.57767
  24   31921.7    313.3   0.018136343   0.18704  -0.01923   0.22671  -0.36780
  25   32068.3    311.8   0.010914424   0.11205  -0.07143   0.29655   0.13784
  26   32280.8    309.8   0.009505298   0.09694  -0.09604  -0.27343   0.11380
  27   32668.6    306.1   0.015047490   0.15164   0.10938   0.09792   0.36067
  28   33308.0    300.2   0.046181055   0.45645  -0.04222  -0.35987  -0.57022
  29   33432.6    299.1   0.055428628   0.54581  -0.02825  -0.20898   0.70805
  30   33725.6    296.5   0.003623566   0.03537   0.10492   0.02980  -0.15322
  31   33873.9    295.2   0.003129198   0.03041   0.08356  -0.00614  -0.15294
  32   34532.0    289.6   0.026340755   0.25112   0.27890   0.12189  -0.39809
  33   34601.3    289.0   0.010040650   0.09553   0.24726  -0.14507  -0.11553
  34   35035.7    285.4   0.041235794   0.38747   0.35310  -0.11886  -0.49866
  35   35241.9    283.8   0.106125311   0.99137  -0.22852  -0.01581   0.96897
  36   35484.0    281.8   0.023986531   0.22254   0.17998  -0.41439   0.13576
  37   36088.3    277.1   0.035097234   0.32017   0.25778   0.07643   0.49787
  38   36664.4    272.7   0.074982795   0.67327   0.16985  -0.01373  -0.80264
  39   36832.9    271.5   0.006435165   0.05752   0.13573  -0.18406  -0.07223
  40   37280.3    268.2   0.020314820   0.17939  -0.07391  -0.37320   0.18616
  41   37501.9    266.7   0.009118894   0.08005   0.15266  -0.05134  -0.23262
  42   37743.0    264.9   0.037841409   0.33007   0.18902   0.32661  -0.43320
  43   37803.5    264.5   0.090049038   0.78419   0.35082   0.02680  -0.81265
  44   37983.9    263.3   0.025128758   0.21779  -0.35486  -0.18695   0.23858
  45   38111.4    262.4   0.070682696   0.61057  -0.33237  -0.33624  -0.62213
  46   38749.7    258.1   0.090147543   0.76588   0.16612   0.21589  -0.83167
  47   39116.8    255.6   0.009757347   0.08212  -0.19751   0.08497  -0.18944
  48   39535.8    252.9   0.040741820   0.33925  -0.33794  -0.12113   0.45867
  49   39716.5    251.8   0.011785061   0.09769   0.12274   0.11120  -0.26506
  50   39793.9    251.3   0.125500868   1.03826  -0.31741  -0.14463  -0.95739
  51   39950.1    250.3   0.017928258   0.14774  -0.23735   0.28576  -0.09872
  52   40049.4    249.7   0.087294260   0.71757  -0.16512   0.38623   0.73562
  53   40317.1    248.0   0.082942525   0.67727   0.34697   0.68418  -0.29797

FINAL SINGLE POINT ENERGY     -3987.899095910068

DIPOLE MOMENT
-------------
                                X             Y             Z
Electronic contribution:     -1.91144      -6.96545      15.40452
Nuclear contribution   :      1.75991       6.70655     -15.74297
                        -----------------------------------------
Total Dipole Moment    :     -0.15152      -0.25889      -0.33845
                        -----------------------------------------
Magnitude (a.u.)       :      0.45225
Magnitude (Debye)      :      1.14953

Rotational constants in cm-1:     0.002481     0.000310     0.000283
Rotational constants in MHz :    74.372663     9.296391     8.481915

                             ****ORCA TERMINATED NORMALLY****
TOTAL RUN TIME: 0 days 0 hours 9 minutes 43 seconds 5 msec
