                         Program Version 4.2.0 -  RELEASE  -
|  1> # ORCA input file
|  2> # SCF done       -207.493503559835          0.000913413208
|  3> ! CAM-B3LYP def2-SVP def2/J RIJCOSX Grid4 TightSCF
|  4> %maxcore 5000
|  5> %tddft
|  6>     Mode sTDDFT
|  7>     Ethresh 5.0
|  8>     maxcore 5000
|  9> end
| 10>
| 11> %pal
| 12>   nprocs 6
| 13>   end
| 14> * xyz 0 1
| 15>    C        1.88238         4.83691        -3.29673
| 16>    C        1.09900         5.92747        -3.03479
| 17>    C        1.31388         6.82528        -1.97142
| 18>    N        1.44654         7.62054        -1.15344
| 19>    C       -0.02284         6.28568        -3.80956
| 20>    N       -0.95182         6.62681        -4.39097
| 21>    C        2.95470         4.33244        -2.45421
| 22>    C        3.20838         2.97378        -2.80657
| 23>    C        4.17913         2.24487        -2.18214
| 24>    C        4.96596         2.85945        -1.18170
| 25>    C        4.73218         4.22516        -0.84337
| 26>    C        3.70339         4.94783        -1.48635
| 27>    C        5.54916         4.83580         0.12955
| 28>    C        6.54313         4.12899         0.74941
| 29>    C        6.76352         2.78122         0.42747
| 30>    C        5.99265         2.15999        -0.51773
| 31>    C        2.33076         2.58310        -3.92630
| 32>    O        2.22304         1.50227        -4.45168
| 33>    C        1.67952         3.85917        -4.35338
| 34>    C        1.22659         3.99683        -5.62593
| 35>    C        1.01150         5.21045        -6.33541
| 36>    C        0.01295         5.48953        -7.25680
| 37>    N       -0.97030         4.59759        -7.72601
| 38>    O       -1.70907         4.99480        -8.60800
| 39>    O       -1.01046         3.47922        -7.24333
| 40>    C        0.07900         6.87182        -7.63200
| 41>    C        1.07656         7.46458        -6.91895
| 42>    C        1.72789         6.47204        -6.12197
| 43>    C        2.87570         6.61318        -5.35597
| 44>    C        3.89344         5.64259        -5.17200
| 45>    C        4.85672         6.16683        -4.35812
| 46>    C        4.47288         7.47999        -3.94737
| 47>    N        5.27201         8.19104        -3.04622
| 48>    O        5.12921         9.40091        -2.92677
| 49>    O        6.09732         7.54863        -2.41281
| 50>    C        3.24112         7.80144        -4.54515
| 51>    C        2.28012         8.78668        -4.29316
| 52>    C        2.37580         9.88685        -3.47350
| 53>    C        1.29526        10.72971        -3.20710
| 54>    S       -0.32362        10.41036        -3.85115
| 55>    C       -0.91863        11.82622        -3.07637
| 56>    C        0.10749        12.49847        -2.35128
| 57>    C        1.34251        11.88422        -2.42004
| 58>    N       -0.45115        13.60418        -1.79420
| 59>    C       -1.78403        13.65995        -2.13317
| 60>    C       -2.09136        12.54639        -2.93590
| 61>    C       -2.59840        14.73780        -1.71890
| 62>    C       -3.93850        14.82199        -1.95255
| 63>    C       -4.80165        15.88291        -1.60419
| 64>    S       -6.49434        15.53453        -1.50266
| 65>    C       -6.88467        17.14270        -0.98268
| 66>    C       -5.71207        17.94653        -0.92992
| 67>    C       -4.53096        17.23807        -1.30224
| 68>    C       -3.31519        17.92646        -1.40768
| 69>    C       -3.25290        19.26366        -1.07659
| 70>    C       -2.01986        19.94890        -1.17920
| 71>    N       -1.00173        20.46659        -1.26706
| 72>    C       -4.41810        19.95239        -0.64080
| 73>    C       -4.31858        21.32034        -0.29099
| 74>    N       -4.23105        22.42614        -0.00756
| 75>    C       -5.63377        19.30348        -0.58565
| 76>    C       -8.15370        17.63125        -0.65846
| 77>    C       -9.37955        17.01212        -0.68063
| 78>    C      -10.64704        17.62428        -0.33054
| 79>    C      -10.86155        18.91933         0.07076
| 80>    C      -12.13004        19.44651         0.39309
| 81>    N      -13.12971        19.93733         0.67113
| 82>    C       -9.86610        19.90638         0.21821
| 83>    N       -9.10212        20.75408         0.35519
| 84>    C      -11.68096        16.60597        -0.48653
| 85>    C      -11.06668        15.39670        -0.92604
| 86>    C       -9.62331        15.61699        -1.06353
| 87>    O       -8.78686        14.80360        -1.42546
| 88>    C      -11.78746        14.26055        -1.15752
| 89>    C      -13.18595        14.28100        -0.95706
| 90>    C      -13.80930        15.48573        -0.52039
| 91>    C      -13.03512        16.64662        -0.28806
| 92>    C      -15.20493        15.49601        -0.32565
| 93>    C      -15.95117        14.37051        -0.55001
| 94>    C      -15.33643        13.18489        -0.97845
| 95>    C      -13.98272        13.14086        -1.17797
| 96>    H        4.35423         1.21487        -2.45523
| 97>    H        3.54674         5.98089        -1.21671
| 98>    H        5.38015         5.87494         0.36702
| 99>    H        7.16695         4.60535         1.49043
|100>    H        7.55123         2.23820         0.92807
|101>    H        6.16301         1.12456        -0.77413
|102>    H        1.04149         3.07383        -6.16899
|103>    H       -0.57408         7.32461        -8.35289
|104>    H        1.41876         8.47615        -7.02726
|105>    H        3.93385         4.69535        -5.67441
|106>    H        5.77666         5.70129        -4.05689
|107>    H        1.32393         8.63140        -4.77957
|108>    H        3.31818        10.13389        -3.00369
|109>    H        2.24706        12.21980        -1.94759
|110>    H        0.02488        14.27805        -1.21755
|111>    H       -3.04722        12.31581        -3.35851
|112>    H       -2.09932        15.51240        -1.15413
|113>    H       -4.43006        13.96882        -2.40076
|114>    H       -2.43010        17.43664        -1.77920
|115>    H       -6.50715        19.86243        -0.28480
|116>    H       -8.15281        18.66483        -0.34353
|117>    H      -11.29741        13.35725        -1.48936
|118>    H      -13.53878        17.54071         0.04287
|119>    H      -15.67402        16.41120         0.00439
|120>    H      -17.01985        14.38860        -0.39819
|121>    H      -15.94004        12.30639        -1.14997
|122>    H      -13.50399        12.23062        -1.50808
|123> *
|124>
|125>                          ****END OF INPUT****

CARTESIAN COORDINATES (ANGSTROEM)
---------------------------------
  C      1.882380    4.836910   -3.296730
  C      1.099000    5.927470   -3.034790
  C      1.313880    6.825280   -1.971420
  N      1.446540    7.620540   -1.153440
  C     -0.022840    6.285680   -3.809560
  N     -0.951820    6.626810   -4.390970
  C      2.954700    4.332440   -2.454210
  C      3.208380    2.973780   -2.806570
  C      4.179130    2.244870   -2.182140
  C      4.965960    2.859450   -1.181700
  C      4.732180    4.225160   -0.843370
  C      3.703390    4.947830   -1.486350
  C      5.549160    4.835800    0.129550
  C      6.543130    4.128990    0.749410
  C      6.763520    2.781220    0.427470
  C      5.992650    2.159990   -0.517730
  C      2.330760    2.583100   -3.926300
  O      2.223040    1.502270   -4.451680
  C      1.679520    3.859170   -4.353380
  C      1.226590    3.996830   -5.625930
  C      1.011500    5.210450   -6.335410
  C      0.012950    5.489530   -7.256800
  N     -0.970300    4.597590   -7.726010
  O     -1.709070    4.994800   -8.608000
  O     -1.010460    3.479220   -7.243330
  C      0.079000    6.871820   -7.632000
  C      1.076560    7.464580   -6.918950
  C      1.727890    6.472040   -6.121970
  C      2.875700    6.613180   -5.355970
  C      3.893440    5.642590   -5.172000
  C      4.856720    6.166830   -4.358120
  C      4.472880    7.479990   -3.947370
  N      5.272010    8.191040   -3.046220
  O      5.129210    9.400910   -2.926770
  O      6.097320    7.548630   -2.412810
  C      3.241120    7.801440   -4.545150
  C      2.280120    8.786680   -4.293160
  C      2.375800    9.886850   -3.473500
  C      1.295260   10.729710   -3.207100
  S     -0.323620   10.410360   -3.851150
  C     -0.918630   11.826220   -3.076370
  C      0.107490   12.498470   -2.351280
  C      1.342510   11.884220   -2.420040
  N     -0.451150   13.604180   -1.794200
  C     -1.784030   13.659950   -2.133170
  C     -2.091360   12.546390   -2.935900
  C     -2.598400   14.737800   -1.718900
  C     -3.938500   14.821990   -1.952550
  C     -4.801650   15.882910   -1.604190
  S     -6.494340   15.534530   -1.502660
  C     -6.884670   17.142700   -0.982680
  C     -5.712070   17.946530   -0.929920
  C     -4.530960   17.238070   -1.302240
  C     -3.315190   17.926460   -1.407680
  C     -3.252900   19.263660   -1.076590
  C     -2.019860   19.948900   -1.179200
  N     -1.001730   20.466590   -1.267060
  C     -4.418100   19.952390   -0.640800
  C     -4.318580   21.320340   -0.290990
  N     -4.231050   22.426140   -0.007560
  C     -5.633770   19.303480   -0.585650
  C     -8.153700   17.631250   -0.658460
  C     -9.379550   17.012120   -0.680630
  C    -10.647040   17.624280   -0.330540
  C    -10.861550   18.919330    0.070760
  C    -12.130040   19.446510    0.393090
  N    -13.129710   19.937330    0.671130
  C     -9.866100   19.906380    0.218210
  N     -9.102120   20.754080    0.355190
  C    -11.680960   16.605970   -0.486530
  C    -11.066680   15.396700   -0.926040
  C     -9.623310   15.616990   -1.063530
  O     -8.786860   14.803600   -1.425460
  C    -11.787460   14.260550   -1.157520
  C    -13.185950   14.281000   -0.957060
  C    -13.809300   15.485730   -0.520390
  C    -13.035120   16.646620   -0.288060
  C    -15.204930   15.496010   -0.325650
  C    -15.951170   14.370510   -0.550010
  C    -15.336430   13.184890   -0.978450
  C    -13.982720   13.140860   -1.177970
  H      4.354230    1.214870   -2.455230
  H      3.546740    5.980890   -1.216710
  H      5.380150    5.874940    0.367020
  H      7.166950    4.605350    1.490430
  H      7.551230    2.238200    0.928070
  H      6.163010    1.124560   -0.774130
  H      1.041490    3.073830   -6.168990
  H     -0.574080    7.324610   -8.352890
  H      1.418760    8.476150   -7.027260
  H      3.933850    4.695350   -5.674410
  H      5.776660    5.701290   -4.056890
  H      1.323930    8.631400   -4.779570
  H      3.318180   10.133890   -3.003690
  H      2.247060   12.219800   -1.947590
  H      0.024880   14.278050   -1.217550
  H     -3.047220   12.315810   -3.358510
  H     -2.099320   15.512400   -1.154130
  H     -4.430060   13.968820   -2.400760
  H     -2.430100   17.436640   -1.779200
  H     -6.507150   19.862430   -0.284800
  H     -8.152810   18.664830   -0.343530
  H    -11.297410   13.357250   -1.489360
  H    -13.538780   17.540710    0.042870
  H    -15.674020   16.411200    0.004390
  H    -17.019850   14.388600   -0.398190
  H    -15.940040   12.306390   -1.149970
  H    -13.503990   12.230620   -1.508080

 Total Charge           Charge          ....    0
 Multiplicity           Mult            ....    1
 Number of Electrons    NEL             ....  554
 Basis Dimension        Dim             .... 1277

ORBITAL ENERGIES
----------------

  NO   OCC          E(Eh)            E(eV)
   0   2.0000     -89.002055     -2421.8690
   1   2.0000     -88.977535     -2421.2018
   2   2.0000     -19.235661      -523.4290
   3   2.0000     -19.235385      -523.4214
   4   2.0000     -19.235337      -523.4201
   5   2.0000     -19.233456      -523.3689
   6   2.0000     -19.232599      -523.3456
   7   2.0000     -19.215400      -522.8776
   8   2.0000     -14.643806      -398.4782
   9   2.0000     -14.643483      -398.4694
  10   2.0000     -14.500645      -394.5826
  11   2.0000     -14.428432      -392.6176
  12   2.0000     -14.421771      -392.4363
  13   2.0000     -14.421105      -392.4182
  14   2.0000     -14.420750      -392.4086
  15   2.0000     -14.420314      -392.3967
  16   2.0000     -14.418551      -392.3487
  17   2.0000     -10.380506      -282.4679
  18   2.0000     -10.367710      -282.1197
  19   2.0000     -10.352858      -281.7156
  20   2.0000     -10.349798      -281.6323
  21   2.0000     -10.349153      -281.6148
  22   2.0000     -10.347792      -281.5777
  23   2.0000     -10.346716      -281.5485
  24   2.0000     -10.346120      -281.5322
  25   2.0000     -10.345897      -281.5262
  26   2.0000     -10.345248      -281.5085
  27   2.0000     -10.341238      -281.3994
  28   2.0000     -10.340758      -281.3863
  29   2.0000     -10.335775      -281.2507
  30   2.0000     -10.333676      -281.1936
  31   2.0000     -10.331540      -281.1355
  32   2.0000     -10.330795      -281.1152
  33   2.0000     -10.330729      -281.1134
  34   2.0000     -10.330694      -281.1125
  35   2.0000     -10.330037      -281.0946
  36   2.0000     -10.329564      -281.0817
  37   2.0000     -10.328775      -281.0602
  38   2.0000     -10.326359      -280.9945
  39   2.0000     -10.325624      -280.9745
  40   2.0000     -10.325542      -280.9723
  41   2.0000     -10.324170      -280.9350
  42   2.0000     -10.324128      -280.9338
  43   2.0000     -10.323368      -280.9131
  44   2.0000     -10.322600      -280.8922
  45   2.0000     -10.321422      -280.8602
  46   2.0000     -10.320046      -280.8227
  47   2.0000     -10.318263      -280.7742
  48   2.0000     -10.317552      -280.7549
  49   2.0000     -10.317224      -280.7459
  50   2.0000     -10.315619      -280.7023
  51   2.0000     -10.314052      -280.6596
  52   2.0000     -10.312804      -280.6257
  53   2.0000     -10.310561      -280.5646
  54   2.0000     -10.310033      -280.5503
  55   2.0000     -10.306970      -280.4669
  56   2.0000     -10.306052      -280.4419
  57   2.0000     -10.305723      -280.4330
  58   2.0000     -10.304784      -280.4074
  59   2.0000     -10.304496      -280.3996
  60   2.0000     -10.303993      -280.3859
  61   2.0000     -10.303693      -280.3777
  62   2.0000     -10.302884      -280.3557
  63   2.0000     -10.302354      -280.3413
  64   2.0000     -10.299502      -280.2637
  65   2.0000     -10.299186      -280.2551
  66   2.0000     -10.298677      -280.2413
  67   2.0000     -10.298428      -280.2345
  68   2.0000     -10.297536      -280.2102
  69   2.0000     -10.293102      -280.0896
  70   2.0000     -10.292617      -280.0763
  71   2.0000     -10.292202      -280.0651
  72   2.0000     -10.291712      -280.0517
  73   2.0000     -10.291635      -280.0496
  74   2.0000     -10.291211      -280.0381
  75   2.0000     -10.287488      -279.9368
  76   2.0000     -10.286898      -279.9207
  77   2.0000     -10.286260      -279.9034
  78   2.0000     -10.285066      -279.8709
  79   2.0000     -10.284434      -279.8537
  80   2.0000     -10.282041      -279.7886
  81   2.0000      -8.094647      -220.2665
  82   2.0000      -8.072245      -219.6570
  83   2.0000      -6.063746      -165.0029
  84   2.0000      -6.059007      -164.8740
  85   2.0000      -6.057823      -164.8418
  86   2.0000      -6.041841      -164.4068
  87   2.0000      -6.037844      -164.2981
  88   2.0000      -6.033625      -164.1833
  89   2.0000      -1.315055       -35.7845
  90   2.0000      -1.311884       -35.6982
  91   2.0000      -1.148106       -31.2415
  92   2.0000      -1.132876       -30.8271
  93   2.0000      -1.131628       -30.7932
  94   2.0000      -1.128329       -30.7034
  95   2.0000      -1.119779       -30.4707
  96   2.0000      -1.039678       -28.2911
  97   2.0000      -1.028421       -27.9848
  98   2.0000      -1.027564       -27.9614
  99   2.0000      -1.013920       -27.5902
 100   2.0000      -1.013704       -27.5843
 101   2.0000      -1.008583       -27.4449
 102   2.0000      -1.002331       -27.2748
 103   2.0000      -1.001642       -27.2561
 104   2.0000      -1.001555       -27.2537
 105   2.0000      -1.000247       -27.2181
 106   2.0000      -0.998458       -27.1694
 107   2.0000      -0.994118       -27.0513
 108   2.0000      -0.980218       -26.6731
 109   2.0000      -0.975455       -26.5435
 110   2.0000      -0.972953       -26.4754
 111   2.0000      -0.950652       -25.8686
 112   2.0000      -0.931903       -25.3584
 113   2.0000      -0.927048       -25.2263
 114   2.0000      -0.924465       -25.1560
 115   2.0000      -0.920172       -25.0392
 116   2.0000      -0.909404       -24.7462
 117   2.0000      -0.907183       -24.6857
 118   2.0000      -0.904917       -24.6240
 119   2.0000      -0.895662       -24.3722
 120   2.0000      -0.890666       -24.2363
 121   2.0000      -0.888231       -24.1700
 122   2.0000      -0.883498       -24.0412
 123   2.0000      -0.882567       -24.0159
 124   2.0000      -0.880231       -23.9523
 125   2.0000      -0.875756       -23.8305
 126   2.0000      -0.859425       -23.3861
 127   2.0000      -0.847999       -23.0752
 128   2.0000      -0.839335       -22.8395
 129   2.0000      -0.835886       -22.7456
 130   2.0000      -0.829565       -22.5736
 131   2.0000      -0.827040       -22.5049
 132   2.0000      -0.815945       -22.2030
 133   2.0000      -0.803280       -21.8584
 134   2.0000      -0.789216       -21.4757
 135   2.0000      -0.775101       -21.0916
 136   2.0000      -0.772918       -21.0322
 137   2.0000      -0.771469       -20.9927
 138   2.0000      -0.762577       -20.7508
 139   2.0000      -0.760355       -20.6903
 140   2.0000      -0.744911       -20.2701
 141   2.0000      -0.731172       -19.8962
 142   2.0000      -0.724936       -19.7265
 143   2.0000      -0.723546       -19.6887
 144   2.0000      -0.715900       -19.4806
 145   2.0000      -0.713014       -19.4021
 146   2.0000      -0.707621       -19.2553
 147   2.0000      -0.703790       -19.1511
 148   2.0000      -0.702457       -19.1148
 149   2.0000      -0.695733       -18.9319
 150   2.0000      -0.694460       -18.8972
 151   2.0000      -0.686074       -18.6690
 152   2.0000      -0.679905       -18.5012
 153   2.0000      -0.678108       -18.4523
 154   2.0000      -0.673119       -18.3165
 155   2.0000      -0.666479       -18.1358
 156   2.0000      -0.654180       -17.8012
 157   2.0000      -0.649174       -17.6649
 158   2.0000      -0.646226       -17.5847
 159   2.0000      -0.641991       -17.4695
 160   2.0000      -0.638932       -17.3862
 161   2.0000      -0.633580       -17.2406
 162   2.0000      -0.632670       -17.2158
 163   2.0000      -0.629701       -17.1350
 164   2.0000      -0.626143       -17.0382
 165   2.0000      -0.625219       -17.0131
 166   2.0000      -0.623752       -16.9732
 167   2.0000      -0.620427       -16.8827
 168   2.0000      -0.617261       -16.7965
 169   2.0000      -0.614036       -16.7088
 170   2.0000      -0.609131       -16.5753
 171   2.0000      -0.608159       -16.5489
 172   2.0000      -0.599480       -16.3127
 173   2.0000      -0.595446       -16.2029
 174   2.0000      -0.586969       -15.9722
 175   2.0000      -0.584819       -15.9137
 176   2.0000      -0.581887       -15.8340
 177   2.0000      -0.574384       -15.6298
 178   2.0000      -0.570601       -15.5269
 179   2.0000      -0.566533       -15.4161
 180   2.0000      -0.562283       -15.3005
 181   2.0000      -0.561103       -15.2684
 182   2.0000      -0.560230       -15.2446
 183   2.0000      -0.556767       -15.1504
 184   2.0000      -0.554718       -15.0946
 185   2.0000      -0.553513       -15.0619
 186   2.0000      -0.552448       -15.0329
 187   2.0000      -0.549147       -14.9430
 188   2.0000      -0.547162       -14.8890
 189   2.0000      -0.545267       -14.8375
 190   2.0000      -0.543489       -14.7891
 191   2.0000      -0.541487       -14.7346
 192   2.0000      -0.540946       -14.7199
 193   2.0000      -0.540139       -14.6979
 194   2.0000      -0.535327       -14.5670
 195   2.0000      -0.533402       -14.5146
 196   2.0000      -0.528094       -14.3702
 197   2.0000      -0.524300       -14.2669
 198   2.0000      -0.522963       -14.2306
 199   2.0000      -0.517976       -14.0948
 200   2.0000      -0.517037       -14.0693
 201   2.0000      -0.515385       -14.0243
 202   2.0000      -0.512095       -13.9348
 203   2.0000      -0.511667       -13.9232
 204   2.0000      -0.507790       -13.8177
 205   2.0000      -0.507068       -13.7980
 206   2.0000      -0.504505       -13.7283
 207   2.0000      -0.503274       -13.6948
 208   2.0000      -0.501927       -13.6581
 209   2.0000      -0.495343       -13.4790
 210   2.0000      -0.494683       -13.4610
 211   2.0000      -0.491736       -13.3808
 212   2.0000      -0.491384       -13.3713
 213   2.0000      -0.487952       -13.2778
 214   2.0000      -0.485811       -13.2196
 215   2.0000      -0.483189       -13.1482
 216   2.0000      -0.481690       -13.1074
 217   2.0000      -0.478099       -13.0097
 218   2.0000      -0.476007       -12.9528
 219   2.0000      -0.474023       -12.8988
 220   2.0000      -0.468766       -12.7558
 221   2.0000      -0.467147       -12.7117
 222   2.0000      -0.465056       -12.6548
 223   2.0000      -0.459434       -12.5018
 224   2.0000      -0.458061       -12.4645
 225   2.0000      -0.455516       -12.3952
 226   2.0000      -0.454740       -12.3741
 227   2.0000      -0.453483       -12.3399
 228   2.0000      -0.449996       -12.2450
 229   2.0000      -0.448800       -12.2125
 230   2.0000      -0.448705       -12.2099
 231   2.0000      -0.445710       -12.1284
 232   2.0000      -0.444415       -12.0931
 233   2.0000      -0.443228       -12.0608
 234   2.0000      -0.442450       -12.0397
 235   2.0000      -0.441048       -12.0015
 236   2.0000      -0.436905       -11.8888
 237   2.0000      -0.436622       -11.8811
 238   2.0000      -0.435593       -11.8531
 239   2.0000      -0.433761       -11.8032
 240   2.0000      -0.432351       -11.7649
 241   2.0000      -0.429481       -11.6868
 242   2.0000      -0.428601       -11.6628
 243   2.0000      -0.425995       -11.5919
 244   2.0000      -0.423217       -11.5163
 245   2.0000      -0.420455       -11.4412
 246   2.0000      -0.420376       -11.4390
 247   2.0000      -0.415323       -11.3015
 248   2.0000      -0.414060       -11.2671
 249   2.0000      -0.407487       -11.0883
 250   2.0000      -0.406263       -11.0550
 251   2.0000      -0.398980       -10.8568
 252   2.0000      -0.393901       -10.7186
 253   2.0000      -0.385484       -10.4896
 254   2.0000      -0.384205       -10.4547
 255   2.0000      -0.382792       -10.4163
 256   2.0000      -0.378625       -10.3029
 257   2.0000      -0.374820       -10.1994
 258   2.0000      -0.374042       -10.1782
 259   2.0000      -0.366274        -9.9668
 260   2.0000      -0.364322        -9.9137
 261   2.0000      -0.359990        -9.7958
 262   2.0000      -0.354767        -9.6537
 263   2.0000      -0.354400        -9.6437
 264   2.0000      -0.349049        -9.4981
 265   2.0000      -0.345986        -9.4148
 266   2.0000      -0.335977        -9.1424
 267   2.0000      -0.333470        -9.0742
 268   2.0000      -0.326651        -8.8886
 269   2.0000      -0.325269        -8.8510
 270   2.0000      -0.318699        -8.6722
 271   2.0000      -0.314734        -8.5644
 272   2.0000      -0.302150        -8.2219
 273   2.0000      -0.299082        -8.1384
 274   2.0000      -0.290194        -7.8966
 275   2.0000      -0.278035        -7.5657
 276   2.0000      -0.248068        -6.7503
 277   0.0000      -0.146662        -3.9909
 278   0.0000      -0.118725        -3.2307
 279   0.0000      -0.090572        -2.4646
 280   0.0000      -0.077869        -2.1189
 281   0.0000      -0.068840        -1.8732

MULLIKEN ATOMIC CHARGES
-----------------------
   0 C :    0.286140
   1 C :   -0.340277
   2 C :   -0.193718
   3 N :    0.155639
   4 C :   -0.198712
   5 N :    0.184095
   6 C :    0.039699
   7 C :    0.008143
   8 C :   -0.088444
   9 C :    0.096127
  10 C :    0.089578
  11 C :   -0.071496
  12 C :   -0.001337
  13 C :    0.033569
  14 C :    0.037308
  15 C :   -0.017744
  16 C :    0.148948
  17 O :   -0.131669
  18 C :   -0.163450
  19 C :    0.028621
  20 C :    0.006747
  21 C :    0.122510
  22 N :    0.271968
  23 O :   -0.242976
  24 O :   -0.245665
  25 C :    0.008697
  26 C :    0.029017
  27 C :   -0.024165
  28 C :    0.012255
  29 C :    0.008798
  30 C :    0.055917
  31 C :    0.001360
  32 N :    0.285319
  33 O :   -0.270391
  34 O :   -0.268380
  35 C :    0.147595
  36 C :   -0.127944
  37 C :    0.070051
  38 C :   -0.055232
  39 S :    0.150727
  40 C :    0.002596
  41 C :    0.137209
  42 C :   -0.052824
  43 N :   -0.026883
  44 C :    0.105084
  45 C :   -0.107175
  46 C :    0.003793
  47 C :    0.031837
  48 C :   -0.100512
  49 S :    0.258815
  50 C :   -0.084038
  51 C :    0.123292
  52 C :    0.132441
  53 C :   -0.062095
  54 C :   -0.070194
  55 C :   -0.181963
  56 N :    0.180152
  57 C :   -0.065063
  58 C :   -0.170336
  59 N :    0.190643
  60 C :   -0.056042
  61 C :   -0.027823
  62 C :   -0.100873
  63 C :    0.336069
  64 C :   -0.356062
  65 C :   -0.181361
  66 N :    0.150923
  67 C :   -0.180277
  68 N :    0.146943
  69 C :    0.042141
  70 C :    0.001385
  71 C :    0.170645
  72 O :   -0.195198
  73 C :   -0.081725
  74 C :    0.098590
  75 C :    0.097011
  76 C :   -0.082249
  77 C :   -0.018313
  78 C :    0.035461
  79 C :    0.037975
  80 C :   -0.016481
  81 H :   -0.011082
  82 H :   -0.006137
  83 H :   -0.007073
  84 H :   -0.003005
  85 H :   -0.004115
  86 H :   -0.016881
  87 H :    0.045987
  88 H :   -0.003036
  89 H :   -0.006317
  90 H :   -0.012319
  91 H :    0.005052
  92 H :    0.020411
  93 H :    0.027469
  94 H :    0.000650
  95 H :    0.134460
  96 H :   -0.004998
  97 H :   -0.009151
  98 H :    0.002732
  99 H :   -0.010755
 100 H :    0.018452
 101 H :   -0.015814
 102 H :   -0.013104
 103 H :   -0.006880
 104 H :   -0.007514
 105 H :   -0.001042
 106 H :   -0.002404
 107 H :   -0.016329
Sum of atomic charges:   -0.0000000

LOEWDIN ATOMIC CHARGES
----------------------
   0 C :    0.078358
   1 C :   -0.144484
   2 C :   -0.018807
   3 N :   -0.061281
   4 C :   -0.018653
   5 N :   -0.046225
   6 C :   -0.021953
   7 C :   -0.057599
   8 C :    0.031398
   9 C :   -0.007991
  10 C :   -0.004807
  11 C :    0.021636
  12 C :    0.002343
  13 C :   -0.011511
  14 C :   -0.010284
  15 C :   -0.011348
  16 C :    0.082466
  17 O :   -0.133330
  18 C :   -0.076725
  19 C :    0.071219
  20 C :   -0.023135
  21 C :   -0.015931
  22 N :    0.286447
  23 O :   -0.205620
  24 O :   -0.206515
  25 C :    0.005584
  26 C :   -0.029979
  27 C :    0.002497
  28 C :    0.064177
  29 C :   -0.069640
  30 C :    0.051567
  31 C :   -0.093149
  32 N :    0.288769
  33 O :   -0.229530
  34 O :   -0.232751
  35 C :    0.027284
  36 C :   -0.047715
  37 C :    0.044342
  38 C :   -0.149984
  39 S :    0.438559
  40 C :   -0.167205
  41 C :   -0.020486
  42 C :   -0.024969
  43 N :    0.084975
  44 C :    0.017056
  45 C :   -0.066234
  46 C :   -0.018290
  47 C :   -0.034777
  48 C :   -0.151738
  49 S :    0.583440
  50 C :   -0.191647
  51 C :   -0.013965
  52 C :   -0.047903
  53 C :    0.027786
  54 C :   -0.051896
  55 C :   -0.033579
  56 N :   -0.032292
  57 C :   -0.038626
  58 C :   -0.031604
  59 N :   -0.019196
  60 C :    0.030551
  61 C :    0.046405
  62 C :   -0.102241
  63 C :    0.076697
  64 C :   -0.143465
  65 C :   -0.018153
  66 N :   -0.051016
  67 C :   -0.015501
  68 N :   -0.056683
  69 C :   -0.025462
  70 C :   -0.056662
  71 C :    0.086200
  72 O :   -0.178346
  73 C :    0.033990
  74 C :   -0.008684
  75 C :   -0.005507
  76 C :    0.021806
  77 C :   -0.004244
  78 C :   -0.010948
  79 C :   -0.010160
  80 C :   -0.008842
  81 H :    0.039756
  82 H :    0.037035
  83 H :    0.036302
  84 H :    0.033985
  85 H :    0.033136
  86 H :    0.031864
  87 H :    0.054604
  88 H :    0.037406
  89 H :    0.029976
  90 H :    0.030489
  91 H :    0.039648
  92 H :    0.027300
  93 H :    0.038954
  94 H :    0.042887
  95 H :    0.097736
  96 H :    0.033927
  97 H :    0.031885
  98 H :    0.036244
  99 H :    0.039313
 100 H :    0.048905
 101 H :    0.047144
 102 H :    0.039129
 103 H :    0.039848
 104 H :    0.035532
 105 H :    0.034546
 106 H :    0.033918
 107 H :    0.032247

  Mayer bond orders larger than 0.100000
B(  0-C ,  1-C ) :   1.6519 B(  0-C ,  6-C ) :   1.0120 B(  0-C , 18-C ) :   1.0043
B(  1-C ,  2-C ) :   1.1478 B(  1-C ,  4-C ) :   1.1755 B(  2-C ,  3-N ) :   2.9537
B(  4-C ,  5-N ) :   2.9732 B(  6-C ,  7-C ) :   1.2120 B(  6-C , 11-C ) :   1.4473
B(  7-C ,  8-C ) :   1.4682 B(  7-C , 16-C ) :   0.9157 B(  8-C ,  9-C ) :   1.1866
B(  8-C , 81-H ) :   1.0152 B(  9-C , 10-C ) :   1.2465 B(  9-C , 15-C ) :   1.2468
B( 10-C , 11-C ) :   1.2134 B( 10-C , 12-C ) :   1.2418 B( 11-C , 82-H ) :   0.9940
B( 12-C , 13-C ) :   1.4908 B( 12-C , 83-H ) :   0.9960 B( 13-C , 14-C ) :   1.2558
B( 13-C , 84-H ) :   0.9894 B( 14-C , 15-C ) :   1.4897 B( 14-C , 85-H ) :   0.9893
B( 15-C , 86-H ) :   0.9968 B( 16-C , 17-O ) :   2.2871 B( 16-C , 18-C ) :   0.9301
B( 18-C , 19-C ) :   1.6825 B( 19-C , 20-C ) :   1.0859 B( 19-C , 87-H ) :   0.9334
B( 20-C , 21-C ) :   1.5006 B( 20-C , 27-C ) :   1.0769 B( 21-C , 22-N ) :   0.9322
B( 21-C , 25-C ) :   1.1730 B( 22-N , 23-O ) :   1.5334 B( 22-N , 24-O ) :   1.4999
B( 23-O , 24-O ) :   0.2685 B( 25-C , 26-C ) :   1.5311 B( 25-C , 88-H ) :   1.0133
B( 26-C , 27-C ) :   1.1648 B( 26-C , 89-H ) :   1.0012 B( 27-C , 28-C ) :   1.4043
B( 28-C , 29-C ) :   1.1960 B( 28-C , 35-C ) :   1.0093 B( 29-C , 30-C ) :   1.4715
B( 29-C , 90-H ) :   1.0147 B( 30-C , 31-C ) :   1.1723 B( 30-C , 91-H ) :   1.0120
B( 31-C , 32-N ) :   0.9856 B( 31-C , 35-C ) :   1.3698 B( 32-N , 33-O ) :   1.4510
B( 32-N , 34-O ) :   1.5122 B( 33-O , 34-O ) :   0.2311 B( 33-O , 93-H ) :   0.1009
B( 35-C , 36-C ) :   1.2928 B( 36-C , 37-C ) :   1.4396 B( 36-C , 92-H ) :   0.9496
B( 37-C , 38-C ) :   1.2701 B( 37-C , 93-H ) :   0.9533 B( 38-C , 39-S ) :   1.0629
B( 38-C , 42-C ) :   1.3462 B( 39-S , 40-C ) :   1.0721 B( 40-C , 41-C ) :   1.2814
B( 40-C , 45-C ) :   1.3632 B( 41-C , 42-C ) :   1.2622 B( 41-C , 43-N ) :   1.1821
B( 42-C , 94-H ) :   1.0284 B( 43-N , 44-C ) :   1.1863 B( 43-N , 95-H ) :   0.9317
B( 44-C , 45-C ) :   1.3756 B( 44-C , 46-C ) :   1.1432 B( 45-C , 96-H ) :   1.0134
B( 46-C , 47-C ) :   1.6266 B( 46-C , 97-H ) :   0.9583 B( 47-C , 48-C ) :   1.1823
B( 47-C , 98-H ) :   0.9493 B( 48-C , 49-S ) :   1.1806 B( 48-C , 52-C ) :   1.2256
B( 49-S , 50-C ) :   1.1168 B( 50-C , 51-C ) :   1.2199 B( 50-C , 61-C ) :   1.3019
B( 51-C , 52-C ) :   1.2441 B( 51-C , 60-C ) :   1.2237 B( 52-C , 53-C ) :   1.2214
B( 53-C , 54-C ) :   1.5325 B( 53-C , 99-H ) :   0.9919 B( 54-C , 55-C ) :   1.0742
B( 54-C , 57-C ) :   1.2776 B( 55-C , 56-N ) :   3.0497 B( 57-C , 58-C ) :   1.0859
B( 57-C , 60-C ) :   1.5327 B( 58-C , 59-N ) :   3.0401 B( 60-C ,100-H ) :   0.9849
B( 61-C , 62-C ) :   1.5092 B( 61-C ,101-H ) :   0.9261 B( 62-C , 63-C ) :   1.0819
B( 62-C , 71-C ) :   0.9793 B( 63-C , 64-C ) :   1.6126 B( 63-C , 69-C ) :   0.9863
B( 64-C , 65-C ) :   1.1494 B( 64-C , 67-C ) :   1.1523 B( 65-C , 66-N ) :   2.9609
B( 67-C , 68-N ) :   2.9663 B( 69-C , 70-C ) :   1.2124 B( 69-C , 76-C ) :   1.4587
B( 70-C , 71-C ) :   0.9674 B( 70-C , 73-C ) :   1.4661 B( 71-C , 72-O ) :   2.0997
B( 73-C , 74-C ) :   1.1765 B( 73-C ,102-H ) :   1.0170 B( 74-C , 75-C ) :   1.2562
B( 74-C , 80-C ) :   1.2463 B( 75-C , 76-C ) :   1.2006 B( 75-C , 77-C ) :   1.2442
B( 76-C ,103-H ) :   0.9888 B( 77-C , 78-C ) :   1.4843 B( 77-C ,104-H ) :   0.9971
B( 78-C , 79-C ) :   1.2637 B( 78-C ,105-H ) :   0.9890 B( 79-C , 80-C ) :   1.4856
B( 79-C ,106-H ) :   0.9887 B( 80-C ,107-H ) :   0.9975

-----------------------------------------------------------------------------
         ABSORPTION SPECTRUM VIA TRANSITION ELECTRIC DIPOLE MOMENTS
-----------------------------------------------------------------------------
State   Energy  Wavelength   fosc         T2         TX        TY        TZ
        (cm-1)    (nm)                  (au**2)     (au)      (au)      (au)
-----------------------------------------------------------------------------
   0    6524.7   1532.6   0.386079867  19.48021   2.35829  -3.45570  -1.40600
   1   11893.8    840.8   0.274031044   7.58499   2.15867  -1.57962  -0.65569
   2   14761.3    677.4   1.315748189  29.34439   4.79940  -2.36696  -0.84124
   3   16628.6    601.4   0.039084524   0.77379  -0.06444  -0.60059   0.63948
   4   17276.3    578.8   0.021575249   0.41113  -0.60367   0.17545   0.12620
   5   17737.0    563.8   0.034024647   0.63152  -0.04848   0.40402   0.68260
   6   20710.6    482.8   0.004934779   0.07844  -0.12836   0.13562  -0.20874
   7   21389.6    467.5   0.166251093   2.55881  -0.95432  -1.23639  -0.34557
   8   21778.2    459.2   0.109698978   1.65827   0.10223   1.27632   0.13718
   9   22882.3    437.0   0.018820714   0.27078   0.40165   0.15749  -0.29095
  10   23124.0    432.5   0.018056981   0.25707  -0.14483  -0.17968  -0.45146
  11   23689.6    422.1   0.075440599   1.04839  -0.38242  -0.64605   0.69625
  12   23921.5    418.0   0.068921450   0.94851   0.90236   0.18134   0.31840
  13   24645.5    405.8   0.066163924   0.88381  -0.56541   0.51897   0.54294
  14   24831.6    402.7   0.043369797   0.57499  -0.12260  -0.27745   0.69497
  15   25388.5    393.9   0.092379573   1.19788  -1.06231  -0.16578  -0.20469
  16   25848.1    386.9   0.007931757   0.10102  -0.24108  -0.02765   0.20527
  17   25893.7    386.2   0.136060102   1.72986  -0.68106  -1.09498  -0.25894
  18   26157.8    382.3   0.043540609   0.54798  -0.49109  -0.55268   0.03679
  19   26464.4    377.9   0.011927250   0.14837   0.00461   0.21305  -0.32088
  20   26836.4    372.6   0.087844647   1.07762   0.45873   0.71151   0.60079
  21   27006.4    370.3   0.100476638   1.22482  -0.75670   0.11070  -0.79998
  22   27421.8    364.7   0.011273663   0.13535  -0.14172  -0.23791  -0.24219
  23   27721.5    360.7   0.055545564   0.65964   0.69377  -0.32321   0.27177
  24   28582.7    349.9   0.453102606   5.21878  -1.90641   0.86100  -0.91819
  25   28863.5    346.5   0.017196991   0.19615   0.35924   0.24442  -0.08575
  26   28941.2    345.5   0.057672942   0.65604  -0.73595  -0.19989  -0.27288
  27   29336.8    340.9   0.041681860   0.46775  -0.38311  -0.54336   0.16042
  28   29713.3    336.5   0.111397866   1.23424  -0.43082  -0.52073  -0.88175
  29   29953.3    333.9   0.028959406   0.31829   0.55355   0.08979   0.06173
  30   30438.2    328.5   0.024505148   0.26504   0.09161   0.22124   0.45574
  31   30653.1    326.2   0.003114428   0.03345  -0.00975  -0.16073  -0.08672
  32   30748.5    325.2   0.007585193   0.08121  -0.11157  -0.23145  -0.12327
  33   30891.8    323.7   0.022924109   0.24430  -0.05005  -0.41202  -0.26839
  34   30958.8    323.0   0.032717648   0.34792   0.45152  -0.35636   0.13060
  35   31285.3    319.6   0.201860210   2.12415   0.90715   0.90851   0.68981
  36   31527.9    317.2   0.346660982   3.61981  -0.17519  -1.88517   0.18773
  37   31638.7    316.1   0.000396960   0.00413  -0.02303  -0.05985   0.00424
  38   31854.8    313.9   0.252502785   2.60956   1.24772   0.94689   0.39515
  39   32584.9    306.9   0.069116389   0.69830  -0.75026  -0.24815  -0.27171
  40   32673.5    306.1   0.098369649   0.99115  -0.78363   0.33139  -0.51697
  41   32926.6    303.7   0.043962016   0.43955  -0.45860  -0.43530  -0.19938
  42   33285.7    300.4   0.039221729   0.38792   0.01461  -0.60540  -0.14562
  43   33477.1    298.7   0.130202559   1.28040  -1.11048   0.07428   0.20426
  44   33512.7    298.4   0.033264245   0.32677  -0.54593  -0.16783   0.02380
  45   33598.1    297.6   0.055501273   0.54383  -0.50797   0.51629  -0.13874
  46   33774.5    296.1   0.328008569   3.19721  -1.29089  -1.21302  -0.24374
  47   33851.6    295.4   0.027510834   0.26755   0.17115   0.47588   0.10857
  48   34138.1    292.9   0.057012064   0.54980   0.66422   0.32575   0.04998
  49   34291.9    291.6   0.007854613   0.07541   0.11462   0.04027  -0.24627
  50   34435.2    290.4   0.161993971   1.54872  -0.99856   0.37689  -0.63996
  51   34544.6    289.5   0.052599225   0.50127   0.08078   0.49108   0.50357
  52   35120.9    284.7   0.030806093   0.28877  -0.45815  -0.24893  -0.12998
  53   35233.8    283.8   0.516395178   4.82501   1.44526  -0.93382   1.36537
  54   35342.8    282.9   0.028106721   0.26181  -0.45365   0.17956  -0.15416
  55   35513.7    281.6   0.003465514   0.03213   0.09791  -0.15013  -0.00005
  56   35736.6    279.8   0.030319595   0.27931  -0.45311   0.26177  -0.07401
  57   36048.8    277.4   0.076352961   0.69729   0.56705   0.60844   0.07445
  58   36383.5    274.8   0.023012966   0.20823   0.12853   0.42166   0.11796
  59   36532.6    273.7   0.084006412   0.75702   0.75110   0.00607   0.43913
  60   36536.6    273.7   0.061577818   0.55484   0.21929  -0.70043   0.12709
  61   36727.7    272.3   0.002032015   0.01821  -0.00453  -0.08821  -0.10204
  62   36827.5    271.5   0.056318212   0.50344  -0.21180   0.30391  -0.60516
  63   37065.0    269.8   0.253449315   2.25114  -1.38190   0.14078  -0.56717
  64   37672.3    265.4   0.022664377   0.19806   0.37928  -0.01952  -0.23201
  65   37747.3    264.9   0.023378332   0.20389  -0.32018   0.27753  -0.15606
  66   38069.4    262.7   0.049499260   0.42805  -0.29444  -0.24050  -0.53247
  67   38195.9    261.8   0.103369146   0.89094  -0.88643   0.04718  -0.32086
  68   38267.3    261.3   0.288715685   2.48381  -0.51298   1.44121   0.37891
  69   38539.1    259.5   0.019719908   0.16845   0.17150  -0.37269   0.01181
  70   38707.4    258.3   0.028021568   0.23833   0.03812   0.47465   0.10760
  71   38958.9    256.7   0.026964142   0.22785   0.45834  -0.02192  -0.13153
  72   39047.3    256.1   0.026996546   0.22761   0.42959  -0.12274  -0.16732
  73   39241.0    254.8   0.077828007   0.65294   0.48120   0.52034   0.38812
  74   39324.7    254.3   0.070760406   0.59238   0.60026  -0.48010   0.03953
  75   39776.8    251.4   0.000476767   0.00395  -0.03883  -0.04936   0.00117
  76   40017.5    249.9   0.170786537   1.40501   0.54985   0.93942   0.46922
  77   40137.3    249.1   0.018563876   0.15226   0.16677   0.24050   0.25810
  78   40209.5    248.7   0.087221539   0.71412   0.57935   0.21508  -0.57638
  79   40268.8    248.3   0.018807183   0.15376  -0.22937  -0.18531  -0.25847
  80   40286.0    248.2   0.025967425   0.21220  -0.18763   0.17727   0.38154

FINAL SINGLE POINT ENERGY     -4190.650156963894

DIPOLE MOMENT
-------------
                                X             Y             Z
Electronic contribution:     -5.32864      20.15453      -6.10410
Nuclear contribution   :      5.19509     -22.18776       6.83400
                        -----------------------------------------
Total Dipole Moment    :     -0.13355      -2.03323       0.72990
                        -----------------------------------------
Magnitude (a.u.)       :      2.16439
Magnitude (Debye)      :      5.50145

Rotational constants in cm-1:     0.001174     0.000228     0.000206
Rotational constants in MHz :    35.192828     6.822591     6.167382

                             ****ORCA TERMINATED NORMALLY****
TOTAL RUN TIME: 0 days 0 hours 16 minutes 19 seconds 182 msec
