                         Program Version 4.2.0 -  RELEASE  -
|  1> # ORCA input file
|  2> # SCF done       -208.256090526821          0.000970909797
|  3> ! CAM-B3LYP def2-SVP def2/J RIJCOSX Grid4 TightSCF
|  4> %maxcore 5000
|  5> %tddft
|  6>     Mode sTDDFT
|  7>     Ethresh 5.0
|  8>     maxcore 5000
|  9> end
| 10>
| 11> %pal
| 12>   nprocs 6
| 13>   end
| 14> * xyz 0 1
| 15>    C        1.19200         0.42916         1.65310
| 16>    C        1.65169        -0.18924         0.52195
| 17>    C        2.46750        -1.34089         0.53067
| 18>    N        3.13704        -2.27150         0.47145
| 19>    C        1.36519         0.20259        -0.80410
| 20>    N        1.17326         0.43077        -1.91285
| 21>    C        1.42317        -0.01789         3.01965
| 22>    C        0.67085         0.80997         3.90011
| 23>    C        0.68536         0.62709         5.25319
| 24>    C        1.47075        -0.41189         5.79935
| 25>    C        2.23469        -1.23949         4.92620
| 26>    C        2.19831        -1.02678         3.52939
| 27>    C        3.02191        -2.26830         5.48290
| 28>    C        3.05214        -2.47277         6.83541
| 29>    C        2.29732        -1.65900         7.69374
| 30>    C        1.52321        -0.65086         7.18677
| 31>    C       -0.06506         1.82378         3.12577
| 32>    O       -0.79525         2.67821         3.57957
| 33>    C        0.33481         1.60763         1.70547
| 34>    C        0.13915         2.46548         0.67209
| 35>    C       -0.66848         3.65239         0.63967
| 36>    C       -1.87909         3.80776         1.29698
| 37>    C       -2.61138         4.98710         1.20802
| 38>    C       -2.15372         6.07515         0.48410
| 39>    C       -0.91423         5.95239        -0.20835
| 40>    C       -0.21208         4.72457        -0.18371
| 41>    N        0.88919         4.56808        -0.94218
| 42>    C        1.30156         5.56641        -1.67802
| 43>    C        0.68315         6.84964        -1.57095
| 44>    N       -0.38841         7.01355        -0.84432
| 45>    C        1.23777         8.04690        -2.26368
| 46>    C        2.45908         5.32422        -2.58363
| 47>    C       -2.87283         7.31473         0.32715
| 48>    N       -3.51009         8.00566         1.32453
| 49>    C       -3.60513         7.65470         2.72293
| 50>    C       -4.99819         7.14146         3.07844
| 51>    C       -4.01172         9.23463         0.86117
| 52>    O       -4.58888        10.03511         1.57687
| 53>    C       -3.67078         9.26085        -0.54106
| 54>    C       -2.97322         8.06226        -0.83729
| 55>    C       -2.66895         8.05485        -2.25464
| 56>    O       -2.15787         7.23760        -2.98759
| 57>    N       -3.16173         9.29575        -2.71137
| 58>    C       -2.99905         9.70302        -4.08524
| 59>    C       -1.81756        10.65432        -4.25998
| 60>    C       -3.75432        10.02461        -1.70775
| 61>    C       -4.30686        11.31218        -1.87486
| 62>    C       -4.88592        11.97884        -0.83356
| 63>    C       -5.41286        13.27768        -0.90683
| 64>    S       -5.32810        14.25191        -2.33196
| 65>    C       -6.12280        15.59418        -1.56393
| 66>    C       -6.45754        15.27349        -0.21728
| 67>    C       -6.04720        13.96381         0.15691
| 68>    C       -6.28545        13.48171         1.45024
| 69>    C       -6.93114        14.29304         2.35951
| 70>    C       -7.18644        13.82819         3.67117
| 71>    N       -7.38901        13.44142         4.73026
| 72>    C       -7.34797        15.60248         1.98783
| 73>    C       -8.01004        16.41111         2.94235
| 74>    N       -8.54797        17.05789         3.71957
| 75>    C       -7.11266        16.08689         0.71727
| 76>    C       -6.39769        16.83287        -2.14149
| 77>    C       -6.12003        17.31901        -3.39954
| 78>    C       -6.44169        18.64840        -3.87603
| 79>    C       -7.09165        19.64589        -3.19088
| 80>    C       -7.36735        20.92096        -3.72657
| 81>    N       -7.62513        21.97571        -4.10001
| 82>    C       -7.57602        19.55599        -1.87053
| 83>    N       -7.99642        19.55207        -0.80061
| 84>    C       -5.94517        18.75573        -5.24545
| 85>    C       -5.33987        17.51734        -5.60570
| 86>    C       -5.43610        16.58980        -4.47072
| 87>    O       -5.02349        15.44018        -4.43424
| 88>    C       -4.77971        17.31458        -6.83339
| 89>    C       -4.79769        18.36441        -7.77926
| 90>    C       -5.39991        19.60651        -7.42815
| 91>    C       -5.97351        19.78523        -6.14714
| 92>    C       -5.41129        20.64755        -8.37777
| 93>    C       -4.85481        20.47207        -9.61599
| 94>    C       -4.26239        19.24857        -9.96067
| 95>    C       -4.23447        18.21675        -9.06154
| 96>    H        0.10360         1.26857         5.89856
| 97>    H        2.79234        -1.66640         2.89620
| 98>    H        3.60007        -2.89317         4.81808
| 99>    H        3.65803        -3.26339         7.25199
|100>    H        2.33292        -1.83474         8.75848
|101>    H        0.94030        -0.02069         7.84253
|102>    H        0.72045         2.32332        -0.23118
|103>    H       -2.29000         2.98522         1.85796
|104>    H       -3.57731         5.02981         1.68605
|105>    H        2.29316         8.17760        -2.03100
|106>    H        0.68266         8.92818        -1.95461
|107>    H        1.13919         7.92136        -3.34117
|108>    H        2.74582         4.27781        -2.53175
|109>    H        3.30669         5.94548        -2.29686
|110>    H        2.18852         5.57550        -3.60767
|111>    H       -3.40788         8.56449         3.29866
|112>    H       -2.83807         6.91275         2.95283
|113>    H       -5.73209         7.92455         2.90682
|114>    H       -5.02853         6.85896         4.12684
|115>    H       -5.26659         6.27781         2.47384
|116>    H       -3.92400        10.16292        -4.44372
|117>    H       -2.81773         8.78515        -4.65192
|118>    H       -1.95762        11.56262        -3.67826
|119>    H       -1.71382        10.92354        -5.30740
|120>    H       -0.90133        10.16973        -3.93187
|121>    H       -4.25868        11.78023        -2.84804
|122>    H       -4.93814        11.48454         0.12668
|123>    H       -5.96944        12.49120         1.74013
|124>    H       -7.44167        17.08515         0.46970
|125>    H       -6.90263        17.51741        -1.47471
|126>    H       -4.32712        16.36574        -7.08086
|127>    H       -6.42051        20.73842        -5.91469
|128>    H       -5.86869        21.58806        -8.10782
|129>    H       -4.86848        21.27606       -10.33644
|130>    H       -3.82810        19.12704       -10.94172
|131>    H       -3.77942        17.27205        -9.32143
|132> *
|133>
|134>                          ****END OF INPUT****

CARTESIAN COORDINATES (ANGSTROEM)
---------------------------------
  C      1.192000    0.429160    1.653100
  C      1.651690   -0.189240    0.521950
  C      2.467500   -1.340890    0.530670
  N      3.137040   -2.271500    0.471450
  C      1.365190    0.202590   -0.804100
  N      1.173260    0.430770   -1.912850
  C      1.423170   -0.017890    3.019650
  C      0.670850    0.809970    3.900110
  C      0.685360    0.627090    5.253190
  C      1.470750   -0.411890    5.799350
  C      2.234690   -1.239490    4.926200
  C      2.198310   -1.026780    3.529390
  C      3.021910   -2.268300    5.482900
  C      3.052140   -2.472770    6.835410
  C      2.297320   -1.659000    7.693740
  C      1.523210   -0.650860    7.186770
  C     -0.065060    1.823780    3.125770
  O     -0.795250    2.678210    3.579570
  C      0.334810    1.607630    1.705470
  C      0.139150    2.465480    0.672090
  C     -0.668480    3.652390    0.639670
  C     -1.879090    3.807760    1.296980
  C     -2.611380    4.987100    1.208020
  C     -2.153720    6.075150    0.484100
  C     -0.914230    5.952390   -0.208350
  C     -0.212080    4.724570   -0.183710
  N      0.889190    4.568080   -0.942180
  C      1.301560    5.566410   -1.678020
  C      0.683150    6.849640   -1.570950
  N     -0.388410    7.013550   -0.844320
  C      1.237770    8.046900   -2.263680
  C      2.459080    5.324220   -2.583630
  C     -2.872830    7.314730    0.327150
  N     -3.510090    8.005660    1.324530
  C     -3.605130    7.654700    2.722930
  C     -4.998190    7.141460    3.078440
  C     -4.011720    9.234630    0.861170
  O     -4.588880   10.035110    1.576870
  C     -3.670780    9.260850   -0.541060
  C     -2.973220    8.062260   -0.837290
  C     -2.668950    8.054850   -2.254640
  O     -2.157870    7.237600   -2.987590
  N     -3.161730    9.295750   -2.711370
  C     -2.999050    9.703020   -4.085240
  C     -1.817560   10.654320   -4.259980
  C     -3.754320   10.024610   -1.707750
  C     -4.306860   11.312180   -1.874860
  C     -4.885920   11.978840   -0.833560
  C     -5.412860   13.277680   -0.906830
  S     -5.328100   14.251910   -2.331960
  C     -6.122800   15.594180   -1.563930
  C     -6.457540   15.273490   -0.217280
  C     -6.047200   13.963810    0.156910
  C     -6.285450   13.481710    1.450240
  C     -6.931140   14.293040    2.359510
  C     -7.186440   13.828190    3.671170
  N     -7.389010   13.441420    4.730260
  C     -7.347970   15.602480    1.987830
  C     -8.010040   16.411110    2.942350
  N     -8.547970   17.057890    3.719570
  C     -7.112660   16.086890    0.717270
  C     -6.397690   16.832870   -2.141490
  C     -6.120030   17.319010   -3.399540
  C     -6.441690   18.648400   -3.876030
  C     -7.091650   19.645890   -3.190880
  C     -7.367350   20.920960   -3.726570
  N     -7.625130   21.975710   -4.100010
  C     -7.576020   19.555990   -1.870530
  N     -7.996420   19.552070   -0.800610
  C     -5.945170   18.755730   -5.245450
  C     -5.339870   17.517340   -5.605700
  C     -5.436100   16.589800   -4.470720
  O     -5.023490   15.440180   -4.434240
  C     -4.779710   17.314580   -6.833390
  C     -4.797690   18.364410   -7.779260
  C     -5.399910   19.606510   -7.428150
  C     -5.973510   19.785230   -6.147140
  C     -5.411290   20.647550   -8.377770
  C     -4.854810   20.472070   -9.615990
  C     -4.262390   19.248570   -9.960670
  C     -4.234470   18.216750   -9.061540
  H      0.103600    1.268570    5.898560
  H      2.792340   -1.666400    2.896200
  H      3.600070   -2.893170    4.818080
  H      3.658030   -3.263390    7.251990
  H      2.332920   -1.834740    8.758480
  H      0.940300   -0.020690    7.842530
  H      0.720450    2.323320   -0.231180
  H     -2.290000    2.985220    1.857960
  H     -3.577310    5.029810    1.686050
  H      2.293160    8.177600   -2.031000
  H      0.682660    8.928180   -1.954610
  H      1.139190    7.921360   -3.341170
  H      2.745820    4.277810   -2.531750
  H      3.306690    5.945480   -2.296860
  H      2.188520    5.575500   -3.607670
  H     -3.407880    8.564490    3.298660
  H     -2.838070    6.912750    2.952830
  H     -5.732090    7.924550    2.906820
  H     -5.028530    6.858960    4.126840
  H     -5.266590    6.277810    2.473840
  H     -3.924000   10.162920   -4.443720
  H     -2.817730    8.785150   -4.651920
  H     -1.957620   11.562620   -3.678260
  H     -1.713820   10.923540   -5.307400
  H     -0.901330   10.169730   -3.931870
  H     -4.258680   11.780230   -2.848040
  H     -4.938140   11.484540    0.126680
  H     -5.969440   12.491200    1.740130
  H     -7.441670   17.085150    0.469700
  H     -6.902630   17.517410   -1.474710
  H     -4.327120   16.365740   -7.080860
  H     -6.420510   20.738420   -5.914690
  H     -5.868690   21.588060   -8.107820
  H     -4.868480   21.276060  -10.336440
  H     -3.828100   19.127040  -10.941720
  H     -3.779420   17.272050   -9.321430

 Total Charge           Charge          ....    0
 Multiplicity           Mult            ....    1
 Number of Electrons    NEL             ....  550
 Basis Dimension        Dim             .... 1318

ORBITAL ENERGIES
----------------

  NO   OCC          E(Eh)            E(eV)
   0   2.0000     -88.994368     -2421.6599
   1   2.0000     -19.228208      -523.2261
   2   2.0000     -19.219629      -522.9927
   3   2.0000     -19.206999      -522.6490
   4   2.0000     -19.194426      -522.3069
   5   2.0000     -14.465544      -393.6275
   6   2.0000     -14.460711      -393.4959
   7   2.0000     -14.423737      -392.4899
   8   2.0000     -14.423656      -392.4876
   9   2.0000     -14.420336      -392.3973
  10   2.0000     -14.416244      -392.2860
  11   2.0000     -14.416213      -392.2851
  12   2.0000     -14.414753      -392.2454
  13   2.0000     -14.410342      -392.1253
  14   2.0000     -14.409262      -392.0959
  15   2.0000     -10.386048      -282.6187
  16   2.0000     -10.379091      -282.4294
  17   2.0000     -10.375945      -282.3438
  18   2.0000     -10.371513      -282.2232
  19   2.0000     -10.351037      -281.6660
  20   2.0000     -10.346588      -281.5450
  21   2.0000     -10.345310      -281.5102
  22   2.0000     -10.344487      -281.4878
  23   2.0000     -10.343737      -281.4674
  24   2.0000     -10.341134      -281.3966
  25   2.0000     -10.338780      -281.3325
  26   2.0000     -10.335996      -281.2568
  27   2.0000     -10.335880      -281.2536
  28   2.0000     -10.335073      -281.2316
  29   2.0000     -10.330635      -281.1109
  30   2.0000     -10.329072      -281.0683
  31   2.0000     -10.326739      -281.0049
  32   2.0000     -10.325949      -280.9834
  33   2.0000     -10.323711      -280.9225
  34   2.0000     -10.322687      -280.8946
  35   2.0000     -10.322402      -280.8868
  36   2.0000     -10.319484      -280.8074
  37   2.0000     -10.318840      -280.7899
  38   2.0000     -10.317124      -280.7432
  39   2.0000     -10.317047      -280.7411
  40   2.0000     -10.316667      -280.7308
  41   2.0000     -10.316481      -280.7257
  42   2.0000     -10.315906      -280.7101
  43   2.0000     -10.315090      -280.6879
  44   2.0000     -10.314499      -280.6718
  45   2.0000     -10.312289      -280.6117
  46   2.0000     -10.310528      -280.5637
  47   2.0000     -10.308912      -280.5198
  48   2.0000     -10.307533      -280.4822
  49   2.0000     -10.307361      -280.4775
  50   2.0000     -10.306812      -280.4626
  51   2.0000     -10.305276      -280.4208
  52   2.0000     -10.304869      -280.4097
  53   2.0000     -10.302548      -280.3466
  54   2.0000     -10.302322      -280.3404
  55   2.0000     -10.301868      -280.3281
  56   2.0000     -10.301471      -280.3173
  57   2.0000     -10.301154      -280.3087
  58   2.0000     -10.300453      -280.2896
  59   2.0000     -10.300282      -280.2849
  60   2.0000     -10.300029      -280.2780
  61   2.0000     -10.299328      -280.2590
  62   2.0000     -10.298967      -280.2491
  63   2.0000     -10.298279      -280.2304
  64   2.0000     -10.295926      -280.1664
  65   2.0000     -10.293822      -280.1091
  66   2.0000     -10.290882      -280.0291
  67   2.0000     -10.290788      -280.0266
  68   2.0000     -10.290283      -280.0128
  69   2.0000     -10.289739      -279.9980
  70   2.0000     -10.289197      -279.9833
  71   2.0000     -10.289074      -279.9799
  72   2.0000     -10.288576      -279.9664
  73   2.0000     -10.288235      -279.9571
  74   2.0000     -10.287728      -279.9433
  75   2.0000     -10.274376      -279.5800
  76   2.0000     -10.273564      -279.5579
  77   2.0000     -10.272845      -279.5383
  78   2.0000     -10.272774      -279.5364
  79   2.0000     -10.269047      -279.4350
  80   2.0000     -10.265799      -279.3466
  81   2.0000      -8.086932      -220.0566
  82   2.0000      -6.055962      -164.7911
  83   2.0000      -6.051423      -164.6676
  84   2.0000      -6.050069      -164.6307
  85   2.0000      -1.144485       -31.1430
  86   2.0000      -1.142522       -31.0896
  87   2.0000      -1.134969       -30.8841
  88   2.0000      -1.134520       -30.8719
  89   2.0000      -1.086314       -29.5601
  90   2.0000      -1.073594       -29.2140
  91   2.0000      -1.064207       -28.9585
  92   2.0000      -1.031260       -28.0620
  93   2.0000      -1.023074       -27.8393
  94   2.0000      -1.018939       -27.7267
  95   2.0000      -1.008820       -27.4514
  96   2.0000      -1.004717       -27.3397
  97   2.0000      -1.003849       -27.3161
  98   2.0000      -0.999773       -27.2052
  99   2.0000      -0.997322       -27.1385
 100   2.0000      -0.993707       -27.0401
 101   2.0000      -0.989628       -26.9292
 102   2.0000      -0.976616       -26.5751
 103   2.0000      -0.975757       -26.5517
 104   2.0000      -0.969296       -26.3759
 105   2.0000      -0.966062       -26.2879
 106   2.0000      -0.942940       -25.6587
 107   2.0000      -0.935328       -25.4516
 108   2.0000      -0.927157       -25.2292
 109   2.0000      -0.926124       -25.2011
 110   2.0000      -0.911482       -24.8027
 111   2.0000      -0.908039       -24.7090
 112   2.0000      -0.897046       -24.4099
 113   2.0000      -0.892991       -24.2995
 114   2.0000      -0.889986       -24.2178
 115   2.0000      -0.885733       -24.1020
 116   2.0000      -0.883154       -24.0318
 117   2.0000      -0.881574       -23.9888
 118   2.0000      -0.879746       -23.9391
 119   2.0000      -0.873558       -23.7707
 120   2.0000      -0.855933       -23.2911
 121   2.0000      -0.843804       -22.9611
 122   2.0000      -0.832801       -22.6617
 123   2.0000      -0.830491       -22.5988
 124   2.0000      -0.828449       -22.5432
 125   2.0000      -0.824943       -22.4479
 126   2.0000      -0.817709       -22.2510
 127   2.0000      -0.813100       -22.1256
 128   2.0000      -0.803134       -21.8544
 129   2.0000      -0.784651       -21.3515
 130   2.0000      -0.772851       -21.0303
 131   2.0000      -0.768554       -20.9134
 132   2.0000      -0.767892       -20.8954
 133   2.0000      -0.765239       -20.8232
 134   2.0000      -0.763499       -20.7759
 135   2.0000      -0.740074       -20.1384
 136   2.0000      -0.736968       -20.0539
 137   2.0000      -0.727296       -19.7907
 138   2.0000      -0.723560       -19.6891
 139   2.0000      -0.722510       -19.6605
 140   2.0000      -0.716811       -19.5054
 141   2.0000      -0.709501       -19.3065
 142   2.0000      -0.705971       -19.2105
 143   2.0000      -0.704256       -19.1638
 144   2.0000      -0.700150       -19.0521
 145   2.0000      -0.699673       -19.0391
 146   2.0000      -0.689253       -18.7555
 147   2.0000      -0.684190       -18.6178
 148   2.0000      -0.678939       -18.4749
 149   2.0000      -0.672657       -18.3039
 150   2.0000      -0.668628       -18.1943
 151   2.0000      -0.661000       -17.9867
 152   2.0000      -0.651041       -17.7157
 153   2.0000      -0.649262       -17.6673
 154   2.0000      -0.643104       -17.4997
 155   2.0000      -0.636750       -17.3268
 156   2.0000      -0.630991       -17.1701
 157   2.0000      -0.629377       -17.1262
 158   2.0000      -0.618009       -16.8169
 159   2.0000      -0.616340       -16.7715
 160   2.0000      -0.610865       -16.6225
 161   2.0000      -0.609580       -16.5875
 162   2.0000      -0.607988       -16.5442
 163   2.0000      -0.597581       -16.2610
 164   2.0000      -0.596463       -16.2306
 165   2.0000      -0.594400       -16.1744
 166   2.0000      -0.588950       -16.0261
 167   2.0000      -0.584552       -15.9065
 168   2.0000      -0.580135       -15.7863
 169   2.0000      -0.575993       -15.6736
 170   2.0000      -0.571515       -15.5517
 171   2.0000      -0.564821       -15.3696
 172   2.0000      -0.561809       -15.2876
 173   2.0000      -0.557411       -15.1679
 174   2.0000      -0.556207       -15.1352
 175   2.0000      -0.553306       -15.0562
 176   2.0000      -0.549530       -14.9535
 177   2.0000      -0.549355       -14.9487
 178   2.0000      -0.548402       -14.9228
 179   2.0000      -0.547927       -14.9099
 180   2.0000      -0.544278       -14.8106
 181   2.0000      -0.541574       -14.7370
 182   2.0000      -0.539150       -14.6710
 183   2.0000      -0.538010       -14.6400
 184   2.0000      -0.536085       -14.5876
 185   2.0000      -0.534931       -14.5562
 186   2.0000      -0.534069       -14.5328
 187   2.0000      -0.531659       -14.4672
 188   2.0000      -0.529274       -14.4023
 189   2.0000      -0.526675       -14.3315
 190   2.0000      -0.524136       -14.2625
 191   2.0000      -0.521715       -14.1966
 192   2.0000      -0.520957       -14.1760
 193   2.0000      -0.516653       -14.0589
 194   2.0000      -0.514462       -13.9992
 195   2.0000      -0.513674       -13.9778
 196   2.0000      -0.512848       -13.9553
 197   2.0000      -0.509924       -13.8757
 198   2.0000      -0.506506       -13.7827
 199   2.0000      -0.503923       -13.7124
 200   2.0000      -0.502557       -13.6753
 201   2.0000      -0.500333       -13.6148
 202   2.0000      -0.498438       -13.5632
 203   2.0000      -0.497319       -13.5327
 204   2.0000      -0.496553       -13.5119
 205   2.0000      -0.495450       -13.4819
 206   2.0000      -0.491590       -13.3769
 207   2.0000      -0.488507       -13.2929
 208   2.0000      -0.487146       -13.2559
 209   2.0000      -0.482921       -13.1410
 210   2.0000      -0.482459       -13.1284
 211   2.0000      -0.479644       -13.0518
 212   2.0000      -0.476521       -12.9668
 213   2.0000      -0.475695       -12.9443
 214   2.0000      -0.473211       -12.8767
 215   2.0000      -0.469190       -12.7673
 216   2.0000      -0.468613       -12.7516
 217   2.0000      -0.467042       -12.7088
 218   2.0000      -0.463318       -12.6075
 219   2.0000      -0.462151       -12.5758
 220   2.0000      -0.458521       -12.4770
 221   2.0000      -0.454425       -12.3655
 222   2.0000      -0.454151       -12.3581
 223   2.0000      -0.450339       -12.2543
 224   2.0000      -0.449483       -12.2311
 225   2.0000      -0.447742       -12.1837
 226   2.0000      -0.445198       -12.1145
 227   2.0000      -0.444472       -12.0947
 228   2.0000      -0.444264       -12.0890
 229   2.0000      -0.442499       -12.0410
 230   2.0000      -0.440307       -11.9814
 231   2.0000      -0.439897       -11.9702
 232   2.0000      -0.439407       -11.9569
 233   2.0000      -0.437376       -11.9016
 234   2.0000      -0.436251       -11.8710
 235   2.0000      -0.435666       -11.8551
 236   2.0000      -0.435172       -11.8416
 237   2.0000      -0.433577       -11.7982
 238   2.0000      -0.433159       -11.7869
 239   2.0000      -0.431256       -11.7351
 240   2.0000      -0.430871       -11.7246
 241   2.0000      -0.428404       -11.6575
 242   2.0000      -0.425876       -11.5887
 243   2.0000      -0.423984       -11.5372
 244   2.0000      -0.420922       -11.4539
 245   2.0000      -0.419555       -11.4167
 246   2.0000      -0.415316       -11.3013
 247   2.0000      -0.411388       -11.1944
 248   2.0000      -0.410384       -11.1671
 249   2.0000      -0.409560       -11.1447
 250   2.0000      -0.408318       -11.1109
 251   2.0000      -0.405411       -11.0318
 252   2.0000      -0.400121       -10.8878
 253   2.0000      -0.396016       -10.7762
 254   2.0000      -0.381812       -10.3896
 255   2.0000      -0.380431       -10.3520
 256   2.0000      -0.379332       -10.3222
 257   2.0000      -0.359963        -9.7951
 258   2.0000      -0.357893        -9.7388
 259   2.0000      -0.352276        -9.5859
 260   2.0000      -0.347224        -9.4484
 261   2.0000      -0.344046        -9.3620
 262   2.0000      -0.342983        -9.3330
 263   2.0000      -0.339284        -9.2324
 264   2.0000      -0.337554        -9.1853
 265   2.0000      -0.329860        -8.9759
 266   2.0000      -0.322202        -8.7676
 267   2.0000      -0.322055        -8.7636
 268   2.0000      -0.319565        -8.6958
 269   2.0000      -0.317057        -8.6276
 270   2.0000      -0.304988        -8.2991
 271   2.0000      -0.299925        -8.1614
 272   2.0000      -0.293208        -7.9786
 273   2.0000      -0.281773        -7.6674
 274   2.0000      -0.243740        -6.6325
 275   0.0000      -0.126499        -3.4422
 276   0.0000      -0.096130        -2.6158
 277   0.0000      -0.075064        -2.0426
 278   0.0000      -0.064654        -1.7593
 279   0.0000      -0.060333        -1.6418

MULLIKEN ATOMIC CHARGES
-----------------------
   0 C :    0.302751
   1 C :   -0.339855
   2 C :   -0.184805
   3 N :    0.148990
   4 C :   -0.200798
   5 N :    0.164530
   6 C :    0.052299
   7 C :   -0.012420
   8 C :   -0.078385
   9 C :    0.098438
  10 C :    0.096606
  11 C :   -0.082016
  12 C :   -0.018450
  13 C :    0.036231
  14 C :    0.034580
  15 C :   -0.016348
  16 C :    0.149082
  17 O :   -0.149153
  18 C :   -0.066274
  19 C :   -0.041029
  20 C :    0.055900
  21 C :    0.029008
  22 C :   -0.033202
  23 C :    0.036983
  24 C :   -0.021193
  25 C :   -0.044027
  26 N :    0.009705
  27 C :   -0.160490
  28 C :   -0.151185
  29 N :    0.025886
  30 C :    0.120748
  31 C :    0.122400
  32 C :    0.089078
  33 N :   -0.244638
  34 C :    0.104926
  35 C :   -0.004256
  36 C :    0.173198
  37 O :   -0.220011
  38 C :   -0.078823
  39 C :    0.003373
  40 C :    0.143091
  41 O :   -0.190957
  42 N :   -0.262655
  43 C :    0.099825
  44 C :    0.006149
  45 C :    0.138169
  46 C :   -0.018530
  47 C :   -0.017123
  48 C :   -0.046474
  49 S :    0.224080
  50 C :   -0.071653
  51 C :    0.133051
  52 C :    0.121921
  53 C :   -0.051768
  54 C :   -0.072087
  55 C :   -0.174648
  56 N :    0.183057
  57 C :   -0.065514
  58 C :   -0.173405
  59 N :    0.187352
  60 C :   -0.058643
  61 C :   -0.037033
  62 C :   -0.094526
  63 C :    0.333553
  64 C :   -0.360678
  65 C :   -0.178761
  66 N :    0.147846
  67 C :   -0.180756
  68 N :    0.146506
  69 C :    0.044276
  70 C :    0.001826
  71 C :    0.162548
  72 O :   -0.193016
  73 C :   -0.083810
  74 C :    0.098383
  75 C :    0.095950
  76 C :   -0.082468
  77 C :   -0.018766
  78 C :    0.035374
  79 C :    0.038244
  80 C :   -0.016128
  81 H :   -0.013654
  82 H :   -0.007647
  83 H :   -0.007770
  84 H :   -0.003909
  85 H :   -0.003267
  86 H :   -0.017023
  87 H :    0.045088
  88 H :   -0.006360
  89 H :   -0.030616
  90 H :    0.021821
  91 H :    0.029574
  92 H :    0.037310
  93 H :    0.038815
  94 H :    0.027050
  95 H :    0.032253
  96 H :    0.034974
  97 H :    0.039226
  98 H :    0.039575
  99 H :    0.027754
 100 H :    0.017813
 101 H :    0.025141
 102 H :    0.043439
 103 H :    0.015176
 104 H :    0.025482
 105 H :    0.021198
 106 H :   -0.009403
 107 H :    0.019210
 108 H :    0.019047
 109 H :    0.016574
 110 H :   -0.015428
 111 H :   -0.017450
 112 H :   -0.008612
 113 H :   -0.008092
 114 H :   -0.002355
 115 H :   -0.004793
 116 H :   -0.019299
Sum of atomic charges:   -0.0000000

LOEWDIN ATOMIC CHARGES
----------------------
   0 C :    0.075485
   1 C :   -0.133421
   2 C :   -0.016116
   3 N :   -0.052817
   4 C :   -0.025070
   5 N :   -0.044857
   6 C :   -0.026459
   7 C :   -0.056719
   8 C :    0.032389
   9 C :   -0.008246
  10 C :   -0.005749
  11 C :    0.019909
  12 C :   -0.005172
  13 C :   -0.012692
  14 C :   -0.011903
  15 C :   -0.009470
  16 C :    0.083807
  17 O :   -0.139848
  18 C :   -0.085680
  19 C :    0.087075
  20 C :   -0.033208
  21 C :    0.029228
  22 C :   -0.009367
  23 C :   -0.023007
  24 C :    0.000360
  25 C :    0.005224
  26 N :   -0.047387
  27 C :    0.014892
  28 C :    0.009323
  29 N :   -0.027806
  30 C :   -0.052683
  31 C :   -0.051474
  32 C :    0.086942
  33 N :    0.011097
  34 C :    0.039147
  35 C :   -0.060397
  36 C :    0.083844
  37 O :   -0.204859
  38 C :   -0.114919
  39 C :   -0.107791
  40 C :    0.084136
  41 O :   -0.193633
  42 N :   -0.003118
  43 C :    0.036376
  44 C :   -0.061080
  45 C :    0.072416
  46 C :   -0.025785
  47 C :   -0.002585
  48 C :   -0.150948
  49 S :    0.568185
  50 C :   -0.184093
  51 C :   -0.015106
  52 C :   -0.040978
  53 C :    0.041403
  54 C :   -0.051024
  55 C :   -0.031120
  56 N :   -0.031119
  57 C :   -0.036701
  58 C :   -0.030571
  59 N :   -0.022536
  60 C :    0.026233
  61 C :    0.045672
  62 C :   -0.104288
  63 C :    0.076295
  64 C :   -0.145084
  65 C :   -0.017689
  66 N :   -0.053674
  67 C :   -0.016783
  68 N :   -0.056355
  69 C :   -0.024897
  70 C :   -0.055572
  71 C :    0.083794
  72 O :   -0.180865
  73 C :    0.031162
  74 C :   -0.009149
  75 C :   -0.006052
  76 C :    0.020781
  77 C :   -0.004340
  78 C :   -0.012414
  79 C :   -0.011617
  80 C :   -0.010186
  81 H :    0.038473
  82 H :    0.039053
  83 H :    0.035090
  84 H :    0.033570
  85 H :    0.033323
  86 H :    0.031936
  87 H :    0.046811
  88 H :    0.036377
  89 H :    0.033972
  90 H :    0.035648
  91 H :    0.036895
  92 H :    0.042999
  93 H :    0.043138
  94 H :    0.039133
  95 H :    0.041744
  96 H :    0.035564
  97 H :    0.030287
  98 H :    0.033814
  99 H :    0.032812
 100 H :    0.019383
 101 H :    0.023875
 102 H :    0.037936
 103 H :    0.022101
 104 H :    0.031828
 105 H :    0.029498
 106 H :    0.027618
 107 H :    0.040448
 108 H :    0.051936
 109 H :    0.047715
 110 H :    0.047731
 111 H :    0.037496
 112 H :    0.039532
 113 H :    0.035361
 114 H :    0.033935
 115 H :    0.033107
 116 H :    0.031164

  Mayer bond orders larger than 0.100000
B(  0-C ,  1-C ) :   1.6553 B(  0-C ,  6-C ) :   0.9957 B(  0-C , 18-C ) :   1.0420
B(  1-C ,  2-C ) :   1.1443 B(  1-C ,  4-C ) :   1.1371 B(  2-C ,  3-N ) :   2.9668
B(  4-C ,  5-N ) :   2.9905 B(  6-C ,  7-C ) :   1.2102 B(  6-C , 11-C ) :   1.4459
B(  7-C ,  8-C ) :   1.4727 B(  7-C , 16-C ) :   0.9488 B(  8-C ,  9-C ) :   1.1823
B(  8-C , 81-H ) :   1.0154 B(  9-C , 10-C ) :   1.2547 B(  9-C , 15-C ) :   1.2436
B( 10-C , 11-C ) :   1.2105 B( 10-C , 12-C ) :   1.2373 B( 11-C , 82-H ) :   0.9901
B( 12-C , 13-C ) :   1.4925 B( 12-C , 83-H ) :   0.9975 B( 13-C , 14-C ) :   1.2577
B( 13-C , 84-H ) :   0.9883 B( 14-C , 15-C ) :   1.4917 B( 14-C , 85-H ) :   0.9885
B( 15-C , 86-H ) :   0.9975 B( 16-C , 17-O ) :   2.2204 B( 16-C , 18-C ) :   0.9287
B( 18-C , 19-C ) :   1.6292 B( 19-C , 20-C ) :   1.1063 B( 19-C , 87-H ) :   0.9314
B( 20-C , 21-C ) :   1.4028 B( 20-C , 23-C ) :   0.1170 B( 20-C , 25-C ) :   1.2001
B( 21-C , 22-C ) :   1.2619 B( 21-C , 88-H ) :   0.9870 B( 22-C , 23-C ) :   1.3949
B( 22-C , 89-H ) :   1.0101 B( 23-C , 24-C ) :   1.2518 B( 23-C , 32-C ) :   0.9909
B( 24-C , 25-C ) :   1.2639 B( 24-C , 29-N ) :   1.4474 B( 25-C , 26-N ) :   1.4516
B( 26-N , 27-C ) :   1.6965 B( 27-C , 28-C ) :   1.1551 B( 27-C , 31-C ) :   1.0974
B( 28-C , 29-N ) :   1.6824 B( 28-C , 30-C ) :   1.0967 B( 30-C , 90-H ) :   0.9405
B( 30-C , 91-H ) :   0.9413 B( 30-C , 92-H ) :   0.9365 B( 31-C , 93-H ) :   0.9420
B( 31-C , 94-H ) :   0.9391 B( 31-C , 95-H ) :   0.9412 B( 32-C , 33-N ) :   1.2192
B( 32-C , 39-C ) :   1.4115 B( 33-N , 34-C ) :   0.9353 B( 33-N , 36-C ) :   1.0633
B( 34-C , 35-C ) :   1.1156 B( 34-C , 96-H ) :   0.9353 B( 34-C , 97-H ) :   0.9485
B( 35-C , 98-H ) :   0.9620 B( 35-C , 99-H ) :   0.9670 B( 35-C ,100-H ) :   0.9642
B( 36-C , 37-O ) :   1.9810 B( 36-C , 38-C ) :   0.9974 B( 37-O ,107-H ) :   0.1079
B( 38-C , 39-C ) :   1.2488 B( 38-C , 45-C ) :   1.3220 B( 39-C , 40-C ) :   0.9574
B( 40-C , 41-O ) :   2.1397 B( 40-C , 42-N ) :   1.0299 B( 42-N , 43-C ) :   0.9463
B( 42-N , 45-C ) :   1.1630 B( 43-C , 44-C ) :   1.1221 B( 43-C ,101-H ) :   0.9506
B( 43-C ,102-H ) :   0.9265 B( 44-C ,103-H ) :   0.9679 B( 44-C ,104-H ) :   0.9663
B( 44-C ,105-H ) :   0.9632 B( 45-C , 46-C ) :   1.1748 B( 46-C , 47-C ) :   1.5381
B( 46-C ,106-H ) :   0.9711 B( 47-C , 48-C ) :   1.2172 B( 47-C ,107-H ) :   0.9483
B( 48-C , 49-S ) :   1.1518 B( 48-C , 52-C ) :   1.2163 B( 49-S , 50-C ) :   1.1124
B( 50-C , 51-C ) :   1.2118 B( 50-C , 61-C ) :   1.3200 B( 51-C , 52-C ) :   1.2404
B( 51-C , 60-C ) :   1.2249 B( 52-C , 53-C ) :   1.2365 B( 53-C , 54-C ) :   1.5199
B( 53-C ,108-H ) :   0.9934 B( 54-C , 55-C ) :   1.0837 B( 54-C , 57-C ) :   1.2746
B( 55-C , 56-N ) :   3.0465 B( 57-C , 58-C ) :   1.0890 B( 57-C , 60-C ) :   1.5332
B( 58-C , 59-N ) :   3.0405 B( 60-C ,109-H ) :   0.9845 B( 61-C , 62-C ) :   1.4860
B( 61-C ,110-H ) :   0.9274 B( 62-C , 63-C ) :   1.0923 B( 62-C , 71-C ) :   0.9770
B( 63-C , 64-C ) :   1.6058 B( 63-C , 69-C ) :   0.9813 B( 64-C , 65-C ) :   1.1515
B( 64-C , 67-C ) :   1.1530 B( 65-C , 66-N ) :   2.9580 B( 67-C , 68-N ) :   2.9652
B( 69-C , 70-C ) :   1.2150 B( 69-C , 76-C ) :   1.4588 B( 70-C , 71-C ) :   0.9632
B( 70-C , 73-C ) :   1.4693 B( 71-C , 72-O ) :   2.1140 B( 73-C , 74-C ) :   1.1747
B( 73-C ,111-H ) :   1.0164 B( 74-C , 75-C ) :   1.2595 B( 74-C , 80-C ) :   1.2467
B( 75-C , 76-C ) :   1.1990 B( 75-C , 77-C ) :   1.2439 B( 76-C ,112-H ) :   0.9893
B( 77-C , 78-C ) :   1.4861 B( 77-C ,113-H ) :   0.9968 B( 78-C , 79-C ) :   1.2638
B( 78-C ,114-H ) :   0.9884 B( 79-C , 80-C ) :   1.4863 B( 79-C ,115-H ) :   0.9880
B( 80-C ,116-H ) :   0.9970

-----------------------------------------------------------------------------
         ABSORPTION SPECTRUM VIA TRANSITION ELECTRIC DIPOLE MOMENTS
-----------------------------------------------------------------------------
State   Energy  Wavelength   fosc         T2         TX        TY        TZ
        (cm-1)    (nm)                  (au**2)     (au)      (au)      (au)
-----------------------------------------------------------------------------
   0   11050.2    905.0   1.081432051  32.21859   1.80617  -4.97086   2.06081
   1   18620.9    537.0   0.042203535   0.74615   0.78943  -0.27687  -0.21517
   2   18753.0    533.2   0.359867570   6.31752   0.54001  -2.18554   1.11774
   3   23037.4    434.1   0.098333424   1.40522  -0.05250  -0.74833   0.91786
   4   23576.7    424.1   0.006711645   0.09372   0.01605  -0.22669   0.20512
   5   24059.1    415.6   0.040100924   0.54872  -0.29149   0.66185  -0.16032
   6   24521.4    407.8   0.232744901   3.12472  -0.91267   1.51351   0.03241
   7   25234.6    396.3   0.081550934   1.06392  -0.45357   0.15045   0.91409
   8   25377.8    394.0   0.004258227   0.05524   0.21780  -0.05853  -0.06616
   9   26267.2    380.7   0.050330060   0.63080   0.24470  -0.22077  -0.72262
  10   26485.0    377.6   0.025020082   0.31100   0.24894   0.02543   0.49838
  11   26836.4    372.6   0.089830087   1.10198  -0.39349   0.77085  -0.59408
  12   27225.2    367.3   0.020189120   0.24413   0.13336  -0.47500  -0.02682
  13   27328.0    365.9   0.013470221   0.16227  -0.19272   0.34475  -0.07926
  14   27865.3    358.9   0.006944334   0.08204  -0.08429   0.27311  -0.01864
  15   27969.3    357.5   0.026217236   0.30859   0.35491  -0.40226   0.14428
  16   28681.5    348.7   0.129437544   1.48571  -0.30689  -0.83359   0.83466
  17   28978.5    345.1   0.010369296   0.11780   0.09068   0.08898  -0.31884
  18   29457.9    339.5   0.056104588   0.62701  -0.02554   0.51424  -0.60159
  19   29538.3    338.5   0.014499865   0.16160  -0.22484   0.32851  -0.05598
  20   29836.3    335.2   0.239015257   2.63728  -0.59030   0.52138   1.42021
  21   30404.7    328.9   0.010010596   0.10839   0.14192  -0.13803  -0.26305
  22   30809.3    324.6   0.123088083   1.31525  -0.58007   0.98839   0.04308
  23   31368.9    318.8   0.402066943   4.21964   0.83611  -0.36293  -1.84088
  24   31731.5    315.1   0.098101495   1.01780   0.59123  -0.77521   0.25939
  25   32082.2    311.7   0.286407096   2.93897  -0.39971  -0.40070   1.61822
  26   32264.7    309.9   0.005748817   0.05866  -0.13459  -0.05170   0.19461
  27   32545.7    307.3   0.240517529   2.43292   0.35311   0.34881  -1.47871
  28   32911.5    303.8   0.362487983   3.62594   0.35845  -1.03472   1.55782
  29   33108.5    302.0   0.064106958   0.63744   0.08556  -0.26228   0.74922
  30   33273.0    300.5   0.130432742   1.29054  -0.57188   0.27818  -0.94133
  31   33589.6    297.7   0.054029923   0.52955  -0.15393   0.25520  -0.66387
  32   33735.5    296.4   0.139561927   1.36193  -0.19978  -0.11775   1.14375
  33   34170.1    292.7   0.451625484   4.35119  -0.75758   0.63539   1.83672
  34   34507.9    289.8   0.000930926   0.00888  -0.02662   0.05991   0.06770
  35   34520.5    289.7   0.065646254   0.62605   0.30279  -0.23186  -0.69326
  36   35138.9    284.6   0.030936286   0.28984   0.25422  -0.36951  -0.29779
  37   35494.5    281.7   0.117418925   1.08906  -0.17395   0.47295   0.91385
  38   35622.5    280.7   0.336822999   3.11281  -0.24033   0.70992  -1.59721
  39   35934.0    278.3   0.026930709   0.24673  -0.28603   0.16120   0.37273
  40   35988.8    277.9   0.037527022   0.34328  -0.46943  -0.02408   0.34977
  41   36284.8    275.6   0.059071294   0.53595   0.00457  -0.20092  -0.70396
  42   36512.5    273.9   0.009826935   0.08860  -0.15848   0.21448   0.13224
  43   36532.9    273.7   0.016585013   0.14945   0.09620   0.03978  -0.37231
  44   37167.9    269.0   0.091486402   0.81033   0.44951  -0.38572  -0.67786
  45   37861.2    264.1   0.269790242   2.34589   0.73538  -0.79486  -1.08319
  46   38149.8    262.1   0.107144192   0.92460  -0.39423   0.35748   0.80086
  47   38280.0    261.2   0.061349672   0.52761  -0.12322  -0.04978   0.71411
  48   38422.0    260.3   0.056505263   0.48415   0.37340  -0.24186  -0.53501
  49   38851.4    257.4   0.218300359   1.84979  -0.61158   1.04202   0.62448
  50   38863.5    257.3   0.076122990   0.64484  -0.24932   0.75847   0.08605
  51   39004.4    256.4   0.001714400   0.01447  -0.05085  -0.10128  -0.04034
  52   39674.6    252.1   0.177268255   1.47094   0.54687  -1.06449  -0.19683
  53   39845.9    251.0   0.032666184   0.26989   0.05343   0.00835   0.51669
  54   39980.5    250.1   0.576648792   4.74830   0.50627   0.82322  -1.95302
  55   40099.2    249.4   0.033122328   0.27193   0.03376   0.51909   0.03658
  56   40198.7    248.8   0.055781407   0.45683  -0.42286   0.32080   0.41845

FINAL SINGLE POINT ENERGY     -3778.872082573409

DIPOLE MOMENT
-------------
                                X             Y             Z
Electronic contribution:    -28.95717      26.78196       9.62821
Nuclear contribution   :     31.90331     -28.45872     -11.82356
                        -----------------------------------------
Total Dipole Moment    :      2.94615      -1.67676      -2.19535
                        -----------------------------------------
Magnitude (a.u.)       :      4.03867
Magnitude (Debye)      :     10.26548

Rotational constants in cm-1:     0.001607     0.000228     0.000203
Rotational constants in MHz :    48.176923     6.832772     6.079666

                             ****ORCA TERMINATED NORMALLY****
TOTAL RUN TIME: 0 days 0 hours 12 minutes 42 seconds 672 msec
