                         Program Version 4.2.0 -  RELEASE  -
|  1> # ORCA input file
|  2> # SCF done       -194.571636507076          0.000276176744
|  3> ! CAM-B3LYP def2-SVP def2/J RIJCOSX Grid4 TightSCF
|  4> %maxcore 5000
|  5> %tddft
|  6>     Mode sTDDFT
|  7>     Ethresh 5.0
|  8>     maxcore 5000
|  9> end
| 10>
| 11> %pal
| 12>   nprocs 6
| 13>   end
| 14> * xyz 0 1
| 15>    C       -0.77351        -0.64041        -8.32893
| 16>    S        0.36662        -1.92124        -8.36673
| 17>    C       -0.53137        -2.81710        -7.20023
| 18>    C       -1.71098        -2.13779        -6.84660
| 19>    C       -1.82099        -0.88496        -7.50030
| 20>    C       -2.77112        -2.72033        -6.05890
| 21>    O       -3.00630        -3.89355        -5.88742
| 22>    C       -3.73052        -1.68498        -5.39627
| 23>    F       -4.63820        -1.20195        -6.25780
| 24>    F       -4.39694        -2.24668        -4.38617
| 25>    F       -3.07556        -0.62727        -4.88973
| 26>    C       -0.02931        -4.01381        -6.60861
| 27>    C        0.64323        -5.07594        -7.19746
| 28>    N        1.10393        -5.18475        -8.51508
| 29>    O        1.38354        -6.29122        -8.93251
| 30>    O        1.22183        -4.15672        -9.17357
| 31>    C        0.77169        -6.15006        -6.24937
| 32>    C        0.18301        -5.77362        -5.08898
| 33>    C       -0.30857        -4.42936        -5.23111
| 34>    C       -0.75671        -3.61673        -4.20323
| 35>    C       -0.52039        -2.22050        -4.05406
| 36>    C       -0.89203        -1.83795        -2.79460
| 37>    C       -1.45811        -2.95748        -2.11716
| 38>    N       -1.98922        -2.87829        -0.82023
| 39>    O       -1.94150        -1.79891        -0.25858
| 40>    O       -2.45093        -3.89141        -0.31269
| 41>    C       -1.42955        -4.07012        -2.96882
| 42>    C       -2.09449        -5.28839        -2.77452
| 43>    C       -2.42353        -6.14722        -3.79458
| 44>    C       -2.97195        -7.43631        -3.73906
| 45>    N       -3.36504        -8.21585        -2.67593
| 46>    C       -3.48207        -7.83292        -1.28662
| 47>    C       -4.67856        -6.91704        -1.04654
| 48>    C       -3.77858        -9.49308        -3.09096
| 49>    O       -4.17122       -10.35567        -2.33208
| 50>    C       -3.59978        -9.49058        -4.53219
| 51>    C       -3.11930        -8.22614        -4.89374
| 52>    C       -2.87851        -8.21518        -6.32551
| 53>    O       -2.42846        -7.37616        -7.06910
| 54>    N       -3.27035        -9.50915        -6.74178
| 55>    C       -3.23089        -9.88932        -8.13488
| 56>    C       -4.61361        -9.82532        -8.77705
| 57>    C       -3.69262       -10.27984        -5.69420
| 58>    C       -4.09803       -11.62635        -5.82392
| 59>    C       -4.47285       -12.37468        -4.74950
| 60>    C       -4.84847       -13.73735        -4.80773
| 61>    S       -5.22543       -14.53625        -3.29859
| 62>    C       -5.54126       -16.06542        -4.06863
| 63>    C       -5.36824       -15.94391        -5.43707
| 64>    C       -4.97891       -14.64387        -5.85283
| 65>    C       -4.81632       -14.60467        -7.30846
| 66>    O       -4.48767       -13.67278        -8.00466
| 67>    C       -5.14377       -15.99778        -7.81090
| 68>    C       -5.48913       -16.83865        -6.59450
| 69>    O       -5.79825       -18.00319        -6.61472
| 70>    C       -5.90243       -17.19829        -3.28114
| 71>    S       -6.03551       -17.04759        -1.53859
| 72>    C       -6.44189       -18.68358        -1.37791
| 73>    C       -6.48160       -19.33909        -2.59277
| 74>    C       -6.17196       -18.47997        -3.67863
| 75>    C       -6.79197       -20.74467        -2.80028
| 76>    O       -6.82299       -21.31247        -3.85898
| 77>    C       -7.10096       -21.54000        -1.49498
| 78>    F       -8.15060       -21.01943        -0.83332
| 79>    F       -7.37848       -22.81407        -1.74072
| 80>    F       -6.06154       -21.51168        -0.64066
| 81>    H       -0.62654         0.22016        -8.95102
| 82>    H       -2.65615        -0.21825        -7.38958
| 83>    H        1.27008        -7.07404        -6.47013
| 84>    H        0.17345        -6.32346        -4.16840
| 85>    H       -0.01338        -1.60490        -4.77163
| 86>    H       -0.79494        -0.86198        -2.35798
| 87>    H       -2.40858        -5.47769        -1.75791
| 88>    H       -2.26029        -5.81418        -4.81169
| 89>    H       -2.55226        -7.36390        -0.95674
| 90>    H       -3.61593        -8.76569        -0.73102
| 91>    H       -4.64220        -6.04265        -1.69138
| 92>    H       -4.67776        -6.58116        -0.01399
| 93>    H       -5.60476        -7.45219        -1.24169
| 94>    H       -2.81124       -10.89348        -8.23007
| 95>    H       -2.56271        -9.17485        -8.62329
| 96>    H       -5.29394       -10.53070        -8.30627
| 97>    H       -4.53452       -10.07291        -9.83132
| 98>    H       -5.02467        -8.82301        -8.68391
| 99>    H       -4.09236       -12.06768        -6.80953
|100>    H       -4.48107       -11.92672        -3.76307
|101>    H       -4.29801       -16.42636        -8.35352
|102>    H       -5.97805       -15.97210        -8.51578
|103>    H       -6.63066       -19.07984        -0.39938
|104>    H       -6.15414       -18.81357        -4.70161
|105> *
|106>
|107>                          ****END OF INPUT****

CARTESIAN COORDINATES (ANGSTROEM)
---------------------------------
  C     -0.773510   -0.640410   -8.328930
  S      0.366620   -1.921240   -8.366730
  C     -0.531370   -2.817100   -7.200230
  C     -1.710980   -2.137790   -6.846600
  C     -1.820990   -0.884960   -7.500300
  C     -2.771120   -2.720330   -6.058900
  O     -3.006300   -3.893550   -5.887420
  C     -3.730520   -1.684980   -5.396270
  F     -4.638200   -1.201950   -6.257800
  F     -4.396940   -2.246680   -4.386170
  F     -3.075560   -0.627270   -4.889730
  C     -0.029310   -4.013810   -6.608610
  C      0.643230   -5.075940   -7.197460
  N      1.103930   -5.184750   -8.515080
  O      1.383540   -6.291220   -8.932510
  O      1.221830   -4.156720   -9.173570
  C      0.771690   -6.150060   -6.249370
  C      0.183010   -5.773620   -5.088980
  C     -0.308570   -4.429360   -5.231110
  C     -0.756710   -3.616730   -4.203230
  C     -0.520390   -2.220500   -4.054060
  C     -0.892030   -1.837950   -2.794600
  C     -1.458110   -2.957480   -2.117160
  N     -1.989220   -2.878290   -0.820230
  O     -1.941500   -1.798910   -0.258580
  O     -2.450930   -3.891410   -0.312690
  C     -1.429550   -4.070120   -2.968820
  C     -2.094490   -5.288390   -2.774520
  C     -2.423530   -6.147220   -3.794580
  C     -2.971950   -7.436310   -3.739060
  N     -3.365040   -8.215850   -2.675930
  C     -3.482070   -7.832920   -1.286620
  C     -4.678560   -6.917040   -1.046540
  C     -3.778580   -9.493080   -3.090960
  O     -4.171220  -10.355670   -2.332080
  C     -3.599780   -9.490580   -4.532190
  C     -3.119300   -8.226140   -4.893740
  C     -2.878510   -8.215180   -6.325510
  O     -2.428460   -7.376160   -7.069100
  N     -3.270350   -9.509150   -6.741780
  C     -3.230890   -9.889320   -8.134880
  C     -4.613610   -9.825320   -8.777050
  C     -3.692620  -10.279840   -5.694200
  C     -4.098030  -11.626350   -5.823920
  C     -4.472850  -12.374680   -4.749500
  C     -4.848470  -13.737350   -4.807730
  S     -5.225430  -14.536250   -3.298590
  C     -5.541260  -16.065420   -4.068630
  C     -5.368240  -15.943910   -5.437070
  C     -4.978910  -14.643870   -5.852830
  C     -4.816320  -14.604670   -7.308460
  O     -4.487670  -13.672780   -8.004660
  C     -5.143770  -15.997780   -7.810900
  C     -5.489130  -16.838650   -6.594500
  O     -5.798250  -18.003190   -6.614720
  C     -5.902430  -17.198290   -3.281140
  S     -6.035510  -17.047590   -1.538590
  C     -6.441890  -18.683580   -1.377910
  C     -6.481600  -19.339090   -2.592770
  C     -6.171960  -18.479970   -3.678630
  C     -6.791970  -20.744670   -2.800280
  O     -6.822990  -21.312470   -3.858980
  C     -7.100960  -21.540000   -1.494980
  F     -8.150600  -21.019430   -0.833320
  F     -7.378480  -22.814070   -1.740720
  F     -6.061540  -21.511680   -0.640660
  H     -0.626540    0.220160   -8.951020
  H     -2.656150   -0.218250   -7.389580
  H      1.270080   -7.074040   -6.470130
  H      0.173450   -6.323460   -4.168400
  H     -0.013380   -1.604900   -4.771630
  H     -0.794940   -0.861980   -2.357980
  H     -2.408580   -5.477690   -1.757910
  H     -2.260290   -5.814180   -4.811690
  H     -2.552260   -7.363900   -0.956740
  H     -3.615930   -8.765690   -0.731020
  H     -4.642200   -6.042650   -1.691380
  H     -4.677760   -6.581160   -0.013990
  H     -5.604760   -7.452190   -1.241690
  H     -2.811240  -10.893480   -8.230070
  H     -2.562710   -9.174850   -8.623290
  H     -5.293940  -10.530700   -8.306270
  H     -4.534520  -10.072910   -9.831320
  H     -5.024670   -8.823010   -8.683910
  H     -4.092360  -12.067680   -6.809530
  H     -4.481070  -11.926720   -3.763070
  H     -4.298010  -16.426360   -8.353520
  H     -5.978050  -15.972100   -8.515780
  H     -6.630660  -19.079840   -0.399380
  H     -6.154140  -18.813570   -4.701610

 Total Charge           Charge          ....    0
 Multiplicity           Mult            ....    1
 Number of Electrons    NEL             ....  492
 Basis Dimension        Dim             .... 1056

ORBITAL ENERGIES
----------------

  NO   OCC          E(Eh)            E(eV)
   0   2.0000     -88.998445     -2421.7708
   1   2.0000     -88.992696     -2421.6144
   2   2.0000     -88.978621     -2421.2314
   3   2.0000     -24.813135      -675.1997
   4   2.0000     -24.812759      -675.1895
   5   2.0000     -24.811921      -675.1667
   6   2.0000     -24.809711      -675.1066
   7   2.0000     -24.808484      -675.0732
   8   2.0000     -24.804514      -674.9651
   9   2.0000     -19.242751      -523.6219
  10   2.0000     -19.241763      -523.5950
  11   2.0000     -19.241399      -523.5851
  12   2.0000     -19.240384      -523.5575
  13   2.0000     -19.237170      -523.4700
  14   2.0000     -19.232259      -523.3364
  15   2.0000     -19.228889      -523.2447
  16   2.0000     -19.228236      -523.2269
  17   2.0000     -19.208491      -522.6896
  18   2.0000     -19.200508      -522.4724
  19   2.0000     -14.648523      -398.6066
  20   2.0000     -14.638431      -398.3320
  21   2.0000     -14.466450      -393.6521
  22   2.0000     -14.461402      -393.5148
  23   2.0000     -10.522414      -286.3294
  24   2.0000     -10.519913      -286.2614
  25   2.0000     -10.393608      -282.8245
  26   2.0000     -10.392887      -282.8048
  27   2.0000     -10.390104      -282.7291
  28   2.0000     -10.389445      -282.7112
  29   2.0000     -10.386382      -282.6278
  30   2.0000     -10.384351      -282.5726
  31   2.0000     -10.358050      -281.8569
  32   2.0000     -10.356265      -281.8083
  33   2.0000     -10.346927      -281.5542
  34   2.0000     -10.344047      -281.4758
  35   2.0000     -10.338102      -281.3141
  36   2.0000     -10.336033      -281.2578
  37   2.0000     -10.334241      -281.2090
  38   2.0000     -10.332724      -281.1677
  39   2.0000     -10.327261      -281.0191
  40   2.0000     -10.325189      -280.9627
  41   2.0000     -10.323496      -280.9166
  42   2.0000     -10.318501      -280.7807
  43   2.0000     -10.318056      -280.7686
  44   2.0000     -10.314993      -280.6852
  45   2.0000     -10.312656      -280.6216
  46   2.0000     -10.312336      -280.6129
  47   2.0000     -10.310445      -280.5615
  48   2.0000     -10.308562      -280.5102
  49   2.0000     -10.308510      -280.5088
  50   2.0000     -10.306210      -280.4462
  51   2.0000     -10.303696      -280.3778
  52   2.0000     -10.302466      -280.3443
  53   2.0000     -10.301544      -280.3193
  54   2.0000     -10.300641      -280.2947
  55   2.0000     -10.299030      -280.2508
  56   2.0000     -10.298166      -280.2273
  57   2.0000     -10.297886      -280.2197
  58   2.0000     -10.293708      -280.1060
  59   2.0000     -10.289876      -280.0018
  60   2.0000     -10.285586      -279.8850
  61   2.0000     -10.281792      -279.7818
  62   2.0000     -10.281642      -279.7777
  63   2.0000     -10.275567      -279.6124
  64   2.0000     -10.265263      -279.3320
  65   2.0000     -10.259947      -279.1874
  66   2.0000      -8.093881      -220.2457
  67   2.0000      -8.088873      -220.1094
  68   2.0000      -8.072972      -219.6767
  69   2.0000      -6.063064      -164.9843
  70   2.0000      -6.058722      -164.8662
  71   2.0000      -6.058043      -164.8477
  72   2.0000      -6.056292      -164.8001
  73   2.0000      -6.053571      -164.7260
  74   2.0000      -6.051392      -164.6667
  75   2.0000      -6.042115      -164.4143
  76   2.0000      -6.037366      -164.2851
  77   2.0000      -6.035940      -164.2463
  78   2.0000      -1.401226       -38.1293
  79   2.0000      -1.398130       -38.0450
  80   2.0000      -1.320034       -35.9199
  81   2.0000      -1.307775       -35.5864
  82   2.0000      -1.304315       -35.4922
  83   2.0000      -1.303454       -35.4688
  84   2.0000      -1.302102       -35.4320
  85   2.0000      -1.299205       -35.3532
  86   2.0000      -1.159893       -31.5623
  87   2.0000      -1.157367       -31.4936
  88   2.0000      -1.154426       -31.4135
  89   2.0000      -1.148752       -31.2591
  90   2.0000      -1.147524       -31.2257
  91   2.0000      -1.138703       -30.9857
  92   2.0000      -1.137491       -30.9527
  93   2.0000      -1.124900       -30.6101
  94   2.0000      -1.077468       -29.3194
  95   2.0000      -1.064984       -28.9797
  96   2.0000      -1.034103       -28.1394
  97   2.0000      -1.020664       -27.7737
  98   2.0000      -1.011540       -27.5254
  99   2.0000      -1.002760       -27.2865
 100   2.0000      -0.989966       -26.9384
 101   2.0000      -0.945471       -25.7276
 102   2.0000      -0.938866       -25.5478
 103   2.0000      -0.929661       -25.2974
 104   2.0000      -0.916502       -24.9393
 105   2.0000      -0.909171       -24.7398
 106   2.0000      -0.894520       -24.3411
 107   2.0000      -0.881995       -24.0003
 108   2.0000      -0.880346       -23.9554
 109   2.0000      -0.879230       -23.9251
 110   2.0000      -0.873897       -23.7799
 111   2.0000      -0.870944       -23.6996
 112   2.0000      -0.848865       -23.0988
 113   2.0000      -0.843653       -22.9570
 114   2.0000      -0.841386       -22.8953
 115   2.0000      -0.825599       -22.4657
 116   2.0000      -0.820979       -22.3400
 117   2.0000      -0.817942       -22.2573
 118   2.0000      -0.811765       -22.0893
 119   2.0000      -0.794906       -21.6305
 120   2.0000      -0.786477       -21.4011
 121   2.0000      -0.766731       -20.8638
 122   2.0000      -0.764575       -20.8051
 123   2.0000      -0.752531       -20.4774
 124   2.0000      -0.736764       -20.0484
 125   2.0000      -0.731895       -19.9159
 126   2.0000      -0.728027       -19.8106
 127   2.0000      -0.726101       -19.7582
 128   2.0000      -0.715354       -19.4658
 129   2.0000      -0.711657       -19.3652
 130   2.0000      -0.701511       -19.0891
 131   2.0000      -0.698871       -19.0172
 132   2.0000      -0.694459       -18.8972
 133   2.0000      -0.692975       -18.8568
 134   2.0000      -0.686094       -18.6696
 135   2.0000      -0.684330       -18.6216
 136   2.0000      -0.680591       -18.5198
 137   2.0000      -0.679715       -18.4960
 138   2.0000      -0.679340       -18.4858
 139   2.0000      -0.670236       -18.2380
 140   2.0000      -0.669088       -18.2068
 141   2.0000      -0.657375       -17.8881
 142   2.0000      -0.653211       -17.7748
 143   2.0000      -0.647255       -17.6127
 144   2.0000      -0.640997       -17.4424
 145   2.0000      -0.631346       -17.1798
 146   2.0000      -0.629292       -17.1239
 147   2.0000      -0.624994       -17.0070
 148   2.0000      -0.619976       -16.8704
 149   2.0000      -0.618405       -16.8277
 150   2.0000      -0.615372       -16.7451
 151   2.0000      -0.607027       -16.5181
 152   2.0000      -0.595633       -16.2080
 153   2.0000      -0.594816       -16.1858
 154   2.0000      -0.590889       -16.0789
 155   2.0000      -0.588542       -16.0150
 156   2.0000      -0.584184       -15.8965
 157   2.0000      -0.581701       -15.8289
 158   2.0000      -0.577951       -15.7268
 159   2.0000      -0.575601       -15.6629
 160   2.0000      -0.571354       -15.5473
 161   2.0000      -0.566766       -15.4225
 162   2.0000      -0.563241       -15.3266
 163   2.0000      -0.562665       -15.3109
 164   2.0000      -0.561272       -15.2730
 165   2.0000      -0.559349       -15.2207
 166   2.0000      -0.557470       -15.1695
 167   2.0000      -0.556576       -15.1452
 168   2.0000      -0.555308       -15.1107
 169   2.0000      -0.552525       -15.0350
 170   2.0000      -0.547210       -14.8903
 171   2.0000      -0.542291       -14.7565
 172   2.0000      -0.539984       -14.6937
 173   2.0000      -0.538120       -14.6430
 174   2.0000      -0.535903       -14.5827
 175   2.0000      -0.531951       -14.4751
 176   2.0000      -0.530994       -14.4491
 177   2.0000      -0.529591       -14.4109
 178   2.0000      -0.526719       -14.3327
 179   2.0000      -0.524721       -14.2784
 180   2.0000      -0.523687       -14.2502
 181   2.0000      -0.521750       -14.1975
 182   2.0000      -0.520183       -14.1549
 183   2.0000      -0.518151       -14.0996
 184   2.0000      -0.516864       -14.0646
 185   2.0000      -0.514350       -13.9962
 186   2.0000      -0.512973       -13.9587
 187   2.0000      -0.510372       -13.8879
 188   2.0000      -0.507643       -13.8137
 189   2.0000      -0.506211       -13.7747
 190   2.0000      -0.505283       -13.7495
 191   2.0000      -0.500618       -13.6225
 192   2.0000      -0.499054       -13.5799
 193   2.0000      -0.498474       -13.5642
 194   2.0000      -0.496515       -13.5109
 195   2.0000      -0.496363       -13.5067
 196   2.0000      -0.494399       -13.4533
 197   2.0000      -0.491655       -13.3786
 198   2.0000      -0.488161       -13.2835
 199   2.0000      -0.484579       -13.1861
 200   2.0000      -0.483084       -13.1454
 201   2.0000      -0.481853       -13.1119
 202   2.0000      -0.479858       -13.0576
 203   2.0000      -0.479325       -13.0431
 204   2.0000      -0.475680       -12.9439
 205   2.0000      -0.474289       -12.9061
 206   2.0000      -0.472319       -12.8525
 207   2.0000      -0.468443       -12.7470
 208   2.0000      -0.463984       -12.6257
 209   2.0000      -0.460868       -12.5408
 210   2.0000      -0.457977       -12.4622
 211   2.0000      -0.454556       -12.3691
 212   2.0000      -0.452481       -12.3126
 213   2.0000      -0.449695       -12.2368
 214   2.0000      -0.445099       -12.1118
 215   2.0000      -0.441965       -12.0265
 216   2.0000      -0.440442       -11.9850
 217   2.0000      -0.438980       -11.9453
 218   2.0000      -0.437457       -11.9038
 219   2.0000      -0.431017       -11.7286
 220   2.0000      -0.421864       -11.4795
 221   2.0000      -0.407046       -11.0763
 222   2.0000      -0.388909       -10.5827
 223   2.0000      -0.383602       -10.4383
 224   2.0000      -0.381538       -10.3822
 225   2.0000      -0.375464       -10.2169
 226   2.0000      -0.369091       -10.0435
 227   2.0000      -0.367032        -9.9874
 228   2.0000      -0.366174        -9.9641
 229   2.0000      -0.364635        -9.9222
 230   2.0000      -0.362781        -9.8718
 231   2.0000      -0.362301        -9.8587
 232   2.0000      -0.360932        -9.8215
 233   2.0000      -0.356503        -9.7009
 234   2.0000      -0.356110        -9.6902
 235   2.0000      -0.349154        -9.5010
 236   2.0000      -0.348462        -9.4821
 237   2.0000      -0.344366        -9.3707
 238   2.0000      -0.341614        -9.2958
 239   2.0000      -0.334977        -9.1152
 240   2.0000      -0.329221        -8.9586
 241   2.0000      -0.328060        -8.9270
 242   2.0000      -0.305678        -8.3179
 243   2.0000      -0.297295        -8.0898
 244   2.0000      -0.282187        -7.6787
 245   2.0000      -0.239666        -6.5216
 246   0.0000      -0.138566        -3.7706
 247   0.0000      -0.102291        -2.7835
 248   0.0000      -0.070542        -1.9195
 249   0.0000      -0.061185        -1.6649
 250   0.0000      -0.048628        -1.3232

MULLIKEN ATOMIC CHARGES
-----------------------
   0 C :   -0.057439
   1 S :    0.241128
   2 C :   -0.209850
   3 C :    0.011744
   4 C :    0.030365
   5 C :    0.021052
   6 O :   -0.139738
   7 C :    0.483653
   8 F :   -0.161617
   9 F :   -0.142115
  10 F :   -0.158954
  11 C :    0.100241
  12 C :    0.073549
  13 N :    0.284689
  14 O :   -0.235492
  15 O :   -0.270630
  16 C :    0.025742
  17 C :    0.014060
  18 C :   -0.008329
  19 C :    0.007968
  20 C :   -0.000126
  21 C :    0.022975
  22 C :    0.085349
  23 N :    0.274493
  24 O :   -0.252989
  25 O :   -0.266350
  26 C :    0.046777
  27 C :   -0.043886
  28 C :   -0.049094
  29 C :    0.115064
  30 N :   -0.259076
  31 C :    0.097784
  32 C :    0.005441
  33 C :    0.170292
  34 O :   -0.213740
  35 C :   -0.074697
  36 C :   -0.030755
  37 C :    0.161777
  38 O :   -0.163614
  39 N :   -0.261618
  40 C :    0.096257
  41 C :    0.008591
  42 C :    0.149545
  43 C :   -0.034742
  44 C :    0.073888
  45 C :   -0.139370
  46 S :    0.200093
  47 C :   -0.076361
  48 C :   -0.001077
  49 C :    0.020681
  50 C :    0.038090
  51 O :   -0.156843
  52 C :    0.071895
  53 C :    0.029641
  54 O :   -0.138815
  55 C :   -0.084527
  56 S :    0.162178
  57 C :   -0.037297
  58 C :   -0.020904
  59 C :   -0.014357
  60 C :    0.042456
  61 O :   -0.119577
  62 C :    0.466341
  63 F :   -0.170726
  64 F :   -0.129708
  65 F :   -0.170863
  66 H :    0.036539
  67 H :    0.010839
  68 H :   -0.004489
  69 H :   -0.004094
  70 H :   -0.003951
  71 H :    0.004145
  72 H :    0.015785
  73 H :    0.061540
  74 H :    0.031832
  75 H :    0.041239
  76 H :    0.028697
  77 H :    0.033019
  78 H :    0.020822
  79 H :    0.037357
  80 H :    0.046832
  81 H :    0.019739
  82 H :    0.028730
  83 H :    0.026002
  84 H :   -0.008170
  85 H :    0.003121
  86 H :    0.073606
  87 H :    0.075101
  88 H :    0.056434
  89 H :    0.030803
Sum of atomic charges:    0.0000000

LOEWDIN ATOMIC CHARGES
----------------------
   0 C :   -0.181952
   1 S :    0.547466
   2 C :   -0.147472
   3 C :   -0.111929
   4 C :   -0.046882
   5 C :    0.044487
   6 O :   -0.104123
   7 C :    0.140234
   8 F :   -0.054755
   9 F :   -0.040949
  10 F :   -0.054602
  11 C :   -0.017354
  12 C :   -0.027172
  13 N :    0.286167
  14 O :   -0.198510
  15 O :   -0.234938
  16 C :    0.000165
  17 C :   -0.023630
  18 C :    0.037348
  19 C :    0.044980
  20 C :   -0.059509
  21 C :    0.032074
  22 C :   -0.067163
  23 N :    0.286595
  24 O :   -0.216870
  25 O :   -0.233564
  26 C :    0.015456
  27 C :   -0.009843
  28 C :    0.010472
  29 C :    0.054202
  30 N :    0.001228
  31 C :    0.036689
  32 C :   -0.059809
  33 C :    0.080217
  34 O :   -0.202712
  35 C :   -0.123809
  36 C :   -0.080525
  37 C :    0.085982
  38 O :   -0.163502
  39 N :    0.003366
  40 C :    0.038294
  41 C :   -0.058016
  42 C :    0.091997
  43 C :   -0.028946
  44 C :    0.007443
  45 C :   -0.138391
  46 S :    0.491813
  47 C :   -0.142380
  48 C :   -0.095018
  49 C :   -0.085543
  50 C :    0.086096
  51 O :   -0.134459
  52 C :   -0.064343
  53 C :    0.082956
  54 O :   -0.121080
  55 C :   -0.195679
  56 S :    0.473677
  57 C :   -0.137123
  58 C :   -0.120808
  59 C :    0.005452
  60 C :    0.038472
  61 O :   -0.089062
  62 C :    0.139185
  63 F :   -0.063360
  64 F :   -0.030735
  65 F :   -0.063573
  66 H :    0.029174
  67 H :    0.032491
  68 H :    0.036177
  69 H :    0.031431
  70 H :    0.030960
  71 H :    0.039734
  72 H :    0.035454
  73 H :    0.048375
  74 H :    0.025276
  75 H :    0.036613
  76 H :    0.025830
  77 H :    0.036630
  78 H :    0.029393
  79 H :    0.029431
  80 H :    0.038996
  81 H :    0.024087
  82 H :    0.034002
  83 H :    0.030348
  84 H :    0.030781
  85 H :    0.036218
  86 H :    0.066400
  87 H :    0.066932
  88 H :    0.031742
  89 H :    0.041101

  Mayer bond orders larger than 0.100000
B(  0-C ,  1-S ) :   1.1627 B(  0-C ,  4-C ) :   1.5492 B(  0-C , 66-H ) :   0.9664
B(  1-S ,  2-C ) :   1.2365 B(  2-C ,  3-C ) :   1.4016 B(  2-C , 11-C ) :   1.1003
B(  3-C ,  4-C ) :   1.2638 B(  3-C ,  5-C ) :   0.9782 B(  4-C , 67-H ) :   0.9800
B(  5-C ,  6-O ) :   2.1347 B(  5-C ,  7-C ) :   0.8770 B(  7-C ,  8-F ) :   1.1208
B(  7-C ,  9-F ) :   1.1823 B(  7-C , 10-F ) :   1.1346 B( 11-C , 12-C ) :   1.5426
B( 11-C , 18-C ) :   1.0778 B( 12-C , 13-N ) :   0.9526 B( 12-C , 16-C ) :   1.1343
B( 13-N , 14-O ) :   1.5501 B( 13-N , 15-O ) :   1.4490 B( 14-O , 15-O ) :   0.2592
B( 16-C , 17-C ) :   1.5729 B( 16-C , 68-H ) :   1.0116 B( 17-C , 18-C ) :   1.1526
B( 17-C , 69-H ) :   0.9979 B( 18-C , 19-C ) :   1.4240 B( 19-C , 20-C ) :   1.1961
B( 19-C , 26-C ) :   1.0078 B( 20-C , 21-C ) :   1.4915 B( 20-C , 70-H ) :   1.0095
B( 21-C , 22-C ) :   1.1690 B( 21-C , 71-H ) :   1.0140 B( 22-C , 23-N ) :   0.9656
B( 22-C , 26-C ) :   1.4152 B( 23-N , 24-O ) :   1.5330 B( 23-N , 25-O ) :   1.4825
B( 24-O , 25-O ) :   0.2482 B( 26-C , 27-C ) :   1.2655 B( 27-C , 28-C ) :   1.4058
B( 27-C , 72-H ) :   0.9507 B( 28-C , 29-C ) :   1.2694 B( 28-C , 73-H ) :   0.9134
B( 29-C , 30-N ) :   1.1565 B( 29-C , 36-C ) :   1.2994 B( 30-N , 31-C ) :   0.9348
B( 30-N , 33-C ) :   1.0780 B( 31-C , 32-C ) :   1.1197 B( 31-C , 74-H ) :   0.9507
B( 31-C , 75-H ) :   0.9249 B( 32-C , 76-H ) :   0.9676 B( 32-C , 77-H ) :   0.9674
B( 32-C , 78-H ) :   0.9617 B( 33-C , 34-O ) :   2.0121 B( 33-C , 35-C ) :   0.9839
B( 34-O , 85-H ) :   0.1211 B( 35-C , 36-C ) :   1.3013 B( 35-C , 42-C ) :   1.2589
B( 36-C , 37-C ) :   0.9583 B( 37-C , 38-O ) :   2.1331 B( 37-C , 39-N ) :   1.0274
B( 39-N , 40-C ) :   0.9341 B( 39-N , 42-C ) :   1.1958 B( 40-C , 41-C ) :   1.1236
B( 40-C , 79-H ) :   0.9477 B( 40-C , 80-H ) :   0.9281 B( 41-C , 81-H ) :   0.9674
B( 41-C , 82-H ) :   0.9676 B( 41-C , 83-H ) :   0.9641 B( 42-C , 43-C ) :   1.1790
B( 43-C , 44-C ) :   1.5842 B( 43-C , 84-H ) :   0.9376 B( 44-C , 45-C ) :   1.1646
B( 44-C , 85-H ) :   0.9257 B( 45-C , 46-S ) :   1.1424 B( 45-C , 49-C ) :   1.4364
B( 46-S , 47-C ) :   1.1580 B( 47-C , 48-C ) :   1.5062 B( 47-C , 55-C ) :   1.1373
B( 48-C , 49-C ) :   1.2187 B( 48-C , 53-C ) :   0.9409 B( 49-C , 50-C ) :   0.9534
B( 50-C , 51-O ) :   2.1297 B( 50-C , 52-C ) :   1.0077 B( 51-O , 84-H ) :   0.1128
B( 52-C , 53-C ) :   1.0014 B( 52-C , 86-H ) :   0.8945 B( 52-C , 87-H ) :   0.8935
B( 53-C , 54-O ) :   2.1750 B( 55-C , 56-S ) :   1.0993 B( 55-C , 59-C ) :   1.5319
B( 56-S , 57-C ) :   1.2259 B( 57-C , 58-C ) :   1.5087 B( 57-C , 88-H ) :   0.9386
B( 58-C , 59-C ) :   1.2102 B( 58-C , 60-C ) :   0.9434 B( 59-C , 89-H ) :   0.9864
B( 60-C , 61-O ) :   2.2350 B( 60-C , 62-C ) :   0.8788 B( 62-C , 63-F ) :   1.1236
B( 62-C , 64-F ) :   1.1979 B( 62-C , 65-F ) :   1.1230

-----------------------------------------------------------------------------
         ABSORPTION SPECTRUM VIA TRANSITION ELECTRIC DIPOLE MOMENTS
-----------------------------------------------------------------------------
State   Energy  Wavelength   fosc         T2         TX        TY        TZ
        (cm-1)    (nm)                  (au**2)     (au)      (au)      (au)
-----------------------------------------------------------------------------
   0    5687.5   1758.3   0.206869802  11.97439   1.43904   3.14699  -0.00403
   1   12464.3    802.3   0.054257205   1.43306   0.61792   0.70611   0.74340
   2   14488.1    690.2   0.448559418  10.19261   0.69472   2.82404   1.31711
   3   17523.8    570.7   0.010967185   0.20604  -0.11785   0.42978   0.08622
   4   20568.1    486.2   0.019588922   0.31354   0.29433   0.02210   0.47584
   5   22002.1    454.5   0.286557808   4.28769  -0.60469  -1.93412   0.42572
   6   22497.9    444.5   0.178500302   2.61200   0.05833   1.61301  -0.08249
   7   22838.9    437.8   0.030320326   0.43705   0.29281  -0.46910  -0.36230
   8   23435.2    426.7   0.010034312   0.14096  -0.35951  -0.10205   0.03603
   9   23839.9    419.5   0.023592177   0.32579   0.48104   0.30700  -0.01175
  10   24314.1    411.3   0.025722130   0.34828   0.10932   0.19394  -0.54655
  11   25306.3    395.2   0.086919547   1.13075   0.29341  -0.16035  -1.00943
  12   25819.8    387.3   0.332098784   4.23438  -0.48825  -0.66354   1.88566
  13   26598.6    376.0   0.004134042   0.05117   0.08560  -0.11878  -0.17243
  14   26756.7    373.7   0.027214360   0.33484   0.13775  -0.03044  -0.56119
  15   27482.8    363.9   0.007379380   0.08840  -0.15621   0.25180  -0.02433
  16   28165.1    355.0   0.016251657   0.18996  -0.20035   0.34973   0.16586
  17   28225.4    354.3   0.073465051   0.85687   0.03224  -0.66961  -0.63832
  18   28418.6    351.9   0.112194839   1.29971   0.13257   0.63079  -0.94034
  19   28501.9    350.9   0.131773546   1.52206  -0.49397  -1.13044   0.01221
  20   28665.9    348.8   0.031093363   0.35709  -0.34049  -0.49107  -0.00277
  21   29823.0    335.3   0.323363945   3.56958   0.62638  -1.51115  -0.94532
  22   30092.2    332.3   0.018199844   0.19911  -0.14770   0.41937   0.03769
  23   30587.0    326.9   0.024218425   0.26067  -0.25002  -0.44291   0.04454
  24   30816.2    324.5   0.004292627   0.04586   0.13617  -0.13252   0.09876
  25   31533.8    317.1   0.290086678   3.02850  -0.49658   1.32371   1.01474
  26   31986.6    312.6   0.051923623   0.53441   0.23847   0.68722   0.07260
  27   32132.1    311.2   0.056494498   0.57882   0.07918   0.74284   0.14401
  28   32500.7    307.7   0.003396097   0.03440  -0.03238   0.06064   0.17226
  29   32767.2    305.2   0.016484546   0.16562  -0.31941   0.21849   0.12593
  30   33055.3    302.5   0.000918626   0.00915  -0.07059   0.03407   0.05482
  31   33256.6    300.7   0.021156111   0.20943  -0.34499   0.28571   0.09369
  32   33424.1    299.2   0.048852035   0.48117   0.59221   0.26106  -0.24961
  33   33597.7    297.6   0.093437868   0.91556  -0.03011  -0.33537   0.89565
  34   33830.7    295.6   0.058586243   0.57011  -0.31182  -0.30316   0.61723
  35   34374.6    290.9   0.051325546   0.49155  -0.00566   0.68049   0.16871
  36   34656.5    288.5   0.067216203   0.63851  -0.26589  -0.11439   0.74480
  37   34745.8    287.8   0.026850335   0.25440  -0.05524  -0.27970  -0.41607
  38   35282.7    283.4   0.000172903   0.00161   0.01339  -0.03129   0.02133
  39   35306.6    283.2   0.007085970   0.06607  -0.07166  -0.02568   0.24552
  40   35792.5    279.4   0.005601188   0.05152   0.18958  -0.01170   0.12426
  41   35854.8    278.9   0.001717807   0.01577   0.11664  -0.02542   0.03901
  42   35993.7    277.8   0.001861696   0.01703   0.05156   0.02536   0.11716
  43   36232.8    276.0   0.009944092   0.09035   0.08486  -0.00334   0.28834
  44   36804.6    271.7   0.141832671   1.26867   0.38197  -0.25141  -1.02935
  45   36921.4    270.8   0.004822392   0.04300  -0.02201  -0.10859  -0.17528
  46   37058.6    269.8   0.086362590   0.76721  -0.08660   0.16325   0.85619
  47   37146.2    269.2   0.000264550   0.00234  -0.01227   0.00495  -0.04658
  48   37240.3    268.5   0.006141826   0.05430   0.06376  -0.05338  -0.21767
  49   37952.2    263.5   0.023041808   0.19987   0.05964   0.23964  -0.37268
  50   38291.0    261.2   0.077309738   0.66468   0.21215   0.61037  -0.49712
  51   38440.1    260.1   0.007689828   0.06586  -0.03757  -0.21940  -0.12771
  52   38504.9    259.7   0.068056256   0.58187   0.21121  -0.29885  -0.66929
  53   39163.1    255.3   0.039499822   0.33204   0.07395  -0.29228  -0.49107
  54   39378.6    253.9   0.001173436   0.00981   0.05808   0.05815  -0.05527
  55   39445.3    253.5   0.015250379   0.12728   0.09849   0.31765   0.12915
  56   39882.0    250.7   0.009453274   0.07803  -0.04441  -0.20855   0.18047
  57   39972.8    250.2   0.000053254   0.00044  -0.01887   0.00901  -0.00109

FINAL SINGLE POINT ENERGY     -4413.490387069184

DIPOLE MOMENT
-------------
                                X             Y             Z
Electronic contribution:    -13.92654     -31.60932      17.07822
Nuclear contribution   :     14.02677      31.51088     -17.45633
                        -----------------------------------------
Total Dipole Moment    :      0.10024      -0.09844      -0.37811
                        -----------------------------------------
Magnitude (a.u.)       :      0.40337
Magnitude (Debye)      :      1.02528

Rotational constants in cm-1:     0.002369     0.000337     0.000310
Rotational constants in MHz :    71.011571    10.093363     9.300285

                             ****ORCA TERMINATED NORMALLY****
TOTAL RUN TIME: 0 days 0 hours 9 minutes 35 seconds 964 msec
