                         Program Version 4.2.0 -  RELEASE  -
|  1> # ORCA input file
|  2> # SCF done       -192.727750777824          0.000510484423
|  3> ! CAM-B3LYP def2-SVP def2/J RIJCOSX Grid4 TightSCF
|  4> %maxcore 5000
|  5> %tddft
|  6>     Mode sTDDFT
|  7>     Ethresh 5.0
|  8>     maxcore 5000
|  9> end
| 10>
| 11> %pal
| 12>   nprocs 6
| 13>   end
| 14> * xyz 0 1
| 15>    C        6.27517        -3.09206         4.30035
| 16>    C        6.52627        -4.37117         3.82056
| 17>    C        7.82156        -5.04543         4.06675
| 18>    O        8.72746        -4.64515         4.73097
| 19>    S        7.83562        -6.59747         3.18169
| 20>    C        6.17453        -6.35644         2.52041
| 21>    O        5.70199        -7.11940         1.73275
| 22>    C        5.61048        -5.10056         3.05690
| 23>    C        4.32945        -4.58235         2.74700
| 24>    C        4.12449        -3.26025         3.18560
| 25>    C        5.05495        -2.55008         3.93721
| 26>    C        4.47175        -1.21349         4.22442
| 27>    O        4.92326        -0.29938         4.83498
| 28>    O        3.23070        -1.18784         3.63436
| 29>    C        2.95227        -2.37499         2.99685
| 30>    O        1.92727        -2.56663         2.41842
| 31>    C        3.27472        -5.25543         2.04294
| 32>    C        2.99241        -6.57409         2.11624
| 33>    C        1.92551        -7.20431         1.41810
| 34>    S        1.65133        -8.90962         1.63350
| 35>    C        0.34228        -8.91252         0.49969
| 36>    C        0.13605        -7.61953        -0.00591
| 37>    C        1.02466        -6.67100         0.51741
| 38>    C       -0.85972        -7.26629        -0.93222
| 39>    N       -1.66207        -6.93959        -1.68529
| 40>    C       -0.32050       -10.13076         0.22074
| 41>    C       -1.27567       -10.30413        -0.73295
| 42>    C       -1.88540       -11.55721        -0.97536
| 43>    N       -2.81962       -11.77019        -1.96246
| 44>    C       -3.38008       -10.77638        -2.84793
| 45>    C       -4.42047        -9.90668        -2.14783
| 46>    C       -3.23672       -13.10941        -2.01255
| 47>    O       -4.04489       -13.53501        -2.81494
| 48>    C       -2.48924       -13.75843        -0.95720
| 49>    C       -1.67211       -12.78109        -0.33917
| 50>    C       -0.92922       -13.42684         0.71941
| 51>    O       -0.11471       -13.00614         1.51836
| 52>    N       -1.35523       -14.76416         0.67781
| 53>    C       -0.79614       -15.75085         1.56991
| 54>    C        0.28957       -16.58250         0.89123
| 55>    C       -2.27551       -14.98250        -0.32270
| 56>    C       -2.84814       -16.24755        -0.59851
| 57>    C       -3.71412       -16.44830        -1.62631
| 58>    C       -4.28309       -17.70387        -1.96240
| 59>    S       -5.29603       -17.83744        -3.37107
| 60>    C       -5.52070       -19.53726        -3.13326
| 61>    C       -4.84675       -19.96286        -1.98509
| 62>    C       -4.15530       -18.93015        -1.33677
| 63>    C       -4.87279       -21.26837        -1.46063
| 64>    N       -4.87679       -22.30408        -0.96794
| 65>    C       -6.30608       -20.27706        -4.06002
| 66>    C       -6.35792       -21.62321        -4.11680
| 67>    C       -7.12611       -22.38577        -5.06740
| 68>    C       -8.44248       -22.11489        -5.49495
| 69>    C       -9.30660       -21.07010        -4.90281
| 70>    O       -9.07243       -20.32998        -3.99543
| 71>    S      -10.90011       -21.08074        -5.72954
| 72>    C      -10.46747       -22.47782        -6.76413
| 73>    O      -11.22669       -22.95331        -7.55333
| 74>    C       -9.08469       -22.90182        -6.45467
| 75>    C       -8.50100       -24.03581        -7.05005
| 76>    C       -7.20888       -24.32326        -6.59169
| 77>    C       -6.56253       -23.53178        -5.64925
| 78>    C       -5.19617       -24.07470        -5.46775
| 79>    O       -4.30222       -23.69154        -4.77989
| 80>    O       -5.08372       -25.16225        -6.29836
| 81>    C       -6.23885       -25.37039        -7.01485
| 82>    O       -6.33522       -26.24221        -7.81839
| 83>    C       -9.19108       -24.82335        -8.06073
| 84>    C       -9.23535       -26.14917        -8.07480
| 85>    H        7.00007        -2.55908         4.89355
| 86>    H        2.61229        -4.60196         1.49356
| 87>    H        3.57779        -7.22495         2.74919
| 88>    H        0.99834        -5.63280         0.23902
| 89>    H       -0.01354       -10.98019         0.81805
| 90>    H       -1.57953        -9.47278        -1.34967
| 91>    H       -3.85391       -11.33370        -3.66074
| 92>    H       -2.57841       -10.15938        -3.26263
| 93>    H       -5.22117       -10.52715        -1.75268
| 94>    H       -4.84282        -9.20268        -2.85878
| 95>    H       -3.97672        -9.34503        -1.32934
| 96>    H       -1.59517       -16.38975         1.95615
| 97>    H       -0.36050       -15.19175         2.40275
| 98>    H       -0.10475       -17.11207         0.02663
| 99>    H        0.69046       -17.30761         1.59388
|100>    H        1.09828       -15.93579         0.56033
|101>    H       -2.56205       -17.07378         0.03519
|102>    H       -3.98875       -15.61152        -2.25539
|103>    H       -3.58967       -19.08925        -0.43635
|104>    H       -6.84653       -19.67969        -4.78142
|105>    H       -5.71323       -22.21050        -3.47797
|106>    H       -9.73436       -24.25226        -8.80076
|107>    H       -8.76480       -26.75217        -7.31784
|108>    H       -9.77222       -26.67564        -8.84376
|109> *
|110>
|111>                          ****END OF INPUT****

CARTESIAN COORDINATES (ANGSTROEM)
---------------------------------
  C      6.275170   -3.092060    4.300350
  C      6.526270   -4.371170    3.820560
  C      7.821560   -5.045430    4.066750
  O      8.727460   -4.645150    4.730970
  S      7.835620   -6.597470    3.181690
  C      6.174530   -6.356440    2.520410
  O      5.701990   -7.119400    1.732750
  C      5.610480   -5.100560    3.056900
  C      4.329450   -4.582350    2.747000
  C      4.124490   -3.260250    3.185600
  C      5.054950   -2.550080    3.937210
  C      4.471750   -1.213490    4.224420
  O      4.923260   -0.299380    4.834980
  O      3.230700   -1.187840    3.634360
  C      2.952270   -2.374990    2.996850
  O      1.927270   -2.566630    2.418420
  C      3.274720   -5.255430    2.042940
  C      2.992410   -6.574090    2.116240
  C      1.925510   -7.204310    1.418100
  S      1.651330   -8.909620    1.633500
  C      0.342280   -8.912520    0.499690
  C      0.136050   -7.619530   -0.005910
  C      1.024660   -6.671000    0.517410
  C     -0.859720   -7.266290   -0.932220
  N     -1.662070   -6.939590   -1.685290
  C     -0.320500  -10.130760    0.220740
  C     -1.275670  -10.304130   -0.732950
  C     -1.885400  -11.557210   -0.975360
  N     -2.819620  -11.770190   -1.962460
  C     -3.380080  -10.776380   -2.847930
  C     -4.420470   -9.906680   -2.147830
  C     -3.236720  -13.109410   -2.012550
  O     -4.044890  -13.535010   -2.814940
  C     -2.489240  -13.758430   -0.957200
  C     -1.672110  -12.781090   -0.339170
  C     -0.929220  -13.426840    0.719410
  O     -0.114710  -13.006140    1.518360
  N     -1.355230  -14.764160    0.677810
  C     -0.796140  -15.750850    1.569910
  C      0.289570  -16.582500    0.891230
  C     -2.275510  -14.982500   -0.322700
  C     -2.848140  -16.247550   -0.598510
  C     -3.714120  -16.448300   -1.626310
  C     -4.283090  -17.703870   -1.962400
  S     -5.296030  -17.837440   -3.371070
  C     -5.520700  -19.537260   -3.133260
  C     -4.846750  -19.962860   -1.985090
  C     -4.155300  -18.930150   -1.336770
  C     -4.872790  -21.268370   -1.460630
  N     -4.876790  -22.304080   -0.967940
  C     -6.306080  -20.277060   -4.060020
  C     -6.357920  -21.623210   -4.116800
  C     -7.126110  -22.385770   -5.067400
  C     -8.442480  -22.114890   -5.494950
  C     -9.306600  -21.070100   -4.902810
  O     -9.072430  -20.329980   -3.995430
  S    -10.900110  -21.080740   -5.729540
  C    -10.467470  -22.477820   -6.764130
  O    -11.226690  -22.953310   -7.553330
  C     -9.084690  -22.901820   -6.454670
  C     -8.501000  -24.035810   -7.050050
  C     -7.208880  -24.323260   -6.591690
  C     -6.562530  -23.531780   -5.649250
  C     -5.196170  -24.074700   -5.467750
  O     -4.302220  -23.691540   -4.779890
  O     -5.083720  -25.162250   -6.298360
  C     -6.238850  -25.370390   -7.014850
  O     -6.335220  -26.242210   -7.818390
  C     -9.191080  -24.823350   -8.060730
  C     -9.235350  -26.149170   -8.074800
  H      7.000070   -2.559080    4.893550
  H      2.612290   -4.601960    1.493560
  H      3.577790   -7.224950    2.749190
  H      0.998340   -5.632800    0.239020
  H     -0.013540  -10.980190    0.818050
  H     -1.579530   -9.472780   -1.349670
  H     -3.853910  -11.333700   -3.660740
  H     -2.578410  -10.159380   -3.262630
  H     -5.221170  -10.527150   -1.752680
  H     -4.842820   -9.202680   -2.858780
  H     -3.976720   -9.345030   -1.329340
  H     -1.595170  -16.389750    1.956150
  H     -0.360500  -15.191750    2.402750
  H     -0.104750  -17.112070    0.026630
  H      0.690460  -17.307610    1.593880
  H      1.098280  -15.935790    0.560330
  H     -2.562050  -17.073780    0.035190
  H     -3.988750  -15.611520   -2.255390
  H     -3.589670  -19.089250   -0.436350
  H     -6.846530  -19.679690   -4.781420
  H     -5.713230  -22.210500   -3.477970
  H     -9.734360  -24.252260   -8.800760
  H     -8.764800  -26.752170   -7.317840
  H     -9.772220  -26.675640   -8.843760

 Total Charge           Charge          ....    0
 Multiplicity           Mult            ....    1
 Number of Electrons    NEL             ....  512
 Basis Dimension        Dim             .... 1116

ORBITAL ENERGIES
----------------

  NO   OCC          E(Eh)            E(eV)
   0   2.0000     -88.986345     -2421.4416
   1   2.0000     -88.984717     -2421.3972
   2   2.0000     -88.962951     -2420.8050
   3   2.0000     -88.958914     -2420.6951
   4   2.0000     -19.302651      -525.2518
   5   2.0000     -19.297312      -525.1065
   6   2.0000     -19.255324      -523.9640
   7   2.0000     -19.254725      -523.9477
   8   2.0000     -19.251602      -523.8627
   9   2.0000     -19.251266      -523.8536
  10   2.0000     -19.250667      -523.8373
  11   2.0000     -19.250094      -523.8217
  12   2.0000     -19.245264      -523.6903
  13   2.0000     -19.244008      -523.6561
  14   2.0000     -19.199116      -522.4345
  15   2.0000     -19.195243      -522.3291
  16   2.0000     -14.460332      -393.4856
  17   2.0000     -14.457234      -393.4013
  18   2.0000     -14.420422      -392.3996
  19   2.0000     -14.414722      -392.2445
  20   2.0000     -10.445077      -284.2250
  21   2.0000     -10.443105      -284.1713
  22   2.0000     -10.439358      -284.0694
  23   2.0000     -10.438162      -284.0368
  24   2.0000     -10.420053      -283.5441
  25   2.0000     -10.415907      -283.4312
  26   2.0000     -10.415235      -283.4129
  27   2.0000     -10.413516      -283.3662
  28   2.0000     -10.381061      -282.4830
  29   2.0000     -10.378131      -282.4033
  30   2.0000     -10.352391      -281.7029
  31   2.0000     -10.346086      -281.5313
  32   2.0000     -10.343981      -281.4740
  33   2.0000     -10.342901      -281.4447
  34   2.0000     -10.341768      -281.4138
  35   2.0000     -10.341430      -281.4046
  36   2.0000     -10.340968      -281.3920
  37   2.0000     -10.340499      -281.3793
  38   2.0000     -10.339930      -281.3638
  39   2.0000     -10.338449      -281.3235
  40   2.0000     -10.337819      -281.3064
  41   2.0000     -10.336605      -281.2733
  42   2.0000     -10.336032      -281.2577
  43   2.0000     -10.335446      -281.2418
  44   2.0000     -10.334607      -281.2189
  45   2.0000     -10.333415      -281.1865
  46   2.0000     -10.329098      -281.0690
  47   2.0000     -10.328356      -281.0488
  48   2.0000     -10.327739      -281.0321
  49   2.0000     -10.327081      -281.0142
  50   2.0000     -10.321482      -280.8618
  51   2.0000     -10.318398      -280.7779
  52   2.0000     -10.315412      -280.6966
  53   2.0000     -10.315220      -280.6914
  54   2.0000     -10.313016      -280.6314
  55   2.0000     -10.310268      -280.5567
  56   2.0000     -10.307613      -280.4844
  57   2.0000     -10.307586      -280.4837
  58   2.0000     -10.306070      -280.4424
  59   2.0000     -10.304249      -280.3929
  60   2.0000     -10.302012      -280.3320
  61   2.0000     -10.300944      -280.3029
  62   2.0000     -10.300588      -280.2932
  63   2.0000     -10.300558      -280.2924
  64   2.0000     -10.289700      -279.9970
  65   2.0000     -10.285315      -279.8777
  66   2.0000     -10.270122      -279.4642
  67   2.0000     -10.267958      -279.4053
  68   2.0000     -10.266632      -279.3692
  69   2.0000     -10.260317      -279.1974
  70   2.0000      -8.081944      -219.9209
  71   2.0000      -8.080391      -219.8786
  72   2.0000      -8.062235      -219.3846
  73   2.0000      -8.058261      -219.2764
  74   2.0000      -6.050975      -164.6554
  75   2.0000      -6.049425      -164.6132
  76   2.0000      -6.046923      -164.5451
  77   2.0000      -6.045367      -164.5028
  78   2.0000      -6.044416      -164.4769
  79   2.0000      -6.042838      -164.4340
  80   2.0000      -6.031050      -164.1132
  81   2.0000      -6.027821      -164.0253
  82   2.0000      -6.027099      -164.0057
  83   2.0000      -6.023839      -163.9170
  84   2.0000      -6.023317      -163.9028
  85   2.0000      -6.019329      -163.7943
  86   2.0000      -1.251681       -34.0600
  87   2.0000      -1.247244       -33.9392
  88   2.0000      -1.181041       -32.1377
  89   2.0000      -1.178567       -32.0704
  90   2.0000      -1.177350       -32.0373
  91   2.0000      -1.176499       -32.0142
  92   2.0000      -1.173322       -31.9277
  93   2.0000      -1.173079       -31.9211
  94   2.0000      -1.140856       -31.0443
  95   2.0000      -1.139989       -31.0207
  96   2.0000      -1.135012       -30.8852
  97   2.0000      -1.132546       -30.8181
  98   2.0000      -1.069874       -29.1128
  99   2.0000      -1.061050       -28.8726
 100   2.0000      -1.027755       -27.9666
 101   2.0000      -1.025346       -27.9011
 102   2.0000      -1.023446       -27.8494
 103   2.0000      -1.020983       -27.7824
 104   2.0000      -0.999153       -27.1883
 105   2.0000      -0.994018       -27.0486
 106   2.0000      -0.964321       -26.2405
 107   2.0000      -0.960728       -26.1427
 108   2.0000      -0.946192       -25.7472
 109   2.0000      -0.943190       -25.6655
 110   2.0000      -0.934528       -25.4298
 111   2.0000      -0.926020       -25.1983
 112   2.0000      -0.920642       -25.0519
 113   2.0000      -0.903945       -24.5976
 114   2.0000      -0.895506       -24.3680
 115   2.0000      -0.889506       -24.2047
 116   2.0000      -0.884758       -24.0755
 117   2.0000      -0.879267       -23.9261
 118   2.0000      -0.875984       -23.8367
 119   2.0000      -0.872681       -23.7469
 120   2.0000      -0.861364       -23.4389
 121   2.0000      -0.843402       -22.9501
 122   2.0000      -0.834030       -22.6951
 123   2.0000      -0.823889       -22.4192
 124   2.0000      -0.810363       -22.0511
 125   2.0000      -0.806893       -21.9567
 126   2.0000      -0.802219       -21.8295
 127   2.0000      -0.794870       -21.6295
 128   2.0000      -0.782460       -21.2918
 129   2.0000      -0.776578       -21.1318
 130   2.0000      -0.773488       -21.0477
 131   2.0000      -0.768467       -20.9110
 132   2.0000      -0.764031       -20.7903
 133   2.0000      -0.747896       -20.3513
 134   2.0000      -0.743298       -20.2262
 135   2.0000      -0.734751       -19.9936
 136   2.0000      -0.720126       -19.5956
 137   2.0000      -0.714861       -19.4523
 138   2.0000      -0.710504       -19.3338
 139   2.0000      -0.704823       -19.1792
 140   2.0000      -0.700642       -19.0654
 141   2.0000      -0.688026       -18.7221
 142   2.0000      -0.685221       -18.6458
 143   2.0000      -0.679341       -18.4858
 144   2.0000      -0.676680       -18.4134
 145   2.0000      -0.656573       -17.8663
 146   2.0000      -0.654442       -17.8083
 147   2.0000      -0.648835       -17.6557
 148   2.0000      -0.646098       -17.5812
 149   2.0000      -0.639618       -17.4049
 150   2.0000      -0.638360       -17.3707
 151   2.0000      -0.634561       -17.2673
 152   2.0000      -0.632563       -17.2129
 153   2.0000      -0.628089       -17.0912
 154   2.0000      -0.619881       -16.8678
 155   2.0000      -0.614534       -16.7223
 156   2.0000      -0.612503       -16.6671
 157   2.0000      -0.611576       -16.6418
 158   2.0000      -0.609235       -16.5781
 159   2.0000      -0.605646       -16.4805
 160   2.0000      -0.594244       -16.1702
 161   2.0000      -0.593020       -16.1369
 162   2.0000      -0.580584       -15.7985
 163   2.0000      -0.578799       -15.7499
 164   2.0000      -0.576722       -15.6934
 165   2.0000      -0.575275       -15.6540
 166   2.0000      -0.571776       -15.5588
 167   2.0000      -0.571034       -15.5386
 168   2.0000      -0.569903       -15.5079
 169   2.0000      -0.565903       -15.3990
 170   2.0000      -0.564099       -15.3499
 171   2.0000      -0.559785       -15.2325
 172   2.0000      -0.558886       -15.2081
 173   2.0000      -0.556300       -15.1377
 174   2.0000      -0.552364       -15.0306
 175   2.0000      -0.550277       -14.9738
 176   2.0000      -0.548598       -14.9281
 177   2.0000      -0.546366       -14.8674
 178   2.0000      -0.542491       -14.7619
 179   2.0000      -0.538932       -14.6651
 180   2.0000      -0.536188       -14.5904
 181   2.0000      -0.534037       -14.5319
 182   2.0000      -0.533580       -14.5195
 183   2.0000      -0.532622       -14.4934
 184   2.0000      -0.530207       -14.4277
 185   2.0000      -0.524299       -14.2669
 186   2.0000      -0.524052       -14.2602
 187   2.0000      -0.522046       -14.2056
 188   2.0000      -0.520285       -14.1577
 189   2.0000      -0.520027       -14.1506
 190   2.0000      -0.518375       -14.1057
 191   2.0000      -0.518292       -14.1034
 192   2.0000      -0.515357       -14.0236
 193   2.0000      -0.513363       -13.9693
 194   2.0000      -0.512089       -13.9346
 195   2.0000      -0.510045       -13.8790
 196   2.0000      -0.507774       -13.8172
 197   2.0000      -0.505403       -13.7527
 198   2.0000      -0.502506       -13.6739
 199   2.0000      -0.497538       -13.5387
 200   2.0000      -0.492382       -13.3984
 201   2.0000      -0.489531       -13.3208
 202   2.0000      -0.487390       -13.2625
 203   2.0000      -0.486012       -13.2251
 204   2.0000      -0.482454       -13.1282
 205   2.0000      -0.480414       -13.0727
 206   2.0000      -0.476129       -12.9561
 207   2.0000      -0.474295       -12.9062
 208   2.0000      -0.471847       -12.8396
 209   2.0000      -0.470948       -12.8152
 210   2.0000      -0.469764       -12.7829
 211   2.0000      -0.463024       -12.5995
 212   2.0000      -0.458905       -12.4874
 213   2.0000      -0.455439       -12.3931
 214   2.0000      -0.455415       -12.3925
 215   2.0000      -0.454889       -12.3782
 216   2.0000      -0.451989       -12.2992
 217   2.0000      -0.449763       -12.2387
 218   2.0000      -0.446509       -12.1501
 219   2.0000      -0.445792       -12.1306
 220   2.0000      -0.443608       -12.0712
 221   2.0000      -0.441580       -12.0160
 222   2.0000      -0.439444       -11.9579
 223   2.0000      -0.432661       -11.7733
 224   2.0000      -0.428166       -11.6510
 225   2.0000      -0.425474       -11.5777
 226   2.0000      -0.424073       -11.5396
 227   2.0000      -0.419635       -11.4188
 228   2.0000      -0.419180       -11.4065
 229   2.0000      -0.414674       -11.2839
 230   2.0000      -0.413352       -11.2479
 231   2.0000      -0.407032       -11.0759
 232   2.0000      -0.401516       -10.9258
 233   2.0000      -0.399543       -10.8721
 234   2.0000      -0.391691       -10.6584
 235   2.0000      -0.386797       -10.5253
 236   2.0000      -0.383194       -10.4272
 237   2.0000      -0.382535       -10.4093
 238   2.0000      -0.380839       -10.3632
 239   2.0000      -0.378964       -10.3121
 240   2.0000      -0.376066       -10.2333
 241   2.0000      -0.361751        -9.8438
 242   2.0000      -0.359060        -9.7705
 243   2.0000      -0.358691        -9.7605
 244   2.0000      -0.355191        -9.6653
 245   2.0000      -0.354450        -9.6451
 246   2.0000      -0.352736        -9.5984
 247   2.0000      -0.346448        -9.4273
 248   2.0000      -0.345274        -9.3954
 249   2.0000      -0.344086        -9.3631
 250   2.0000      -0.338171        -9.2021
 251   2.0000      -0.329636        -8.9699
 252   2.0000      -0.320838        -8.7304
 253   2.0000      -0.295218        -8.0333
 254   2.0000      -0.287055        -7.8112
 255   2.0000      -0.238301        -6.4845
 256   0.0000      -0.108476        -2.9518
 257   0.0000      -0.104833        -2.8526
 258   0.0000      -0.101858        -2.7717
 259   0.0000      -0.086192        -2.3454
 260   0.0000      -0.071402        -1.9429

MULLIKEN ATOMIC CHARGES
-----------------------
   0 C :   -0.065414
   1 C :    0.040969
   2 C :    0.054346
   3 O :   -0.115561
   4 S :    0.021457
   5 C :    0.030842
   6 O :   -0.121258
   7 C :    0.024453
   8 C :    0.073519
   9 C :   -0.078287
  10 C :   -0.018342
  11 C :    0.238407
  12 O :   -0.088851
  13 O :   -0.232589
  14 C :    0.244664
  15 O :   -0.106659
  16 C :   -0.075857
  17 C :    0.148102
  18 C :   -0.112692
  19 S :    0.195160
  20 C :   -0.064014
  21 C :   -0.076977
  22 C :    0.030822
  23 C :   -0.165493
  24 N :    0.115267
  25 C :    0.056640
  26 C :   -0.032962
  27 C :    0.129355
  28 N :   -0.254320
  29 C :    0.096171
  30 C :    0.009238
  31 C :    0.168265
  32 O :   -0.213637
  33 C :   -0.068724
  34 C :   -0.064181
  35 C :    0.169687
  36 O :   -0.213269
  37 N :   -0.257046
  38 C :    0.100650
  39 C :    0.003962
  40 C :    0.134797
  41 C :   -0.028856
  42 C :    0.086817
  43 C :   -0.082939
  44 S :    0.193571
  45 C :   -0.094371
  46 C :   -0.063037
  47 C :    0.012202
  48 C :   -0.170154
  49 N :    0.127499
  50 C :    0.123097
  51 C :   -0.073387
  52 C :    0.038734
  53 C :    0.017114
  54 C :    0.031097
  55 O :   -0.117705
  56 S :    0.025382
  57 C :    0.037392
  58 O :   -0.123586
  59 C :    0.042191
  60 C :   -0.001212
  61 C :   -0.080098
  62 C :   -0.061023
  63 C :    0.237843
  64 O :   -0.097243
  65 O :   -0.228870
  66 C :    0.228281
  67 O :   -0.088694
  68 C :   -0.046301
  69 C :    0.036879
  70 H :    0.025287
  71 H :    0.025502
  72 H :   -0.004648
  73 H :    0.009906
  74 H :    0.004195
  75 H :   -0.011944
  76 H :    0.040693
  77 H :    0.033144
  78 H :    0.022754
  79 H :    0.029639
  80 H :    0.019949
  81 H :    0.023346
  82 H :    0.043066
  83 H :    0.015950
  84 H :    0.026309
  85 H :    0.029919
  86 H :   -0.027805
  87 H :    0.009203
  88 H :   -0.000940
  89 H :   -0.006425
  90 H :    0.047103
  91 H :    0.032579
  92 H :    0.031750
  93 H :    0.040208
Sum of atomic charges:   -0.0000000

LOEWDIN ATOMIC CHARGES
----------------------
   0 C :    0.036544
   1 C :   -0.045436
   2 C :   -0.049757
   3 O :   -0.106801
   4 S :    0.308160
   5 C :   -0.043116
   6 O :   -0.108328
   7 C :   -0.063505
   8 C :    0.039804
   9 C :   -0.052359
  10 C :   -0.039731
  11 C :    0.104412
  12 O :   -0.087878
  13 O :   -0.056573
  14 C :    0.109233
  15 O :   -0.099406
  16 C :   -0.040120
  17 C :    0.015698
  18 C :   -0.173576
  19 S :    0.497257
  20 C :   -0.137687
  21 C :   -0.102991
  22 C :   -0.004964
  23 C :   -0.024950
  24 N :   -0.057907
  25 C :   -0.007038
  26 C :   -0.026947
  27 C :    0.071040
  28 N :    0.003867
  29 C :    0.036832
  30 C :   -0.058607
  31 C :    0.079595
  32 O :   -0.203709
  33 C :   -0.121401
  34 C :   -0.116248
  35 C :    0.080997
  36 O :   -0.201950
  37 N :    0.000554
  38 C :    0.036554
  39 C :   -0.060709
  40 C :    0.076811
  41 C :   -0.043448
  42 C :    0.010785
  43 C :   -0.169004
  44 S :    0.495925
  45 C :   -0.141957
  46 C :   -0.094361
  47 C :   -0.014759
  48 C :   -0.028400
  49 N :   -0.047846
  50 C :   -0.001517
  51 C :   -0.018770
  52 C :    0.027726
  53 C :   -0.054602
  54 C :   -0.045949
  55 O :   -0.107140
  56 S :    0.310001
  57 C :   -0.045235
  58 O :   -0.104805
  59 C :   -0.051009
  60 C :    0.031777
  61 C :   -0.043598
  62 C :   -0.041750
  63 C :    0.106027
  64 O :   -0.090820
  65 O :   -0.054385
  66 C :    0.106664
  67 O :   -0.086955
  68 C :   -0.039494
  69 C :    0.015712
  70 H :    0.053593
  71 H :    0.036622
  72 H :    0.030508
  73 H :    0.044107
  74 H :    0.036709
  75 H :    0.036106
  76 H :    0.037013
  77 H :    0.026844
  78 H :    0.029416
  79 H :    0.034323
  80 H :    0.023947
  81 H :    0.023006
  82 H :    0.038148
  83 H :    0.021996
  84 H :    0.031819
  85 H :    0.032700
  86 H :    0.028147
  87 H :    0.037478
  88 H :    0.038786
  89 H :    0.030804
  90 H :    0.044413
  91 H :    0.039016
  92 H :    0.025549
  93 H :    0.034473

  Mayer bond orders larger than 0.100000
B(  0-C ,  1-C ) :   1.3599 B(  0-C , 10-C ) :   1.3147 B(  0-C , 70-H ) :   1.0257
B(  1-C ,  2-C ) :   0.8396 B(  1-C ,  7-C ) :   1.3407 B(  2-C ,  3-O ) :   2.2205
B(  2-C ,  4-S ) :   1.0301 B(  3-O ,  4-S ) :   0.1093 B(  4-S ,  5-C ) :   1.0239
B(  4-S ,  6-O ) :   0.1048 B(  5-C ,  6-O ) :   2.1869 B(  5-C ,  7-C ) :   0.8541
B(  7-C ,  8-C ) :   1.3331 B(  8-C ,  9-C ) :   1.3301 B(  8-C , 16-C ) :   1.1277
B(  9-C , 10-C ) :   1.3693 B(  9-C , 14-C ) :   0.9228 B( 10-C , 11-C ) :   0.8844
B( 11-C , 12-O ) :   2.3136 B( 11-C , 13-O ) :   1.0406 B( 13-O , 14-C ) :   1.0603
B( 14-C , 15-O ) :   2.2253 B( 16-C , 17-C ) :   1.7072 B( 16-C , 71-H ) :   0.9428
B( 17-C , 18-C ) :   1.1388 B( 17-C , 72-H ) :   0.9475 B( 18-C , 19-S ) :   1.1196
B( 18-C , 22-C ) :   1.4656 B( 19-S , 20-C ) :   1.1658 B( 20-C , 21-C ) :   1.4063
B( 20-C , 25-C ) :   1.1618 B( 21-C , 22-C ) :   1.3229 B( 21-C , 23-C ) :   1.1188
B( 22-C , 73-H ) :   0.9972 B( 23-C , 24-N ) :   2.9662 B( 25-C , 26-C ) :   1.6048
B( 25-C , 74-H ) :   0.9208 B( 26-C , 27-C ) :   1.1777 B( 26-C , 75-H ) :   0.9478
B( 27-C , 28-N ) :   1.1629 B( 27-C , 34-C ) :   1.3293 B( 28-N , 29-C ) :   0.9390
B( 28-N , 31-C ) :   1.0663 B( 29-C , 30-C ) :   1.1238 B( 29-C , 76-H ) :   0.9270
B( 29-C , 77-H ) :   0.9482 B( 30-C , 78-H ) :   0.9629 B( 30-C , 79-H ) :   0.9673
B( 30-C , 80-H ) :   0.9673 B( 31-C , 32-O ) :   2.0187 B( 31-C , 33-C ) :   0.9864
B( 32-O , 87-H ) :   0.1181 B( 33-C , 34-C ) :   1.2593 B( 33-C , 40-C ) :   1.3313
B( 34-C , 35-C ) :   0.9863 B( 35-C , 36-O ) :   2.0169 B( 35-C , 37-N ) :   1.0627
B( 36-O , 74-H ) :   0.1173 B( 37-N , 38-C ) :   0.9462 B( 37-N , 40-C ) :   1.1578
B( 38-C , 39-C ) :   1.1204 B( 38-C , 81-H ) :   0.9500 B( 38-C , 82-H ) :   0.9273
B( 39-C , 83-H ) :   0.9685 B( 39-C , 84-H ) :   0.9680 B( 39-C , 85-H ) :   0.9635
B( 40-C , 41-C ) :   1.1720 B( 41-C , 42-C ) :   1.6242 B( 41-C , 86-H ) :   0.9601
B( 42-C , 43-C ) :   1.1192 B( 42-C , 87-H ) :   0.9344 B( 43-C , 44-S ) :   1.1362
B( 43-C , 47-C ) :   1.4528 B( 44-S , 45-C ) :   1.1479 B( 45-C , 46-C ) :   1.4383
B( 45-C , 50-C ) :   1.1681 B( 46-C , 47-C ) :   1.3209 B( 46-C , 48-C ) :   1.1056
B( 47-C , 88-H ) :   0.9992 B( 48-C , 49-N ) :   2.9841 B( 50-C , 51-C ) :   1.7205
B( 50-C , 89-H ) :   0.9355 B( 51-C , 52-C ) :   1.1046 B( 51-C , 90-H ) :   0.9261
B( 52-C , 53-C ) :   1.3543 B( 52-C , 62-C ) :   1.3404 B( 53-C , 54-C ) :   0.8415
B( 53-C , 59-C ) :   1.3124 B( 54-C , 55-O ) :   2.1897 B( 54-C , 56-S ) :   1.0278
B( 55-O , 56-S ) :   0.1067 B( 56-S , 57-C ) :   1.0332 B( 56-S , 58-O ) :   0.1063
B( 57-C , 58-O ) :   2.1695 B( 57-C , 59-C ) :   0.8444 B( 59-C , 60-C ) :   1.3808
B( 60-C , 61-C ) :   1.3467 B( 60-C , 68-C ) :   1.0751 B( 61-C , 62-C ) :   1.3530
B( 61-C , 66-C ) :   0.8954 B( 62-C , 63-C ) :   0.9089 B( 63-C , 64-O ) :   2.2364
B( 63-C , 65-O ) :   1.0608 B( 65-O , 66-C ) :   1.0484 B( 66-C , 67-O ) :   2.2721
B( 68-C , 69-C ) :   1.9589 B( 68-C , 91-H ) :   0.9382 B( 69-C , 92-H ) :   0.9626
B( 69-C , 93-H ) :   0.9499

-----------------------------------------------------------------------------
         ABSORPTION SPECTRUM VIA TRANSITION ELECTRIC DIPOLE MOMENTS
-----------------------------------------------------------------------------
State   Energy  Wavelength   fosc         T2         TX        TY        TZ
        (cm-1)    (nm)                  (au**2)     (au)      (au)      (au)
-----------------------------------------------------------------------------
   0   13840.7    722.5   1.353243725  32.18796  -2.49417  -4.95003  -1.21008
   1   17998.1    555.6   0.028473460   0.52082  -0.30504   0.65388   0.01485
   2   18556.8    538.9   0.028917212   0.51301  -0.52687   0.43636  -0.21216
   3   20532.5    487.0   0.016765721   0.26882  -0.12332   0.36960   0.34206
   4   23783.7    420.5   0.457815591   6.33706   1.61841   0.98827   1.65563
   5   23910.6    418.2   0.124134308   1.70914  -0.99510  -0.42763  -0.73215
   6   24271.7    412.0   0.093864966   1.27315  -1.05617  -0.33133  -0.21880
   7   25212.4    396.6   0.093563290   1.22170  -0.36360  -0.63855  -0.82569
   8   25771.7    388.0   0.978083428  12.49420   1.74838   2.66890   1.52129
   9   26536.9    376.8   0.003276190   0.04064   0.00974   0.11655   0.16421
  10   28011.8    357.0   0.006590951   0.07746   0.17173   0.12781   0.17786
  11   28461.8    351.3   0.012544480   0.14510  -0.35066   0.14634  -0.02694
  12   28678.9    348.7   0.004165260   0.04781   0.17551   0.10906   0.07153
  13   28984.5    345.0   0.010336010   0.11740   0.29227  -0.17745   0.02210
  14   30107.0    332.1   0.027929480   0.30540  -0.39004   0.35722   0.16020
  15   30696.8    325.8   0.028947993   0.31046   0.34957   0.19750   0.38633
  16   31370.9    318.8   0.016512088   0.17328   0.35784   0.16915   0.12891
  17   32211.9    310.4   0.000308959   0.00316  -0.04224  -0.03230  -0.01816
  18   32898.7    304.0   0.047347821   0.47380  -0.54524  -0.20232  -0.36821
  19   33053.4    302.5   0.060915189   0.60672  -0.47352  -0.43603  -0.43861
  20   33293.1    300.4   0.011855074   0.11723   0.09304   0.15221   0.29224
  21   33577.8    297.8   0.007650541   0.07501   0.11213   0.06901   0.24015
  22   33901.8    295.0   0.004392441   0.04265   0.14786   0.00845   0.14394
  23   33941.6    294.6   0.023529417   0.22822  -0.10855  -0.31013  -0.34678
  24   34244.4    292.0   0.026120899   0.25112   0.26813  -0.37276  -0.20068
  25   34269.8    291.8   0.001534182   0.01474  -0.08048  -0.09075  -0.00505
  26   34915.4    286.4   0.108216127   1.02035  -0.48716  -0.57258  -0.67468
  27   35224.3    283.9   0.013141391   0.12282  -0.17882   0.29861   0.04095
  28   35346.7    282.9   0.017751075   0.16533  -0.33092  -0.04181  -0.23253
  29   35678.2    280.3   0.035873070   0.33101   0.06644  -0.54722   0.16477
  30   35979.9    277.9   0.093244758   0.85318  -0.56949  -0.62752  -0.36753
  31   36066.0    277.3   0.131852498   1.20356   0.82800   0.08274   0.71493
  32   36459.1    274.3   0.017429212   0.15738  -0.08673   0.29881   0.24611
  33   36617.0    273.1   0.000604721   0.00544   0.00681   0.06347   0.03690
  34   36863.6    271.3   0.028661838   0.25597   0.38979   0.02386   0.32165
  35   37173.9    269.0   0.007586840   0.06719  -0.09923   0.23812  -0.02537
  36   37286.6    268.2   0.016917907   0.14937  -0.26128  -0.27955  -0.05437
  37   37567.4    266.2   0.087144392   0.76367  -0.57076   0.08545  -0.65620
  38   37896.2    263.9   0.008298735   0.07209  -0.19459  -0.03640  -0.18139
  39   38015.5    263.1   0.037874253   0.32799   0.35079  -0.12095   0.43624
  40   38195.9    261.8   0.026793736   0.23094  -0.30661  -0.34840   0.12469
  41   38554.8    259.4   0.047131228   0.40244   0.22303   0.34786   0.48135
  42   38571.9    259.3   0.010911369   0.09313   0.24373  -0.05721   0.17451
  43   39232.8    254.9   0.051281027   0.43031  -0.16644  -0.61673  -0.14916
  44   39349.9    254.1   0.051588860   0.43161   0.42859   0.32705   0.37544
  45   39619.8    252.4   0.041885547   0.34804  -0.09736   0.58161  -0.01702
  46   39955.7    250.3   0.026723943   0.22019   0.44696  -0.02492   0.14071
  47   40200.6    248.8   0.040028601   0.32780  -0.22708   0.51985   0.07740

FINAL SINGLE POINT ENERGY     -4630.079535086626

DIPOLE MOMENT
-------------
                                X             Y             Z
Electronic contribution:     13.55948      12.47101       4.00219
Nuclear contribution   :    -13.28131     -12.53342      -3.93845
                        -----------------------------------------
Total Dipole Moment    :      0.27817      -0.06242       0.06374
                        -----------------------------------------
Magnitude (a.u.)       :      0.29213
Magnitude (Debye)      :      0.74253

Rotational constants in cm-1:     0.002875     0.000173     0.000167
Rotational constants in MHz :    86.191143     5.194828     5.001290

                             ****ORCA TERMINATED NORMALLY****
TOTAL RUN TIME: 0 days 0 hours 7 minutes 47 seconds 206 msec
