                         Program Version 4.2.0 -  RELEASE  -
|  1> # ORCA input file
|  2> # SCF done       -197.262632884862          0.000271667206
|  3> ! CAM-B3LYP def2-SVP def2/J RIJCOSX Grid4 TightSCF
|  4> %maxcore 5000
|  5> %tddft
|  6>     Mode sTDDFT
|  7>     Ethresh 5.0
|  8>     maxcore 5000
|  9> end
| 10>
| 11> %pal
| 12>   nprocs 6
| 13>   end
| 14> * xyz 0 1
| 15>    C       -1.97726        -7.09208        -1.92965
| 16>    S       -1.62014        -5.63501        -1.10411
| 17>    C       -0.84927        -4.96644        -2.49101
| 18>    C       -0.88132        -5.84232        -3.55701
| 19>    C       -1.53216        -7.07833        -3.22027
| 20>    O       -1.69067        -8.09614        -4.06650
| 21>    C       -0.36778        -5.63256        -4.91344
| 22>    O       -0.32077        -6.52747        -5.72685
| 23>    O        0.03542        -4.39648        -5.25395
| 24>    C       -0.20987        -3.65774        -2.38018
| 25>    C        1.18481        -3.51579        -2.35546
| 26>    C        2.12533        -4.64497        -2.44587
| 27>    O        1.87473        -5.81234        -2.50760
| 28>    S        3.80109        -3.99957        -2.42680
| 29>    C        3.26275        -2.29086        -2.27950
| 30>    O        4.02219        -1.36630        -2.26021
| 31>    C        1.79369        -2.26314        -2.21531
| 32>    C        1.04917        -1.09032        -2.05323
| 33>    C       -0.34279        -1.23126        -2.06148
| 34>    C       -0.95475        -2.47848        -2.23843
| 35>    C       -2.42195        -2.43718        -2.30714
| 36>    O       -3.17472        -3.33326        -2.55445
| 37>    S       -2.96185        -0.74997        -2.00646
| 38>    C       -1.28674        -0.12293        -1.84604
| 39>    O       -1.04980         1.02219        -1.58536
| 40>    C        1.68562         0.22248        -1.88210
| 41>    C        1.51717         1.18832        -2.84054
| 42>    C        2.09087         2.45699        -2.64253
| 43>    C        2.01175         3.61829        -3.41233
| 44>    C        1.26088         3.76727        -4.68086
| 45>    C       -0.15051         4.34134        -4.40561
| 46>    N       -0.99956         3.28312        -3.90107
| 47>    C        1.99362         4.61773        -5.75604
| 48>    N        1.65181         4.26513        -7.11019
| 49>    C        2.74064         4.63851        -2.69300
| 50>    C        2.96537         5.93902        -2.96547
| 51>    C        3.79868         6.78637        -2.06705
| 52>    C        4.22158         6.13489        -0.79724
| 53>    C        3.97980         4.83227        -0.53503
| 54>    C        3.26459         4.04203        -1.45983
| 55>    C        2.85270         2.71083        -1.43763
| 56>    C        3.02505         1.68748        -0.48869
| 57>    C        2.45093         0.47016        -0.71144
| 58>    C        3.09176         8.10593        -1.86520
| 59>    C        3.06276         9.02905        -2.81410
| 60>    C        2.27210        10.25750        -2.77011
| 61>    C        2.49939        11.30936        -1.88074
| 62>    C        3.57630        11.30288        -0.87544
| 63>    O        4.42351        10.47621        -0.70053
| 64>    S        3.45107        12.79448         0.11099
| 65>    C        2.03009        13.41064        -0.80479
| 66>    O        1.46665        14.42156        -0.50282
| 67>    C        1.71184        12.46680        -1.88619
| 68>    C        0.67283        12.65583        -2.81323
| 69>    C        0.46893        11.60997        -3.73023
| 70>    C        1.22709        10.43860        -3.68357
| 71>    C        0.83088         9.40710        -4.65331
| 72>    O        1.27419         8.29474        -4.76065
| 73>    S       -0.47155        10.05093        -5.68355
| 74>    C       -0.47471        11.66113        -4.85808
| 75>    O       -1.11808        12.57721        -5.26955
| 76>    C       -0.18160        13.82286        -2.82651
| 77>    S        0.42228        15.45110        -2.90700
| 78>    C       -1.14432        16.09467        -2.94213
| 79>    C       -2.11271        15.12507        -2.86702
| 80>    C       -1.56010        13.80728        -2.81371
| 81>    O       -2.28730        12.69499        -2.71172
| 82>    C       -3.55567        15.32554        -2.85695
| 83>    O       -4.35035        14.40783        -2.76783
| 84>    O       -3.93788        16.59817        -2.94849
| 85>    H       -2.48314        -7.88885        -1.42531
| 86>    H       -1.22873        -7.86879        -4.90325
| 87>    H       -0.12837        -3.74933        -4.55582
| 88>    H        0.93950         0.98366        -3.72930
| 89>    H        1.10440         2.76587        -5.09910
| 90>    H       -0.58359         4.68724        -5.34911
| 91>    H       -0.05524         5.21225        -3.73698
| 92>    H       -0.70658         2.97169        -2.98040
| 93>    H       -1.96441         3.58421        -3.83770
| 94>    H        3.07267         4.48598        -5.64303
| 95>    H        1.75089         5.67385        -5.62528
| 96>    H        0.66545         4.40327        -7.29476
| 97>    H        1.89010         3.30240        -7.31802
| 98>    H        2.55170         6.43316        -3.83053
| 99>    H        4.71675         7.00802        -2.63784
|100>    H        4.75604         6.76074        -0.09950
|101>    H        4.31819         4.38384         0.38721
|102>    H        3.59777         1.87074         0.40742
|103>    H        2.55659        -0.32505         0.01101
|104>    H        2.54198         8.22187        -0.94356
|105>    H        3.58620         8.86528        -3.74860
|106>    H       -1.29949        17.15283        -3.01347
|107>    H       -3.23499        12.96198        -2.71608
|108>    H       -4.90669        16.65760        -2.93914
|109> *
|110>
|111>                          ****END OF INPUT****

CARTESIAN COORDINATES (ANGSTROEM)
---------------------------------
  C     -1.977260   -7.092080   -1.929650
  S     -1.620140   -5.635010   -1.104110
  C     -0.849270   -4.966440   -2.491010
  C     -0.881320   -5.842320   -3.557010
  C     -1.532160   -7.078330   -3.220270
  O     -1.690670   -8.096140   -4.066500
  C     -0.367780   -5.632560   -4.913440
  O     -0.320770   -6.527470   -5.726850
  O      0.035420   -4.396480   -5.253950
  C     -0.209870   -3.657740   -2.380180
  C      1.184810   -3.515790   -2.355460
  C      2.125330   -4.644970   -2.445870
  O      1.874730   -5.812340   -2.507600
  S      3.801090   -3.999570   -2.426800
  C      3.262750   -2.290860   -2.279500
  O      4.022190   -1.366300   -2.260210
  C      1.793690   -2.263140   -2.215310
  C      1.049170   -1.090320   -2.053230
  C     -0.342790   -1.231260   -2.061480
  C     -0.954750   -2.478480   -2.238430
  C     -2.421950   -2.437180   -2.307140
  O     -3.174720   -3.333260   -2.554450
  S     -2.961850   -0.749970   -2.006460
  C     -1.286740   -0.122930   -1.846040
  O     -1.049800    1.022190   -1.585360
  C      1.685620    0.222480   -1.882100
  C      1.517170    1.188320   -2.840540
  C      2.090870    2.456990   -2.642530
  C      2.011750    3.618290   -3.412330
  C      1.260880    3.767270   -4.680860
  C     -0.150510    4.341340   -4.405610
  N     -0.999560    3.283120   -3.901070
  C      1.993620    4.617730   -5.756040
  N      1.651810    4.265130   -7.110190
  C      2.740640    4.638510   -2.693000
  C      2.965370    5.939020   -2.965470
  C      3.798680    6.786370   -2.067050
  C      4.221580    6.134890   -0.797240
  C      3.979800    4.832270   -0.535030
  C      3.264590    4.042030   -1.459830
  C      2.852700    2.710830   -1.437630
  C      3.025050    1.687480   -0.488690
  C      2.450930    0.470160   -0.711440
  C      3.091760    8.105930   -1.865200
  C      3.062760    9.029050   -2.814100
  C      2.272100   10.257500   -2.770110
  C      2.499390   11.309360   -1.880740
  C      3.576300   11.302880   -0.875440
  O      4.423510   10.476210   -0.700530
  S      3.451070   12.794480    0.110990
  C      2.030090   13.410640   -0.804790
  O      1.466650   14.421560   -0.502820
  C      1.711840   12.466800   -1.886190
  C      0.672830   12.655830   -2.813230
  C      0.468930   11.609970   -3.730230
  C      1.227090   10.438600   -3.683570
  C      0.830880    9.407100   -4.653310
  O      1.274190    8.294740   -4.760650
  S     -0.471550   10.050930   -5.683550
  C     -0.474710   11.661130   -4.858080
  O     -1.118080   12.577210   -5.269550
  C     -0.181600   13.822860   -2.826510
  S      0.422280   15.451100   -2.907000
  C     -1.144320   16.094670   -2.942130
  C     -2.112710   15.125070   -2.867020
  C     -1.560100   13.807280   -2.813710
  O     -2.287300   12.694990   -2.711720
  C     -3.555670   15.325540   -2.856950
  O     -4.350350   14.407830   -2.767830
  O     -3.937880   16.598170   -2.948490
  H     -2.483140   -7.888850   -1.425310
  H     -1.228730   -7.868790   -4.903250
  H     -0.128370   -3.749330   -4.555820
  H      0.939500    0.983660   -3.729300
  H      1.104400    2.765870   -5.099100
  H     -0.583590    4.687240   -5.349110
  H     -0.055240    5.212250   -3.736980
  H     -0.706580    2.971690   -2.980400
  H     -1.964410    3.584210   -3.837700
  H      3.072670    4.485980   -5.643030
  H      1.750890    5.673850   -5.625280
  H      0.665450    4.403270   -7.294760
  H      1.890100    3.302400   -7.318020
  H      2.551700    6.433160   -3.830530
  H      4.716750    7.008020   -2.637840
  H      4.756040    6.760740   -0.099500
  H      4.318190    4.383840    0.387210
  H      3.597770    1.870740    0.407420
  H      2.556590   -0.325050    0.011010
  H      2.541980    8.221870   -0.943560
  H      3.586200    8.865280   -3.748600
  H     -1.299490   17.152830   -3.013470
  H     -3.234990   12.961980   -2.716080
  H     -4.906690   16.657600   -2.939140

 Total Charge           Charge          ....    0
 Multiplicity           Mult            ....    1
 Number of Electrons    NEL             ....  534
 Basis Dimension        Dim             .... 1124

ORBITAL ENERGIES
----------------

  NO   OCC          E(Eh)            E(eV)
   0   2.0000     -88.978085     -2421.2168
   1   2.0000     -88.968222     -2420.9484
   2   2.0000     -88.961414     -2420.7631
   3   2.0000     -88.958792     -2420.6918
   4   2.0000     -88.958689     -2420.6890
   5   2.0000     -88.957813     -2420.6652
   6   2.0000     -19.284228      -524.7505
   7   2.0000     -19.269098      -524.3388
   8   2.0000     -19.254095      -523.9306
   9   2.0000     -19.253890      -523.9250
  10   2.0000     -19.253673      -523.9191
  11   2.0000     -19.251992      -523.8733
  12   2.0000     -19.251960      -523.8725
  13   2.0000     -19.250544      -523.8339
  14   2.0000     -19.249856      -523.8152
  15   2.0000     -19.249718      -523.8115
  16   2.0000     -19.248351      -523.7743
  17   2.0000     -19.230557      -523.2901
  18   2.0000     -19.225598      -523.1551
  19   2.0000     -19.212932      -522.8105
  20   2.0000     -14.369074      -391.0024
  21   2.0000     -14.368088      -390.9756
  22   2.0000     -10.429630      -283.8047
  23   2.0000     -10.416530      -283.4482
  24   2.0000     -10.416117      -283.4370
  25   2.0000     -10.415838      -283.4294
  26   2.0000     -10.415404      -283.4175
  27   2.0000     -10.415012      -283.4069
  28   2.0000     -10.413553      -283.3672
  29   2.0000     -10.412653      -283.3427
  30   2.0000     -10.412501      -283.3386
  31   2.0000     -10.412305      -283.3332
  32   2.0000     -10.356441      -281.8131
  33   2.0000     -10.354578      -281.7624
  34   2.0000     -10.346744      -281.5492
  35   2.0000     -10.345509      -281.5156
  36   2.0000     -10.345430      -281.5135
  37   2.0000     -10.344082      -281.4768
  38   2.0000     -10.340564      -281.3811
  39   2.0000     -10.339669      -281.3567
  40   2.0000     -10.339664      -281.3566
  41   2.0000     -10.336026      -281.2576
  42   2.0000     -10.335661      -281.2476
  43   2.0000     -10.335413      -281.2409
  44   2.0000     -10.335223      -281.2357
  45   2.0000     -10.333985      -281.2020
  46   2.0000     -10.327929      -281.0372
  47   2.0000     -10.326181      -280.9897
  48   2.0000     -10.305475      -280.4262
  49   2.0000     -10.298884      -280.2469
  50   2.0000     -10.297623      -280.2126
  51   2.0000     -10.294142      -280.1179
  52   2.0000     -10.292196      -280.0649
  53   2.0000     -10.291844      -280.0553
  54   2.0000     -10.289537      -279.9925
  55   2.0000     -10.284750      -279.8623
  56   2.0000     -10.281555      -279.7753
  57   2.0000     -10.276397      -279.6350
  58   2.0000     -10.273555      -279.5577
  59   2.0000     -10.272876      -279.5392
  60   2.0000     -10.270055      -279.4624
  61   2.0000     -10.269800      -279.4555
  62   2.0000     -10.269709      -279.4530
  63   2.0000     -10.267270      -279.3866
  64   2.0000     -10.265906      -279.3495
  65   2.0000     -10.260288      -279.1966
  66   2.0000     -10.258871      -279.1581
  67   2.0000     -10.258297      -279.1425
  68   2.0000     -10.257953      -279.1331
  69   2.0000     -10.253654      -279.0161
  70   2.0000      -8.073465      -219.6902
  71   2.0000      -8.063688      -219.4241
  72   2.0000      -8.060577      -219.3394
  73   2.0000      -8.057966      -219.2684
  74   2.0000      -8.057953      -219.2680
  75   2.0000      -8.057099      -219.2448
  76   2.0000      -6.042673      -164.4295
  77   2.0000      -6.038359      -164.3121
  78   2.0000      -6.035843      -164.2437
  79   2.0000      -6.032975      -164.1656
  80   2.0000      -6.029435      -164.0693
  81   2.0000      -6.028639      -164.0476
  82   2.0000      -6.026842      -163.9987
  83   2.0000      -6.026835      -163.9985
  84   2.0000      -6.026170      -163.9804
  85   2.0000      -6.026027      -163.9765
  86   2.0000      -6.025943      -163.9743
  87   2.0000      -6.023547      -163.9090
  88   2.0000      -6.023545      -163.9090
  89   2.0000      -6.022684      -163.8856
  90   2.0000      -6.021633      -163.8570
  91   2.0000      -6.019002      -163.7854
  92   2.0000      -6.018974      -163.7846
  93   2.0000      -6.018167      -163.7626
  94   2.0000      -1.213450       -33.0197
  95   2.0000      -1.193634       -32.4804
  96   2.0000      -1.176998       -32.0277
  97   2.0000      -1.175845       -31.9964
  98   2.0000      -1.175185       -31.9784
  99   2.0000      -1.174745       -31.9664
 100   2.0000      -1.171838       -31.8873
 101   2.0000      -1.171696       -31.8835
 102   2.0000      -1.170011       -31.8376
 103   2.0000      -1.169710       -31.8294
 104   2.0000      -1.156919       -31.4814
 105   2.0000      -1.133383       -30.8409
 106   2.0000      -1.115142       -30.3446
 107   2.0000      -1.104592       -30.0575
 108   2.0000      -1.036822       -28.2134
 109   2.0000      -1.029553       -28.0156
 110   2.0000      -0.998546       -27.1718
 111   2.0000      -0.991195       -26.9718
 112   2.0000      -0.981046       -26.6956
 113   2.0000      -0.979040       -26.6410
 114   2.0000      -0.974963       -26.5301
 115   2.0000      -0.959162       -26.1001
 116   2.0000      -0.953087       -25.9348
 117   2.0000      -0.943294       -25.6683
 118   2.0000      -0.939045       -25.5527
 119   2.0000      -0.925940       -25.1961
 120   2.0000      -0.925348       -25.1800
 121   2.0000      -0.922680       -25.1074
 122   2.0000      -0.895463       -24.3668
 123   2.0000      -0.874679       -23.8012
 124   2.0000      -0.865293       -23.5458
 125   2.0000      -0.862875       -23.4800
 126   2.0000      -0.859305       -23.3829
 127   2.0000      -0.854068       -23.2404
 128   2.0000      -0.849665       -23.1205
 129   2.0000      -0.835270       -22.7289
 130   2.0000      -0.830730       -22.6053
 131   2.0000      -0.824106       -22.4251
 132   2.0000      -0.819369       -22.2962
 133   2.0000      -0.811669       -22.0866
 134   2.0000      -0.807055       -21.9611
 135   2.0000      -0.799358       -21.7516
 136   2.0000      -0.771472       -20.9928
 137   2.0000      -0.764209       -20.7952
 138   2.0000      -0.753012       -20.4905
 139   2.0000      -0.750855       -20.4318
 140   2.0000      -0.743255       -20.2250
 141   2.0000      -0.736122       -20.0309
 142   2.0000      -0.726283       -19.7632
 143   2.0000      -0.720411       -19.6034
 144   2.0000      -0.714680       -19.4474
 145   2.0000      -0.713508       -19.4155
 146   2.0000      -0.705286       -19.1918
 147   2.0000      -0.700161       -19.0523
 148   2.0000      -0.684574       -18.6282
 149   2.0000      -0.679690       -18.4953
 150   2.0000      -0.674191       -18.3457
 151   2.0000      -0.668113       -18.1803
 152   2.0000      -0.664992       -18.0953
 153   2.0000      -0.661049       -17.9881
 154   2.0000      -0.656072       -17.8526
 155   2.0000      -0.649788       -17.6816
 156   2.0000      -0.648517       -17.6470
 157   2.0000      -0.642291       -17.4776
 158   2.0000      -0.638026       -17.3616
 159   2.0000      -0.636077       -17.3085
 160   2.0000      -0.629349       -17.1254
 161   2.0000      -0.627283       -17.0692
 162   2.0000      -0.622977       -16.9521
 163   2.0000      -0.617593       -16.8056
 164   2.0000      -0.615528       -16.7494
 165   2.0000      -0.612779       -16.6746
 166   2.0000      -0.594767       -16.1844
 167   2.0000      -0.585427       -15.9303
 168   2.0000      -0.584637       -15.9088
 169   2.0000      -0.581020       -15.8104
 170   2.0000      -0.578748       -15.7485
 171   2.0000      -0.574949       -15.6452
 172   2.0000      -0.573510       -15.6060
 173   2.0000      -0.572528       -15.5793
 174   2.0000      -0.568065       -15.4578
 175   2.0000      -0.567190       -15.4340
 176   2.0000      -0.564421       -15.3587
 177   2.0000      -0.563524       -15.3343
 178   2.0000      -0.561749       -15.2860
 179   2.0000      -0.556980       -15.1562
 180   2.0000      -0.556006       -15.1297
 181   2.0000      -0.555211       -15.1081
 182   2.0000      -0.552777       -15.0418
 183   2.0000      -0.550000       -14.9663
 184   2.0000      -0.548894       -14.9362
 185   2.0000      -0.546089       -14.8598
 186   2.0000      -0.545259       -14.8373
 187   2.0000      -0.544544       -14.8178
 188   2.0000      -0.543295       -14.7838
 189   2.0000      -0.542908       -14.7733
 190   2.0000      -0.540535       -14.7087
 191   2.0000      -0.539486       -14.6802
 192   2.0000      -0.537274       -14.6200
 193   2.0000      -0.536811       -14.6074
 194   2.0000      -0.535602       -14.5745
 195   2.0000      -0.526894       -14.3375
 196   2.0000      -0.523979       -14.2582
 197   2.0000      -0.520508       -14.1637
 198   2.0000      -0.519370       -14.1328
 199   2.0000      -0.517655       -14.0861
 200   2.0000      -0.516521       -14.0553
 201   2.0000      -0.512538       -13.9469
 202   2.0000      -0.510412       -13.8890
 203   2.0000      -0.505421       -13.7532
 204   2.0000      -0.502245       -13.6668
 205   2.0000      -0.501820       -13.6552
 206   2.0000      -0.499338       -13.5877
 207   2.0000      -0.496848       -13.5199
 208   2.0000      -0.496013       -13.4972
 209   2.0000      -0.490966       -13.3599
 210   2.0000      -0.487954       -13.2779
 211   2.0000      -0.485809       -13.2195
 212   2.0000      -0.481891       -13.1129
 213   2.0000      -0.480424       -13.0730
 214   2.0000      -0.478856       -13.0303
 215   2.0000      -0.477394       -12.9906
 216   2.0000      -0.474709       -12.9175
 217   2.0000      -0.472788       -12.8652
 218   2.0000      -0.468747       -12.7552
 219   2.0000      -0.467890       -12.7319
 220   2.0000      -0.462154       -12.5759
 221   2.0000      -0.459057       -12.4916
 222   2.0000      -0.453751       -12.3472
 223   2.0000      -0.445561       -12.1243
 224   2.0000      -0.442774       -12.0485
 225   2.0000      -0.441873       -12.0240
 226   2.0000      -0.440948       -11.9988
 227   2.0000      -0.439618       -11.9626
 228   2.0000      -0.431959       -11.7542
 229   2.0000      -0.430868       -11.7245
 230   2.0000      -0.424740       -11.5578
 231   2.0000      -0.419938       -11.4271
 232   2.0000      -0.419670       -11.4198
 233   2.0000      -0.410807       -11.1786
 234   2.0000      -0.407088       -11.0774
 235   2.0000      -0.404834       -11.0161
 236   2.0000      -0.391285       -10.6474
 237   2.0000      -0.390243       -10.6191
 238   2.0000      -0.387264       -10.5380
 239   2.0000      -0.385670       -10.4946
 240   2.0000      -0.383278       -10.4295
 241   2.0000      -0.383060       -10.4236
 242   2.0000      -0.381645       -10.3851
 243   2.0000      -0.381317       -10.3762
 244   2.0000      -0.373687       -10.1685
 245   2.0000      -0.371531       -10.1099
 246   2.0000      -0.370964       -10.0945
 247   2.0000      -0.368011       -10.0141
 248   2.0000      -0.364503        -9.9186
 249   2.0000      -0.363432        -9.8895
 250   2.0000      -0.360865        -9.8196
 251   2.0000      -0.360410        -9.8072
 252   2.0000      -0.359700        -9.7879
 253   2.0000      -0.358213        -9.7475
 254   2.0000      -0.353685        -9.6243
 255   2.0000      -0.352513        -9.5924
 256   2.0000      -0.350197        -9.5293
 257   2.0000      -0.328650        -8.9430
 258   2.0000      -0.320825        -8.7301
 259   2.0000      -0.319206        -8.6860
 260   2.0000      -0.317432        -8.6378
 261   2.0000      -0.301076        -8.1927
 262   2.0000      -0.295823        -8.0497
 263   2.0000      -0.292276        -7.9532
 264   2.0000      -0.287121        -7.8130
 265   2.0000      -0.278164        -7.5692
 266   2.0000      -0.217735        -5.9249
 267   0.0000      -0.111745        -3.0407
 268   0.0000      -0.107143        -2.9155
 269   0.0000      -0.077591        -2.1113
 270   0.0000      -0.067511        -1.8371
 271   0.0000      -0.062886        -1.7112

MULLIKEN ATOMIC CHARGES
-----------------------
   0 C :   -0.156370
   1 S :    0.180392
   2 C :   -0.202631
   3 C :    0.050389
   4 C :    0.156157
   5 O :   -0.176262
   6 C :    0.172685
   7 O :   -0.220337
   8 O :   -0.149419
   9 C :   -0.176374
  10 C :    0.062001
  11 C :    0.039884
  12 O :   -0.103216
  13 S :    0.031215
  14 C :    0.025923
  15 O :   -0.097234
  16 C :    0.069780
  17 C :   -0.009753
  18 C :    0.057980
  19 C :    0.071935
  20 C :    0.030840
  21 O :   -0.104072
  22 S :    0.029371
  23 C :    0.045104
  24 O :   -0.112616
  25 C :   -0.012169
  26 C :   -0.024362
  27 C :    0.031250
  28 C :   -0.044209
  29 C :   -0.047815
  30 C :    0.167338
  31 N :   -0.247554
  32 C :    0.101924
  33 N :   -0.205042
  34 C :    0.083355
  35 C :   -0.111414
  36 C :    0.124808
  37 C :   -0.062823
  38 C :    0.019972
  39 C :    0.011890
  40 C :    0.051458
  41 C :   -0.015169
  42 C :    0.046864
  43 C :   -0.005217
  44 C :   -0.016626
  45 C :   -0.016784
  46 C :    0.035801
  47 C :    0.030566
  48 O :   -0.113001
  49 S :    0.017948
  50 C :    0.028913
  51 O :   -0.119201
  52 C :    0.043814
  53 C :    0.090642
  54 C :    0.038757
  55 C :    0.034855
  56 C :    0.048984
  57 O :   -0.128816
  58 S :    0.025352
  59 C :    0.039907
  60 O :   -0.109252
  61 C :   -0.321696
  62 S :    0.210370
  63 C :   -0.065028
  64 C :   -0.058120
  65 C :    0.225114
  66 O :   -0.177478
  67 C :    0.171788
  68 O :   -0.251414
  69 O :   -0.156245
  70 H :    0.020581
  71 H :    0.196232
  72 H :    0.182218
  73 H :   -0.032705
  74 H :   -0.034022
  75 H :   -0.025729
  76 H :   -0.018546
  77 H :    0.109724
  78 H :    0.089713
  79 H :    0.002413
  80 H :    0.018528
  81 H :    0.086640
  82 H :    0.089274
  83 H :    0.003434
  84 H :    0.059710
  85 H :   -0.005943
  86 H :   -0.037221
  87 H :   -0.037933
  88 H :   -0.034991
  89 H :    0.009941
  90 H :    0.025419
  91 H :    0.043839
  92 H :    0.201998
  93 H :    0.199821
Sum of atomic charges:   -0.0000000

LOEWDIN ATOMIC CHARGES
----------------------
   0 C :   -0.230689
   1 S :    0.484583
   2 C :   -0.170399
   3 C :   -0.138120
   4 C :    0.037389
   5 O :   -0.046390
   6 C :    0.101618
   7 O :   -0.161761
   8 O :   -0.020311
   9 C :   -0.028587
  10 C :   -0.047522
  11 C :   -0.048910
  12 O :   -0.095199
  13 S :    0.314762
  14 C :   -0.046210
  15 O :   -0.088610
  16 C :   -0.049159
  17 C :    0.055463
  18 C :   -0.050555
  19 C :   -0.052525
  20 C :   -0.052790
  21 O :   -0.099279
  22 S :    0.313082
  23 C :   -0.038212
  24 O :   -0.098469
  25 C :   -0.044821
  26 C :    0.010115
  27 C :   -0.025467
  28 C :   -0.029235
  29 C :   -0.054197
  30 C :    0.030087
  31 N :   -0.124061
  32 C :    0.018493
  33 N :   -0.104019
  34 C :   -0.022565
  35 C :    0.082207
  36 C :   -0.031553
  37 C :   -0.042581
  38 C :   -0.013165
  39 C :   -0.038496
  40 C :   -0.029100
  41 C :   -0.003826
  42 C :   -0.025565
  43 C :    0.025553
  44 C :   -0.032568
  45 C :    0.032344
  46 C :   -0.052152
  47 C :   -0.046884
  48 O :   -0.107731
  49 S :    0.305040
  50 C :   -0.048684
  51 O :   -0.113968
  52 C :   -0.054913
  53 C :    0.022872
  54 C :   -0.043419
  55 C :   -0.050164
  56 C :   -0.041171
  57 O :   -0.120882
  58 S :    0.311250
  59 C :   -0.035030
  60 O :   -0.094811
  61 C :   -0.253021
  62 S :    0.512276
  63 C :   -0.129663
  64 C :   -0.155342
  65 C :    0.058578
  66 O :   -0.040646
  67 C :    0.099738
  68 O :   -0.195059
  69 O :   -0.021876
  70 H :    0.028863
  71 H :    0.076712
  72 H :    0.080207
  73 H :    0.023422
  74 H :    0.020784
  75 H :    0.006745
  76 H :   -0.000472
  77 H :    0.049712
  78 H :    0.053881
  79 H :    0.017144
  80 H :    0.018613
  81 H :    0.048220
  82 H :    0.050984
  83 H :    0.031073
  84 H :    0.072132
  85 H :    0.026803
  86 H :    0.029424
  87 H :    0.027688
  88 H :    0.021708
  89 H :    0.028964
  90 H :    0.036216
  91 H :    0.035858
  92 H :    0.081892
  93 H :    0.108303

  Mayer bond orders larger than 0.100000
B(  0-C ,  1-S ) :   1.1182 B(  0-C ,  2-C ) :   0.1143 B(  0-C ,  4-C ) :   1.5445
B(  0-C , 70-H ) :   0.9674 B(  1-S ,  2-C ) :   1.2217 B(  2-C ,  3-C ) :   1.4736
B(  2-C ,  9-C ) :   1.0141 B(  3-C ,  4-C ) :   1.1586 B(  3-C ,  6-C ) :   0.9409
B(  4-C ,  5-O ) :   1.3171 B(  5-O , 71-H ) :   0.9011 B(  6-C ,  7-O ) :   2.0329
B(  6-C ,  8-O ) :   1.2636 B(  7-O , 71-H ) :   0.1173 B(  8-O , 72-H ) :   0.9590
B(  9-C , 10-C ) :   1.3904 B(  9-C , 19-C ) :   1.3962 B( 10-C , 11-C ) :   0.8301
B( 10-C , 16-C ) :   1.3108 B( 11-C , 12-O ) :   2.1975 B( 11-C , 13-S ) :   1.0323
B( 12-O , 13-S ) :   0.1127 B( 13-S , 14-C ) :   1.0235 B( 13-S , 15-O ) :   0.1097
B( 14-C , 15-O ) :   2.2019 B( 14-C , 16-C ) :   0.8333 B( 16-C , 17-C ) :   1.3937
B( 17-C , 18-C ) :   1.4133 B( 17-C , 25-C ) :   0.9875 B( 18-C , 19-C ) :   1.3003
B( 18-C , 23-C ) :   0.8354 B( 19-C , 20-C ) :   0.8345 B( 20-C , 21-O ) :   2.1961
B( 20-C , 22-S ) :   1.0290 B( 21-O , 22-S ) :   0.1117 B( 22-S , 23-C ) :   1.0275
B( 22-S , 24-O ) :   0.1088 B( 23-C , 24-O ) :   2.1587 B( 25-C , 26-C ) :   1.5442
B( 25-C , 42-C ) :   1.1489 B( 26-C , 27-C ) :   1.1558 B( 26-C , 73-H ) :   0.9872
B( 27-C , 28-C ) :   1.4812 B( 27-C , 40-C ) :   1.1311 B( 28-C , 29-C ) :   1.0283
B( 28-C , 34-C ) :   1.0938 B( 29-C , 30-C ) :   1.0159 B( 29-C , 32-C ) :   0.9993
B( 29-C , 74-H ) :   0.8794 B( 30-C , 31-N ) :   1.1037 B( 30-C , 75-H ) :   0.9335
B( 30-C , 76-H ) :   0.9289 B( 31-N , 77-H ) :   0.9508 B( 31-N , 78-H ) :   0.9678
B( 32-C , 33-N ) :   1.1165 B( 32-C , 79-H ) :   0.9567 B( 32-C , 80-H ) :   0.9313
B( 33-N , 81-H ) :   0.9802 B( 33-N , 82-H ) :   0.9783 B( 34-C , 35-C ) :   1.6404
B( 34-C , 39-C ) :   1.0560 B( 35-C , 36-C ) :   0.9791 B( 35-C , 83-H ) :   0.9653
B( 36-C , 37-C ) :   0.9809 B( 36-C , 43-C ) :   0.9708 B( 36-C , 84-H ) :   0.8492
B( 37-C , 38-C ) :   1.6981 B( 37-C , 85-H ) :   0.9830 B( 38-C , 39-C ) :   1.1414
B( 38-C , 86-H ) :   0.9905 B( 39-C , 40-C ) :   1.4056 B( 40-C , 41-C ) :   1.1599
B( 41-C , 42-C ) :   1.5907 B( 41-C , 87-H ) :   0.9916 B( 42-C , 88-H ) :   0.9804
B( 43-C , 44-C ) :   1.8903 B( 43-C , 89-H ) :   0.9797 B( 44-C , 45-C ) :   1.0338
B( 44-C , 90-H ) :   0.9282 B( 45-C , 46-C ) :   1.4114 B( 45-C , 55-C ) :   1.3851
B( 46-C , 47-C ) :   0.8371 B( 46-C , 52-C ) :   1.2975 B( 47-C , 48-O ) :   2.1990
B( 47-C , 49-S ) :   1.0280 B( 48-O , 49-S ) :   0.1096 B( 49-S , 50-C ) :   1.0245
B( 49-S , 51-O ) :   0.1072 B( 50-C , 51-O ) :   2.1782 B( 50-C , 52-C ) :   0.8430
B( 52-C , 53-C ) :   1.3968 B( 53-C , 54-C ) :   1.4029 B( 53-C , 61-C ) :   0.9837
B( 54-C , 55-C ) :   1.3137 B( 54-C , 59-C ) :   0.8406 B( 55-C , 56-C ) :   0.8526
B( 56-C , 57-O ) :   2.1134 B( 56-C , 58-S ) :   1.0542 B( 57-O , 58-S ) :   0.1092
B( 58-S , 59-C ) :   1.0075 B( 58-S , 60-O ) :   0.1046 B( 59-C , 60-O ) :   2.2033
B( 61-C , 62-S ) :   1.1057 B( 61-C , 65-C ) :   1.5190 B( 62-S , 63-C ) :   1.2705
B( 63-C , 64-C ) :   1.4603 B( 63-C , 91-H ) :   0.9703 B( 64-C , 65-C ) :   1.1685
B( 64-C , 67-C ) :   0.9673 B( 65-C , 66-O ) :   1.3438 B( 66-O , 92-H ) :   0.8933
B( 67-C , 68-O ) :   1.9904 B( 67-C , 69-O ) :   1.3368 B( 68-O , 92-H ) :   0.1202
B( 69-O , 93-H ) :   0.9378

-----------------------------------------------------------------------------
         ABSORPTION SPECTRUM VIA TRANSITION ELECTRIC DIPOLE MOMENTS
-----------------------------------------------------------------------------
State   Energy  Wavelength   fosc         T2         TX        TY        TZ
        (cm-1)    (nm)                  (au**2)     (au)      (au)      (au)
-----------------------------------------------------------------------------
   0    6621.0   1510.4   0.000914264   0.04546   0.20548   0.05064  -0.02595
   1   11092.7    901.5   0.000007929   0.00024  -0.01099  -0.01026  -0.00304
   2   13230.2    755.8   0.032433702   0.80706   0.34504  -0.29304   0.77597
   3   16185.4    617.8   0.114223572   2.32331   0.68812   1.26180   0.50762
   4   17004.9    588.1   0.002816294   0.05452  -0.18693   0.13789   0.02376
   5   18725.9    534.0   0.018284782   0.32146  -0.29620  -0.17371  -0.45116
   6   19836.0    504.1   0.031719850   0.52645   0.05921  -0.72276  -0.02346
   7   21107.0    473.8   0.003994614   0.06231  -0.24899  -0.01671  -0.00550
   8   22146.6    451.5   0.010742756   0.15969   0.09832   0.38233   0.06206
   9   22768.7    439.2   0.000550907   0.00797  -0.08270   0.03239  -0.00882
  10   23059.5    433.7   0.008685634   0.12400  -0.17921  -0.10893  -0.28288
  11   23692.2    422.1   0.075104285   1.04360  -0.47711  -0.89918   0.08625
  12   24328.8    411.0   0.009707590   0.13136  -0.12646   0.33888  -0.02301
  13   25729.8    388.7   0.001305433   0.01670  -0.08386  -0.06240  -0.07600
  14   25749.6    388.4   0.000175786   0.00225  -0.01566   0.02839  -0.03458
  15   26065.6    383.6   0.020549440   0.25954  -0.39139   0.13913  -0.29496
  16   26286.5    380.4   0.001411829   0.01768   0.11302   0.06899   0.01212
  17   27051.0    369.7   0.232134498   2.82509  -1.01497   1.33929  -0.03515
  18   27389.6    365.1   0.065321601   0.78514   0.14485   0.75693  -0.43729
  19   27700.0    361.0   0.009732147   0.11567   0.05266   0.28636  -0.17576
  20   28020.2    356.9   0.003123601   0.03670   0.02576   0.17488  -0.07384
  21   29006.3    344.8   0.004442185   0.05042   0.22336  -0.01599  -0.01653
  22   29370.6    340.5   0.087791470   0.98405   0.32069   0.92410  -0.16505
  23   29494.1    339.1   0.054973246   0.61361  -0.22001  -0.67859   0.32361
  24   29697.9    336.7   0.005620162   0.06230  -0.18501  -0.15784   0.05620
  25   29924.7    334.2   0.011430471   0.12575  -0.09287  -0.23674  -0.24714
  26   30338.2    329.6   0.002349233   0.02549  -0.08337   0.13544   0.01406
  27   30882.1    323.8   0.024910657   0.26555   0.15678   0.49003   0.02908
  28   31049.6    322.1   0.096325267   1.02131  -0.14100   1.00060  -0.01544
  29   31172.5    320.8   0.009143348   0.09656   0.25079  -0.16259   0.08506
  30   31240.9    320.1   0.000004556   0.00005   0.00113   0.00407   0.00549
  31   31717.8    315.3   0.026016720   0.27004  -0.22110  -0.09187  -0.46121
  32   32017.2    312.3   0.024665738   0.25362   0.33004   0.35557   0.13515
  33   32196.9    310.6   0.030869264   0.31564  -0.34473   0.44260  -0.03008
  34   32370.6    308.9   0.032928156   0.33488   0.30015   0.25699   0.42279
  35   32476.2    307.9   0.000482388   0.00489  -0.06930   0.00004  -0.00934
  36   32839.8    304.5   0.009155127   0.09178  -0.11340  -0.23629  -0.15195
  37   32933.0    303.6   0.020200992   0.20194  -0.19296  -0.33726  -0.22574
  38   33149.0    301.7   0.005862073   0.05822  -0.03883   0.02372  -0.23695
  39   33217.4    301.0   0.001605847   0.01592  -0.04667   0.07027  -0.09381
  40   33879.8    295.2   0.002399816   0.02332   0.02967  -0.09364  -0.11692
  41   34250.2    292.0   0.013095265   0.12587   0.14884   0.26755   0.17927
  42   34404.6    290.7   0.003783764   0.03621   0.11578  -0.01285   0.15046
  43   34671.1    288.4   0.041885393   0.39771   0.20804  -0.58708   0.09882
  44   34732.3    287.9   0.140060191   1.32757  -0.07478   1.13918  -0.15573
  45   34849.6    286.9   0.047629242   0.44994   0.59509  -0.29011  -0.10791
  46   35078.1    285.1   0.005588351   0.05245   0.18841   0.01969   0.12869
  47   35228.5    283.9   0.003656824   0.03417  -0.06638   0.17243  -0.00598
  48   35398.2    282.5   0.010619043   0.09876   0.01594   0.30685  -0.06594
  49   35598.5    280.9   0.103489268   0.95706  -0.14463  -0.96750  -0.00885
  50   35650.0    280.5   0.082999599   0.76646   0.39100   0.66775  -0.40950
  51   35940.5    278.2   0.075602195   0.69251  -0.43859  -0.59787   0.37776
  52   35965.0    278.0   0.004196709   0.03842  -0.09216   0.01932  -0.17190
  53   36124.4    276.8   0.005112965   0.04660   0.15706  -0.00672   0.14793
  54   36266.3    275.7   0.001440690   0.01308  -0.01059  -0.10637   0.04063
  55   36694.9    272.5   0.020084125   0.18019  -0.28197  -0.30592   0.08421
  56   36866.3    271.3   0.081086658   0.72410   0.38112   0.75253   0.11201
  57   37295.9    268.1   0.000406731   0.00359  -0.02331   0.05445  -0.00909
  58   37371.7    267.6   0.000871524   0.00768   0.01666   0.08225  -0.02520
  59   37605.7    265.9   0.005522947   0.04835   0.07568   0.20182  -0.04350
  60   37997.9    263.2   0.097554536   0.84521  -0.07095  -0.91470   0.05909
  61   38147.8    262.1   0.160406416   1.38429   0.21064   1.15710  -0.03221
  62   38424.9    260.2   0.008217735   0.07041   0.18826   0.09286   0.16230
  63   38485.6    259.8   0.007699344   0.06586  -0.00949  -0.24733   0.06783
  64   38990.4    256.5   0.040240225   0.33976   0.19204   0.54904  -0.03796
  65   39160.6    255.4   0.000233457   0.00196   0.00981   0.04288  -0.00522
  66   39312.7    254.4   0.147801887   1.23772  -0.46665   1.00935  -0.03423
  67   39612.6    252.4   0.004411416   0.03666  -0.06889  -0.17023   0.05421
  68   39705.9    251.9   0.470528509   3.90128  -0.62550  -1.87311  -0.03830
  69   39846.9    251.0   0.000137701   0.00114  -0.00429   0.03345  -0.00066
  70   40076.9    249.5   0.000155308   0.00128   0.00328   0.03555  -0.00113
  71   40257.0    248.4   0.003941018   0.03223   0.08139   0.14684   0.06358
  72   40270.6    248.3   0.010241049   0.08372   0.26784  -0.09823  -0.04829

FINAL SINGLE POINT ENERGY     -5391.026286612817

DIPOLE MOMENT
-------------
                                X             Y             Z
Electronic contribution:     -6.67014       1.58477      15.27541
Nuclear contribution   :      6.02798       2.78625     -13.93339
                        -----------------------------------------
Total Dipole Moment    :     -0.64217       4.37102       1.34203
                        -----------------------------------------
Magnitude (a.u.)       :      4.61728
Magnitude (Debye)      :     11.73618

Rotational constants in cm-1:     0.002148     0.000279     0.000263
Rotational constants in MHz :    64.405402     8.349318     7.887634

                             ****ORCA TERMINATED NORMALLY****
TOTAL RUN TIME: 0 days 0 hours 8 minutes 52 seconds 276 msec
