                         Program Version 4.2.0 -  RELEASE  -
|  1> # ORCA input file
|  2> # SCF done       -188.479093031535          0.002172824546
|  3> ! CAM-B3LYP def2-SVP def2/J RIJCOSX Grid4 TightSCF
|  4> %maxcore 5000
|  5> %tddft
|  6>     Mode sTDDFT
|  7>     Ethresh 5.0
|  8>     maxcore 5000
|  9> end
| 10>
| 11> %pal
| 12>   nprocs 6
| 13>   end
| 14> * xyz 0 1
| 15>    C       -5.02619         9.74841         9.20044
| 16>    C       -4.72208         8.61494         8.47329
| 17>    C       -4.10940         7.51509         9.07111
| 18>    C       -3.77462         7.58694        10.43761
| 19>    C       -4.08474         8.73700        11.15918
| 20>    C       -4.71093         9.80630        10.54957
| 21>    N       -3.12431         6.52122        11.08462
| 22>    C       -2.06252         5.85536        10.47310
| 23>    C       -1.19135         6.53869         9.62134
| 24>    C       -0.18590         5.86042         8.96126
| 25>    C       -0.02025         4.49599         9.14091
| 26>    C       -0.86810         3.81376        10.00046
| 27>    C       -1.87852         4.48245        10.66305
| 28>    C       -3.53677         6.15850        12.37460
| 29>    C       -4.88799         6.19872        12.71580
| 30>    C       -5.29456         5.84005        13.98637
| 31>    C       -4.36747         5.42875        14.93061
| 32>    C       -3.02387         5.38898        14.59641
| 33>    C       -2.60604         5.75564        13.33155
| 34>    C       -3.79267         6.31493         8.31661
| 35>    C       -3.37379         6.29338         7.04667
| 36>    N       -2.90546         5.13610         6.46777
| 37>    C       -2.36533         5.01496         5.23518
| 38>    S       -2.75597         6.12901         3.96797
| 39>    C       -1.74801         5.21903         2.88038
| 40>    N       -1.62269         5.68054         1.57364
| 41>    O       -0.91186         5.04664         0.81120
| 42>    O       -2.23735         6.69630         1.28557
| 43>    C       -1.15126         4.13637         3.47130
| 44>    C       -1.47985         4.00227         4.83092
| 45>    C       -0.90444         3.06544         5.75833
| 46>    C        0.02835         2.13718         5.47631
| 47>    C        0.65004         1.37080         6.51663
| 48>    C        1.64253         0.47677         6.39356
| 49>    C        2.23761         0.00910         5.10538
| 50>    C        2.27176        -0.12392         7.63534
| 51>    N        2.31705         0.81631         8.72907
| 52>    C        1.57962         0.78321         9.85556
| 53>    C        0.85329        -0.26568        10.33499
| 54>    C        0.15348        -0.20495        11.55080
| 55>    C       -0.47422        -1.27461        12.13757
| 56>    C       -1.17893        -1.29289        13.36289
| 57>    C       -1.63075        -2.52489        13.73188
| 58>    C       -1.30614        -3.55179        12.81813
| 59>    S       -0.43578        -2.90050        11.45613
| 60>    C       -1.57400        -4.90676        12.93565
| 61>    C       -2.23705        -5.57007        13.98567
| 62>    C       -2.30935        -6.92586        13.82955
| 63>    C       -1.70564        -7.40110        12.64547
| 64>    S       -1.05151        -6.06587        11.73067
| 65>    C       -1.57333        -8.70056        12.17811
| 66>    C       -2.05849        -9.80859        12.85617
| 67>    C       -1.92234       -11.12112        12.43162
| 68>    C       -2.41233       -12.28830        13.11057
| 69>    C       -3.09891       -12.33800        14.30576
| 70>    C       -3.54327       -13.52692        14.91393
| 71>    N       -3.92942       -14.45988        15.46408
| 72>    C       -3.45175       -11.22840        15.09524
| 73>    N       -3.77428       -10.37567        15.79719
| 74>    C       -2.04475       -13.45781        12.31105
| 75>    C       -1.33183       -13.01686        11.17092
| 76>    C       -1.23322       -11.53960        11.20112
| 77>    O       -0.68579       -10.84582        10.36393
| 78>    C       -0.83472       -13.87929        10.22682
| 79>    C       -1.05457       -15.24905        10.41382
| 80>    C       -1.77477       -15.67989        11.55025
| 81>    C       -2.27665       -14.80486        12.50771
| 82>    S       -1.93701       -17.41094        11.58573
| 83>    C       -1.04141       -17.52796        10.09374
| 84>    C       -0.64341       -16.33588         9.59241
| 85>   Br       -0.71452       -19.21566         9.33951
| 86>    H       -5.51193        10.58369         8.71993
| 87>    H       -4.98948         8.55636         7.42924
| 88>    H       -3.82201         8.78477        12.20595
| 89>    H       -4.94289        10.68969        11.12449
| 90>    H       -1.31418         7.60210         9.48035
| 91>    H        0.47796         6.40161         8.30326
| 92>    H        0.76354         3.97245         8.61353
| 93>    H       -0.75572         2.74788        10.14488
| 94>    H       -2.54748         3.94207        11.31729
| 95>    H       -5.61323         6.51201        11.97839
| 96>    H       -6.34411         5.87372        14.23779
| 97>    H       -4.68955         5.14351        15.92032
| 98>    H       -2.29316         5.07892        15.32894
| 99>    H       -1.55588         5.73839        13.07826
|100>    H       -3.82103         5.38130         8.86338
|101>    H       -3.31204         7.17545         6.42784
|102>    H       -2.80243         4.34442         7.09031
|103>    H       -0.48990         3.48825         2.92701
|104>    H       -1.20558         3.17471         6.79380
|105>    H        0.36396         1.99453         4.46166
|106>    H        0.28723         1.59064         7.51478
|107>    H        1.62500         0.28302         4.25328
|108>    H        2.34437        -1.07517         5.12021
|109>    H        3.23201         0.43708         4.96897
|110>    H        3.29503        -0.43801         7.40045
|111>    H        1.71531        -1.00982         7.94702
|112>    H        2.77251         1.68774         8.50503
|113>    H        1.63394         1.68830        10.44805
|114>    H        0.81409        -1.20298         9.80036
|115>    H        0.11994         0.73959        12.07934
|116>    H       -1.32377        -0.39551        13.93880
|117>    H       -2.17675        -2.72314        14.63626
|118>    H       -2.64050        -5.04171        14.83089
|119>    H       -2.77655        -7.58335        14.54037
|120>    H       -1.05799        -8.85235        11.24134
|121>    H       -2.58016        -9.63869        13.78638
|122>    H       -0.29200       -13.51082         9.37037
|123>    H       -2.81786       -15.18613        13.35720
|124>    H       -0.08216       -16.22393         8.68259
|125> *
|126>
|127>                          ****END OF INPUT****

CARTESIAN COORDINATES (ANGSTROEM)
---------------------------------
  C     -5.026190    9.748410    9.200440
  C     -4.722080    8.614940    8.473290
  C     -4.109400    7.515090    9.071110
  C     -3.774620    7.586940   10.437610
  C     -4.084740    8.737000   11.159180
  C     -4.710930    9.806300   10.549570
  N     -3.124310    6.521220   11.084620
  C     -2.062520    5.855360   10.473100
  C     -1.191350    6.538690    9.621340
  C     -0.185900    5.860420    8.961260
  C     -0.020250    4.495990    9.140910
  C     -0.868100    3.813760   10.000460
  C     -1.878520    4.482450   10.663050
  C     -3.536770    6.158500   12.374600
  C     -4.887990    6.198720   12.715800
  C     -5.294560    5.840050   13.986370
  C     -4.367470    5.428750   14.930610
  C     -3.023870    5.388980   14.596410
  C     -2.606040    5.755640   13.331550
  C     -3.792670    6.314930    8.316610
  C     -3.373790    6.293380    7.046670
  N     -2.905460    5.136100    6.467770
  C     -2.365330    5.014960    5.235180
  S     -2.755970    6.129010    3.967970
  C     -1.748010    5.219030    2.880380
  N     -1.622690    5.680540    1.573640
  O     -0.911860    5.046640    0.811200
  O     -2.237350    6.696300    1.285570
  C     -1.151260    4.136370    3.471300
  C     -1.479850    4.002270    4.830920
  C     -0.904440    3.065440    5.758330
  C      0.028350    2.137180    5.476310
  C      0.650040    1.370800    6.516630
  C      1.642530    0.476770    6.393560
  C      2.237610    0.009100    5.105380
  C      2.271760   -0.123920    7.635340
  N      2.317050    0.816310    8.729070
  C      1.579620    0.783210    9.855560
  C      0.853290   -0.265680   10.334990
  C      0.153480   -0.204950   11.550800
  C     -0.474220   -1.274610   12.137570
  C     -1.178930   -1.292890   13.362890
  C     -1.630750   -2.524890   13.731880
  C     -1.306140   -3.551790   12.818130
  S     -0.435780   -2.900500   11.456130
  C     -1.574000   -4.906760   12.935650
  C     -2.237050   -5.570070   13.985670
  C     -2.309350   -6.925860   13.829550
  C     -1.705640   -7.401100   12.645470
  S     -1.051510   -6.065870   11.730670
  C     -1.573330   -8.700560   12.178110
  C     -2.058490   -9.808590   12.856170
  C     -1.922340  -11.121120   12.431620
  C     -2.412330  -12.288300   13.110570
  C     -3.098910  -12.338000   14.305760
  C     -3.543270  -13.526920   14.913930
  N     -3.929420  -14.459880   15.464080
  C     -3.451750  -11.228400   15.095240
  N     -3.774280  -10.375670   15.797190
  C     -2.044750  -13.457810   12.311050
  C     -1.331830  -13.016860   11.170920
  C     -1.233220  -11.539600   11.201120
  O     -0.685790  -10.845820   10.363930
  C     -0.834720  -13.879290   10.226820
  C     -1.054570  -15.249050   10.413820
  C     -1.774770  -15.679890   11.550250
  C     -2.276650  -14.804860   12.507710
  S     -1.937010  -17.410940   11.585730
  C     -1.041410  -17.527960   10.093740
  C     -0.643410  -16.335880    9.592410
  Br    -0.714520  -19.215660    9.339510
  H     -5.511930   10.583690    8.719930
  H     -4.989480    8.556360    7.429240
  H     -3.822010    8.784770   12.205950
  H     -4.942890   10.689690   11.124490
  H     -1.314180    7.602100    9.480350
  H      0.477960    6.401610    8.303260
  H      0.763540    3.972450    8.613530
  H     -0.755720    2.747880   10.144880
  H     -2.547480    3.942070   11.317290
  H     -5.613230    6.512010   11.978390
  H     -6.344110    5.873720   14.237790
  H     -4.689550    5.143510   15.920320
  H     -2.293160    5.078920   15.328940
  H     -1.555880    5.738390   13.078260
  H     -3.821030    5.381300    8.863380
  H     -3.312040    7.175450    6.427840
  H     -2.802430    4.344420    7.090310
  H     -0.489900    3.488250    2.927010
  H     -1.205580    3.174710    6.793800
  H      0.363960    1.994530    4.461660
  H      0.287230    1.590640    7.514780
  H      1.625000    0.283020    4.253280
  H      2.344370   -1.075170    5.120210
  H      3.232010    0.437080    4.968970
  H      3.295030   -0.438010    7.400450
  H      1.715310   -1.009820    7.947020
  H      2.772510    1.687740    8.505030
  H      1.633940    1.688300   10.448050
  H      0.814090   -1.202980    9.800360
  H      0.119940    0.739590   12.079340
  H     -1.323770   -0.395510   13.938800
  H     -2.176750   -2.723140   14.636260
  H     -2.640500   -5.041710   14.830890
  H     -2.776550   -7.583350   14.540370
  H     -1.057990   -8.852350   11.241340
  H     -2.580160   -9.638690   13.786380
  H     -0.292000  -13.510820    9.370370
  H     -2.817860  -15.186130   13.357200
  H     -0.082160  -16.223930    8.682590

 Total Charge           Charge          ....    0
 Multiplicity           Mult            ....    1
 Number of Electrons    NEL             ....  546
 Basis Dimension        Dim             .... 1223

ORBITAL ENERGIES
----------------

  NO   OCC          E(Eh)            E(eV)
   0   2.0000    -482.869751    -13139.5539
   1   2.0000     -88.985131     -2421.4085
   2   2.0000     -88.958930     -2420.6956
   3   2.0000     -88.955564     -2420.6040
   4   2.0000     -88.949849     -2420.4484
   5   2.0000     -62.547470     -1702.0032
   6   2.0000     -56.381397     -1534.2158
   7   2.0000     -56.378725     -1534.1431
   8   2.0000     -56.378680     -1534.1419
   9   2.0000     -19.233233      -523.3629
  10   2.0000     -19.232314      -523.3379
  11   2.0000     -19.185481      -522.0635
  12   2.0000     -14.645003      -398.5108
  13   2.0000     -14.481751      -394.0685
  14   2.0000     -14.472283      -393.8109
  15   2.0000     -14.453010      -393.2864
  16   2.0000     -14.390363      -391.5817
  17   2.0000     -14.385642      -391.4532
  18   2.0000     -10.371504      -282.2230
  19   2.0000     -10.353573      -281.7350
  20   2.0000     -10.339829      -281.3610
  21   2.0000     -10.339490      -281.3518
  22   2.0000     -10.336551      -281.2719
  23   2.0000     -10.335760      -281.2503
  24   2.0000     -10.332892      -281.1723
  25   2.0000     -10.331376      -281.1310
  26   2.0000     -10.328824      -281.0616
  27   2.0000     -10.321060      -280.8503
  28   2.0000     -10.320994      -280.8485
  29   2.0000     -10.316350      -280.7222
  30   2.0000     -10.311767      -280.5975
  31   2.0000     -10.311103      -280.5794
  32   2.0000     -10.310875      -280.5732
  33   2.0000     -10.310264      -280.5565
  34   2.0000     -10.306962      -280.4667
  35   2.0000     -10.306689      -280.4593
  36   2.0000     -10.302710      -280.3510
  37   2.0000     -10.302710      -280.3510
  38   2.0000     -10.298858      -280.2462
  39   2.0000     -10.298817      -280.2451
  40   2.0000     -10.297599      -280.2119
  41   2.0000     -10.295563      -280.1565
  42   2.0000     -10.293710      -280.1061
  43   2.0000     -10.292375      -280.0698
  44   2.0000     -10.291805      -280.0543
  45   2.0000     -10.291308      -280.0407
  46   2.0000     -10.290936      -280.0306
  47   2.0000     -10.288891      -279.9750
  48   2.0000     -10.288698      -279.9697
  49   2.0000     -10.286310      -279.9047
  50   2.0000     -10.285917      -279.8940
  51   2.0000     -10.285235      -279.8755
  52   2.0000     -10.284810      -279.8639
  53   2.0000     -10.284743      -279.8621
  54   2.0000     -10.284738      -279.8620
  55   2.0000     -10.283618      -279.8315
  56   2.0000     -10.283467      -279.8274
  57   2.0000     -10.283074      -279.8167
  58   2.0000     -10.282089      -279.7899
  59   2.0000     -10.280730      -279.7529
  60   2.0000     -10.280079      -279.7352
  61   2.0000     -10.279970      -279.7322
  62   2.0000     -10.279114      -279.7089
  63   2.0000     -10.278277      -279.6861
  64   2.0000     -10.278214      -279.6844
  65   2.0000     -10.277642      -279.6688
  66   2.0000     -10.277412      -279.6626
  67   2.0000     -10.276778      -279.6453
  68   2.0000     -10.276381      -279.6346
  69   2.0000     -10.276087      -279.6265
  70   2.0000     -10.275900      -279.6215
  71   2.0000     -10.273834      -279.5652
  72   2.0000     -10.265745      -279.3451
  73   2.0000     -10.258600      -279.1507
  74   2.0000     -10.258223      -279.1405
  75   2.0000      -8.776889      -238.8313
  76   2.0000      -8.080691      -219.8868
  77   2.0000      -8.055096      -219.1903
  78   2.0000      -8.051569      -219.0943
  79   2.0000      -8.046276      -218.9503
  80   2.0000      -6.613087      -179.9513
  81   2.0000      -6.598646      -179.5583
  82   2.0000      -6.598528      -179.5551
  83   2.0000      -6.050359      -164.6386
  84   2.0000      -6.046004      -164.5201
  85   2.0000      -6.042084      -164.4135
  86   2.0000      -6.024719      -163.9409
  87   2.0000      -6.021278      -163.8473
  88   2.0000      -6.020791      -163.8341
  89   2.0000      -6.017002      -163.7310
  90   2.0000      -6.016156      -163.7079
  91   2.0000      -6.015846      -163.6995
  92   2.0000      -6.012774      -163.6159
  93   2.0000      -6.011772      -163.5886
  94   2.0000      -6.007535      -163.4733
  95   2.0000      -2.728986       -74.2595
  96   2.0000      -2.724913       -74.1486
  97   2.0000      -2.724805       -74.1457
  98   2.0000      -2.713339       -73.8337
  99   2.0000      -2.713329       -73.8334
 100   2.0000      -1.313107       -35.7315
 101   2.0000      -1.131730       -30.7959
 102   2.0000      -1.098594       -29.8942
 103   2.0000      -1.090424       -29.6719
 104   2.0000      -1.079522       -29.3753
 105   2.0000      -1.069137       -29.0927
 106   2.0000      -1.003812       -27.3151
 107   2.0000      -1.003634       -27.3103
 108   2.0000      -0.998923       -27.1821
 109   2.0000      -0.987828       -26.8802
 110   2.0000      -0.979216       -26.6458
 111   2.0000      -0.967518       -26.3275
 112   2.0000      -0.966255       -26.2931
 113   2.0000      -0.963044       -26.2058
 114   2.0000      -0.962309       -26.1858
 115   2.0000      -0.942080       -25.6353
 116   2.0000      -0.939715       -25.5709
 117   2.0000      -0.922428       -25.1006
 118   2.0000      -0.919272       -25.0147
 119   2.0000      -0.912843       -24.8397
 120   2.0000      -0.899396       -24.4738
 121   2.0000      -0.891685       -24.2640
 122   2.0000      -0.884117       -24.0580
 123   2.0000      -0.879084       -23.9211
 124   2.0000      -0.866836       -23.5878
 125   2.0000      -0.863338       -23.4926
 126   2.0000      -0.862388       -23.4668
 127   2.0000      -0.857819       -23.3424
 128   2.0000      -0.856732       -23.3129
 129   2.0000      -0.851831       -23.1795
 130   2.0000      -0.845596       -23.0098
 131   2.0000      -0.845418       -23.0050
 132   2.0000      -0.840322       -22.8663
 133   2.0000      -0.833439       -22.6790
 134   2.0000      -0.831657       -22.6305
 135   2.0000      -0.820718       -22.3329
 136   2.0000      -0.806983       -21.9591
 137   2.0000      -0.806520       -21.9465
 138   2.0000      -0.803409       -21.8619
 139   2.0000      -0.796030       -21.6611
 140   2.0000      -0.778129       -21.1740
 141   2.0000      -0.767258       -20.8782
 142   2.0000      -0.747898       -20.3513
 143   2.0000      -0.735335       -20.0095
 144   2.0000      -0.731766       -19.9124
 145   2.0000      -0.729692       -19.8559
 146   2.0000      -0.722407       -19.6577
 147   2.0000      -0.719042       -19.5661
 148   2.0000      -0.716664       -19.5014
 149   2.0000      -0.701200       -19.0806
 150   2.0000      -0.696576       -18.9548
 151   2.0000      -0.695130       -18.9155
 152   2.0000      -0.687628       -18.7113
 153   2.0000      -0.679359       -18.4863
 154   2.0000      -0.673445       -18.3254
 155   2.0000      -0.670469       -18.2444
 156   2.0000      -0.665503       -18.1093
 157   2.0000      -0.663350       -18.0507
 158   2.0000      -0.660215       -17.9654
 159   2.0000      -0.652828       -17.7643
 160   2.0000      -0.647347       -17.6152
 161   2.0000      -0.635499       -17.2928
 162   2.0000      -0.634976       -17.2786
 163   2.0000      -0.634046       -17.2533
 164   2.0000      -0.632358       -17.2073
 165   2.0000      -0.630745       -17.1634
 166   2.0000      -0.627509       -17.0754
 167   2.0000      -0.626452       -17.0466
 168   2.0000      -0.617704       -16.8086
 169   2.0000      -0.608337       -16.5537
 170   2.0000      -0.604336       -16.4448
 171   2.0000      -0.600019       -16.3273
 172   2.0000      -0.598991       -16.2994
 173   2.0000      -0.597376       -16.2554
 174   2.0000      -0.589655       -16.0453
 175   2.0000      -0.587246       -15.9798
 176   2.0000      -0.581789       -15.8313
 177   2.0000      -0.579944       -15.7811
 178   2.0000      -0.573377       -15.6024
 179   2.0000      -0.572455       -15.5773
 180   2.0000      -0.569552       -15.4983
 181   2.0000      -0.565909       -15.3992
 182   2.0000      -0.563585       -15.3359
 183   2.0000      -0.557839       -15.1796
 184   2.0000      -0.549804       -14.9609
 185   2.0000      -0.547165       -14.8891
 186   2.0000      -0.543697       -14.7947
 187   2.0000      -0.540926       -14.7193
 188   2.0000      -0.537932       -14.6379
 189   2.0000      -0.534164       -14.5353
 190   2.0000      -0.531902       -14.4738
 191   2.0000      -0.528090       -14.3701
 192   2.0000      -0.525160       -14.2903
 193   2.0000      -0.522436       -14.2162
 194   2.0000      -0.521100       -14.1799
 195   2.0000      -0.519053       -14.1242
 196   2.0000      -0.517864       -14.0918
 197   2.0000      -0.516324       -14.0499
 198   2.0000      -0.513047       -13.9607
 199   2.0000      -0.512973       -13.9587
 200   2.0000      -0.511868       -13.9286
 201   2.0000      -0.508410       -13.8346
 202   2.0000      -0.506813       -13.7911
 203   2.0000      -0.504471       -13.7273
 204   2.0000      -0.502775       -13.6812
 205   2.0000      -0.500041       -13.6068
 206   2.0000      -0.494084       -13.4447
 207   2.0000      -0.491601       -13.3771
 208   2.0000      -0.488559       -13.2944
 209   2.0000      -0.486256       -13.2317
 210   2.0000      -0.482742       -13.1361
 211   2.0000      -0.482647       -13.1335
 212   2.0000      -0.479715       -13.0537
 213   2.0000      -0.478490       -13.0204
 214   2.0000      -0.475100       -12.9281
 215   2.0000      -0.474275       -12.9057
 216   2.0000      -0.470969       -12.8157
 217   2.0000      -0.470804       -12.8112
 218   2.0000      -0.469271       -12.7695
 219   2.0000      -0.465655       -12.6711
 220   2.0000      -0.465528       -12.6677
 221   2.0000      -0.458713       -12.4822
 222   2.0000      -0.457376       -12.4458
 223   2.0000      -0.457020       -12.4362
 224   2.0000      -0.451697       -12.2913
 225   2.0000      -0.448791       -12.2122
 226   2.0000      -0.447910       -12.1882
 227   2.0000      -0.445488       -12.1223
 228   2.0000      -0.443039       -12.0557
 229   2.0000      -0.440722       -11.9927
 230   2.0000      -0.438358       -11.9283
 231   2.0000      -0.436163       -11.8686
 232   2.0000      -0.434251       -11.8166
 233   2.0000      -0.430391       -11.7115
 234   2.0000      -0.430153       -11.7051
 235   2.0000      -0.427455       -11.6316
 236   2.0000      -0.425323       -11.5736
 237   2.0000      -0.424306       -11.5460
 238   2.0000      -0.422872       -11.5069
 239   2.0000      -0.418232       -11.3807
 240   2.0000      -0.416638       -11.3373
 241   2.0000      -0.408883       -11.1263
 242   2.0000      -0.407545       -11.0899
 243   2.0000      -0.403635       -10.9835
 244   2.0000      -0.401267       -10.9190
 245   2.0000      -0.397398       -10.8137
 246   2.0000      -0.390202       -10.6179
 247   2.0000      -0.381954       -10.3935
 248   2.0000      -0.381275       -10.3750
 249   2.0000      -0.378053       -10.2873
 250   2.0000      -0.375116       -10.2074
 251   2.0000      -0.373228       -10.1560
 252   2.0000      -0.364156        -9.9092
 253   2.0000      -0.361810        -9.8454
 254   2.0000      -0.360769        -9.8170
 255   2.0000      -0.359475        -9.7818
 256   2.0000      -0.347676        -9.4607
 257   2.0000      -0.344102        -9.3635
 258   2.0000      -0.341413        -9.2903
 259   2.0000      -0.341230        -9.2853
 260   2.0000      -0.335955        -9.1418
 261   2.0000      -0.331321        -9.0157
 262   2.0000      -0.328128        -8.9288
 263   2.0000      -0.327258        -8.9051
 264   2.0000      -0.315435        -8.5834
 265   2.0000      -0.306467        -8.3394
 266   2.0000      -0.297365        -8.0917
 267   2.0000      -0.293142        -7.9768
 268   2.0000      -0.276411        -7.5215
 269   2.0000      -0.268632        -7.3098
 270   2.0000      -0.261334        -7.1113
 271   2.0000      -0.253308        -6.8929
 272   2.0000      -0.212572        -5.7844
 273   0.0000      -0.093572        -2.5462
 274   0.0000      -0.055233        -1.5030
 275   0.0000      -0.045887        -1.2487
 276   0.0000      -0.035165        -0.9569
 277   0.0000      -0.025108        -0.6832

MULLIKEN ATOMIC CHARGES
-----------------------
   0 C :    0.043930
   1 C :   -0.060991
   2 C :    0.030607
   3 C :    0.096738
   4 C :   -0.022389
   5 C :    0.022148
   6 N :   -0.169878
   7 C :    0.077215
   8 C :    0.024049
   9 C :    0.008890
  10 C :    0.014004
  11 C :   -0.005300
  12 C :   -0.021317
  13 C :    0.123494
  14 C :   -0.013742
  15 C :    0.014464
  16 C :    0.031434
  17 C :    0.012503
  18 C :   -0.035455
  19 C :    0.004547
  20 C :    0.066021
  21 N :   -0.039971
  22 C :   -0.109289
  23 S :    0.159433
  24 C :   -0.019213
  25 N :    0.280188
  26 O :   -0.260591
  27 O :   -0.272634
  28 C :    0.005407
  29 C :    0.126733
  30 C :   -0.037539
  31 C :    0.012961
  32 C :    0.012662
  33 C :   -0.245943
  34 C :    0.097290
  35 C :    0.225495
  36 N :   -0.141144
  37 C :    0.071287
  38 C :   -0.068836
  39 C :    0.019002
  40 C :   -0.056309
  41 C :    0.056615
  42 C :    0.009108
  43 C :   -0.017791
  44 S :    0.082200
  45 C :   -0.074028
  46 C :    0.033829
  47 C :    0.009940
  48 C :   -0.024857
  49 S :    0.117821
  50 C :    0.012446
  51 C :   -0.024535
  52 C :   -0.102880
  53 C :    0.332205
  54 C :   -0.375321
  55 C :   -0.185842
  56 N :    0.126579
  57 C :   -0.191638
  58 N :    0.117703
  59 C :    0.012410
  60 C :   -0.007367
  61 C :    0.134104
  62 O :   -0.171347
  63 C :   -0.084782
  64 C :    0.119460
  65 C :   -0.093607
  66 C :   -0.029172
  67 S :    0.173787
  68 C :   -0.124284
  69 C :    0.037346
  70 Br:    0.007412
  71 H :   -0.014799
  72 H :   -0.026906
  73 H :   -0.008717
  74 H :   -0.012760
  75 H :   -0.004324
  76 H :   -0.011055
  77 H :   -0.036189
  78 H :   -0.022859
  79 H :   -0.003577
  80 H :   -0.006224
  81 H :   -0.011190
  82 H :   -0.016266
  83 H :   -0.014989
  84 H :   -0.009576
  85 H :    0.001913
  86 H :    0.022226
  87 H :    0.141128
  88 H :    0.007110
  89 H :   -0.039339
  90 H :   -0.020472
  91 H :   -0.028718
  92 H :    0.021919
  93 H :    0.028903
  94 H :    0.030299
  95 H :    0.019543
  96 H :    0.051372
  97 H :    0.133574
  98 H :    0.018717
  99 H :    0.005154
 100 H :   -0.008689
 101 H :   -0.009135
 102 H :   -0.009483
 103 H :   -0.009084
 104 H :    0.013023
 105 H :    0.003731
 106 H :   -0.009057
 107 H :   -0.019763
 108 H :   -0.010965
 109 H :   -0.009946
Sum of atomic charges:   -0.0000000

LOEWDIN ATOMIC CHARGES
----------------------
   0 C :   -0.029356
   1 C :   -0.018062
   2 C :   -0.038989
   3 C :    0.019128
   4 C :   -0.030872
   5 C :   -0.022161
   6 N :   -0.008235
   7 C :    0.026626
   8 C :   -0.033538
   9 C :   -0.017213
  10 C :   -0.057241
  11 C :   -0.035595
  12 C :   -0.048853
  13 C :    0.022406
  14 C :   -0.039428
  15 C :   -0.015597
  16 C :   -0.037375
  17 C :   -0.019036
  18 C :   -0.044517
  19 C :   -0.059515
  20 C :    0.025176
  21 N :    0.037043
  22 C :   -0.094780
  23 S :    0.451395
  24 C :   -0.216448
  25 N :    0.274050
  26 O :   -0.226766
  27 O :   -0.238669
  28 C :    0.006613
  29 C :   -0.114028
  30 C :   -0.024742
  31 C :   -0.029544
  32 C :   -0.048895
  33 C :   -0.050574
  34 C :   -0.046585
  35 C :    0.048353
  36 N :    0.024675
  37 C :    0.062707
  38 C :   -0.133297
  39 C :   -0.001891
  40 C :   -0.187140
  41 C :   -0.006752
  42 C :   -0.056647
  43 C :   -0.136757
  44 S :    0.383023
  45 C :   -0.214321
  46 C :   -0.004504
  47 C :   -0.055573
  48 C :   -0.100717
  49 S :    0.402520
  50 C :   -0.085702
  51 C :    0.056152
  52 C :   -0.124447
  53 C :    0.075579
  54 C :   -0.169810
  55 C :   -0.019499
  56 N :   -0.079022
  57 C :   -0.016041
  58 N :   -0.084281
  59 C :   -0.017077
  60 C :   -0.046643
  61 C :    0.079513
  62 O :   -0.166125
  63 C :    0.013376
  64 C :   -0.038049
  65 C :   -0.147461
  66 C :   -0.015748
  67 S :    0.422670
  68 C :   -0.277086
  69 C :   -0.071354
  70 Br:    0.123948
  71 H :    0.029206
  72 H :    0.026904
  73 H :    0.034116
  74 H :    0.029896
  75 H :    0.034670
  76 H :    0.031042
  77 H :    0.018244
  78 H :    0.023906
  79 H :    0.032851
  80 H :    0.033043
  81 H :    0.030383
  82 H :    0.027262
  83 H :    0.028711
  84 H :    0.030559
  85 H :    0.030852
  86 H :    0.023661
  87 H :    0.095230
  88 H :    0.042662
  89 H :    0.021147
  90 H :    0.023253
  91 H :    0.023415
  92 H :    0.032165
  93 H :    0.037336
  94 H :    0.037845
  95 H :    0.030845
  96 H :    0.043277
  97 H :    0.083958
  98 H :    0.033820
  99 H :    0.020295
 100 H :    0.034424
 101 H :    0.035345
 102 H :    0.033067
 103 H :    0.034558
 104 H :    0.040426
 105 H :    0.030936
 106 H :    0.035622
 107 H :    0.037024
 108 H :    0.039431
 109 H :    0.036221

  Mayer bond orders larger than 0.100000
B(  0-C ,  1-C ) :   1.3825 B(  0-C ,  5-C ) :   1.3564 B(  0-C , 71-H ) :   0.9921
B(  1-C ,  2-C ) :   1.3649 B(  1-C , 72-H ) :   0.9920 B(  2-C ,  3-C ) :   1.3704
B(  2-C , 19-C ) :   1.0735 B(  3-C ,  4-C ) :   1.3873 B(  3-C ,  6-N ) :   0.9912
B(  4-C ,  5-C ) :   1.3746 B(  4-C , 73-H ) :   0.9909 B(  5-C , 74-H ) :   0.9883
B(  6-N ,  7-C ) :   1.0123 B(  6-N , 13-C ) :   0.9789 B(  7-C ,  8-C ) :   1.3783
B(  7-C , 12-C ) :   1.3721 B(  8-C ,  9-C ) :   1.3827 B(  8-C , 75-H ) :   0.9884
B(  9-C , 10-C ) :   1.3812 B(  9-C , 76-H ) :   0.9891 B( 10-C , 11-C ) :   1.3462
B( 10-C , 77-H ) :   0.9914 B( 11-C , 12-C ) :   1.3897 B( 11-C , 78-H ) :   0.9822
B( 12-C , 79-H ) :   0.9918 B( 13-C , 14-C ) :   1.3916 B( 13-C , 18-C ) :   1.3826
B( 14-C , 15-C ) :   1.3769 B( 14-C , 80-H ) :   0.9885 B( 15-C , 16-C ) :   1.3829
B( 15-C , 81-H ) :   0.9865 B( 16-C , 17-C ) :   1.3853 B( 16-C , 82-H ) :   0.9938
B( 17-C , 18-C ) :   1.3764 B( 17-C , 83-H ) :   0.9856 B( 18-C , 84-H ) :   0.9922
B( 19-C , 20-C ) :   1.7646 B( 19-C , 85-H ) :   0.9299 B( 20-C , 21-N ) :   1.0889
B( 20-C , 86-H ) :   0.9585 B( 21-N , 22-C ) :   1.2450 B( 21-N , 87-H ) :   0.9167
B( 22-C , 23-S ) :   1.1343 B( 22-C , 29-C ) :   1.3430 B( 23-S , 24-C ) :   1.0637
B( 24-C , 25-N ) :   0.9874 B( 24-C , 28-C ) :   1.4853 B( 25-N , 26-O ) :   1.5217
B( 25-N , 27-O ) :   1.5026 B( 26-O , 27-O ) :   0.2512 B( 28-C , 29-C ) :   1.2361
B( 28-C , 88-H ) :   1.0001 B( 29-C , 30-C ) :   1.0503 B( 30-C , 31-C ) :   1.7473
B( 30-C , 89-H ) :   0.9728 B( 31-C , 32-C ) :   1.1008 B( 31-C , 90-H ) :   0.9730
B( 32-C , 33-C ) :   1.7776 B( 32-C , 91-H ) :   0.9721 B( 33-C , 34-C ) :   1.0851
B( 33-C , 35-C ) :   1.0031 B( 34-C , 92-H ) :   0.9541 B( 34-C , 93-H ) :   0.9503
B( 34-C , 94-H ) :   0.9446 B( 35-C , 36-N ) :   0.9964 B( 35-C , 95-H ) :   0.9407
B( 35-C , 96-H ) :   0.9234 B( 36-N , 37-C ) :   1.2742 B( 36-N , 97-H ) :   0.9371
B( 37-C , 38-C ) :   1.5544 B( 37-C , 98-H ) :   0.9645 B( 38-C , 39-C ) :   1.2049
B( 38-C , 99-H ) :   0.9599 B( 39-C , 40-C ) :   1.5431 B( 39-C ,100-H ) :   0.9796
B( 40-C , 41-C ) :   1.1709 B( 40-C , 44-S ) :   1.0106 B( 41-C , 42-C ) :   1.5546
B( 41-C ,101-H ) :   0.9981 B( 42-C , 43-C ) :   1.2200 B( 42-C ,102-H ) :   0.9939
B( 43-C , 44-S ) :   1.0951 B( 43-C , 45-C ) :   1.4333 B( 45-C , 46-C ) :   1.2414
B( 45-C , 49-S ) :   1.0359 B( 46-C , 47-C ) :   1.5290 B( 46-C ,103-H ) :   0.9931
B( 47-C , 48-C ) :   1.2188 B( 47-C ,104-H ) :   0.9896 B( 48-C , 49-S ) :   1.1114
B( 48-C , 50-C ) :   1.3391 B( 50-C , 51-C ) :   1.3510 B( 50-C ,105-H ) :   0.9642
B( 51-C , 52-C ) :   1.4190 B( 51-C ,106-H ) :   0.9473 B( 52-C , 53-C ) :   1.1390
B( 52-C , 61-C ) :   0.9771 B( 53-C , 54-C ) :   1.5586 B( 53-C , 59-C ) :   0.9833
B( 54-C , 55-C ) :   1.1497 B( 54-C , 57-C ) :   1.1597 B( 55-C , 56-N ) :   2.9583
B( 57-C , 58-N ) :   2.9694 B( 59-C , 60-C ) :   1.2807 B( 59-C , 66-C ) :   1.4236
B( 60-C , 61-C ) :   0.9310 B( 60-C , 63-C ) :   1.4371 B( 61-C , 62-O ) :   2.1804
B( 63-C , 64-C ) :   1.2327 B( 63-C ,107-H ) :   1.0159 B( 64-C , 65-C ) :   1.3228
B( 64-C , 69-C ) :   1.1597 B( 65-C , 66-C ) :   1.3164 B( 65-C , 67-S ) :   1.0801
B( 66-C ,108-H ) :   0.9786 B( 67-S , 68-C ) :   1.0846 B( 68-C , 69-C ) :   1.6216
B( 68-C , 70-Br) :   1.0093 B( 69-C ,109-H ) :   1.0000

-----------------------------------------------------------------------------
         ABSORPTION SPECTRUM VIA TRANSITION ELECTRIC DIPOLE MOMENTS
-----------------------------------------------------------------------------
State   Energy  Wavelength   fosc         T2         TX        TY        TZ
        (cm-1)    (nm)                  (au**2)     (au)      (au)      (au)
-----------------------------------------------------------------------------
   0   12500.1    800.0   1.850745814  48.74265  -1.43758  -6.71994   1.23227
   1   21702.9    460.8   0.014802955   0.22455   0.08384  -0.37635  -0.27546
   2   23825.4    419.7   0.018576265   0.25668   0.07900   0.38715  -0.31711
   3   24772.6    403.7   0.017896771   0.23784   0.01848   0.09294   0.47839
   4   25731.2    388.6   0.494238256   6.32341   0.59474   0.08424  -2.44184
   5   25835.2    387.1   0.064446865   0.82123  -0.03820  -0.72287  -0.54519
   6   26224.2    381.3   0.015494599   0.19452  -0.00960  -0.34301  -0.27706
   7   26618.2    375.7   0.161781494   2.00090  -0.29488   0.08656   1.38075
   8   27454.8    364.2   0.239417107   2.87086  -0.59145   0.66789   1.44047
   9   27773.8    360.1   0.000881613   0.01045  -0.07464   0.05157   0.04712
  10   27813.1    359.5   0.145970600   1.72779  -0.78399   0.74209   0.74997
  11   29266.5    341.7   0.102685987   1.15509  -0.49553   0.85485   0.42282
  12   29765.1    336.0   0.005820573   0.06438   0.04251   0.23052  -0.09712
  13   30812.1    324.5   0.547651316   5.85137   1.46644  -1.86975  -0.45274
  14   31341.6    319.1   0.000117590   0.00124  -0.00172   0.01199   0.03299
  15   31528.3    317.2   0.002016944   0.02106   0.06009  -0.06960  -0.11227
  16   32591.4    306.8   0.583457263   5.89361  -0.96001   1.38936   1.74404
  17   33279.0    300.5   0.114020940   1.12795   0.33457  -0.69661  -0.72853
  18   33457.1    298.9   0.001042281   0.01026   0.06016  -0.07496   0.03189
  19   33462.6    298.8   0.000985759   0.00970  -0.00369  -0.00008  -0.09841
  20   33773.8    296.1   0.060186162   0.58667  -0.28376   0.64612   0.29778
  21   34022.3    293.9   0.004514519   0.04368  -0.07978  -0.15938  -0.10917
  22   34736.9    287.9   0.120723805   1.14414  -0.35535   0.63223   0.78623
  23   34895.1    286.6   0.095446043   0.90047  -0.53088   0.69415   0.36985
  24   35122.3    284.7   0.099166344   0.92952   0.47657  -0.79326  -0.27044
  25   35528.4    281.5   0.131697457   1.22033  -0.02755   0.59755  -0.92871
  26   35658.1    280.4   0.049391650   0.45601   0.60925   0.22775  -0.18152
  27   36550.9    273.6   0.084973906   0.76536  -0.44407  -0.38155   0.65005
  28   36773.2    271.9   0.001501459   0.01344  -0.09050  -0.07018  -0.01805
  29   36907.0    271.0   0.038786663   0.34598  -0.21586   0.54715   0.00384
  30   37610.0    265.9   0.118373180   1.03616   0.86200  -0.30747  -0.44562
  31   37639.0    265.7   0.027212813   0.23802   0.28904   0.38900  -0.05616
  32   37853.6    264.2   0.126515660   1.10030  -0.93887   0.15755   0.44046
  33   38357.1    260.7   0.248848267   2.13582   0.73920  -0.49523  -1.15938
  34   38574.1    259.2   0.025098945   0.21421  -0.17342   0.30105  -0.30578
  35   38741.7    258.1   0.142832897   1.21374   0.29965   0.37408  -0.99197
  36   38847.2    257.4   0.185487014   1.57191  -0.00265   0.60532  -1.09795
  37   38942.6    256.8   0.031103622   0.26294   0.38357  -0.27774   0.19667
  38   39004.1    256.4   0.000623238   0.00526   0.05999  -0.04073  -0.00163
  39   39444.1    253.5   0.040964357   0.34190  -0.14205  -0.08238   0.56119
  40   39921.8    250.5   0.143384562   1.18241   0.39035  -0.93788   0.38783
  41   40258.0    248.4   0.177597814   1.45232  -0.52236  -0.35168   1.02751

FINAL SINGLE POINT ENERGY     -6912.271273796471

DIPOLE MOMENT
-------------
                                X             Y             Z
Electronic contribution:     -1.63161    -294.13343      -4.19322
Nuclear contribution   :      3.89650     301.19353       3.86268
                        -----------------------------------------
Total Dipole Moment    :      2.26488       7.06010      -0.33054
                        -----------------------------------------
Magnitude (a.u.)       :      7.42186
Magnitude (Debye)      :     18.86486

Rotational constants in cm-1:     0.001221     0.000176     0.000161
Rotational constants in MHz :    36.609342     5.289851     4.819641

                             ****ORCA TERMINATED NORMALLY****
TOTAL RUN TIME: 0 days 0 hours 12 minutes 10 seconds 964 msec
