                         Program Version 4.2.0 -  RELEASE  -
|  1> # ORCA input file
|  2> # SCF done       -192.831164415701          0.000301942704
|  3> ! CAM-B3LYP def2-SVP def2/J RIJCOSX Grid4 TightSCF
|  4> %maxcore 5000
|  5> %tddft
|  6>     Mode sTDDFT
|  7>     Ethresh 5.0
|  8>     maxcore 5000
|  9> end
| 10>
| 11> %pal
| 12>   nprocs 6
| 13>   end
| 14> * xyz 0 1
| 15>    C       -9.70088         9.69874         3.02066
| 16>    C       -9.58554         9.36249         4.34461
| 17>    C      -10.06511        10.15337         5.40850
| 18>    N      -10.43708        10.75694         6.31113
| 19>    C       -8.97439         8.17869         4.80546
| 20>    N       -8.48641         7.22534         5.21856
| 21>    C      -10.32778        10.90879         2.49561
| 22>    C      -10.25468        10.88892         1.07789
| 23>    C      -10.76291        11.89829         0.29587
| 24>    C      -11.37311        12.97931         0.94011
| 25>    C      -11.44179        12.99089         2.35392
| 26>    C      -10.92718        11.97007         3.14535
| 27>    S      -12.23624        14.41746         2.94336
| 28>    C      -12.46344        14.97328         1.30640
| 29>    C      -11.96955        14.13385         0.36465
| 30>   Br      -13.33059        16.60624         0.99322
| 31>    C       -9.57582         9.65948         0.65722
| 32>    O       -9.33424         9.29407        -0.49217
| 33>    C       -9.23751         8.93516         1.88435
| 34>    C       -8.58487         7.72614         1.84832
| 35>    N       -8.24582         7.18891         0.67151
| 36>    C       -7.61869         6.00719         0.44818
| 37>    S       -7.14906         4.95886         1.74889
| 38>    C       -6.53913         3.83102         0.58278
| 39>    N       -5.96191         2.64353         1.05688
| 40>    O       -5.54353         1.85421         0.23158
| 41>    O       -5.92596         2.49643         2.26469
| 42>    C       -6.69028         4.23897        -0.71471
| 43>    C       -7.31116         5.49879        -0.82121
| 44>    C       -7.59831         6.19713        -2.04627
| 45>    C       -7.50042         5.67220        -3.28240
| 46>    C       -7.82144         6.43626        -4.45233
| 47>    C       -7.84368         5.99268        -5.71964
| 48>    C       -7.47406         4.60817        -6.14719
| 49>    C       -8.26220         6.89166        -6.85513
| 50>    N       -9.14540         7.95127        -6.43627
| 51>    C       -9.40887         9.05730        -7.15307
| 52>    C       -8.89724         9.36754        -8.37864
| 53>    C       -9.19784        10.57152        -9.03386
| 54>    C       -8.76947        10.90293       -10.29468
| 55>    C       -9.03340        12.09738       -11.00243
| 56>    C       -8.49441        12.13829       -12.25375
| 57>    C       -7.77885        10.97329       -12.60680
| 58>    S       -7.79391         9.82812       -11.29479
| 59>    C       -7.14741        10.70394       -13.81185
| 60>    C       -7.06348        11.53432       -14.94435
| 61>    C       -6.38819        10.97017       -15.99034
| 62>    C       -5.91363         9.66809       -15.73476
| 63>    S       -6.33068         9.18312       -14.11229
| 64>    C       -5.21184         8.86369       -16.61902
| 65>    C       -4.81339         7.56836       -16.33701
| 66>    C       -4.11416         6.69980       -17.15798
| 67>    C       -4.19478         5.24907       -16.90860
| 68>    O       -4.64585         4.69491       -15.92635
| 69>    C       -3.65769         4.60913       -18.13149
| 70>    C       -3.59971         3.28654       -18.45723
| 71>    C       -3.08360         2.91115       -19.71938
| 72>    C       -2.63838         3.92127       -20.61898
| 73>    C       -2.13609         3.54275       -21.87941
| 74>    C       -2.07626         2.22287       -22.22976
| 75>    C       -2.51460         1.22518       -21.33902
| 76>    C       -3.00780         1.56047       -20.10903
| 77>    F       -2.44594        -0.06419       -21.70850
| 78>    F       -1.59771         1.86550       -23.43202
| 79>    C       -2.70014         5.28527       -20.24650
| 80>    C       -3.19883         5.62320       -19.01875
| 81>    C       -3.36762         6.92157       -18.36053
| 82>    C       -2.73736         8.08284       -18.75354
| 83>    C       -2.64953         9.24616       -17.96630
| 84>    N       -2.49986        10.20605       -17.35226
| 85>    C       -2.00469         8.21221       -19.94738
| 86>    N       -1.41613         8.38690       -20.91914
| 87>    H      -10.69233        11.85721        -0.77975
| 88>    H      -11.00405        12.02537         4.21821
| 89>    H      -12.02350        14.32130        -0.69213
| 90>    H       -8.32752         7.17432         2.74284
| 91>    H       -8.52506         7.76911        -0.14064
| 92>    H       -6.34791         3.64444        -1.54116
| 93>    H       -7.92623         7.22445        -1.95325
| 94>    H       -7.20470         4.64315        -3.41069
| 95>    H       -8.07336         7.47151        -4.25745
| 96>    H       -6.80228         4.13076        -5.44162
| 97>    H       -6.99029         4.63387        -7.12155
| 98>    H       -8.36912         3.99133        -6.23790
| 99>    H       -8.74017         6.28275        -7.63618
|100>    H       -7.36578         7.34257        -7.29862
|101>    H       -9.70801         7.76153        -5.62218
|102>    H      -10.08921         9.75108        -6.67642
|103>    H       -8.24950         8.67538        -8.89513
|104>    H       -9.81843        11.29345        -8.51848
|105>    H       -9.61456        12.89042       -10.56548
|106>    H       -8.59717        12.96765       -12.92953
|107>    H       -7.49700        12.51790       -14.96739
|108>    H       -6.21551        11.45305       -16.93537
|109>    H       -5.01252         9.29026       -17.59117
|110>    H       -5.16461         7.12812       -15.40814
|111>    H       -3.94569         2.53416       -17.76481
|112>    H       -1.79342         4.29498       -22.57270
|113>    H       -3.34033         0.78389       -19.43806
|114>    H       -2.35904         6.02782       -20.94992
|115> *
|116>
|117>                          ****END OF INPUT****

CARTESIAN COORDINATES (ANGSTROEM)
---------------------------------
  C     -9.700880    9.698740    3.020660
  C     -9.585540    9.362490    4.344610
  C    -10.065110   10.153370    5.408500
  N    -10.437080   10.756940    6.311130
  C     -8.974390    8.178690    4.805460
  N     -8.486410    7.225340    5.218560
  C    -10.327780   10.908790    2.495610
  C    -10.254680   10.888920    1.077890
  C    -10.762910   11.898290    0.295870
  C    -11.373110   12.979310    0.940110
  C    -11.441790   12.990890    2.353920
  C    -10.927180   11.970070    3.145350
  S    -12.236240   14.417460    2.943360
  C    -12.463440   14.973280    1.306400
  C    -11.969550   14.133850    0.364650
  Br   -13.330590   16.606240    0.993220
  C     -9.575820    9.659480    0.657220
  O     -9.334240    9.294070   -0.492170
  C     -9.237510    8.935160    1.884350
  C     -8.584870    7.726140    1.848320
  N     -8.245820    7.188910    0.671510
  C     -7.618690    6.007190    0.448180
  S     -7.149060    4.958860    1.748890
  C     -6.539130    3.831020    0.582780
  N     -5.961910    2.643530    1.056880
  O     -5.543530    1.854210    0.231580
  O     -5.925960    2.496430    2.264690
  C     -6.690280    4.238970   -0.714710
  C     -7.311160    5.498790   -0.821210
  C     -7.598310    6.197130   -2.046270
  C     -7.500420    5.672200   -3.282400
  C     -7.821440    6.436260   -4.452330
  C     -7.843680    5.992680   -5.719640
  C     -7.474060    4.608170   -6.147190
  C     -8.262200    6.891660   -6.855130
  N     -9.145400    7.951270   -6.436270
  C     -9.408870    9.057300   -7.153070
  C     -8.897240    9.367540   -8.378640
  C     -9.197840   10.571520   -9.033860
  C     -8.769470   10.902930  -10.294680
  C     -9.033400   12.097380  -11.002430
  C     -8.494410   12.138290  -12.253750
  C     -7.778850   10.973290  -12.606800
  S     -7.793910    9.828120  -11.294790
  C     -7.147410   10.703940  -13.811850
  C     -7.063480   11.534320  -14.944350
  C     -6.388190   10.970170  -15.990340
  C     -5.913630    9.668090  -15.734760
  S     -6.330680    9.183120  -14.112290
  C     -5.211840    8.863690  -16.619020
  C     -4.813390    7.568360  -16.337010
  C     -4.114160    6.699800  -17.157980
  C     -4.194780    5.249070  -16.908600
  O     -4.645850    4.694910  -15.926350
  C     -3.657690    4.609130  -18.131490
  C     -3.599710    3.286540  -18.457230
  C     -3.083600    2.911150  -19.719380
  C     -2.638380    3.921270  -20.618980
  C     -2.136090    3.542750  -21.879410
  C     -2.076260    2.222870  -22.229760
  C     -2.514600    1.225180  -21.339020
  C     -3.007800    1.560470  -20.109030
  F     -2.445940   -0.064190  -21.708500
  F     -1.597710    1.865500  -23.432020
  C     -2.700140    5.285270  -20.246500
  C     -3.198830    5.623200  -19.018750
  C     -3.367620    6.921570  -18.360530
  C     -2.737360    8.082840  -18.753540
  C     -2.649530    9.246160  -17.966300
  N     -2.499860   10.206050  -17.352260
  C     -2.004690    8.212210  -19.947380
  N     -1.416130    8.386900  -20.919140
  H    -10.692330   11.857210   -0.779750
  H    -11.004050   12.025370    4.218210
  H    -12.023500   14.321300   -0.692130
  H     -8.327520    7.174320    2.742840
  H     -8.525060    7.769110   -0.140640
  H     -6.347910    3.644440   -1.541160
  H     -7.926230    7.224450   -1.953250
  H     -7.204700    4.643150   -3.410690
  H     -8.073360    7.471510   -4.257450
  H     -6.802280    4.130760   -5.441620
  H     -6.990290    4.633870   -7.121550
  H     -8.369120    3.991330   -6.237900
  H     -8.740170    6.282750   -7.636180
  H     -7.365780    7.342570   -7.298620
  H     -9.708010    7.761530   -5.622180
  H    -10.089210    9.751080   -6.676420
  H     -8.249500    8.675380   -8.895130
  H     -9.818430   11.293450   -8.518480
  H     -9.614560   12.890420  -10.565480
  H     -8.597170   12.967650  -12.929530
  H     -7.497000   12.517900  -14.967390
  H     -6.215510   11.453050  -16.935370
  H     -5.012520    9.290260  -17.591170
  H     -5.164610    7.128120  -15.408140
  H     -3.945690    2.534160  -17.764810
  H     -1.793420    4.294980  -22.572700
  H     -3.340330    0.783890  -19.438060
  H     -2.359040    6.027820  -20.949920

 Total Charge           Charge          ....    0
 Multiplicity           Mult            ....    1
 Number of Electrons    NEL             ....  550
 Basis Dimension        Dim             .... 1182

ORBITAL ENERGIES
----------------

  NO   OCC          E(Eh)            E(eV)
   0   2.0000    -482.898742    -13140.3428
   1   2.0000     -89.002093     -2421.8701
   2   2.0000     -88.990873     -2421.5648
   3   2.0000     -88.962770     -2420.8001
   4   2.0000     -88.953701     -2420.5533
   5   2.0000     -62.576437     -1702.7914
   6   2.0000     -56.410406     -1535.0052
   7   2.0000     -56.407660     -1534.9305
   8   2.0000     -56.407631     -1534.9297
   9   2.0000     -24.780605      -674.3146
  10   2.0000     -24.779636      -674.2882
  11   2.0000     -19.250103      -523.8219
  12   2.0000     -19.249126      -523.7953
  13   2.0000     -19.248740      -523.7848
  14   2.0000     -19.184777      -522.0443
  15   2.0000     -14.661550      -398.9611
  16   2.0000     -14.509469      -394.8227
  17   2.0000     -14.475066      -393.8866
  18   2.0000     -14.431735      -392.7075
  19   2.0000     -14.427150      -392.5827
  20   2.0000     -14.388554      -391.5325
  21   2.0000     -14.385980      -391.4624
  22   2.0000     -10.395120      -282.8656
  23   2.0000     -10.384431      -282.5747
  24   2.0000     -10.383929      -282.5611
  25   2.0000     -10.373677      -282.2821
  26   2.0000     -10.361584      -281.9530
  27   2.0000     -10.360983      -281.9367
  28   2.0000     -10.359724      -281.9024
  29   2.0000     -10.359613      -281.8994
  30   2.0000     -10.355714      -281.7933
  31   2.0000     -10.354663      -281.7647
  32   2.0000     -10.341729      -281.4128
  33   2.0000     -10.341306      -281.4012
  34   2.0000     -10.336518      -281.2710
  35   2.0000     -10.334906      -281.2271
  36   2.0000     -10.333840      -281.1981
  37   2.0000     -10.330054      -281.0951
  38   2.0000     -10.325598      -280.9738
  39   2.0000     -10.323965      -280.9294
  40   2.0000     -10.323956      -280.9291
  41   2.0000     -10.322037      -280.8769
  42   2.0000     -10.320850      -280.8446
  43   2.0000     -10.320139      -280.8253
  44   2.0000     -10.319278      -280.8018
  45   2.0000     -10.314741      -280.6784
  46   2.0000     -10.314224      -280.6643
  47   2.0000     -10.313321      -280.6397
  48   2.0000     -10.313284      -280.6387
  49   2.0000     -10.312566      -280.6192
  50   2.0000     -10.312083      -280.6060
  51   2.0000     -10.311945      -280.6023
  52   2.0000     -10.311079      -280.5787
  53   2.0000     -10.310021      -280.5499
  54   2.0000     -10.308371      -280.5050
  55   2.0000     -10.305920      -280.4383
  56   2.0000     -10.303822      -280.3812
  57   2.0000     -10.297150      -280.1997
  58   2.0000     -10.295860      -280.1646
  59   2.0000     -10.295308      -280.1496
  60   2.0000     -10.293209      -280.0925
  61   2.0000     -10.292872      -280.0833
  62   2.0000     -10.290069      -280.0070
  63   2.0000     -10.288443      -279.9628
  64   2.0000     -10.288162      -279.9551
  65   2.0000     -10.287217      -279.9294
  66   2.0000     -10.287175      -279.9283
  67   2.0000     -10.282514      -279.8014
  68   2.0000     -10.281964      -279.7865
  69   2.0000     -10.280779      -279.7542
  70   2.0000     -10.280587      -279.7490
  71   2.0000     -10.278549      -279.6935
  72   2.0000     -10.277135      -279.6551
  73   2.0000     -10.268696      -279.4254
  74   2.0000     -10.266888      -279.3762
  75   2.0000     -10.261068      -279.2179
  76   2.0000      -8.805857      -239.6196
  77   2.0000      -8.097418      -220.3419
  78   2.0000      -8.086859      -220.0546
  79   2.0000      -8.058803      -219.2912
  80   2.0000      -8.049840      -219.0473
  81   2.0000      -6.642229      -180.7442
  82   2.0000      -6.627560      -180.3451
  83   2.0000      -6.627342      -180.3391
  84   2.0000      -6.067047      -165.0928
  85   2.0000      -6.062689      -164.9742
  86   2.0000      -6.058869      -164.8702
  87   2.0000      -6.056536      -164.8067
  88   2.0000      -6.052227      -164.6895
  89   2.0000      -6.048119      -164.5777
  90   2.0000      -6.028399      -164.0411
  91   2.0000      -6.024458      -163.9338
  92   2.0000      -6.019982      -163.8120
  93   2.0000      -6.019389      -163.7959
  94   2.0000      -6.015411      -163.6877
  95   2.0000      -6.011104      -163.5705
  96   2.0000      -2.758073       -75.0510
  97   2.0000      -2.753985       -74.9397
  98   2.0000      -2.753803       -74.9348
  99   2.0000      -2.742158       -74.6179
 100   2.0000      -2.742144       -74.6175
 101   2.0000      -1.331496       -36.2318
 102   2.0000      -1.301988       -35.4289
 103   2.0000      -1.287279       -35.0286
 104   2.0000      -1.162602       -31.6360
 105   2.0000      -1.150841       -31.3160
 106   2.0000      -1.117259       -30.4022
 107   2.0000      -1.098753       -29.8986
 108   2.0000      -1.072827       -29.1931
 109   2.0000      -1.039420       -28.2840
 110   2.0000      -1.028570       -27.9888
 111   2.0000      -1.023033       -27.8381
 112   2.0000      -1.008972       -27.4555
 113   2.0000      -1.007416       -27.4132
 114   2.0000      -1.005473       -27.3603
 115   2.0000      -0.992373       -27.0038
 116   2.0000      -0.983347       -26.7582
 117   2.0000      -0.979696       -26.6589
 118   2.0000      -0.966459       -26.2987
 119   2.0000      -0.958037       -26.0695
 120   2.0000      -0.956144       -26.0180
 121   2.0000      -0.951271       -25.8854
 122   2.0000      -0.932636       -25.3783
 123   2.0000      -0.924677       -25.1617
 124   2.0000      -0.920936       -25.0599
 125   2.0000      -0.912085       -24.8191
 126   2.0000      -0.908460       -24.7204
 127   2.0000      -0.902501       -24.5583
 128   2.0000      -0.895086       -24.3565
 129   2.0000      -0.891571       -24.2609
 130   2.0000      -0.874977       -23.8093
 131   2.0000      -0.870941       -23.6995
 132   2.0000      -0.867033       -23.5932
 133   2.0000      -0.864941       -23.5362
 134   2.0000      -0.860883       -23.4258
 135   2.0000      -0.851248       -23.1636
 136   2.0000      -0.846054       -23.0223
 137   2.0000      -0.834620       -22.7112
 138   2.0000      -0.828585       -22.5469
 139   2.0000      -0.817892       -22.2560
 140   2.0000      -0.815633       -22.1945
 141   2.0000      -0.811986       -22.0953
 142   2.0000      -0.801412       -21.8075
 143   2.0000      -0.792324       -21.5602
 144   2.0000      -0.779313       -21.2062
 145   2.0000      -0.765599       -20.8330
 146   2.0000      -0.764382       -20.7999
 147   2.0000      -0.747020       -20.3274
 148   2.0000      -0.740784       -20.1578
 149   2.0000      -0.733422       -19.9574
 150   2.0000      -0.729153       -19.8413
 151   2.0000      -0.714631       -19.4461
 152   2.0000      -0.707389       -19.2490
 153   2.0000      -0.705810       -19.2061
 154   2.0000      -0.698993       -19.0206
 155   2.0000      -0.693377       -18.8677
 156   2.0000      -0.688099       -18.7241
 157   2.0000      -0.678287       -18.4571
 158   2.0000      -0.674451       -18.3527
 159   2.0000      -0.670547       -18.2465
 160   2.0000      -0.668160       -18.1816
 161   2.0000      -0.661732       -18.0066
 162   2.0000      -0.656205       -17.8562
 163   2.0000      -0.651619       -17.7315
 164   2.0000      -0.646131       -17.5821
 165   2.0000      -0.642843       -17.4926
 166   2.0000      -0.640462       -17.4279
 167   2.0000      -0.637514       -17.3476
 168   2.0000      -0.635311       -17.2877
 169   2.0000      -0.634564       -17.2674
 170   2.0000      -0.625291       -17.0150
 171   2.0000      -0.620629       -16.8882
 172   2.0000      -0.619389       -16.8544
 173   2.0000      -0.615944       -16.7607
 174   2.0000      -0.613441       -16.6926
 175   2.0000      -0.607863       -16.5408
 176   2.0000      -0.605469       -16.4756
 177   2.0000      -0.596779       -16.2392
 178   2.0000      -0.593330       -16.1453
 179   2.0000      -0.589186       -16.0326
 180   2.0000      -0.584237       -15.8979
 181   2.0000      -0.581161       -15.8142
 182   2.0000      -0.574784       -15.6407
 183   2.0000      -0.573002       -15.5922
 184   2.0000      -0.570599       -15.5268
 185   2.0000      -0.567686       -15.4475
 186   2.0000      -0.566988       -15.4285
 187   2.0000      -0.563500       -15.3336
 188   2.0000      -0.561730       -15.2855
 189   2.0000      -0.554168       -15.0797
 190   2.0000      -0.553988       -15.0748
 191   2.0000      -0.549611       -14.9557
 192   2.0000      -0.545894       -14.8545
 193   2.0000      -0.543950       -14.8016
 194   2.0000      -0.538529       -14.6541
 195   2.0000      -0.535580       -14.5739
 196   2.0000      -0.533942       -14.5293
 197   2.0000      -0.532942       -14.5021
 198   2.0000      -0.529205       -14.4004
 199   2.0000      -0.527183       -14.3454
 200   2.0000      -0.524230       -14.2650
 201   2.0000      -0.518044       -14.0967
 202   2.0000      -0.516948       -14.0669
 203   2.0000      -0.513485       -13.9726
 204   2.0000      -0.513185       -13.9645
 205   2.0000      -0.512392       -13.9429
 206   2.0000      -0.509907       -13.8753
 207   2.0000      -0.508938       -13.8489
 208   2.0000      -0.507565       -13.8115
 209   2.0000      -0.504544       -13.7293
 210   2.0000      -0.503585       -13.7032
 211   2.0000      -0.497465       -13.5367
 212   2.0000      -0.493289       -13.4231
 213   2.0000      -0.492439       -13.3999
 214   2.0000      -0.487129       -13.2555
 215   2.0000      -0.486276       -13.2323
 216   2.0000      -0.483181       -13.1480
 217   2.0000      -0.482281       -13.1235
 218   2.0000      -0.478895       -13.0314
 219   2.0000      -0.477551       -12.9948
 220   2.0000      -0.475430       -12.9371
 221   2.0000      -0.474766       -12.9190
 222   2.0000      -0.471807       -12.8385
 223   2.0000      -0.468392       -12.7456
 224   2.0000      -0.468140       -12.7387
 225   2.0000      -0.464999       -12.6533
 226   2.0000      -0.462724       -12.5914
 227   2.0000      -0.462296       -12.5797
 228   2.0000      -0.457607       -12.4521
 229   2.0000      -0.456916       -12.4333
 230   2.0000      -0.454666       -12.3721
 231   2.0000      -0.452574       -12.3152
 232   2.0000      -0.446409       -12.1474
 233   2.0000      -0.444942       -12.1075
 234   2.0000      -0.443332       -12.0637
 235   2.0000      -0.441859       -12.0236
 236   2.0000      -0.441328       -12.0091
 237   2.0000      -0.441264       -12.0074
 238   2.0000      -0.435018       -11.8374
 239   2.0000      -0.430755       -11.7214
 240   2.0000      -0.427552       -11.6343
 241   2.0000      -0.426902       -11.6166
 242   2.0000      -0.424104       -11.5405
 243   2.0000      -0.422477       -11.4962
 244   2.0000      -0.418146       -11.3783
 245   2.0000      -0.414702       -11.2846
 246   2.0000      -0.407557       -11.0902
 247   2.0000      -0.404377       -11.0037
 248   2.0000      -0.402765       -10.9598
 249   2.0000      -0.399518       -10.8714
 250   2.0000      -0.396737       -10.7958
 251   2.0000      -0.395376       -10.7587
 252   2.0000      -0.389940       -10.6108
 253   2.0000      -0.388089       -10.5604
 254   2.0000      -0.387914       -10.5557
 255   2.0000      -0.386820       -10.5259
 256   2.0000      -0.378801       -10.3077
 257   2.0000      -0.378046       -10.2872
 258   2.0000      -0.373504       -10.1636
 259   2.0000      -0.371510       -10.1093
 260   2.0000      -0.365995        -9.9592
 261   2.0000      -0.354397        -9.6436
 262   2.0000      -0.353531        -9.6201
 263   2.0000      -0.347045        -9.4436
 264   2.0000      -0.333875        -9.0852
 265   2.0000      -0.331209        -9.0127
 266   2.0000      -0.322320        -8.7708
 267   2.0000      -0.318589        -8.6693
 268   2.0000      -0.309654        -8.4261
 269   2.0000      -0.308660        -8.3991
 270   2.0000      -0.295039        -8.0284
 271   2.0000      -0.282786        -7.6950
 272   2.0000      -0.279084        -7.5943
 273   2.0000      -0.272821        -7.4238
 274   2.0000      -0.216242        -5.8843
 275   0.0000      -0.101351        -2.7579
 276   0.0000      -0.098212        -2.6725
 277   0.0000      -0.083843        -2.2815
 278   0.0000      -0.055993        -1.5236
 279   0.0000      -0.046533        -1.2662

MULLIKEN ATOMIC CHARGES
-----------------------
   0 C :    0.327392
   1 C :   -0.340619
   2 C :   -0.185737
   3 N :    0.155368
   4 C :   -0.196287
   5 N :    0.149503
   6 C :    0.008111
   7 C :   -0.001842
   8 C :   -0.070881
   9 C :    0.117756
  10 C :   -0.090998
  11 C :   -0.020039
  12 S :    0.197107
  13 C :   -0.122885
  14 C :    0.036083
  15 Br:    0.031260
  16 C :    0.168967
  17 O :   -0.233187
  18 C :   -0.131635
  19 C :    0.029644
  20 N :   -0.008439
  21 C :   -0.119257
  22 S :    0.182621
  23 C :    0.004009
  24 N :    0.275406
  25 O :   -0.245359
  26 O :   -0.251931
  27 C :    0.004021
  28 C :    0.140590
  29 C :   -0.048568
  30 C :    0.017936
  31 C :   -0.000198
  32 C :   -0.238850
  33 C :    0.087780
  34 C :    0.227832
  35 N :   -0.150224
  36 C :    0.076272
  37 C :   -0.069857
  38 C :    0.024978
  39 C :   -0.056446
  40 C :    0.061053
  41 C :    0.006843
  42 C :   -0.022021
  43 S :    0.090235
  44 C :   -0.067792
  45 C :    0.040034
  46 C :    0.027735
  47 C :   -0.014153
  48 S :    0.105873
  49 C :   -0.005877
  50 C :    0.025512
  51 C :   -0.141898
  52 C :    0.136232
  53 O :   -0.167420
  54 C :    0.007821
  55 C :   -0.090587
  56 C :    0.113259
  57 C :    0.110980
  58 C :   -0.108951
  59 C :    0.237245
  60 C :    0.236158
  61 C :   -0.108669
  62 F :   -0.180868
  63 F :   -0.178654
  64 C :   -0.087461
  65 C :    0.038661
  66 C :    0.295222
  67 C :   -0.362465
  68 C :   -0.221250
  69 N :    0.151460
  70 C :   -0.176463
  71 N :    0.125499
  72 H :   -0.014595
  73 H :   -0.002663
  74 H :   -0.003558
  75 H :    0.048132
  76 H :    0.183273
  77 H :    0.012611
  78 H :   -0.010036
  79 H :   -0.012597
  80 H :   -0.026134
  81 H :    0.029292
  82 H :    0.029629
  83 H :    0.042964
  84 H :    0.025835
  85 H :    0.052572
  86 H :    0.136915
  87 H :    0.012565
  88 H :    0.008141
  89 H :   -0.009668
  90 H :   -0.008640
  91 H :   -0.009572
  92 H :   -0.009647
  93 H :   -0.002849
  94 H :    0.003828
  95 H :    0.006375
  96 H :   -0.019633
  97 H :    0.001642
  98 H :   -0.007854
  99 H :   -0.011017
Sum of atomic charges:   -0.0000000

LOEWDIN ATOMIC CHARGES
----------------------
   0 C :    0.077977
   1 C :   -0.145228
   2 C :   -0.020241
   3 N :   -0.049403
   4 C :   -0.020712
   5 N :   -0.049509
   6 C :   -0.017847
   7 C :   -0.052491
   8 C :    0.022537
   9 C :   -0.033826
  10 C :   -0.143039
  11 C :   -0.005887
  12 S :    0.442055
  13 C :   -0.270098
  14 C :   -0.071474
  15 Br:    0.142630
  16 C :    0.097637
  17 O :   -0.185662
  18 C :   -0.146163
  19 C :    0.113182
  20 N :    0.079146
  21 C :   -0.114540
  22 S :    0.476034
  23 C :   -0.198387
  24 N :    0.273344
  25 O :   -0.211180
  26 O :   -0.218668
  27 C :    0.002356
  28 C :   -0.085253
  29 C :   -0.031368
  30 C :   -0.011720
  31 C :   -0.057914
  32 C :   -0.028169
  33 C :   -0.044706
  34 C :    0.044934
  35 N :    0.018990
  36 C :    0.067071
  37 C :   -0.132221
  38 C :    0.002747
  39 C :   -0.185673
  40 C :   -0.005465
  41 C :   -0.056008
  42 C :   -0.136476
  43 S :    0.387761
  44 C :   -0.210469
  45 C :   -0.005664
  46 C :   -0.050201
  47 C :   -0.097249
  48 S :    0.401673
  49 C :   -0.079766
  50 C :    0.050634
  51 C :   -0.120843
  52 C :    0.074741
  53 O :   -0.169828
  54 C :   -0.048300
  55 C :    0.019102
  56 C :   -0.012401
  57 C :   -0.008559
  58 C :   -0.032199
  59 C :    0.061544
  60 C :    0.061912
  61 C :   -0.036393
  62 F :   -0.057515
  63 F :   -0.056201
  64 C :    0.005668
  65 C :   -0.015298
  66 C :    0.067172
  67 C :   -0.164600
  68 C :   -0.024392
  69 N :   -0.071276
  70 C :   -0.019596
  71 N :   -0.076463
  72 H :    0.039577
  73 H :    0.042918
  74 H :    0.038512
  75 H :    0.037073
  76 H :    0.083980
  77 H :    0.045094
  78 H :    0.028894
  79 H :    0.025797
  80 H :    0.022403
  81 H :    0.033813
  82 H :    0.038014
  83 H :    0.044284
  84 H :    0.028161
  85 H :    0.043899
  86 H :    0.082661
  87 H :    0.033007
  88 H :    0.021607
  89 H :    0.035226
  90 H :    0.035613
  91 H :    0.033021
  92 H :    0.033938
  93 H :    0.038105
  94 H :    0.036837
  95 H :    0.031745
  96 H :    0.036410
  97 H :    0.045540
  98 H :    0.041868
  99 H :    0.037696

  Mayer bond orders larger than 0.100000
B(  0-C ,  1-C ) :   1.6324 B(  0-C ,  6-C ) :   1.0028 B(  0-C , 18-C ) :   1.0948
B(  1-C ,  2-C ) :   1.1427 B(  1-C ,  4-C ) :   1.1474 B(  2-C ,  3-N ) :   2.9689
B(  4-C ,  5-N ) :   2.9545 B(  6-C ,  7-C ) :   1.2719 B(  6-C , 11-C ) :   1.4241
B(  7-C ,  8-C ) :   1.4178 B(  7-C , 16-C ) :   0.9851 B(  8-C ,  9-C ) :   1.2430
B(  8-C , 72-H ) :   1.0184 B(  9-C , 10-C ) :   1.3076 B(  9-C , 14-C ) :   1.1634
B( 10-C , 11-C ) :   1.3181 B( 10-C , 12-S ) :   1.0930 B( 11-C , 73-H ) :   0.9812
B( 12-S , 13-C ) :   1.0903 B( 13-C , 14-C ) :   1.6151 B( 13-C , 15-Br) :   1.0226
B( 14-C , 74-H ) :   1.0007 B( 16-C , 17-O ) :   2.0214 B( 16-C , 18-C ) :   1.0098
B( 17-O , 76-H ) :   0.1418 B( 18-C , 19-C ) :   1.4539 B( 19-C , 20-N ) :   1.3414
B( 19-C , 75-H ) :   0.9301 B( 20-N , 21-C ) :   1.1910 B( 20-N , 76-H ) :   0.8237
B( 21-C , 22-S ) :   1.1353 B( 21-C , 28-C ) :   1.3815 B( 22-S , 23-C ) :   1.0859
B( 23-C , 24-N ) :   0.9615 B( 23-C , 27-C ) :   1.5073 B( 24-N , 25-O ) :   1.5349
B( 24-N , 26-O ) :   1.5193 B( 25-O , 26-O ) :   0.2645 B( 27-C , 28-C ) :   1.2193
B( 27-C , 77-H ) :   0.9997 B( 28-C , 29-C ) :   1.0418 B( 29-C , 30-C ) :   1.7487
B( 29-C , 78-H ) :   0.9752 B( 30-C , 31-C ) :   1.0930 B( 30-C , 79-H ) :   0.9733
B( 31-C , 32-C ) :   1.7732 B( 31-C , 80-H ) :   0.9692 B( 32-C , 33-C ) :   1.0821
B( 32-C , 34-C ) :   1.0059 B( 33-C , 81-H ) :   0.9526 B( 33-C , 82-H ) :   0.9512
B( 33-C , 83-H ) :   0.9448 B( 34-C , 35-N ) :   0.9933 B( 34-C , 84-H ) :   0.9388
B( 34-C , 85-H ) :   0.9140 B( 35-N , 36-C ) :   1.2834 B( 35-N , 86-H ) :   0.9263
B( 36-C , 37-C ) :   1.5546 B( 36-C , 87-H ) :   0.9680 B( 37-C , 38-C ) :   1.1972
B( 37-C , 88-H ) :   0.9642 B( 38-C , 39-C ) :   1.5470 B( 38-C , 89-H ) :   0.9788
B( 39-C , 40-C ) :   1.1703 B( 39-C , 43-S ) :   1.0114 B( 40-C , 41-C ) :   1.5561
B( 40-C , 90-H ) :   0.9980 B( 41-C , 42-C ) :   1.2194 B( 41-C , 91-H ) :   0.9943
B( 42-C , 43-S ) :   1.0978 B( 42-C , 44-C ) :   1.4303 B( 44-C , 45-C ) :   1.2489
B( 44-C , 48-S ) :   1.0368 B( 45-C , 46-C ) :   1.5087 B( 45-C , 92-H ) :   0.9938
B( 46-C , 47-C ) :   1.2152 B( 46-C , 93-H ) :   1.0008 B( 47-C , 48-S ) :   1.1014
B( 47-C , 49-C ) :   1.4414 B( 49-C , 50-C ) :   1.2830 B( 49-C , 94-H ) :   0.9626
B( 50-C , 51-C ) :   1.4603 B( 50-C , 95-H ) :   0.9419 B( 51-C , 52-C ) :   0.9825
B( 51-C , 66-C ) :   1.1179 B( 52-C , 53-O ) :   2.2391 B( 52-C , 54-C ) :   0.9122
B( 54-C , 55-C ) :   1.4900 B( 54-C , 65-C ) :   1.2205 B( 55-C , 56-C ) :   1.1787
B( 55-C , 96-H ) :   1.0148 B( 56-C , 57-C ) :   1.2663 B( 56-C , 61-C ) :   1.1978
B( 57-C , 58-C ) :   1.1928 B( 57-C , 64-C ) :   1.2014 B( 58-C , 59-C ) :   1.4351
B( 58-C , 61-C ) :   0.1103 B( 58-C , 97-H ) :   1.0067 B( 59-C , 60-C ) :   1.2012
B( 59-C , 63-F ) :   1.1266 B( 60-C , 61-C ) :   1.4366 B( 60-C , 62-F ) :   1.1236
B( 61-C , 98-H ) :   1.0065 B( 64-C , 65-C ) :   1.4701 B( 64-C , 99-H ) :   0.9909
B( 65-C , 66-C ) :   0.9850 B( 66-C , 67-C ) :   1.5738 B( 67-C , 68-C ) :   1.1698
B( 67-C , 70-C ) :   1.1427 B( 68-C , 69-N ) :   3.0107 B( 70-C , 71-N ) :   2.9648

-----------------------------------------------------------------------------
         ABSORPTION SPECTRUM VIA TRANSITION ELECTRIC DIPOLE MOMENTS
-----------------------------------------------------------------------------
State   Energy  Wavelength   fosc         T2         TX        TY        TZ
        (cm-1)    (nm)                  (au**2)     (au)      (au)      (au)
-----------------------------------------------------------------------------
   0   12067.8    828.7   1.550915336  42.30936  -3.09260   1.77592   5.43979
   1   17952.6    557.0   0.000103497   0.00190  -0.01720   0.03408   0.02099
   2   21448.1    466.2   0.000251002   0.00385   0.02797  -0.04788  -0.02789
   3   22175.1    451.0   0.138915565   2.06234  -0.33082   0.89361   1.07441
   4   22241.6    449.6   0.760172014  11.25178  -1.39298   2.45833   1.80776
   5   23899.7    418.4   0.055897577   0.76997  -0.43501   0.29199  -0.70391
   6   25084.7    398.6   0.108371432   1.42227  -0.53057   1.06110  -0.12178
   7   25251.3    396.0   0.159921977   2.08497   0.14830  -0.88594   1.13053
   8   26551.0    376.6   0.000869120   0.01078   0.01688  -0.07208  -0.07278
   9   27023.4    370.0   0.430017285   5.23867  -0.24596   2.18869  -0.62276
  10   27640.8    361.8   0.004577918   0.05452   0.00599  -0.03990   0.22999
  11   29029.8    344.5   0.013633701   0.15461  -0.07999  -0.30402  -0.23620
  12   29155.6    343.0   0.348028308   3.92977   0.74429  -1.48956   1.07565
  13   29773.4    335.9   0.002284838   0.02526  -0.05233   0.09791   0.11375
  14   30009.6    333.2   0.132439134   1.45289   0.56471  -1.06066  -0.09481
  15   30050.5    332.8   0.054044388   0.59207  -0.34866   0.65922   0.18958
  16   30438.6    328.5   0.075979115   0.82176  -0.36445   0.65492   0.50992
  17   30531.0    327.5   0.060532813   0.65272  -0.20628   0.32587   0.70991
  18   30861.6    324.0   0.096521436   1.02963  -0.22593   0.96475  -0.21871
  19   31715.4    315.3   0.469154396   4.86991  -0.80496   1.63468  -1.24490
  20   31897.2    313.5   0.027627580   0.28514  -0.10908   0.41138   0.32250
  21   32328.4    309.3   0.212054313   2.15942   0.09788   1.46593   0.02980
  22   32986.5    303.2   0.000342168   0.00341   0.00594   0.00391   0.05800
  23   33653.4    297.1   0.070942960   0.69399  -0.13268   0.73828   0.36240
  24   33713.1    296.6   0.017670174   0.17255   0.11055  -0.14297  -0.37402
  25   33863.7    295.3   0.000105535   0.00103  -0.00352   0.00071  -0.03183
  26   33911.3    294.9   0.161816132   1.57092  -0.31623   0.66597  -1.01361
  27   34033.3    293.8   0.432223302   4.18100   0.05805  -1.83083  -0.90867
  28   34110.1    293.2   0.002620008   0.02529   0.01861  -0.14042   0.07228
  29   34179.9    292.6   0.055860014   0.53803  -0.24619   0.57608  -0.38151
  30   34341.0    291.2   0.391232039   3.75057  -0.68022   1.43246  -1.11173
  31   35141.8    284.6   0.161532722   1.51326   0.13848   1.13802  -0.44610
  32   36597.7    273.2   0.000407421   0.00366   0.01799  -0.00228   0.05776
  33   36688.1    272.6   0.071415816   0.64083   0.48316  -0.23786   0.59230
  34   37070.7    269.8   0.640474071   5.68783  -0.20258   0.36990  -2.34733
  35   37173.9    269.0   0.068476711   0.60643   0.07299  -0.11103   0.76732
  36   37297.9    268.1   0.010389225   0.09170  -0.01676   0.00917  -0.30222
  37   37499.3    266.7   0.083348233   0.73173  -0.14939   0.77483   0.33022
  38   37900.5    263.8   0.003460847   0.03006  -0.07068   0.15813  -0.00770
  39   38059.3    262.7   0.166397907   1.43934  -0.57725   0.74427   0.74309
  40   38172.5    262.0   0.093253101   0.80424   0.16239   0.88194  -0.00700
  41   38454.3    260.0   0.032246364   0.27607  -0.15786  -0.46466   0.18771
  42   38485.6    259.8   0.065722572   0.56220   0.26638   0.68622  -0.14265
  43   39002.5    256.4   0.001903697   0.01607   0.00524  -0.06900  -0.10621
  44   39460.7    253.4   0.000446472   0.00372  -0.01482  -0.05802   0.01180
  45   39762.7    251.5   0.243998244   2.02016   0.41998   0.85471  -1.05510
  46   39811.0    251.2   0.000514565   0.00426  -0.02645  -0.05701  -0.01747
  47   39993.0    250.0   0.005607519   0.04616  -0.01814   0.03735   0.21080
  48   40176.5    248.9   0.131194244   1.07502  -0.02713   0.35377   0.97423

FINAL SINGLE POINT ENERGY     -7120.790713569144

DIPOLE MOMENT
-------------
                                X             Y             Z
Electronic contribution:    -48.01915      79.48223      83.25163
Nuclear contribution   :     42.38767     -76.40580     -79.50737
                        -----------------------------------------
Total Dipole Moment    :     -5.63148       3.07643       3.74426
                        -----------------------------------------
Magnitude (a.u.)       :      7.42950
Magnitude (Debye)      :     18.88429

Rotational constants in cm-1:     0.000954     0.000156     0.000136
Rotational constants in MHz :    28.612491     4.677111     4.077676

                             ****ORCA TERMINATED NORMALLY****
TOTAL RUN TIME: 0 days 0 hours 10 minutes 15 seconds 242 msec
