                         Program Version 4.2.0 -  RELEASE  -
|  1> # ORCA input file
|  2> # SCF done       -196.037694961320          0.000825914796
|  3> ! CAM-B3LYP def2-SVP def2/J RIJCOSX Grid4 TightSCF
|  4> %maxcore 5000
|  5> %tddft
|  6>     Mode sTDDFT
|  7>     Ethresh 5.0
|  8>     maxcore 5000
|  9> end
| 10>
| 11> %pal
| 12>   nprocs 6
| 13>   end
| 14> * xyz 0 1
| 15>    C      -14.41688         5.29274         3.00392
| 16>    C      -14.65552         6.31536         2.12840
| 17>    F      -15.54330         7.26911         2.43376
| 18>    C      -13.97305         6.37909         0.89687
| 19>    F      -14.22615         7.39194         0.05855
| 20>    C      -13.06156         5.41849         0.55724
| 21>    C      -12.79529         4.35199         1.43745
| 22>    C      -13.48385         4.28705         2.68336
| 23>    C      -13.23323         3.22483         3.58325
| 24>    C      -12.32533         2.25736         3.24672
| 25>    C      -11.64231         2.32926         1.99723
| 26>    C      -11.86157         3.34384         1.10982
| 27>    C      -10.74192         1.17665         1.88381
| 28>    O       -9.99340         0.89769         0.95051
| 29>    C      -10.90892         0.40275         3.11696
| 30>    C      -11.87674         1.06301         3.96200
| 31>    C      -12.30671         0.66020         5.19884
| 32>    C      -13.26077         1.35398         5.97140
| 33>    N      -14.03264         1.87515         6.64207
| 34>    C      -11.84645        -0.50062         5.85379
| 35>    N      -11.49656        -1.43731         6.41749
| 36>    C      -10.21171        -0.76243         3.33020
| 37>    N       -9.36489        -1.21349         2.39957
| 38>    C       -8.61814        -2.34495         2.44712
| 39>    S       -8.65257        -3.39884         3.82651
| 40>    C       -7.53326        -4.44624         3.01955
| 41>    N       -7.11377        -5.60483         3.69230
| 42>    O       -6.33333        -6.33728         3.11577
| 43>    O       -7.57035        -5.78673         4.80548
| 44>    C       -7.16579        -4.01100         1.77589
| 45>    C       -7.77958        -2.79352         1.41825
| 46>    C       -7.58171        -2.08643         0.17829
| 47>    C       -6.96914        -2.61781        -0.89513
| 48>    C       -6.72112        -1.96992        -2.16262
| 49>    C       -6.88094        -0.58099        -2.35556
| 50>    C       -6.62013         0.03581        -3.55584
| 51>    C       -6.19401        -0.76207        -4.61587
| 52>    C       -6.04676        -2.15950        -4.42857
| 53>    C       -6.28896        -2.77381        -3.22345
| 54>    O       -5.63893        -2.69213        -5.60488
| 55>    C       -5.54770        -1.62354        -6.44749
| 56>    N       -5.86254        -0.47397        -5.90237
| 57>    C       -5.14672        -1.79725        -7.78679
| 58>    C       -5.00139        -0.72415        -8.62149
| 59>    C       -4.61058        -0.75228        -9.98742
| 60>    C       -4.52279         0.47701       -10.55619
| 61>    C       -4.83404         1.53663        -9.66543
| 62>    S       -5.26862         0.91597        -8.08343
| 63>    C       -4.78941         2.88625        -9.95922
| 64>    C       -4.45699         3.48078       -11.20047
| 65>    C       -4.46417         4.84122       -11.18437
| 66>    C       -4.80158         5.39942        -9.92482
| 67>    S       -5.12553         4.12444        -8.77240
| 68>    C       -4.87261         6.72949        -9.55693
| 69>    C       -4.59667         7.77312       -10.43993
| 70>    C       -4.61679         9.11435       -10.12181
| 71>    C       -4.32141        10.20503       -11.01827
| 72>    C       -3.99801        10.12114       -12.35338
| 73>    C       -3.72147        11.23366       -13.17279
| 74>    N       -3.48568        12.09437       -13.89565
| 75>    C       -3.89503         8.93145       -13.10017
| 76>    N       -3.79118         8.00869       -13.77816
| 77>    C       -4.42580        11.44704       -10.25619
| 78>    C       -4.78708        11.13335        -8.92315
| 79>    C       -4.92692         9.66785        -8.78733
| 80>    O       -5.23164         9.06457        -7.77806
| 81>    C       -4.95759        12.09309        -7.95646
| 82>    C       -4.76034        13.42976        -8.32096
| 83>    C       -4.40023        13.73367        -9.65455
| 84>    C       -4.22948        12.76180       -10.63340
| 85>    S       -4.20280        15.44416        -9.88984
| 86>    C       -4.60055        15.72342        -8.21541
| 87>    C       -4.86859        14.59602        -7.51491
| 88>   Br       -4.62393        17.47719        -7.55023
| 89>    H      -14.94782         5.25911         3.94245
| 90>    H      -12.54796         5.48188        -0.38928
| 91>    H      -13.77006         3.20448         4.51776
| 92>    H      -11.33185         3.37645         0.16991
| 93>    H      -10.32043        -1.34948         4.23301
| 94>    H       -9.31358        -0.60866         1.55852
| 95>    H       -6.46632        -4.55502         1.16880
| 96>    H       -7.96860        -1.07902         0.12957
| 97>    H       -6.63648        -3.64570        -0.84722
| 98>    H       -7.20618         0.02491        -1.52474
| 99>    H       -6.73537         1.09897        -3.68670
|100>    H       -6.15906        -3.83786        -3.10447
|101>    H       -4.95214        -2.79931        -8.13387
|102>    H       -4.40771        -1.68013       -10.49194
|103>    H       -4.23702         0.65021       -11.57782
|104>    H       -4.22145         2.89379       -12.06943
|105>    H       -4.23413         5.44774       -12.04182
|106>    H       -5.14177         6.97042        -8.53914
|107>    H       -4.33670         7.50843       -11.45372
|108>    H       -5.23275        11.82213        -6.94923
|109>    H       -3.95334        13.04607       -11.63486
|110>    H       -5.13122        14.58522        -6.47287
|111> *
|112>
|113>                          ****END OF INPUT****

CARTESIAN COORDINATES (ANGSTROEM)
---------------------------------
  C    -14.416880    5.292740    3.003920
  C    -14.655520    6.315360    2.128400
  F    -15.543300    7.269110    2.433760
  C    -13.973050    6.379090    0.896870
  F    -14.226150    7.391940    0.058550
  C    -13.061560    5.418490    0.557240
  C    -12.795290    4.351990    1.437450
  C    -13.483850    4.287050    2.683360
  C    -13.233230    3.224830    3.583250
  C    -12.325330    2.257360    3.246720
  C    -11.642310    2.329260    1.997230
  C    -11.861570    3.343840    1.109820
  C    -10.741920    1.176650    1.883810
  O     -9.993400    0.897690    0.950510
  C    -10.908920    0.402750    3.116960
  C    -11.876740    1.063010    3.962000
  C    -12.306710    0.660200    5.198840
  C    -13.260770    1.353980    5.971400
  N    -14.032640    1.875150    6.642070
  C    -11.846450   -0.500620    5.853790
  N    -11.496560   -1.437310    6.417490
  C    -10.211710   -0.762430    3.330200
  N     -9.364890   -1.213490    2.399570
  C     -8.618140   -2.344950    2.447120
  S     -8.652570   -3.398840    3.826510
  C     -7.533260   -4.446240    3.019550
  N     -7.113770   -5.604830    3.692300
  O     -6.333330   -6.337280    3.115770
  O     -7.570350   -5.786730    4.805480
  C     -7.165790   -4.011000    1.775890
  C     -7.779580   -2.793520    1.418250
  C     -7.581710   -2.086430    0.178290
  C     -6.969140   -2.617810   -0.895130
  C     -6.721120   -1.969920   -2.162620
  C     -6.880940   -0.580990   -2.355560
  C     -6.620130    0.035810   -3.555840
  C     -6.194010   -0.762070   -4.615870
  C     -6.046760   -2.159500   -4.428570
  C     -6.288960   -2.773810   -3.223450
  O     -5.638930   -2.692130   -5.604880
  C     -5.547700   -1.623540   -6.447490
  N     -5.862540   -0.473970   -5.902370
  C     -5.146720   -1.797250   -7.786790
  C     -5.001390   -0.724150   -8.621490
  C     -4.610580   -0.752280   -9.987420
  C     -4.522790    0.477010  -10.556190
  C     -4.834040    1.536630   -9.665430
  S     -5.268620    0.915970   -8.083430
  C     -4.789410    2.886250   -9.959220
  C     -4.456990    3.480780  -11.200470
  C     -4.464170    4.841220  -11.184370
  C     -4.801580    5.399420   -9.924820
  S     -5.125530    4.124440   -8.772400
  C     -4.872610    6.729490   -9.556930
  C     -4.596670    7.773120  -10.439930
  C     -4.616790    9.114350  -10.121810
  C     -4.321410   10.205030  -11.018270
  C     -3.998010   10.121140  -12.353380
  C     -3.721470   11.233660  -13.172790
  N     -3.485680   12.094370  -13.895650
  C     -3.895030    8.931450  -13.100170
  N     -3.791180    8.008690  -13.778160
  C     -4.425800   11.447040  -10.256190
  C     -4.787080   11.133350   -8.923150
  C     -4.926920    9.667850   -8.787330
  O     -5.231640    9.064570   -7.778060
  C     -4.957590   12.093090   -7.956460
  C     -4.760340   13.429760   -8.320960
  C     -4.400230   13.733670   -9.654550
  C     -4.229480   12.761800  -10.633400
  S     -4.202800   15.444160   -9.889840
  C     -4.600550   15.723420   -8.215410
  C     -4.868590   14.596020   -7.514910
  Br    -4.623930   17.477190   -7.550230
  H    -14.947820    5.259110    3.942450
  H    -12.547960    5.481880   -0.389280
  H    -13.770060    3.204480    4.517760
  H    -11.331850    3.376450    0.169910
  H    -10.320430   -1.349480    4.233010
  H     -9.313580   -0.608660    1.558520
  H     -6.466320   -4.555020    1.168800
  H     -7.968600   -1.079020    0.129570
  H     -6.636480   -3.645700   -0.847220
  H     -7.206180    0.024910   -1.524740
  H     -6.735370    1.098970   -3.686700
  H     -6.159060   -3.837860   -3.104470
  H     -4.952140   -2.799310   -8.133870
  H     -4.407710   -1.680130  -10.491940
  H     -4.237020    0.650210  -11.577820
  H     -4.221450    2.893790  -12.069430
  H     -4.234130    5.447740  -12.041820
  H     -5.141770    6.970420   -8.539140
  H     -4.336700    7.508430  -11.453720
  H     -5.232750   11.822130   -6.949230
  H     -3.953340   13.046070  -11.634860
  H     -5.131220   14.585220   -6.472870

 Total Charge           Charge          ....    0
 Multiplicity           Mult            ....    1
 Number of Electrons    NEL             ....  558
 Basis Dimension        Dim             .... 1180

ORBITAL ENERGIES
----------------

  NO   OCC          E(Eh)            E(eV)
   0   2.0000    -482.882755    -13139.9078
   1   2.0000     -88.995817     -2421.6993
   2   2.0000     -88.971862     -2421.0474
   3   2.0000     -88.968133     -2420.9460
   4   2.0000     -88.964684     -2420.8521
   5   2.0000     -62.560499     -1702.3577
   6   2.0000     -56.394446     -1534.5709
   7   2.0000     -56.391736     -1534.4971
   8   2.0000     -56.391700     -1534.4962
   9   2.0000     -24.805037      -674.9794
  10   2.0000     -24.804276      -674.9587
  11   2.0000     -19.307807      -525.3921
  12   2.0000     -19.244968      -523.6822
  13   2.0000     -19.244128      -523.6593
  14   2.0000     -19.241235      -523.5806
  15   2.0000     -19.210025      -522.7314
  16   2.0000     -14.656402      -398.8210
  17   2.0000     -14.504071      -394.6758
  18   2.0000     -14.425791      -392.5457
  19   2.0000     -14.420982      -392.4149
  20   2.0000     -14.419370      -392.3710
  21   2.0000     -14.413850      -392.2208
  22   2.0000     -14.407901      -392.0589
  23   2.0000     -10.388847      -282.6949
  24   2.0000     -10.388281      -282.6795
  25   2.0000     -10.388075      -282.6739
  26   2.0000     -10.381191      -282.4866
  27   2.0000     -10.378012      -282.4001
  28   2.0000     -10.377075      -282.3746
  29   2.0000     -10.360310      -281.9184
  30   2.0000     -10.355361      -281.7837
  31   2.0000     -10.353689      -281.7382
  32   2.0000     -10.353041      -281.7206
  33   2.0000     -10.348730      -281.6033
  34   2.0000     -10.343738      -281.4674
  35   2.0000     -10.337871      -281.3078
  36   2.0000     -10.335374      -281.2398
  37   2.0000     -10.334914      -281.2273
  38   2.0000     -10.333850      -281.1984
  39   2.0000     -10.333298      -281.1833
  40   2.0000     -10.332342      -281.1573
  41   2.0000     -10.328034      -281.0401
  42   2.0000     -10.324121      -280.9336
  43   2.0000     -10.320870      -280.8451
  44   2.0000     -10.318859      -280.7904
  45   2.0000     -10.318526      -280.7814
  46   2.0000     -10.318011      -280.7674
  47   2.0000     -10.317167      -280.7444
  48   2.0000     -10.316930      -280.7379
  49   2.0000     -10.314799      -280.6799
  50   2.0000     -10.314059      -280.6598
  51   2.0000     -10.313861      -280.6544
  52   2.0000     -10.312829      -280.6264
  53   2.0000     -10.311856      -280.5999
  54   2.0000     -10.310915      -280.5743
  55   2.0000     -10.310537      -280.5640
  56   2.0000     -10.309244      -280.5288
  57   2.0000     -10.308975      -280.5215
  58   2.0000     -10.308802      -280.5168
  59   2.0000     -10.307623      -280.4847
  60   2.0000     -10.307093      -280.4703
  61   2.0000     -10.305460      -280.4258
  62   2.0000     -10.303874      -280.3827
  63   2.0000     -10.303041      -280.3600
  64   2.0000     -10.302567      -280.3471
  65   2.0000     -10.302558      -280.3469
  66   2.0000     -10.300322      -280.2860
  67   2.0000     -10.298767      -280.2437
  68   2.0000     -10.298052      -280.2242
  69   2.0000     -10.296026      -280.1691
  70   2.0000     -10.296026      -280.1691
  71   2.0000     -10.293479      -280.0998
  72   2.0000     -10.293308      -280.0951
  73   2.0000     -10.288487      -279.9640
  74   2.0000     -10.288234      -279.9571
  75   2.0000     -10.287663      -279.9416
  76   2.0000     -10.286487      -279.9096
  77   2.0000     -10.286127      -279.8997
  78   2.0000      -8.789947      -239.1866
  79   2.0000      -8.090974      -220.1666
  80   2.0000      -8.067818      -219.5365
  81   2.0000      -8.064671      -219.4509
  82   2.0000      -8.059417      -219.3079
  83   2.0000      -6.626249      -180.3094
  84   2.0000      -6.611670      -179.9127
  85   2.0000      -6.611498      -179.9080
  86   2.0000      -6.060607      -164.9175
  87   2.0000      -6.056259      -164.7992
  88   2.0000      -6.052477      -164.6963
  89   2.0000      -6.037518      -164.2892
  90   2.0000      -6.034314      -164.2020
  91   2.0000      -6.033226      -164.1724
  92   2.0000      -6.030179      -164.0895
  93   2.0000      -6.029344      -164.0668
  94   2.0000      -6.029050      -164.0588
  95   2.0000      -6.025752      -163.9691
  96   2.0000      -6.024858      -163.9447
  97   2.0000      -6.020378      -163.8228
  98   2.0000      -2.742074       -74.6156
  99   2.0000      -2.738063       -74.5065
 100   2.0000      -2.737899       -74.5020
 101   2.0000      -2.726328       -74.1871
 102   2.0000      -2.726299       -74.1864
 103   2.0000      -1.327932       -36.1349
 104   2.0000      -1.326687       -36.1010
 105   2.0000      -1.313028       -35.7293
 106   2.0000      -1.236387       -33.6438
 107   2.0000      -1.155967       -31.4555
 108   2.0000      -1.145983       -31.1838
 109   2.0000      -1.123810       -30.5804
 110   2.0000      -1.111203       -30.2374
 111   2.0000      -1.034050       -28.1379
 112   2.0000      -1.028952       -27.9992
 113   2.0000      -1.018096       -27.7038
 114   2.0000      -1.016777       -27.6679
 115   2.0000      -1.016621       -27.6637
 116   2.0000      -1.013368       -27.5751
 117   2.0000      -1.009374       -27.4665
 118   2.0000      -1.002167       -27.2704
 119   2.0000      -0.995997       -27.1025
 120   2.0000      -0.990014       -26.9397
 121   2.0000      -0.989829       -26.9346
 122   2.0000      -0.983792       -26.7703
 123   2.0000      -0.969545       -26.3827
 124   2.0000      -0.940611       -25.5953
 125   2.0000      -0.939507       -25.5653
 126   2.0000      -0.930511       -25.3205
 127   2.0000      -0.921720       -25.0813
 128   2.0000      -0.913394       -24.8547
 129   2.0000      -0.906509       -24.6674
 130   2.0000      -0.903533       -24.5864
 131   2.0000      -0.901028       -24.5182
 132   2.0000      -0.894772       -24.3480
 133   2.0000      -0.881555       -23.9883
 134   2.0000      -0.880642       -23.9635
 135   2.0000      -0.870121       -23.6772
 136   2.0000      -0.868188       -23.6246
 137   2.0000      -0.865083       -23.5401
 138   2.0000      -0.859494       -23.3880
 139   2.0000      -0.851492       -23.1703
 140   2.0000      -0.849649       -23.1201
 141   2.0000      -0.840371       -22.8677
 142   2.0000      -0.826037       -22.4776
 143   2.0000      -0.824041       -22.4233
 144   2.0000      -0.820705       -22.3325
 145   2.0000      -0.802775       -21.8446
 146   2.0000      -0.779145       -21.2016
 147   2.0000      -0.778448       -21.1827
 148   2.0000      -0.769854       -20.9488
 149   2.0000      -0.754966       -20.5437
 150   2.0000      -0.748224       -20.3602
 151   2.0000      -0.745568       -20.2879
 152   2.0000      -0.744385       -20.2557
 153   2.0000      -0.732595       -19.9349
 154   2.0000      -0.725591       -19.7443
 155   2.0000      -0.720306       -19.6005
 156   2.0000      -0.710624       -19.3371
 157   2.0000      -0.702865       -19.1259
 158   2.0000      -0.699440       -19.0327
 159   2.0000      -0.696156       -18.9434
 160   2.0000      -0.693041       -18.8586
 161   2.0000      -0.685396       -18.6506
 162   2.0000      -0.672561       -18.3013
 163   2.0000      -0.668787       -18.1986
 164   2.0000      -0.664694       -18.0872
 165   2.0000      -0.662403       -18.0249
 166   2.0000      -0.655139       -17.8272
 167   2.0000      -0.652592       -17.7579
 168   2.0000      -0.651314       -17.7231
 169   2.0000      -0.648127       -17.6364
 170   2.0000      -0.643174       -17.5017
 171   2.0000      -0.640449       -17.4275
 172   2.0000      -0.637808       -17.3556
 173   2.0000      -0.633147       -17.2288
 174   2.0000      -0.627445       -17.0737
 175   2.0000      -0.620633       -16.8883
 176   2.0000      -0.618001       -16.8167
 177   2.0000      -0.614955       -16.7338
 178   2.0000      -0.612999       -16.6806
 179   2.0000      -0.606198       -16.4955
 180   2.0000      -0.604648       -16.4533
 181   2.0000      -0.599686       -16.3183
 182   2.0000      -0.592455       -16.1215
 183   2.0000      -0.592339       -16.1184
 184   2.0000      -0.589405       -16.0385
 185   2.0000      -0.586034       -15.9468
 186   2.0000      -0.584984       -15.9182
 187   2.0000      -0.582834       -15.8597
 188   2.0000      -0.574592       -15.6354
 189   2.0000      -0.566172       -15.4063
 190   2.0000      -0.565388       -15.3850
 191   2.0000      -0.561806       -15.2875
 192   2.0000      -0.561583       -15.2814
 193   2.0000      -0.558510       -15.1978
 194   2.0000      -0.553724       -15.0676
 195   2.0000      -0.550192       -14.9715
 196   2.0000      -0.545377       -14.8405
 197   2.0000      -0.542465       -14.7612
 198   2.0000      -0.540922       -14.7192
 199   2.0000      -0.539158       -14.6712
 200   2.0000      -0.537245       -14.6192
 201   2.0000      -0.534594       -14.5470
 202   2.0000      -0.532705       -14.4957
 203   2.0000      -0.531578       -14.4650
 204   2.0000      -0.528531       -14.3821
 205   2.0000      -0.525102       -14.2888
 206   2.0000      -0.524616       -14.2755
 207   2.0000      -0.520951       -14.1758
 208   2.0000      -0.518127       -14.0990
 209   2.0000      -0.516458       -14.0535
 210   2.0000      -0.513772       -13.9804
 211   2.0000      -0.511235       -13.9114
 212   2.0000      -0.507955       -13.8222
 213   2.0000      -0.507452       -13.8085
 214   2.0000      -0.504666       -13.7327
 215   2.0000      -0.504101       -13.7173
 216   2.0000      -0.498848       -13.5743
 217   2.0000      -0.497567       -13.5395
 218   2.0000      -0.490011       -13.3339
 219   2.0000      -0.489092       -13.3089
 220   2.0000      -0.488364       -13.2891
 221   2.0000      -0.486610       -13.2413
 222   2.0000      -0.479612       -13.0509
 223   2.0000      -0.477804       -13.0017
 224   2.0000      -0.477203       -12.9854
 225   2.0000      -0.474231       -12.9045
 226   2.0000      -0.472287       -12.8516
 227   2.0000      -0.469153       -12.7663
 228   2.0000      -0.468676       -12.7533
 229   2.0000      -0.465835       -12.6760
 230   2.0000      -0.458706       -12.4820
 231   2.0000      -0.456683       -12.4270
 232   2.0000      -0.455459       -12.3937
 233   2.0000      -0.455002       -12.3812
 234   2.0000      -0.451954       -12.2983
 235   2.0000      -0.450870       -12.2688
 236   2.0000      -0.449685       -12.2366
 237   2.0000      -0.446230       -12.1425
 238   2.0000      -0.444071       -12.0838
 239   2.0000      -0.441308       -12.0086
 240   2.0000      -0.439277       -11.9533
 241   2.0000      -0.438640       -11.9360
 242   2.0000      -0.438509       -11.9324
 243   2.0000      -0.435041       -11.8381
 244   2.0000      -0.434977       -11.8363
 245   2.0000      -0.434893       -11.8340
 246   2.0000      -0.427965       -11.6455
 247   2.0000      -0.426108       -11.5950
 248   2.0000      -0.422873       -11.5070
 249   2.0000      -0.419399       -11.4124
 250   2.0000      -0.417908       -11.3719
 251   2.0000      -0.412450       -11.2233
 252   2.0000      -0.403783       -10.9875
 253   2.0000      -0.403154       -10.9704
 254   2.0000      -0.400969       -10.9109
 255   2.0000      -0.392137       -10.6706
 256   2.0000      -0.391619       -10.6565
 257   2.0000      -0.385687       -10.4951
 258   2.0000      -0.383562       -10.4373
 259   2.0000      -0.377894       -10.2830
 260   2.0000      -0.373562       -10.1651
 261   2.0000      -0.372302       -10.1309
 262   2.0000      -0.364182        -9.9099
 263   2.0000      -0.364157        -9.9092
 264   2.0000      -0.360672        -9.8144
 265   2.0000      -0.356533        -9.7018
 266   2.0000      -0.352359        -9.5882
 267   2.0000      -0.343662        -9.3515
 268   2.0000      -0.341918        -9.3041
 269   2.0000      -0.330475        -8.9927
 270   2.0000      -0.330201        -8.9852
 271   2.0000      -0.327903        -8.9227
 272   2.0000      -0.317947        -8.6518
 273   2.0000      -0.311219        -8.4687
 274   2.0000      -0.309524        -8.4226
 275   2.0000      -0.296613        -8.0713
 276   2.0000      -0.289366        -7.8740
 277   2.0000      -0.269828        -7.3424
 278   2.0000      -0.239090        -6.5060
 279   0.0000      -0.117612        -3.2004
 280   0.0000      -0.097206        -2.6451
 281   0.0000      -0.075996        -2.0680
 282   0.0000      -0.068672        -1.8687
 283   0.0000      -0.053896        -1.4666

MULLIKEN ATOMIC CHARGES
-----------------------
   0 C :   -0.105690
   1 C :    0.241411
   2 F :   -0.168364
   3 C :    0.239062
   4 F :   -0.169639
   5 C :   -0.103296
   6 C :    0.113588
   7 C :    0.113331
   8 C :   -0.081367
   9 C :    0.043330
  10 C :    0.004332
  11 C :   -0.077290
  12 C :    0.175368
  13 O :   -0.226972
  14 C :   -0.138535
  15 C :    0.336883
  16 C :   -0.346362
  17 C :   -0.180373
  18 N :    0.149150
  19 C :   -0.198944
  20 N :    0.149320
  21 C :    0.027123
  22 N :   -0.005251
  23 C :   -0.128053
  24 S :    0.178400
  25 C :    0.009615
  26 N :    0.274114
  27 O :   -0.245292
  28 O :   -0.252571
  29 C :   -0.004045
  30 C :    0.139546
  31 C :   -0.029167
  32 C :    0.006871
  33 C :    0.118797
  34 C :   -0.013916
  35 C :   -0.044309
  36 C :    0.034211
  37 C :    0.236059
  38 C :   -0.154983
  39 O :   -0.195775
  40 C :    0.158907
  41 N :   -0.100159
  42 C :   -0.056528
  43 C :   -0.006023
  44 C :    0.046570
  45 C :    0.035919
  46 C :   -0.035547
  47 S :    0.157426
  48 C :   -0.062747
  49 C :    0.036973
  50 C :    0.025033
  51 C :   -0.031534
  52 S :    0.142193
  53 C :    0.026806
  54 C :   -0.031296
  55 C :   -0.082129
  56 C :    0.328824
  57 C :   -0.359718
  58 C :   -0.185433
  59 N :    0.141721
  60 C :   -0.188979
  61 N :    0.129812
  62 C :    0.011946
  63 C :   -0.013830
  64 C :    0.138132
  65 O :   -0.158325
  66 C :   -0.072520
  67 C :    0.116075
  68 C :   -0.092959
  69 C :   -0.020905
  70 S :    0.183620
  71 C :   -0.123998
  72 C :    0.039383
  73 Br:    0.019920
  74 H :    0.009957
  75 H :   -0.000168
  76 H :   -0.004807
  77 H :   -0.010684
  78 H :    0.049289
  79 H :    0.184173
  80 H :    0.014780
  81 H :   -0.005935
  82 H :   -0.022150
  83 H :   -0.015142
  84 H :   -0.016271
  85 H :   -0.018723
  86 H :    0.003134
  87 H :   -0.001315
  88 H :   -0.002921
  89 H :   -0.001585
  90 H :    0.020380
  91 H :    0.013952
  92 H :   -0.005683
  93 H :   -0.013783
  94 H :   -0.007930
  95 H :   -0.005518
Sum of atomic charges:   -0.0000000

LOEWDIN ATOMIC CHARGES
----------------------
   0 C :   -0.028223
   1 C :    0.068288
   2 F :   -0.046168
   3 C :    0.068386
   4 F :   -0.047283
   5 C :   -0.032101
   6 C :   -0.010091
   7 C :   -0.005731
   8 C :    0.020239
   9 C :   -0.020015
  10 C :   -0.052847
  11 C :    0.032398
  12 C :    0.096406
  13 O :   -0.180721
  14 C :   -0.146640
  15 C :    0.078041
  16 C :   -0.147615
  17 C :   -0.019189
  18 N :   -0.053146
  19 C :   -0.020856
  20 N :   -0.051701
  21 C :    0.113594
  22 N :    0.082595
  23 C :   -0.117699
  24 S :    0.473704
  25 C :   -0.198436
  26 N :    0.272924
  27 O :   -0.211685
  28 O :   -0.219448
  29 C :    0.001503
  30 C :   -0.079233
  31 C :   -0.034752
  32 C :   -0.002170
  33 C :   -0.026758
  34 C :   -0.014583
  35 C :   -0.017943
  36 C :   -0.025585
  37 C :    0.032468
  38 C :   -0.036121
  39 O :   -0.006523
  40 C :    0.060513
  41 N :   -0.125271
  42 C :   -0.082266
  43 C :   -0.114556
  44 C :   -0.021354
  45 C :   -0.021040
  46 C :   -0.164894
  47 S :    0.439292
  48 C :   -0.176370
  49 C :   -0.005786
  50 C :   -0.032487
  51 C :   -0.105342
  52 S :    0.413916
  53 C :   -0.060966
  54 C :    0.057904
  55 C :   -0.103096
  56 C :    0.076053
  57 C :   -0.153839
  58 C :   -0.019450
  59 N :   -0.062186
  60 C :   -0.015505
  61 N :   -0.071131
  62 C :   -0.019819
  63 C :   -0.049270
  64 C :    0.082017
  65 O :   -0.153085
  66 C :    0.019160
  67 C :   -0.034025
  68 C :   -0.145220
  69 C :   -0.011299
  70 S :    0.430691
  71 C :   -0.272888
  72 C :   -0.070685
  73 Br:    0.133853
  74 H :    0.048739
  75 H :    0.045104
  76 H :    0.041222
  77 H :    0.040545
  78 H :    0.036597
  79 H :    0.085159
  80 H :    0.045140
  81 H :    0.028120
  82 H :    0.028286
  83 H :    0.030270
  84 H :    0.037813
  85 H :    0.035661
  86 H :    0.043825
  87 H :    0.038240
  88 H :    0.034556
  89 H :    0.037627
  90 H :    0.043390
  91 H :    0.035661
  92 H :    0.036936
  93 H :    0.039569
  94 H :    0.040630
  95 H :    0.038062

  Mayer bond orders larger than 0.100000
B(  0-C ,  1-C ) :   1.4365 B(  0-C ,  5-C ) :   0.1077 B(  0-C ,  7-C ) :   1.1925
B(  0-C , 74-H ) :   1.0066 B(  1-C ,  2-F ) :   1.1379 B(  1-C ,  3-C ) :   1.1947
B(  3-C ,  4-F ) :   1.1352 B(  3-C ,  5-C ) :   1.4411 B(  5-C ,  6-C ) :   1.1933
B(  5-C , 75-H ) :   1.0064 B(  6-C ,  7-C ) :   1.2583 B(  6-C , 11-C ) :   1.1858
B(  7-C ,  8-C ) :   1.2086 B(  8-C ,  9-C ) :   1.4660 B(  8-C , 76-H ) :   0.9891
B(  9-C , 10-C ) :   1.2200 B(  9-C , 15-C ) :   0.9861 B( 10-C , 11-C ) :   1.4701
B( 10-C , 12-C ) :   0.9794 B( 11-C , 77-H ) :   1.0173 B( 12-C , 13-O ) :   2.0300
B( 12-C , 14-C ) :   1.0088 B( 13-O , 79-H ) :   0.1434 B( 14-C , 15-C ) :   1.1005
B( 14-C , 21-C ) :   1.4394 B( 15-C , 16-C ) :   1.6300 B( 16-C , 17-C ) :   1.1460
B( 16-C , 19-C ) :   1.1475 B( 17-C , 18-N ) :   2.9608 B( 19-C , 20-N ) :   2.9557
B( 21-C , 22-N ) :   1.3521 B( 21-C , 78-H ) :   0.9300 B( 22-N , 23-C ) :   1.1873
B( 22-N , 79-H ) :   0.8233 B( 23-C , 24-S ) :   1.1336 B( 23-C , 30-C ) :   1.3809
B( 24-S , 25-C ) :   1.0855 B( 25-C , 26-N ) :   0.9598 B( 25-C , 29-C ) :   1.5072
B( 26-N , 27-O ) :   1.5366 B( 26-N , 28-O ) :   1.5201 B( 27-O , 28-O ) :   0.2637
B( 29-C , 30-C ) :   1.2160 B( 29-C , 80-H ) :   0.9996 B( 30-C , 31-C ) :   1.0651
B( 31-C , 32-C ) :   1.7385 B( 31-C , 81-H ) :   0.9623 B( 32-C , 33-C ) :   1.0783
B( 32-C , 82-H ) :   0.9809 B( 33-C , 34-C ) :   1.3089 B( 33-C , 38-C ) :   1.3013
B( 34-C , 35-C ) :   1.4212 B( 34-C , 83-H ) :   0.9861 B( 35-C , 36-C ) :   1.2839
B( 35-C , 84-H ) :   1.0175 B( 36-C , 37-C ) :   1.2697 B( 36-C , 41-N ) :   1.3199
B( 37-C , 38-C ) :   1.3196 B( 37-C , 39-O ) :   1.1051 B( 38-C , 85-H ) :   1.0297
B( 39-O , 40-C ) :   1.1335 B( 40-C , 41-N ) :   1.6312 B( 40-C , 42-C ) :   1.1517
B( 42-C , 43-C ) :   1.5670 B( 42-C , 86-H ) :   0.9710 B( 43-C , 44-C ) :   1.1268
B( 43-C , 47-S ) :   1.0777 B( 44-C , 45-C ) :   1.6092 B( 44-C , 87-H ) :   1.0003
B( 45-C , 46-C ) :   1.1725 B( 45-C , 88-H ) :   0.9940 B( 46-C , 47-S ) :   1.0188
B( 46-C , 48-C ) :   1.5139 B( 48-C , 49-C ) :   1.1847 B( 48-C , 52-S ) :   1.0493
B( 49-C , 50-C ) :   1.5918 B( 49-C , 89-H ) :   0.9928 B( 50-C , 51-C ) :   1.1650
B( 50-C , 90-H ) :   0.9871 B( 51-C , 52-S ) :   1.0869 B( 51-C , 53-C ) :   1.4201
B( 53-C , 54-C ) :   1.2727 B( 53-C , 91-H ) :   0.9672 B( 54-C , 55-C ) :   1.5010
B( 54-C , 92-H ) :   0.9439 B( 55-C , 56-C ) :   1.1017 B( 55-C , 64-C ) :   0.9543
B( 56-C , 57-C ) :   1.5894 B( 56-C , 62-C ) :   0.9976 B( 57-C , 58-C ) :   1.1467
B( 57-C , 60-C ) :   1.1539 B( 58-C , 59-N ) :   2.9628 B( 60-C , 61-N ) :   2.9719
B( 62-C , 63-C ) :   1.2740 B( 62-C , 69-C ) :   1.4161 B( 63-C , 64-C ) :   0.9367
B( 63-C , 66-C ) :   1.4304 B( 64-C , 65-O ) :   2.1979 B( 66-C , 67-C ) :   1.2416
B( 66-C , 93-H ) :   1.0160 B( 67-C , 68-C ) :   1.3102 B( 67-C , 72-C ) :   1.1634
B( 68-C , 69-C ) :   1.3260 B( 68-C , 70-S ) :   1.0845 B( 69-C , 94-H ) :   0.9785
B( 70-S , 71-C ) :   1.0867 B( 71-C , 72-C ) :   1.6189 B( 71-C , 73-Br) :   1.0159
B( 72-C , 95-H ) :   0.9997

-----------------------------------------------------------------------------
         ABSORPTION SPECTRUM VIA TRANSITION ELECTRIC DIPOLE MOMENTS
-----------------------------------------------------------------------------
State   Energy  Wavelength   fosc         T2         TX        TY        TZ
        (cm-1)    (nm)                  (au**2)     (au)      (au)      (au)
-----------------------------------------------------------------------------
   0   13053.6    766.1   1.738149102  43.83603  -1.08177  -5.81669   2.97185
   1   20324.7    492.0   0.889394422  14.40605   2.08691  -2.70008  -1.66146
   2   21776.5    459.2   0.176243686   2.66441   0.37752  -1.13983  -1.10574
   3   22845.9    437.7   0.035025246   0.50472   0.17817   0.01688   0.68752
   4   24352.8    410.6   0.295136655   3.98979   1.14918  -1.63038  -0.10499
   5   24809.1    403.1   0.029586618   0.39261  -0.44723  -0.29799  -0.32216
   6   24865.6    402.2   0.073954505   0.97913  -0.05392   0.89306  -0.42268
   7   25827.5    387.2   0.251842750   3.21013   0.36677  -0.77427  -1.57357
   8   26779.9    373.4   0.000103997   0.00128   0.00721  -0.01129  -0.03315
   9   27675.4    361.3   0.211436700   2.51514   0.23727  -0.61104  -1.44412
  10   28217.0    354.4   0.051609040   0.60213   0.05372  -0.22998  -0.73916
  11   28353.0    352.7   0.038527737   0.44735  -0.23264   0.62117  -0.08589
  12   28680.2    348.7   0.079159277   0.90865   0.24310   0.48176  -0.78578
  13   29552.5    338.4   0.094834404   1.05644   0.32163   0.02703  -0.97584
  14   29825.9    335.3   0.024944505   0.27533  -0.28425   0.21093  -0.38735
  15   30098.4    332.2   0.054295433   0.59388   0.34905  -0.68247  -0.07920
  16   31010.8    322.5   0.540448652   5.73742  -0.91887   2.03106  -0.87629
  17   31483.4    317.6   0.106217460   1.11068  -0.00984   0.72191   0.76775
  18   31871.2    313.8   0.418569144   4.32360   0.45267  -1.12409  -1.68970
  19   32243.9    310.1   0.238880487   2.43898   0.05921  -1.27744  -0.89646
  20   32470.9    308.0   0.102710922   1.04135   0.11606   0.95099  -0.35143
  21   32511.4    307.6   0.000709986   0.00719  -0.01573   0.07454   0.03722
  22   33128.0    301.9   0.192266867   1.91067   0.42995   0.24610  -1.29044
  23   33422.2    299.2   0.000140208   0.00138  -0.02608  -0.01598   0.02111
  24   33810.9    295.8   0.014522382   0.14140  -0.11888  -0.22516   0.27672
  25   34080.6    293.4   0.015576584   0.15047   0.01203   0.31295  -0.22888
  26   34135.9    292.9   0.585662176   5.64822   0.33581  -1.69904   1.62749
  27   34181.0    292.6   0.180173356   1.73533   0.43320  -1.19737   0.33760
  28   34492.1    289.9   0.019858425   0.18954  -0.19815   0.38631   0.03233
  29   34889.8    286.6   0.336644089   3.17649   0.01220   0.96204  -1.50027
  30   35164.0    284.4   0.007246774   0.06785  -0.07307   0.15954  -0.19249
  31   35491.0    281.8   0.000219940   0.00204   0.02191  -0.02242   0.03252
  32   35912.6    278.5   0.098717089   0.90494   0.27217  -0.04362  -0.91047
  33   36318.0    275.3   0.225039219   2.03992   0.31219   0.35932  -1.34660
  34   36567.2    273.5   0.048052219   0.43261   0.21761   0.38130  -0.48976
  35   36621.1    273.1   0.000323117   0.00290   0.01652   0.03248  -0.03971
  36   37236.0    268.6   0.025205240   0.22285  -0.11660  -0.12261   0.44070
  37   37709.8    265.2   0.060663132   0.52960  -0.32560  -0.40210   0.51176
  38   37812.0    264.5   0.004541063   0.03954   0.18678   0.00072  -0.06818
  39   37976.7    263.3   0.167706518   1.45381   0.74509  -0.75959  -0.56718
  40   38382.9    260.5   0.040481492   0.34721  -0.14623  -0.28514   0.49449
  41   38549.7    259.4   0.014586139   0.12456  -0.16427   0.25502   0.18040
  42   38788.4    257.8   0.026703998   0.22665   0.16704  -0.36136   0.26108
  43   38886.5    257.2   0.018663546   0.15801  -0.02435  -0.10815  -0.38173
  44   39383.0    253.9   0.217725552   1.82002   0.40527   0.35208  -1.23766
  45   39580.4    252.7   0.221284560   1.84055  -0.41072   0.46432   1.20676
  46   39821.6    251.1   0.005220873   0.04316  -0.05715  -0.10839   0.16777
  47   40098.0    249.4   0.067452162   0.55379  -0.49046   0.26548   0.49271

FINAL SINGLE POINT ENERGY     -7230.441646492805

DIPOLE MOMENT
-------------
                                X             Y             Z
Electronic contribution:      9.02393     160.12104     -19.08130
Nuclear contribution   :     -8.84489    -160.79438      17.55767
                        -----------------------------------------
Total Dipole Moment    :      0.17904      -0.67334      -1.52363
                        -----------------------------------------
Magnitude (a.u.)       :      1.67538
Magnitude (Debye)      :      4.25848

Rotational constants in cm-1:     0.000634     0.000211     0.000166
Rotational constants in MHz :    18.997191     6.324674     4.975906

                             ****ORCA TERMINATED NORMALLY****
TOTAL RUN TIME: 0 days 0 hours 9 minutes 38 seconds 882 msec
