                         Program Version 4.2.0 -  RELEASE  -
|  1> # ORCA input file
|  2> # SCF done       -155.495329701153          0.000422965938
|  3> ! CAM-B3LYP def2-SVP def2/J RIJCOSX Grid4 TightSCF
|  4> %maxcore 5000
|  5> %tddft
|  6>     Mode sTDDFT
|  7>     Ethresh 5.0
|  8>     maxcore 5000
|  9> end
| 10>
| 11> %pal
| 12>   nprocs 6
| 13>   end
| 14> * xyz 0 1
| 15>    C        0.35730         1.21340         4.18627
| 16>    S       -0.93317         0.30924         4.82519
| 17>    C       -0.55652         0.85993         6.42683
| 18>    C       -1.38176         0.40413         7.54482
| 19>    O       -2.31700        -0.35033         7.44008
| 20>    O       -0.97115         0.93157         8.70973
| 21>    C       -1.71939         0.54518         9.85371
| 22>    C        0.52087         1.69820         6.43647
| 23>    C        1.06412         1.91581         5.14369
| 24>    C        2.19312         2.75659         4.86008
| 25>    C        2.75468         3.01836         3.63551
| 26>    C        3.86877         3.89057         3.80558
| 27>    C        3.94703         4.17763         5.25021
| 28>    C        2.94206         3.49913         5.86367
| 29>    C        4.81726         5.06505         5.89385
| 30>    N        5.47377         5.81105         6.47019
| 31>    C        4.71374         4.37574         2.83383
| 32>    C        5.89360         5.14509         3.01788
| 33>    C        6.41967         5.48008         1.78427
| 34>    C        5.55808         4.90080         0.76561
| 35>    C        4.55475         4.21736         1.37861
| 36>    C        3.54373         3.51832         0.71187
| 37>    N        2.72998         2.95154         0.13104
| 38>    C        7.61509         6.23032         1.62271
| 39>    N        8.02429         6.93540         0.51398
| 40>    C        7.29411         7.18678        -0.70633
| 41>    C        6.02479         7.99716        -0.46493
| 42>    C        9.25487         7.58265         0.73278
| 43>    O        9.79938         8.28139        -0.10193
| 44>    C        9.63205         7.20545         2.07272
| 45>    C        8.60519         6.38562         2.59493
| 46>    C        9.00758         5.95187         3.91744
| 47>    O        8.49370         5.22225         4.73555
| 48>    N       10.25317         6.58332         4.12041
| 49>    C       10.99510         6.37641         5.33995
| 50>    C       12.10898         5.34776         5.16004
| 51>    C       10.64137         7.32605         3.03357
| 52>    C       11.84381         8.06854         2.97488
| 53>    C       12.19357         8.79762         1.88107
| 54>    C       13.37263         9.57376         1.76891
| 55>    S       13.65023        10.48179         0.30249
| 56>    C       15.14637        11.11369         0.90285
| 57>    C       15.40180        10.62266         2.18817
| 58>    C       14.40534         9.76242         2.66700
| 59>    C       16.55131        10.97045         2.91787
| 60>    N       17.48941        11.25260         3.51479
| 61>    C       15.97173        12.00747         0.17583
| 62>    C       15.67865        12.46935        -1.06294
| 63>    C       16.48037        13.37398        -1.81105
| 64>    S       15.94775        13.88162        -3.38775
| 65>    C       17.34406        14.87317        -3.57817
| 66>    C       17.55595        15.66209        -4.78708
| 67>    O       18.51063        16.37394        -4.98230
| 68>    O       16.54733        15.49904        -5.65968
| 69>    C       16.65175        16.22573        -6.87373
| 70>    C       18.17216        14.80927        -2.47959
| 71>    C       17.68802        13.96539        -1.48241
| 72>    H        0.54582         1.19404         3.13109
| 73>    H       -1.28383         1.07880        10.69424
| 74>    H       -1.65009        -0.53387        10.00546
| 75>    H       -2.76999         0.81483         9.72842
| 76>    H        0.89846         2.13658         7.34117
| 77>    H        2.43882         2.62118         2.69199
| 78>    H        2.72563         3.51312         6.91525
| 79>    H        6.30958         5.40897         3.96951
| 80>    H        5.70469         4.95512        -0.29592
| 81>    H        7.07062         6.24385        -1.21202
| 82>    H        7.98108         7.75709        -1.33943
| 83>    H        5.32999         7.46060         0.17748
| 84>    H        5.53485         8.19976        -1.41331
| 85>    H        6.27212         8.94457         0.00816
| 86>    H       10.27182         6.00777         6.07274
| 87>    H       11.39660         7.33103         5.69134
| 88>    H       11.68499         4.39309         4.85903
| 89>    H       12.63892         5.21141         6.09857
| 90>    H       12.81830         5.66617         4.39888
| 91>    H       12.48681         8.05142         3.84228
| 92>    H       11.53522         8.80276         1.02200
| 93>    H       14.45007         9.30085         3.63696
| 94>    H       16.87754        12.31826         0.67862
| 95>    H       14.76377        12.14005        -1.53925
| 96>    H       15.72719        16.04492        -7.41543
| 97>    H       17.50984        15.87608        -7.45152
| 98>    H       16.77749        17.29070        -6.66820
| 99>    H       19.09086        15.36470        -2.42467
|100>    H       18.19795        13.79035        -0.55291
|101> *
|102>
|103>                          ****END OF INPUT****

CARTESIAN COORDINATES (ANGSTROEM)
---------------------------------
  C      0.357300    1.213400    4.186270
  S     -0.933170    0.309240    4.825190
  C     -0.556520    0.859930    6.426830
  C     -1.381760    0.404130    7.544820
  O     -2.317000   -0.350330    7.440080
  O     -0.971150    0.931570    8.709730
  C     -1.719390    0.545180    9.853710
  C      0.520870    1.698200    6.436470
  C      1.064120    1.915810    5.143690
  C      2.193120    2.756590    4.860080
  C      2.754680    3.018360    3.635510
  C      3.868770    3.890570    3.805580
  C      3.947030    4.177630    5.250210
  C      2.942060    3.499130    5.863670
  C      4.817260    5.065050    5.893850
  N      5.473770    5.811050    6.470190
  C      4.713740    4.375740    2.833830
  C      5.893600    5.145090    3.017880
  C      6.419670    5.480080    1.784270
  C      5.558080    4.900800    0.765610
  C      4.554750    4.217360    1.378610
  C      3.543730    3.518320    0.711870
  N      2.729980    2.951540    0.131040
  C      7.615090    6.230320    1.622710
  N      8.024290    6.935400    0.513980
  C      7.294110    7.186780   -0.706330
  C      6.024790    7.997160   -0.464930
  C      9.254870    7.582650    0.732780
  O      9.799380    8.281390   -0.101930
  C      9.632050    7.205450    2.072720
  C      8.605190    6.385620    2.594930
  C      9.007580    5.951870    3.917440
  O      8.493700    5.222250    4.735550
  N     10.253170    6.583320    4.120410
  C     10.995100    6.376410    5.339950
  C     12.108980    5.347760    5.160040
  C     10.641370    7.326050    3.033570
  C     11.843810    8.068540    2.974880
  C     12.193570    8.797620    1.881070
  C     13.372630    9.573760    1.768910
  S     13.650230   10.481790    0.302490
  C     15.146370   11.113690    0.902850
  C     15.401800   10.622660    2.188170
  C     14.405340    9.762420    2.667000
  C     16.551310   10.970450    2.917870
  N     17.489410   11.252600    3.514790
  C     15.971730   12.007470    0.175830
  C     15.678650   12.469350   -1.062940
  C     16.480370   13.373980   -1.811050
  S     15.947750   13.881620   -3.387750
  C     17.344060   14.873170   -3.578170
  C     17.555950   15.662090   -4.787080
  O     18.510630   16.373940   -4.982300
  O     16.547330   15.499040   -5.659680
  C     16.651750   16.225730   -6.873730
  C     18.172160   14.809270   -2.479590
  C     17.688020   13.965390   -1.482410
  H      0.545820    1.194040    3.131090
  H     -1.283830    1.078800   10.694240
  H     -1.650090   -0.533870   10.005460
  H     -2.769990    0.814830    9.728420
  H      0.898460    2.136580    7.341170
  H      2.438820    2.621180    2.691990
  H      2.725630    3.513120    6.915250
  H      6.309580    5.408970    3.969510
  H      5.704690    4.955120   -0.295920
  H      7.070620    6.243850   -1.212020
  H      7.981080    7.757090   -1.339430
  H      5.329990    7.460600    0.177480
  H      5.534850    8.199760   -1.413310
  H      6.272120    8.944570    0.008160
  H     10.271820    6.007770    6.072740
  H     11.396600    7.331030    5.691340
  H     11.684990    4.393090    4.859030
  H     12.638920    5.211410    6.098570
  H     12.818300    5.666170    4.398880
  H     12.486810    8.051420    3.842280
  H     11.535220    8.802760    1.022000
  H     14.450070    9.300850    3.636960
  H     16.877540   12.318260    0.678620
  H     14.763770   12.140050   -1.539250
  H     15.727190   16.044920   -7.415430
  H     17.509840   15.876080   -7.451520
  H     16.777490   17.290700   -6.668200
  H     19.090860   15.364700   -2.424670
  H     18.197950   13.790350   -0.552910

 Total Charge           Charge          ....    0
 Multiplicity           Mult            ....    1
 Number of Electrons    NEL             ....  418
 Basis Dimension        Dim             ....  955

ORBITAL ENERGIES
----------------

  NO   OCC          E(Eh)            E(eV)
   0   2.0000     -88.980224     -2421.2750
   1   2.0000     -88.974859     -2421.1290
   2   2.0000     -88.968725     -2420.9621
   3   2.0000     -19.262992      -524.1727
   4   2.0000     -19.261427      -524.1301
   5   2.0000     -19.206036      -522.6228
   6   2.0000     -19.202242      -522.5196
   7   2.0000     -19.195744      -522.3427
   8   2.0000     -19.193817      -522.2903
   9   2.0000     -14.458598      -393.4385
  10   2.0000     -14.457640      -393.4124
  11   2.0000     -14.411848      -392.1663
  12   2.0000     -14.409561      -392.1041
  13   2.0000     -14.402157      -391.9026
  14   2.0000     -10.407043      -283.1900
  15   2.0000     -10.403294      -283.0880
  16   2.0000     -10.378380      -282.4101
  17   2.0000     -10.376538      -282.3600
  18   2.0000     -10.347542      -281.5709
  19   2.0000     -10.342349      -281.4296
  20   2.0000     -10.336533      -281.2714
  21   2.0000     -10.324469      -280.9431
  22   2.0000     -10.324395      -280.9411
  23   2.0000     -10.323183      -280.9081
  24   2.0000     -10.323043      -280.9043
  25   2.0000     -10.322303      -280.8841
  26   2.0000     -10.318143      -280.7709
  27   2.0000     -10.316466      -280.7253
  28   2.0000     -10.315156      -280.6897
  29   2.0000     -10.313927      -280.6562
  30   2.0000     -10.313150      -280.6351
  31   2.0000     -10.312302      -280.6120
  32   2.0000     -10.312063      -280.6055
  33   2.0000     -10.311645      -280.5941
  34   2.0000     -10.311579      -280.5923
  35   2.0000     -10.311189      -280.5817
  36   2.0000     -10.309474      -280.5351
  37   2.0000     -10.307370      -280.4778
  38   2.0000     -10.306926      -280.4657
  39   2.0000     -10.306395      -280.4513
  40   2.0000     -10.306168      -280.4451
  41   2.0000     -10.306027      -280.4413
  42   2.0000     -10.305269      -280.4206
  43   2.0000     -10.305212      -280.4191
  44   2.0000     -10.303424      -280.3704
  45   2.0000     -10.301669      -280.3227
  46   2.0000     -10.298665      -280.2409
  47   2.0000     -10.297656      -280.2135
  48   2.0000     -10.295136      -280.1449
  49   2.0000     -10.288353      -279.9603
  50   2.0000     -10.285460      -279.8816
  51   2.0000     -10.282925      -279.8126
  52   2.0000     -10.278793      -279.7002
  53   2.0000     -10.268368      -279.4165
  54   2.0000     -10.267905      -279.4039
  55   2.0000     -10.266922      -279.3772
  56   2.0000     -10.264248      -279.3044
  57   2.0000      -8.075766      -219.7528
  58   2.0000      -8.070297      -219.6039
  59   2.0000      -8.064196      -219.4379
  60   2.0000      -6.044881      -164.4896
  61   2.0000      -6.040847      -164.3798
  62   2.0000      -6.039364      -164.3395
  63   2.0000      -6.038051      -164.3037
  64   2.0000      -6.034933      -164.2189
  65   2.0000      -6.033269      -164.1736
  66   2.0000      -6.033127      -164.1697
  67   2.0000      -6.029117      -164.0606
  68   2.0000      -6.026754      -163.9963
  69   2.0000      -1.193889       -32.4874
  70   2.0000      -1.191591       -32.4248
  71   2.0000      -1.138166       -30.9711
  72   2.0000      -1.131265       -30.7833
  73   2.0000      -1.100366       -29.9425
  74   2.0000      -1.096418       -29.8350
  75   2.0000      -1.068189       -29.0669
  76   2.0000      -1.059753       -28.8373
  77   2.0000      -1.018329       -27.7101
  78   2.0000      -1.015146       -27.6235
  79   2.0000      -1.002646       -27.2834
  80   2.0000      -0.995200       -27.0808
  81   2.0000      -0.994222       -27.0541
  82   2.0000      -0.990478       -26.9523
  83   2.0000      -0.983282       -26.7565
  84   2.0000      -0.975216       -26.5370
  85   2.0000      -0.934797       -25.4371
  86   2.0000      -0.928960       -25.2783
  87   2.0000      -0.909058       -24.7367
  88   2.0000      -0.890386       -24.2286
  89   2.0000      -0.882042       -24.0016
  90   2.0000      -0.872904       -23.7529
  91   2.0000      -0.869537       -23.6613
  92   2.0000      -0.864568       -23.5261
  93   2.0000      -0.859541       -23.3893
  94   2.0000      -0.850984       -23.1564
  95   2.0000      -0.848289       -23.0831
  96   2.0000      -0.833678       -22.6855
  97   2.0000      -0.829105       -22.5611
  98   2.0000      -0.824739       -22.4423
  99   2.0000      -0.809447       -22.0262
 100   2.0000      -0.802942       -21.8492
 101   2.0000      -0.796649       -21.6779
 102   2.0000      -0.782866       -21.3029
 103   2.0000      -0.766773       -20.8650
 104   2.0000      -0.764451       -20.8018
 105   2.0000      -0.739638       -20.1266
 106   2.0000      -0.727507       -19.7965
 107   2.0000      -0.721626       -19.6364
 108   2.0000      -0.716400       -19.4942
 109   2.0000      -0.709872       -19.3166
 110   2.0000      -0.695019       -18.9124
 111   2.0000      -0.694222       -18.8907
 112   2.0000      -0.690386       -18.7864
 113   2.0000      -0.679869       -18.5002
 114   2.0000      -0.677963       -18.4483
 115   2.0000      -0.667528       -18.1644
 116   2.0000      -0.653848       -17.7921
 117   2.0000      -0.647087       -17.6081
 118   2.0000      -0.644256       -17.5311
 119   2.0000      -0.637776       -17.3548
 120   2.0000      -0.634752       -17.2725
 121   2.0000      -0.631418       -17.1818
 122   2.0000      -0.630010       -17.1434
 123   2.0000      -0.621719       -16.9178
 124   2.0000      -0.608531       -16.5590
 125   2.0000      -0.602931       -16.4066
 126   2.0000      -0.596717       -16.2375
 127   2.0000      -0.591630       -16.0991
 128   2.0000      -0.579322       -15.7642
 129   2.0000      -0.573695       -15.6110
 130   2.0000      -0.572574       -15.5805
 131   2.0000      -0.571862       -15.5612
 132   2.0000      -0.563961       -15.3462
 133   2.0000      -0.557672       -15.1750
 134   2.0000      -0.553814       -15.0701
 135   2.0000      -0.551708       -15.0127
 136   2.0000      -0.549907       -14.9637
 137   2.0000      -0.549503       -14.9527
 138   2.0000      -0.547346       -14.8940
 139   2.0000      -0.539631       -14.6841
 140   2.0000      -0.534831       -14.5535
 141   2.0000      -0.532539       -14.4911
 142   2.0000      -0.527960       -14.3665
 143   2.0000      -0.524971       -14.2852
 144   2.0000      -0.523374       -14.2417
 145   2.0000      -0.520234       -14.1563
 146   2.0000      -0.518584       -14.1114
 147   2.0000      -0.517284       -14.0760
 148   2.0000      -0.514406       -13.9977
 149   2.0000      -0.509892       -13.8749
 150   2.0000      -0.508588       -13.8394
 151   2.0000      -0.503538       -13.7020
 152   2.0000      -0.500545       -13.6205
 153   2.0000      -0.498006       -13.5514
 154   2.0000      -0.494615       -13.4592
 155   2.0000      -0.493972       -13.4417
 156   2.0000      -0.489266       -13.3136
 157   2.0000      -0.485284       -13.2052
 158   2.0000      -0.483824       -13.1655
 159   2.0000      -0.481909       -13.1134
 160   2.0000      -0.478798       -13.0287
 161   2.0000      -0.475750       -12.9458
 162   2.0000      -0.473848       -12.8940
 163   2.0000      -0.471082       -12.8188
 164   2.0000      -0.469271       -12.7695
 165   2.0000      -0.468419       -12.7463
 166   2.0000      -0.463935       -12.6243
 167   2.0000      -0.462555       -12.5868
 168   2.0000      -0.460706       -12.5364
 169   2.0000      -0.460572       -12.5328
 170   2.0000      -0.458164       -12.4673
 171   2.0000      -0.452291       -12.3075
 172   2.0000      -0.451515       -12.2864
 173   2.0000      -0.444538       -12.0965
 174   2.0000      -0.442913       -12.0523
 175   2.0000      -0.441814       -12.0224
 176   2.0000      -0.439873       -11.9695
 177   2.0000      -0.437327       -11.9003
 178   2.0000      -0.436737       -11.8842
 179   2.0000      -0.435605       -11.8534
 180   2.0000      -0.435054       -11.8384
 181   2.0000      -0.430947       -11.7267
 182   2.0000      -0.428408       -11.6576
 183   2.0000      -0.427974       -11.6458
 184   2.0000      -0.424247       -11.5443
 185   2.0000      -0.422008       -11.4834
 186   2.0000      -0.415115       -11.2958
 187   2.0000      -0.414901       -11.2900
 188   2.0000      -0.413355       -11.2480
 189   2.0000      -0.406204       -11.0534
 190   2.0000      -0.394481       -10.7344
 191   2.0000      -0.381373       -10.3777
 192   2.0000      -0.379395       -10.3239
 193   2.0000      -0.371561       -10.1107
 194   2.0000      -0.360769        -9.8170
 195   2.0000      -0.359974        -9.7954
 196   2.0000      -0.356165        -9.6917
 197   2.0000      -0.351932        -9.5766
 198   2.0000      -0.342336        -9.3154
 199   2.0000      -0.336717        -9.1625
 200   2.0000      -0.334208        -9.0943
 201   2.0000      -0.331369        -9.0170
 202   2.0000      -0.325891        -8.8679
 203   2.0000      -0.324298        -8.8246
 204   2.0000      -0.320740        -8.7278
 205   2.0000      -0.311552        -8.4778
 206   2.0000      -0.284826        -7.7505
 207   2.0000      -0.272207        -7.4071
 208   2.0000      -0.236108        -6.4248
 209   0.0000      -0.124933        -3.3996
 210   0.0000      -0.087195        -2.3727
 211   0.0000      -0.053839        -1.4650
 212   0.0000      -0.025061        -0.6819
 213   0.0000      -0.010754        -0.2926

MULLIKEN ATOMIC CHARGES
-----------------------
   0 C :   -0.111834
   1 S :    0.209953
   2 C :   -0.187149
   3 C :    0.210311
   4 O :   -0.202084
   5 O :   -0.306128
   6 C :    0.190677
   7 C :    0.027602
   8 C :    0.085004
   9 C :    0.137106
  10 C :   -0.136746
  11 C :    0.112556
  12 C :   -0.074654
  13 C :   -0.025708
  14 C :   -0.181849
  15 N :    0.142848
  16 C :    0.117170
  17 C :   -0.107175
  18 C :    0.034469
  19 C :   -0.028546
  20 C :   -0.101467
  21 C :   -0.174875
  22 N :    0.133721
  23 C :    0.144526
  24 N :   -0.257622
  25 C :    0.097080
  26 C :   -0.005381
  27 C :    0.161886
  28 O :   -0.221253
  29 C :   -0.078456
  30 C :   -0.040625
  31 C :    0.145758
  32 O :   -0.181860
  33 N :   -0.263105
  34 C :    0.097511
  35 C :    0.007032
  36 C :    0.152140
  37 C :   -0.034013
  38 C :    0.084048
  39 C :   -0.077695
  40 S :    0.164651
  41 C :   -0.041656
  42 C :   -0.066933
  43 C :    0.023446
  44 C :   -0.189127
  45 N :    0.130620
  46 C :   -0.009509
  47 C :    0.069530
  48 C :   -0.093563
  49 S :    0.186472
  50 C :   -0.156488
  51 C :    0.208733
  52 O :   -0.200208
  53 O :   -0.313822
  54 C :    0.188852
  55 C :    0.049629
  56 C :    0.013701
  57 H :    0.043604
  58 H :    0.034635
  59 H :    0.035100
  60 H :    0.035028
  61 H :   -0.002903
  62 H :   -0.010109
  63 H :   -0.003004
  64 H :    0.024302
  65 H :   -0.013930
  66 H :    0.023559
  67 H :    0.047706
  68 H :    0.031254
  69 H :    0.026150
  70 H :    0.027356
  71 H :    0.051046
  72 H :    0.023303
  73 H :    0.030428
  74 H :    0.025036
  75 H :    0.012904
  76 H :   -0.027451
  77 H :    0.010930
  78 H :   -0.002766
  79 H :    0.014153
  80 H :   -0.002628
  81 H :    0.035229
  82 H :    0.033582
  83 H :    0.036670
  84 H :    0.006871
  85 H :   -0.003557
Sum of atomic charges:    0.0000000

LOEWDIN ATOMIC CHARGES
----------------------
   0 C :   -0.150769
   1 S :    0.513986
   2 C :   -0.223905
   3 C :    0.064470
   4 O :   -0.179622
   5 O :   -0.096367
   6 C :    0.082834
   7 C :   -0.015592
   8 C :   -0.073283
   9 C :    0.003249
  10 C :   -0.040133
  11 C :    0.050353
  12 C :   -0.073614
  13 C :    0.048745
  14 C :   -0.034264
  15 N :   -0.052530
  16 C :    0.025338
  17 C :    0.012481
  18 C :   -0.039829
  19 C :    0.044062
  20 C :   -0.082014
  21 C :   -0.029723
  22 N :   -0.068850
  23 C :    0.065981
  24 N :   -0.000684
  25 C :    0.034706
  26 C :   -0.061026
  27 C :    0.078846
  28 O :   -0.208504
  29 C :   -0.128620
  30 C :   -0.102628
  31 C :    0.084036
  32 O :   -0.174963
  33 N :   -0.000569
  34 C :    0.036593
  35 C :   -0.060535
  36 C :    0.086405
  37 C :   -0.049417
  38 C :    0.017683
  39 C :   -0.170370
  40 S :    0.476759
  41 C :   -0.131645
  42 C :   -0.107021
  43 C :   -0.013182
  44 C :   -0.033992
  45 N :   -0.054405
  46 C :   -0.037588
  47 C :   -0.021719
  48 C :   -0.166522
  49 S :    0.477464
  50 C :   -0.226381
  51 C :    0.066076
  52 O :   -0.177156
  53 O :   -0.105224
  54 C :    0.082516
  55 C :   -0.011957
  56 C :   -0.048000
  57 H :    0.031891
  58 H :    0.026181
  59 H :    0.024463
  60 H :    0.024474
  61 H :    0.034848
  62 H :    0.030670
  63 H :    0.035298
  64 H :    0.038613
  65 H :    0.033995
  66 H :    0.019032
  67 H :    0.038578
  68 H :    0.024676
  69 H :    0.032909
  70 H :    0.032437
  71 H :    0.041145
  72 H :    0.023033
  73 H :    0.032969
  74 H :    0.031529
  75 H :    0.020800
  76 H :    0.028179
  77 H :    0.037443
  78 H :    0.038447
  79 H :    0.042059
  80 H :    0.025980
  81 H :    0.026506
  82 H :    0.024151
  83 H :    0.024553
  84 H :    0.041755
  85 H :    0.033405

  Mayer bond orders larger than 0.100000
B(  0-C ,  1-S ) :   1.2225 B(  0-C ,  8-C ) :   1.4985 B(  0-C , 57-H ) :   0.9624
B(  1-S ,  2-C ) :   1.1534 B(  2-C ,  3-C ) :   0.9680 B(  2-C ,  7-C ) :   1.5322
B(  3-C ,  4-O ) :   2.1449 B(  3-C ,  5-O ) :   1.2400 B(  5-O ,  6-C ) :   0.9203
B(  6-C , 58-H ) :   0.9810 B(  6-C , 59-H ) :   0.9769 B(  6-C , 60-H ) :   0.9760
B(  7-C ,  8-C ) :   1.2273 B(  7-C , 61-H ) :   0.9993 B(  8-C ,  9-C ) :   1.0256
B(  9-C , 10-C ) :   1.5849 B(  9-C , 13-C ) :   1.0506 B( 10-C , 11-C ) :   1.1223
B( 10-C , 62-H ) :   1.0023 B( 11-C , 12-C ) :   1.1002 B( 11-C , 16-C ) :   1.3880
B( 12-C , 13-C ) :   1.6742 B( 12-C , 14-C ) :   1.0842 B( 13-C , 63-H ) :   1.0178
B( 14-C , 15-N ) :   2.9809 B( 16-C , 17-C ) :   1.1158 B( 16-C , 20-C ) :   1.1074
B( 17-C , 18-C ) :   1.5449 B( 17-C , 64-H ) :   0.9944 B( 18-C , 19-C ) :   1.0313
B( 18-C , 23-C ) :   1.0343 B( 19-C , 20-C ) :   1.6565 B( 19-C , 65-H ) :   1.0283
B( 20-C , 21-C ) :   1.0842 B( 21-C , 22-N ) :   2.9700 B( 23-C , 24-N ) :   1.1899
B( 23-C , 30-C ) :   1.3893 B( 24-N , 25-C ) :   0.9439 B( 24-N , 27-C ) :   1.0549
B( 25-C , 26-C ) :   1.1181 B( 25-C , 66-H ) :   0.9507 B( 25-C , 67-H ) :   0.9222
B( 26-C , 68-H ) :   0.9659 B( 26-C , 69-H ) :   0.9660 B( 26-C , 70-H ) :   0.9614
B( 27-C , 28-O ) :   2.0004 B( 27-C , 29-C ) :   1.0045 B( 28-O , 77-H ) :   0.1213
B( 29-C , 30-C ) :   1.2468 B( 29-C , 36-C ) :   1.3017 B( 30-C , 31-C ) :   0.9648
B( 31-C , 32-O ) :   2.1035 B( 31-C , 33-N ) :   1.0340 B( 33-N , 34-C ) :   0.9444
B( 33-N , 36-C ) :   1.1723 B( 34-C , 35-C ) :   1.1208 B( 34-C , 71-H ) :   0.9273
B( 34-C , 72-H ) :   0.9496 B( 35-C , 73-H ) :   0.9633 B( 35-C , 74-H ) :   0.9680
B( 35-C , 75-H ) :   0.9682 B( 36-C , 37-C ) :   1.1795 B( 37-C , 38-C ) :   1.6100
B( 37-C , 76-H ) :   0.9618 B( 38-C , 39-C ) :   1.1327 B( 38-C , 77-H ) :   0.9311
B( 39-C , 40-S ) :   1.1165 B( 39-C , 43-C ) :   1.4647 B( 40-S , 41-C ) :   1.1389
B( 41-C , 42-C ) :   1.4243 B( 41-C , 46-C ) :   1.1939 B( 42-C , 43-C ) :   1.3003
B( 42-C , 44-C ) :   1.1015 B( 43-C , 78-H ) :   0.9982 B( 44-C , 45-N ) :   3.0194
B( 46-C , 47-C ) :   1.6663 B( 46-C , 79-H ) :   0.9611 B( 47-C , 48-C ) :   1.1200
B( 47-C , 80-H ) :   0.9637 B( 48-C , 49-S ) :   1.1414 B( 48-C , 50-C ) :   0.1045
B( 48-C , 56-C ) :   1.4745 B( 49-S , 50-C ) :   1.1351 B( 50-C , 51-C ) :   0.9748
B( 50-C , 55-C ) :   1.5130 B( 51-C , 52-O ) :   2.1422 B( 51-C , 53-O ) :   1.2294
B( 53-O , 54-C ) :   0.9211 B( 54-C , 81-H ) :   0.9815 B( 54-C , 82-H ) :   0.9785
B( 54-C , 83-H ) :   0.9752 B( 55-C , 56-C ) :   1.2876 B( 55-C , 84-H ) :   1.0018
B( 56-C , 85-H ) :   0.9952

-----------------------------------------------------------------------------
         ABSORPTION SPECTRUM VIA TRANSITION ELECTRIC DIPOLE MOMENTS
-----------------------------------------------------------------------------
State   Energy  Wavelength   fosc         T2         TX        TY        TZ
        (cm-1)    (nm)                  (au**2)     (au)      (au)      (au)
-----------------------------------------------------------------------------
   0    9155.1   1092.3   0.499844712  17.97419  -3.55073  -2.04274   1.09258
   1   15974.0    626.0   0.083622531   1.72340   0.85475   0.55517  -0.82740
   2   17570.4    569.1   0.586957268  10.99764   2.68173   1.92974  -0.28645
   3   20691.4    483.3   0.067859293   1.07968  -0.77781  -0.64353   0.24611
   4   21530.1    464.5   0.288591650   4.41279  -1.07022  -1.30263   1.25322
   5   24439.8    409.2   0.029365056   0.39556   0.02846  -0.28733   0.55874
   6   25642.4    390.0   0.363942612   4.67251  -0.16906   0.96873  -1.92497
   7   26096.1    383.2   0.157990872   1.99311   1.19891   0.57555  -0.47377
   8   26281.3    380.5   0.437867876   5.48493   1.05190   1.40958  -1.54646
   9   26579.4    376.2   0.351504920   4.35373  -1.02941  -1.03725   1.48935
  10   29014.0    344.7   0.191429933   2.17209   0.92027   0.62871  -0.96432
  11   30510.3    327.8   0.000651227   0.00703   0.02949   0.00409   0.07836
  12   31463.7    317.8   0.051782916   0.54182   0.62162   0.24066   0.31223
  13   31668.5    315.8   0.029293317   0.30452  -0.38007  -0.32512   0.23317
  14   31974.5    312.7   0.020188112   0.20786  -0.16804  -0.29901   0.30036
  15   33101.8    302.1   0.021960150   0.21840   0.21079  -0.15063   0.38895
  16   33654.9    297.1   0.088138990   0.86217  -0.20357   0.28421  -0.86021
  17   34027.8    293.9   0.106231098   1.02776   0.58567   0.59724  -0.57277
  18   34542.8    289.5   0.065620994   0.62540   0.62993   0.37270  -0.29947
  19   34795.1    287.4   0.051016562   0.48269  -0.49309  -0.45797   0.17268
  20   35394.4    282.5   0.062623217   0.58247   0.15047  -0.15997  -0.73092
  21   36107.6    277.0   0.068129624   0.62117  -0.23907   0.12638  -0.74030
  22   36373.9    274.9   0.013773562   0.12466  -0.03107  -0.03554   0.34990
  23   36531.9    273.7   0.019688409   0.17742   0.29299   0.15031   0.26265
  24   36980.2    270.4   0.053245490   0.47401  -0.30548  -0.08169   0.61157
  25   37207.0    268.8   0.023295355   0.20612  -0.23749   0.02711  -0.38598
  26   37936.8    263.6   0.005408787   0.04694  -0.17378  -0.10546  -0.07493
  27   38322.7    260.9   0.000111358   0.00096   0.02146   0.01450  -0.01690
  28   39039.4    256.2   0.024565944   0.20716  -0.37801  -0.14015  -0.21126
  29   39918.7    250.5   0.090912986   0.74976   0.42328   0.22669  -0.72056
  30   40124.3    249.2   0.017839701   0.14637   0.05256   0.01775  -0.37854

FINAL SINGLE POINT ENERGY     -3572.323756378445

DIPOLE MOMENT
-------------
                                X             Y             Z
Electronic contribution:     -6.14450      -5.18244      -2.11688
Nuclear contribution   :      5.80845       5.28421       1.79364
                        -----------------------------------------
Total Dipole Moment    :     -0.33605       0.10176      -0.32324
                        -----------------------------------------
Magnitude (a.u.)       :      0.47726
Magnitude (Debye)      :      1.21309

Rotational constants in cm-1:     0.003710     0.000289     0.000272
Rotational constants in MHz :   111.218521     8.660125     8.149852

                             ****ORCA TERMINATED NORMALLY****
TOTAL RUN TIME: 0 days 0 hours 6 minutes 38 seconds 729 msec
