                         Program Version 4.2.0 -  RELEASE  -
|  1> # ORCA input file
|  2> # SCF done       -180.054633061888          0.000399360175
|  3> ! CAM-B3LYP def2-SVP def2/J RIJCOSX Grid4 TightSCF
|  4> %maxcore 5000
|  5> %tddft
|  6>     Mode sTDDFT
|  7>     Ethresh 5.0
|  8>     maxcore 5000
|  9> end
| 10>
| 11> %pal
| 12>   nprocs 6
| 13>   end
| 14> * xyz 0 1
| 15>    C       -3.43369         1.10617        -7.94244
| 16>    O       -4.07342        -0.04017        -7.76147
| 17>    C       -4.89621         0.10729        -6.69530
| 18>    C       -4.78084         1.37782        -6.19220
| 19>    C       -3.82618         2.03626        -7.00977
| 20>    C       -3.34428         3.41857        -6.90617
| 21>    O       -2.50075         3.90656        -7.61569
| 22>    O       -3.95620         4.08018        -5.91274
| 23>    C       -3.56803         5.43494        -5.74260
| 24>    C       -5.79114        -0.97481        -6.34138
| 25>    C       -6.72754        -1.52402        -7.18650
| 26>    N       -7.07022        -1.07730        -8.48090
| 27>    O       -7.87986        -1.74234        -9.10157
| 28>    O       -6.56770        -0.04709        -8.89196
| 29>    C       -7.43764        -2.58510        -6.50872
| 30>    C       -6.89882        -2.73084        -5.28059
| 31>    C       -5.81857        -1.77991        -5.11626
| 32>    C       -4.93630        -1.71746        -4.06090
| 33>    C       -4.11013        -0.61380        -3.67449
| 34>    C       -3.63526        -0.84729        -2.42473
| 35>    C       -4.08123        -2.13839        -1.97283
| 36>    N       -3.66408        -2.62422        -0.72462
| 37>    O       -2.74596        -2.03548        -0.17859
| 38>    O       -4.23676        -3.58490        -0.22761
| 39>    C       -4.82134        -2.74292        -2.99213
| 40>    C       -5.20728        -4.07600        -3.23332
| 41>    C       -5.41852        -5.07927        -2.32551
| 42>    C       -5.79552        -6.37227        -2.73478
| 43>    N       -6.08728        -7.39227        -1.86342
| 44>    C       -6.07102        -7.31714        -0.42065
| 45>    C       -7.34502        -6.67645         0.12282
| 46>    C       -6.48914        -8.56252        -2.52655
| 47>    O       -6.77643        -9.59487        -1.95937
| 48>    C       -6.42805        -8.21191        -3.93424
| 49>    C       -5.98050        -6.87864        -4.03226
| 50>    C       -5.87802        -6.54639        -5.43800
| 51>    O       -5.54216        -5.53205        -6.01575
| 52>    N       -6.28162        -7.71900        -6.10365
| 53>    C       -6.28170        -7.79316        -7.54517
| 54>    C       -5.04175        -8.51059        -8.07295
| 55>    C       -6.62269        -8.71503        -5.22597
| 56>    C       -7.12109        -9.98422        -5.62030
| 57>    C       -7.65299       -10.84873        -4.72593
| 58>    C       -8.19604       -12.13496        -5.05996
| 59>    C       -7.80787       -12.92146        -6.11464
| 60>    S       -8.61479       -14.43028        -6.15424
| 61>    C       -9.51621       -14.03072        -4.75551
| 62>    C       -9.20136       -12.79469        -4.27103
| 63>    C       -9.89128       -12.15568        -3.13978
| 64>    O       -9.92364       -10.97217        -2.92343
| 65>    O      -10.52902       -13.07941        -2.37999
| 66>    C      -11.22920       -12.64162        -1.29289
| 67>    C      -11.91019       -13.50073        -0.52822
| 68>    C      -12.65887       -13.08567         0.62118
| 69>    O      -12.68154       -11.78454         0.96887
| 70>    C      -13.44626       -11.66214         2.06901
| 71>    C      -13.93366       -12.86775         2.45577
| 72>    C      -13.42851       -13.81333         1.51916
| 73>    C      -13.72771       -15.24524         1.58287
| 74>    O      -14.41706       -15.75221         2.43313
| 75>    O      -13.15529       -15.95208         0.58947
| 76>    C      -13.41668       -17.34806         0.60703
| 77>    H       -2.72340         1.17503        -8.74239
| 78>    H       -5.33163         1.80938        -5.38204
| 79>    H       -4.14297         5.81264        -4.90110
| 80>    H       -3.78725         6.00798        -6.64580
| 81>    H       -2.49733         5.50033        -5.53815
| 82>    H       -8.26029        -3.11801        -6.94416
| 83>    H       -7.25471        -3.38303        -4.50844
| 84>    H       -3.96248         0.27588        -4.25087
| 85>    H       -3.02097        -0.20044        -1.82670
| 86>    H       -5.33840        -4.31669        -4.28027
| 87>    H       -5.33040        -4.88242        -1.26876
| 88>    H       -5.18932        -6.76091        -0.09447
| 89>    H       -5.99686        -8.34795        -0.06371
| 90>    H       -7.44638        -5.65337        -0.23141
| 91>    H       -7.31326        -6.66603         1.20831
| 92>    H       -8.21444        -7.24659        -0.19611
| 93>    H       -6.28545        -6.75981        -7.90286
| 94>    H       -7.19559        -8.28740        -7.88499
| 95>    H       -4.14557        -7.97858        -7.76361
| 96>    H       -5.06928        -8.54056        -9.15845
| 97>    H       -4.98650        -9.52892        -7.69416
| 98>    H       -7.11449       -10.22588        -6.67350
| 99>    H       -7.71618       -10.56521        -3.68422
|100>    H       -7.05165       -12.71091        -6.84435
|101>    H      -10.24414       -14.71576        -4.36920
|102>    H      -11.18905       -11.57554        -1.10774
|103>    H      -11.92210       -14.55446        -0.75256
|104>    H      -13.56360       -10.67641         2.47338
|105>    H      -14.56789       -13.09167         3.28740
|106>    H      -12.88447       -17.76823        -0.24251
|107>    H      -14.48899       -17.53451         0.51924
|108>    H      -13.06059       -17.78936         1.54011
|109> *
|110>
|111>                          ****END OF INPUT****

CARTESIAN COORDINATES (ANGSTROEM)
---------------------------------
  C     -3.433690    1.106170   -7.942440
  O     -4.073420   -0.040170   -7.761470
  C     -4.896210    0.107290   -6.695300
  C     -4.780840    1.377820   -6.192200
  C     -3.826180    2.036260   -7.009770
  C     -3.344280    3.418570   -6.906170
  O     -2.500750    3.906560   -7.615690
  O     -3.956200    4.080180   -5.912740
  C     -3.568030    5.434940   -5.742600
  C     -5.791140   -0.974810   -6.341380
  C     -6.727540   -1.524020   -7.186500
  N     -7.070220   -1.077300   -8.480900
  O     -7.879860   -1.742340   -9.101570
  O     -6.567700   -0.047090   -8.891960
  C     -7.437640   -2.585100   -6.508720
  C     -6.898820   -2.730840   -5.280590
  C     -5.818570   -1.779910   -5.116260
  C     -4.936300   -1.717460   -4.060900
  C     -4.110130   -0.613800   -3.674490
  C     -3.635260   -0.847290   -2.424730
  C     -4.081230   -2.138390   -1.972830
  N     -3.664080   -2.624220   -0.724620
  O     -2.745960   -2.035480   -0.178590
  O     -4.236760   -3.584900   -0.227610
  C     -4.821340   -2.742920   -2.992130
  C     -5.207280   -4.076000   -3.233320
  C     -5.418520   -5.079270   -2.325510
  C     -5.795520   -6.372270   -2.734780
  N     -6.087280   -7.392270   -1.863420
  C     -6.071020   -7.317140   -0.420650
  C     -7.345020   -6.676450    0.122820
  C     -6.489140   -8.562520   -2.526550
  O     -6.776430   -9.594870   -1.959370
  C     -6.428050   -8.211910   -3.934240
  C     -5.980500   -6.878640   -4.032260
  C     -5.878020   -6.546390   -5.438000
  O     -5.542160   -5.532050   -6.015750
  N     -6.281620   -7.719000   -6.103650
  C     -6.281700   -7.793160   -7.545170
  C     -5.041750   -8.510590   -8.072950
  C     -6.622690   -8.715030   -5.225970
  C     -7.121090   -9.984220   -5.620300
  C     -7.652990  -10.848730   -4.725930
  C     -8.196040  -12.134960   -5.059960
  C     -7.807870  -12.921460   -6.114640
  S     -8.614790  -14.430280   -6.154240
  C     -9.516210  -14.030720   -4.755510
  C     -9.201360  -12.794690   -4.271030
  C     -9.891280  -12.155680   -3.139780
  O     -9.923640  -10.972170   -2.923430
  O    -10.529020  -13.079410   -2.379990
  C    -11.229200  -12.641620   -1.292890
  C    -11.910190  -13.500730   -0.528220
  C    -12.658870  -13.085670    0.621180
  O    -12.681540  -11.784540    0.968870
  C    -13.446260  -11.662140    2.069010
  C    -13.933660  -12.867750    2.455770
  C    -13.428510  -13.813330    1.519160
  C    -13.727710  -15.245240    1.582870
  O    -14.417060  -15.752210    2.433130
  O    -13.155290  -15.952080    0.589470
  C    -13.416680  -17.348060    0.607030
  H     -2.723400    1.175030   -8.742390
  H     -5.331630    1.809380   -5.382040
  H     -4.142970    5.812640   -4.901100
  H     -3.787250    6.007980   -6.645800
  H     -2.497330    5.500330   -5.538150
  H     -8.260290   -3.118010   -6.944160
  H     -7.254710   -3.383030   -4.508440
  H     -3.962480    0.275880   -4.250870
  H     -3.020970   -0.200440   -1.826700
  H     -5.338400   -4.316690   -4.280270
  H     -5.330400   -4.882420   -1.268760
  H     -5.189320   -6.760910   -0.094470
  H     -5.996860   -8.347950   -0.063710
  H     -7.446380   -5.653370   -0.231410
  H     -7.313260   -6.666030    1.208310
  H     -8.214440   -7.246590   -0.196110
  H     -6.285450   -6.759810   -7.902860
  H     -7.195590   -8.287400   -7.884990
  H     -4.145570   -7.978580   -7.763610
  H     -5.069280   -8.540560   -9.158450
  H     -4.986500   -9.528920   -7.694160
  H     -7.114490  -10.225880   -6.673500
  H     -7.716180  -10.565210   -3.684220
  H     -7.051650  -12.710910   -6.844350
  H    -10.244140  -14.715760   -4.369200
  H    -11.189050  -11.575540   -1.107740
  H    -11.922100  -14.554460   -0.752560
  H    -13.563600  -10.676410    2.473380
  H    -14.567890  -13.091670    3.287400
  H    -12.884470  -17.768230   -0.242510
  H    -14.488990  -17.534510    0.519240
  H    -13.060590  -17.789360    1.540110

 Total Charge           Charge          ....    0
 Multiplicity           Mult            ....    1
 Number of Electrons    NEL             ....  446
 Basis Dimension        Dim             .... 1032

ORBITAL ENERGIES
----------------

  NO   OCC          E(Eh)            E(eV)
   0   2.0000     -88.983366     -2421.3605
   1   2.0000     -19.297235      -525.1045
   2   2.0000     -19.294001      -525.0164
   3   2.0000     -19.288747      -524.8735
   4   2.0000     -19.257459      -524.0221
   5   2.0000     -19.254192      -523.9332
   6   2.0000     -19.235438      -523.4229
   7   2.0000     -19.232822      -523.3517
   8   2.0000     -19.232694      -523.3482
   9   2.0000     -19.231694      -523.3210
  10   2.0000     -19.222562      -523.0725
  11   2.0000     -19.206413      -522.6331
  12   2.0000     -19.196280      -522.3573
  13   2.0000     -19.194171      -522.2999
  14   2.0000     -19.189553      -522.1743
  15   2.0000     -14.642969      -398.4555
  16   2.0000     -14.640601      -398.3910
  17   2.0000     -14.463864      -393.5818
  18   2.0000     -14.454267      -393.3206
  19   2.0000     -10.421160      -283.5742
  20   2.0000     -10.396603      -282.9059
  21   2.0000     -10.394891      -282.8594
  22   2.0000     -10.386115      -282.6206
  23   2.0000     -10.374623      -282.3078
  24   2.0000     -10.349984      -281.6374
  25   2.0000     -10.342303      -281.4284
  26   2.0000     -10.339771      -281.3595
  27   2.0000     -10.338984      -281.3381
  28   2.0000     -10.335861      -281.2531
  29   2.0000     -10.334141      -281.2063
  30   2.0000     -10.326693      -281.0036
  31   2.0000     -10.325796      -280.9792
  32   2.0000     -10.323425      -280.9147
  33   2.0000     -10.322087      -280.8783
  34   2.0000     -10.321882      -280.8727
  35   2.0000     -10.321196      -280.8540
  36   2.0000     -10.320258      -280.8285
  37   2.0000     -10.319861      -280.8177
  38   2.0000     -10.317594      -280.7560
  39   2.0000     -10.316967      -280.7389
  40   2.0000     -10.316664      -280.7307
  41   2.0000     -10.312708      -280.6230
  42   2.0000     -10.305028      -280.4141
  43   2.0000     -10.304658      -280.4040
  44   2.0000     -10.303519      -280.3730
  45   2.0000     -10.300148      -280.2813
  46   2.0000     -10.296289      -280.1763
  47   2.0000     -10.295254      -280.1481
  48   2.0000     -10.294802      -280.1358
  49   2.0000     -10.294380      -280.1243
  50   2.0000     -10.285379      -279.8794
  51   2.0000     -10.280056      -279.7346
  52   2.0000     -10.278728      -279.6984
  53   2.0000     -10.277871      -279.6751
  54   2.0000     -10.277541      -279.6661
  55   2.0000     -10.276860      -279.6476
  56   2.0000     -10.276612      -279.6408
  57   2.0000     -10.274029      -279.5705
  58   2.0000     -10.271830      -279.5107
  59   2.0000     -10.269010      -279.4340
  60   2.0000     -10.266808      -279.3741
  61   2.0000     -10.259724      -279.1813
  62   2.0000      -8.079705      -219.8600
  63   2.0000      -6.048809      -164.5965
  64   2.0000      -6.044299      -164.4737
  65   2.0000      -6.042429      -164.4229
  66   2.0000      -1.312544       -35.7161
  67   2.0000      -1.311978       -35.7007
  68   2.0000      -1.219257       -33.1777
  69   2.0000      -1.217816       -33.1385
  70   2.0000      -1.213950       -33.0333
  71   2.0000      -1.186324       -32.2815
  72   2.0000      -1.184348       -32.2277
  73   2.0000      -1.144517       -31.1439
  74   2.0000      -1.130451       -30.7611
  75   2.0000      -1.129167       -30.7262
  76   2.0000      -1.128894       -30.7188
  77   2.0000      -1.122239       -30.5377
  78   2.0000      -1.090433       -29.6722
  79   2.0000      -1.088827       -29.6285
  80   2.0000      -1.073072       -29.1998
  81   2.0000      -1.059955       -28.8428
  82   2.0000      -1.010924       -27.5086
  83   2.0000      -1.008562       -27.4444
  84   2.0000      -0.990816       -26.9615
  85   2.0000      -0.934820       -25.4377
  86   2.0000      -0.918895       -25.0044
  87   2.0000      -0.912448       -24.8290
  88   2.0000      -0.911020       -24.7901
  89   2.0000      -0.908769       -24.7289
  90   2.0000      -0.904394       -24.6098
  91   2.0000      -0.900862       -24.5137
  92   2.0000      -0.880360       -23.9558
  93   2.0000      -0.876959       -23.8633
  94   2.0000      -0.872491       -23.7417
  95   2.0000      -0.871232       -23.7074
  96   2.0000      -0.853109       -23.2143
  97   2.0000      -0.842192       -22.9172
  98   2.0000      -0.829098       -22.5609
  99   2.0000      -0.824649       -22.4398
 100   2.0000      -0.817680       -22.2502
 101   2.0000      -0.813013       -22.1232
 102   2.0000      -0.810582       -22.0571
 103   2.0000      -0.787390       -21.4260
 104   2.0000      -0.780105       -21.2277
 105   2.0000      -0.764323       -20.7983
 106   2.0000      -0.760175       -20.6854
 107   2.0000      -0.754779       -20.5386
 108   2.0000      -0.723879       -19.6978
 109   2.0000      -0.721271       -19.6268
 110   2.0000      -0.718701       -19.5569
 111   2.0000      -0.713692       -19.4205
 112   2.0000      -0.713226       -19.4079
 113   2.0000      -0.699060       -19.0224
 114   2.0000      -0.692446       -18.8424
 115   2.0000      -0.682865       -18.5817
 116   2.0000      -0.679676       -18.4949
 117   2.0000      -0.676555       -18.4100
 118   2.0000      -0.669052       -18.2058
 119   2.0000      -0.663449       -18.0534
 120   2.0000      -0.660617       -17.9763
 121   2.0000      -0.654582       -17.8121
 122   2.0000      -0.648510       -17.6469
 123   2.0000      -0.645175       -17.5561
 124   2.0000      -0.638327       -17.3698
 125   2.0000      -0.633681       -17.2433
 126   2.0000      -0.626011       -17.0346
 127   2.0000      -0.623765       -16.9735
 128   2.0000      -0.621377       -16.9085
 129   2.0000      -0.620504       -16.8848
 130   2.0000      -0.614436       -16.7197
 131   2.0000      -0.612128       -16.6569
 132   2.0000      -0.599452       -16.3119
 133   2.0000      -0.598734       -16.2924
 134   2.0000      -0.591205       -16.0875
 135   2.0000      -0.587297       -15.9812
 136   2.0000      -0.586656       -15.9637
 137   2.0000      -0.578678       -15.7466
 138   2.0000      -0.574508       -15.6332
 139   2.0000      -0.572740       -15.5851
 140   2.0000      -0.571318       -15.5464
 141   2.0000      -0.570047       -15.5118
 142   2.0000      -0.569349       -15.4928
 143   2.0000      -0.568230       -15.4623
 144   2.0000      -0.565313       -15.3829
 145   2.0000      -0.562403       -15.3038
 146   2.0000      -0.560227       -15.2446
 147   2.0000      -0.554018       -15.0756
 148   2.0000      -0.551793       -15.0151
 149   2.0000      -0.550277       -14.9738
 150   2.0000      -0.543653       -14.7936
 151   2.0000      -0.542683       -14.7671
 152   2.0000      -0.541772       -14.7424
 153   2.0000      -0.537503       -14.6262
 154   2.0000      -0.533895       -14.5280
 155   2.0000      -0.530752       -14.4425
 156   2.0000      -0.528748       -14.3880
 157   2.0000      -0.526321       -14.3219
 158   2.0000      -0.523753       -14.2520
 159   2.0000      -0.514789       -14.0081
 160   2.0000      -0.510287       -13.8856
 161   2.0000      -0.506054       -13.7704
 162   2.0000      -0.502995       -13.6872
 163   2.0000      -0.501150       -13.6370
 164   2.0000      -0.500378       -13.6160
 165   2.0000      -0.497818       -13.5463
 166   2.0000      -0.496708       -13.5161
 167   2.0000      -0.493555       -13.4303
 168   2.0000      -0.489673       -13.3247
 169   2.0000      -0.487527       -13.2663
 170   2.0000      -0.486132       -13.2283
 171   2.0000      -0.484717       -13.1898
 172   2.0000      -0.482942       -13.1415
 173   2.0000      -0.481686       -13.1073
 174   2.0000      -0.480447       -13.0736
 175   2.0000      -0.475839       -12.9482
 176   2.0000      -0.474593       -12.9143
 177   2.0000      -0.471983       -12.8433
 178   2.0000      -0.468891       -12.7592
 179   2.0000      -0.467660       -12.7257
 180   2.0000      -0.462907       -12.5964
 181   2.0000      -0.459740       -12.5102
 182   2.0000      -0.458231       -12.4691
 183   2.0000      -0.457547       -12.4505
 184   2.0000      -0.453697       -12.3457
 185   2.0000      -0.449096       -12.2205
 186   2.0000      -0.447075       -12.1655
 187   2.0000      -0.446502       -12.1499
 188   2.0000      -0.444162       -12.0862
 189   2.0000      -0.442014       -12.0278
 190   2.0000      -0.440257       -11.9800
 191   2.0000      -0.435577       -11.8526
 192   2.0000      -0.430725       -11.7206
 193   2.0000      -0.427959       -11.6454
 194   2.0000      -0.426423       -11.6036
 195   2.0000      -0.421715       -11.4754
 196   2.0000      -0.389283       -10.5929
 197   2.0000      -0.384058       -10.4507
 198   2.0000      -0.380477       -10.3533
 199   2.0000      -0.378082       -10.2881
 200   2.0000      -0.376702       -10.2506
 201   2.0000      -0.372624       -10.1396
 202   2.0000      -0.372051       -10.1240
 203   2.0000      -0.371158       -10.0997
 204   2.0000      -0.369748       -10.0613
 205   2.0000      -0.366578        -9.9751
 206   2.0000      -0.361761        -9.8440
 207   2.0000      -0.360005        -9.7962
 208   2.0000      -0.356117        -9.6904
 209   2.0000      -0.355179        -9.6649
 210   2.0000      -0.354326        -9.6417
 211   2.0000      -0.351594        -9.5674
 212   2.0000      -0.348685        -9.4882
 213   2.0000      -0.340168        -9.2565
 214   2.0000      -0.336123        -9.1464
 215   2.0000      -0.334040        -9.0897
 216   2.0000      -0.323756        -8.8099
 217   2.0000      -0.322207        -8.7677
 218   2.0000      -0.316541        -8.6135
 219   2.0000      -0.298809        -8.1310
 220   2.0000      -0.287467        -7.8224
 221   2.0000      -0.272796        -7.4232
 222   2.0000      -0.238261        -6.4834
 223   0.0000      -0.131039        -3.5658
 224   0.0000      -0.078957        -2.1485
 225   0.0000      -0.039921        -1.0863
 226   0.0000      -0.031313        -0.8521
 227   0.0000      -0.018279        -0.4974

MULLIKEN ATOMIC CHARGES
-----------------------
   0 C :    0.131321
   1 O :   -0.154306
   2 C :    0.041399
   3 C :   -0.014636
   4 C :   -0.023457
   5 C :    0.172433
   6 O :   -0.204379
   7 O :   -0.303968
   8 C :    0.191224
   9 C :    0.044251
  10 C :    0.092496
  11 N :    0.260614
  12 O :   -0.247496
  13 O :   -0.236008
  14 C :    0.018855
  15 C :    0.009318
  16 C :    0.075140
  17 C :    0.020926
  18 C :    0.012323
  19 C :    0.025576
  20 C :    0.065685
  21 N :    0.278731
  22 O :   -0.251717
  23 O :   -0.263463
  24 C :    0.079680
  25 C :   -0.107891
  26 C :   -0.006990
  27 C :    0.135130
  28 N :   -0.255611
  29 C :    0.096282
  30 C :    0.004636
  31 C :    0.168816
  32 O :   -0.204559
  33 C :   -0.076121
  34 C :   -0.062427
  35 C :    0.166924
  36 O :   -0.194756
  37 N :   -0.256635
  38 C :    0.098486
  39 C :    0.003890
  40 C :    0.144656
  41 C :   -0.038604
  42 C :    0.031470
  43 C :    0.093887
  44 C :   -0.134522
  45 S :    0.153942
  46 C :   -0.093549
  47 C :    0.013451
  48 C :    0.210997
  49 O :   -0.184454
  50 O :   -0.244445
  51 C :    0.167327
  52 C :   -0.025809
  53 C :    0.116045
  54 O :   -0.191221
  55 C :    0.142906
  56 C :   -0.014054
  57 C :   -0.032417
  58 C :    0.169523
  59 O :   -0.205999
  60 O :   -0.315235
  61 C :    0.195787
  62 H :    0.025379
  63 H :   -0.001705
  64 H :    0.032201
  65 H :    0.033270
  66 H :    0.032420
  67 H :   -0.005431
  68 H :    0.000241
  69 H :   -0.023940
  70 H :    0.005826
  71 H :    0.047507
  72 H :    0.008708
  73 H :    0.038789
  74 H :    0.040338
  75 H :    0.016848
  76 H :    0.027047
  77 H :    0.029165
  78 H :    0.047422
  79 H :    0.026744
  80 H :    0.032008
  81 H :    0.028419
  82 H :    0.011620
  83 H :   -0.029558
  84 H :    0.050474
  85 H :    0.032496
  86 H :    0.041721
  87 H :    0.041433
  88 H :    0.015343
  89 H :    0.012076
  90 H :    0.000643
  91 H :    0.027712
  92 H :    0.032635
  93 H :    0.032748
Sum of atomic charges:   -0.0000000

LOEWDIN ATOMIC CHARGES
----------------------
   0 C :    0.089580
   1 O :    0.050342
   2 C :    0.012133
   3 C :   -0.034840
   4 C :   -0.120885
   5 C :    0.084085
   6 O :   -0.180282
   7 O :   -0.096396
   8 C :    0.080977
   9 C :   -0.014442
  10 C :   -0.019322
  11 N :    0.282706
  12 O :   -0.211608
  13 O :   -0.203200
  14 C :    0.003984
  15 C :   -0.025532
  16 C :    0.034486
  17 C :    0.051933
  18 C :   -0.044267
  19 C :    0.022885
  20 C :   -0.052652
  21 N :    0.287029
  22 O :   -0.215099
  23 O :   -0.223584
  24 C :    0.013359
  25 C :   -0.002235
  26 C :   -0.003011
  27 C :    0.060285
  28 N :    0.004612
  29 C :    0.038322
  30 C :   -0.059899
  31 C :    0.078055
  32 O :   -0.196559
  33 C :   -0.123272
  34 C :   -0.102619
  35 C :    0.082852
  36 O :   -0.181599
  37 N :    0.002977
  38 C :    0.037348
  39 C :   -0.060493
  40 C :    0.091737
  41 C :   -0.057706
  42 C :    0.059888
  43 C :   -0.051354
  44 C :   -0.172612
  45 S :    0.481234
  46 C :   -0.148662
  47 C :   -0.099126
  48 C :    0.106149
  49 O :   -0.145872
  50 O :   -0.043265
  51 C :    0.079043
  52 C :   -0.072669
  53 C :    0.058909
  54 O :    0.022066
  55 C :    0.035752
  56 C :   -0.042402
  57 C :   -0.118569
  58 C :    0.088414
  59 O :   -0.179180
  60 O :   -0.099457
  61 C :    0.080739
  62 H :    0.034031
  63 H :    0.035214
  64 H :    0.024887
  65 H :    0.024051
  66 H :    0.023243
  67 H :    0.035624
  68 H :    0.031144
  69 H :    0.030746
  70 H :    0.037999
  71 H :    0.040776
  72 H :    0.029891
  73 H :    0.029681
  74 H :    0.037074
  75 H :    0.023003
  76 H :    0.032402
  77 H :    0.031491
  78 H :    0.039126
  79 H :    0.024879
  80 H :    0.033397
  81 H :    0.032433
  82 H :    0.020502
  83 H :    0.026530
  84 H :    0.042683
  85 H :    0.025927
  86 H :    0.032350
  87 H :    0.028367
  88 H :    0.040820
  89 H :    0.024221
  90 H :    0.038107
  91 H :    0.022921
  92 H :    0.023516
  93 H :    0.023751

  Mayer bond orders larger than 0.100000
B(  0-C ,  1-O ) :   1.2007 B(  0-C ,  4-C ) :   1.5047 B(  0-C , 62-H ) :   1.0046
B(  1-O ,  2-C ) :   1.1604 B(  2-C ,  3-C ) :   1.5562 B(  2-C ,  9-C ) :   0.9292
B(  3-C ,  4-C ) :   1.1991 B(  3-C , 63-H ) :   1.0112 B(  4-C ,  5-C ) :   0.9319
B(  5-C ,  6-O ) :   2.1492 B(  5-C ,  7-O ) :   1.2445 B(  7-O ,  8-C ) :   0.9244
B(  8-C , 64-H ) :   0.9811 B(  8-C , 65-H ) :   0.9769 B(  8-C , 66-H ) :   0.9758
B(  9-C , 10-C ) :   1.6313 B(  9-C , 16-C ) :   1.1068 B( 10-C , 11-N ) :   0.9274
B( 10-C , 14-C ) :   1.1097 B( 11-N , 12-O ) :   1.5271 B( 11-N , 13-O ) :   1.5304
B( 12-O , 13-O ) :   0.2727 B( 14-C , 15-C ) :   1.6166 B( 14-C , 67-H ) :   1.0161
B( 15-C , 16-C ) :   1.0839 B( 15-C , 68-H ) :   0.9981 B( 16-C , 17-C ) :   1.5323
B( 17-C , 18-C ) :   1.1138 B( 17-C , 24-C ) :   1.0032 B( 18-C , 19-C ) :   1.5699
B( 18-C , 69-H ) :   1.0132 B( 19-C , 20-C ) :   1.1337 B( 19-C , 70-H ) :   1.0079
B( 20-C , 21-N ) :   0.9688 B( 20-C , 24-C ) :   1.4655 B( 21-N , 22-O ) :   1.5334
B( 21-N , 23-O ) :   1.4593 B( 22-O , 23-O ) :   0.2479 B( 24-C , 25-C ) :   1.1870
B( 25-C , 26-C ) :   1.5329 B( 25-C , 71-H ) :   0.9358 B( 26-C , 27-C ) :   1.1744
B( 26-C , 72-H ) :   0.9485 B( 27-C , 28-N ) :   1.1601 B( 27-C , 34-C ) :   1.2937
B( 28-N , 29-C ) :   0.9397 B( 28-N , 31-C ) :   1.0629 B( 29-C , 30-C ) :   1.1251
B( 29-C , 73-H ) :   0.9488 B( 29-C , 74-H ) :   0.9282 B( 30-C , 75-H ) :   0.9676
B( 30-C , 76-H ) :   0.9676 B( 30-C , 77-H ) :   0.9636 B( 31-C , 32-O ) :   2.0506
B( 31-C , 33-C ) :   0.9810 B( 33-C , 34-C ) :   1.2867 B( 33-C , 40-C ) :   1.3108
B( 34-C , 35-C ) :   0.9775 B( 35-C , 36-O ) :   2.0228 B( 35-C , 37-N ) :   1.0559
B( 36-O , 71-H ) :   0.1102 B( 37-N , 38-C ) :   0.9427 B( 37-N , 40-C ) :   1.1727
B( 38-C , 39-C ) :   1.1212 B( 38-C , 78-H ) :   0.9289 B( 38-C , 79-H ) :   0.9498
B( 39-C , 80-H ) :   0.9636 B( 39-C , 81-H ) :   0.9680 B( 39-C , 82-H ) :   0.9688
B( 40-C , 41-C ) :   1.1523 B( 41-C , 42-C ) :   1.6455 B( 41-C , 83-H ) :   0.9661
B( 42-C , 43-C ) :   1.0817 B( 42-C , 84-H ) :   0.9312 B( 43-C , 44-C ) :   1.5275
B( 43-C , 47-C ) :   1.2309 B( 44-C , 45-S ) :   1.1806 B( 44-C , 85-H ) :   0.9619
B( 45-S , 46-C ) :   1.2017 B( 46-C , 47-C ) :   1.5384 B( 46-C , 86-H ) :   0.9659
B( 47-C , 48-C ) :   0.9452 B( 48-C , 49-O ) :   2.0977 B( 48-C , 50-O ) :   1.1440
B( 50-O , 51-C ) :   1.0129 B( 51-C , 52-C ) :   1.7089 B( 51-C , 87-H ) :   0.9760
B( 52-C , 53-C ) :   1.1484 B( 52-C , 88-H ) :   0.9461 B( 53-C , 54-O ) :   1.1920
B( 53-C , 57-C ) :   1.4304 B( 54-O , 55-C ) :   1.1095 B( 55-C , 56-C ) :   1.5692
B( 55-C , 89-H ) :   1.0048 B( 56-C , 57-C ) :   1.2293 B( 56-C , 90-H ) :   1.0112
B( 57-C , 58-C ) :   0.9620 B( 58-C , 59-O ) :   2.1379 B( 58-C , 60-O ) :   1.1991
B( 60-O , 61-C ) :   0.9233 B( 61-C , 91-H ) :   0.9804 B( 61-C , 92-H ) :   0.9764
B( 61-C , 93-H ) :   0.9765

-----------------------------------------------------------------------------
         ABSORPTION SPECTRUM VIA TRANSITION ELECTRIC DIPOLE MOMENTS
-----------------------------------------------------------------------------
State   Energy  Wavelength   fosc         T2         TX        TY        TZ
        (cm-1)    (nm)                  (au**2)     (au)      (au)      (au)
-----------------------------------------------------------------------------
   0    7335.7   1363.2   0.227692332  10.21835   0.64303   3.12407   0.21226
   1   14783.9    676.4   0.015263898   0.33990  -0.27630  -0.34538   0.37984
   2   17742.6    563.6   0.160300539   2.97436  -0.57622  -0.83637  -1.39385
   3   18464.3    541.6   0.160426657   2.86035  -0.54157  -1.18827  -1.07474
   4   21726.3    460.3   0.040781679   0.61795   0.42404   0.66010  -0.04915
   5   22125.8    452.0   0.002531498   0.03767   0.11391   0.07089  -0.14024
   6   23422.5    426.9   0.003478414   0.04889   0.06868   0.20794  -0.03056
   7   24737.5    404.2   0.033056735   0.43993   0.25194  -0.10788   0.60400
   8   25996.5    384.7   0.151507764   1.91865   0.64189  -0.05659   1.22614
   9   26493.4    377.5   0.028373076   0.35257  -0.33515  -0.38074  -0.30867
  10   27283.9    366.5   0.204545428   2.46808  -0.53197  -1.45676   0.25086
  11   27383.3    365.2   0.017540377   0.21088   0.23959   0.37836   0.10156
  12   28525.4    350.6   0.242710499   2.80113   0.42411  -0.84603   1.38040
  13   29093.4    343.7   0.040781153   0.46147   0.33790   0.58857  -0.02956
  14   29237.2    342.0   0.046975551   0.52895  -0.28801   0.29348  -0.59988
  15   30889.8    323.7   0.031964138   0.34066  -0.04589   0.25603   0.52250
  16   31022.0    322.4   0.002160767   0.02293  -0.12071  -0.00349   0.09137
  17   31148.2    321.0   0.455185708   4.81096  -1.37621  -1.38162  -1.00405
  18   31358.6    318.9   0.046764775   0.49095   0.14025  -0.06838  -0.68308
  19   31665.3    315.8   0.004411201   0.04586   0.03127  -0.04315   0.20742
  20   32043.2    312.1   0.015122976   0.15537   0.08718  -0.27694   0.26660
  21   32170.7    310.8   0.020678876   0.21161   0.32977   0.23626   0.21690
  22   32461.0    308.1   0.055868949   0.56661  -0.51158  -0.04729  -0.55014
  23   32968.8    303.3   0.014019296   0.13999   0.11291  -0.15128   0.32304
  24   33020.7    302.8   0.109030972   1.08702  -0.34176   0.25635  -0.95105
  25   33440.0    299.0   0.006948443   0.06841  -0.01635   0.14561  -0.21665
  26   33948.6    294.6   0.046022453   0.44630  -0.11049  -0.56655   0.33632
  27   34324.4    291.3   0.052678567   0.50525  -0.39102  -0.32412   0.49729
  28   34665.4    288.5   0.002540852   0.02413  -0.05388   0.13716  -0.04914
  29   34863.1    286.8   0.157512276   1.48739   0.76359   0.12498  -0.94271
  30   34888.0    286.6   0.419247849   3.95612   1.03423   0.48736  -1.62757
  31   35333.3    283.0   0.052362383   0.48788   0.58766  -0.11743   0.35881
  32   35990.9    277.8   0.177492719   1.62354  -0.42270  -1.08178  -0.52403
  33   36921.4    270.8   0.016801744   0.14981   0.22834   0.00045   0.31253
  34   37808.1    264.5   0.072316479   0.62969  -0.39285  -0.43071  -0.53838
  35   38305.9    261.1   0.046321176   0.39810   0.10281   0.58203  -0.22084
  36   38443.0    260.1   0.027635385   0.23666  -0.30793  -0.27274  -0.25971
  37   38676.6    258.6   0.008610619   0.07329  -0.21350  -0.11254  -0.12266
  38   38776.6    257.9   0.000311194   0.00264   0.04497   0.01903  -0.01605
  39   39021.6    256.3   0.220672130   1.86174  -0.55457   0.44244  -1.16552
  40   39322.2    254.3   0.045812578   0.38355   0.24348  -0.17251   0.54269

FINAL SINGLE POINT ENERGY     -3324.250614251465

DIPOLE MOMENT
-------------
                                X             Y             Z
Electronic contribution:      2.61007       7.70875     -10.13520
Nuclear contribution   :     -3.29978     -10.22179       9.65936
                        -----------------------------------------
Total Dipole Moment    :     -0.68971      -2.51303      -0.47583
                        -----------------------------------------
Magnitude (a.u.)       :      2.64905
Magnitude (Debye)      :      6.73334

Rotational constants in cm-1:     0.002186     0.000389     0.000359
Rotational constants in MHz :    65.523324    11.655419    10.774657

                             ****ORCA TERMINATED NORMALLY****
TOTAL RUN TIME: 0 days 0 hours 8 minutes 13 seconds 769 msec
