                         Program Version 4.2.0 -  RELEASE  -
|  1> # ORCA input file
|  2> # SCF done       -185.159484000410          0.000755185148
|  3> ! CAM-B3LYP def2-SVP def2/J RIJCOSX Grid4 TightSCF
|  4> %maxcore 5000
|  5> %tddft
|  6>     Mode sTDDFT
|  7>     Ethresh 5.0
|  8>     maxcore 5000
|  9> end
| 10>
| 11> %pal
| 12>   nprocs 6
| 13>   end
| 14> * xyz 0 1
| 15>    C       -2.77053        -2.28352        -3.91859
| 16>    C       -1.69605        -3.14809        -4.06524
| 17>    C       -0.43570        -2.66896        -3.77014
| 18>    C       -0.25194        -1.34829        -3.34495
| 19>    C        1.19913        -1.14720        -3.09350
| 20>    O        1.78149        -0.16863        -2.70405
| 21>    N        1.79404        -2.36505        -3.38845
| 22>    C        0.88949        -3.33124        -3.80600
| 23>    O        1.17519        -4.46125        -4.11097
| 24>    C        3.22072        -2.59397        -3.30197
| 25>    C        3.92624        -2.17851        -4.58788
| 26>    C       -1.30965        -0.48293        -3.20678
| 27>    C       -2.60153        -0.95964        -3.49454
| 28>    C       -3.74476        -0.08574        -3.34279
| 29>    C       -3.75367         1.28400        -3.36494
| 30>    C       -5.09507         1.75051        -3.18578
| 31>    C       -5.92388         0.54615        -3.00793
| 32>    C       -5.11013        -0.53770        -3.11278
| 33>    C       -7.28510         0.48907        -2.68415
| 34>    N       -8.38639         0.37763        -2.37834
| 35>    C       -5.53760         3.05135        -3.17940
| 36>    C       -6.88222         3.50655        -3.08264
| 37>    C       -6.89549         4.88690        -3.02603
| 38>    C       -5.51615         5.34586        -3.11796
| 39>    C       -4.70221         4.26382        -3.23294
| 40>    C       -3.31032         4.32583        -3.36223
| 41>    N       -2.16981         4.41745        -3.46401
| 42>    C       -8.08774         5.65094        -2.90957
| 43>    N       -8.21440         6.93733        -2.45094
| 44>    C       -7.18265         7.83053        -1.97929
| 45>    C       -6.67261         8.73771        -3.09664
| 46>    C       -9.56212         7.35364        -2.41209
| 47>    O       -9.91262         8.43789        -2.00037
| 48>    C      -10.30064         6.22057        -2.92362
| 49>    C       -9.37621         5.19087        -3.20412
| 50>    C      -10.11525         4.05436        -3.71894
| 51>    O       -9.77048         2.97217        -4.13683
| 52>    N      -11.46348         4.46640        -3.65571
| 53>    C      -12.52516         3.60884        -4.12282
| 54>    C      -13.03545         4.03343        -5.49743
| 55>    C      -11.58898         5.75299        -3.19633
| 56>    C      -12.82942         6.40558        -3.00763
| 57>    C      -12.94452         7.73016        -2.72413
| 58>    C      -14.17963         8.36906        -2.47681
| 59>    S      -15.67949         7.48171        -2.23284
| 60>    C      -16.60029         8.93687        -1.93325
| 61>    C      -15.76785        10.03528        -2.03834
| 62>    C      -14.42558         9.72338        -2.34063
| 63>    C      -13.63222        10.95040        -2.48225
| 64>    O      -12.48630        11.05940        -2.83216
| 65>    C      -14.58072        12.09561        -2.13628
| 66>    C      -15.95417        11.48127        -1.90608
| 67>    O      -16.97706        12.07549        -1.66816
| 68>    C      -17.98237         8.95447        -1.61000
| 69>    C      -18.74499         7.85078        -1.47228
| 70>    C      -20.14143         7.81035        -1.10906
| 71>    C      -20.74054         6.55051        -0.92131
| 72>    C      -22.06233         6.49834        -0.55211
| 73>    C      -22.81482         7.66314        -0.36944
| 74>    C      -24.18676         7.26701         0.02718
| 75>    O      -25.14400         7.95454         0.27464
| 76>    N      -24.17453         5.87806         0.05533
| 77>    C      -22.94391         5.33448        -0.27560
| 78>    O      -22.69347         4.15738        -0.32337
| 79>    C      -25.32120         5.08157         0.43814
| 80>    C      -25.34557         4.83796         1.94291
| 81>    C      -22.24680         8.90771        -0.55986
| 82>    C      -20.91159         8.96756        -0.92759
| 83>    H       -3.76187        -2.63659        -4.15805
| 84>    H       -1.83586        -4.16524        -4.39658
| 85>    H        3.36630        -3.66024        -3.11309
| 86>    H        3.59711        -2.01090        -2.45780
| 87>    H        3.54250        -2.75046        -5.42968
| 88>    H        4.99303        -2.36207        -4.49733
| 89>    H        3.76777        -1.11931        -4.77665
| 90>    H       -1.15249         0.52795        -2.86575
| 91>    H       -2.91374         1.92607        -3.54181
| 92>    H       -5.41361        -1.56172        -2.99902
| 93>    H       -7.74308         2.86855        -3.05828
| 94>    H       -5.18651         6.36626        -3.14664
| 95>    H       -6.37768         7.24584        -1.52966
| 96>    H       -7.64281         8.45073        -1.20386
| 97>    H       -6.30726         8.15851        -3.94235
| 98>    H       -5.86790         9.36594        -2.72466
| 99>    H       -7.48057         9.37708        -3.44322
|100>    H      -13.33861         3.60025        -3.39164
|101>    H      -12.09456         2.60540        -4.18242
|102>    H      -13.43084         5.04676        -5.47205
|103>    H      -13.82231         3.35835        -5.82166
|104>    H      -12.22575         3.99566        -6.22190
|105>    H      -13.72874         5.80902        -3.09498
|106>    H      -12.06873         8.36620        -2.67757
|107>    H      -14.60597        12.84479        -2.92999
|108>    H      -14.23926        12.60925        -1.23443
|109>    H      -18.38105         9.94842        -1.46013
|110>    H      -18.27662         6.88538        -1.62729
|111>    H      -20.17275         5.64251        -1.05783
|112>    H      -25.25485         4.13327        -0.10047
|113>    H      -26.21572         5.62596         0.12629
|114>    H      -24.44836         4.30678         2.25237
|115>    H      -26.21381         4.23996         2.20437
|116>    H      -25.39909         5.78452         2.47586
|117>    H      -22.82960         9.80509        -0.42267
|118>    H      -20.45812         9.93432        -1.07862
|119> *
|120>
|121>                          ****END OF INPUT****

CARTESIAN COORDINATES (ANGSTROEM)
---------------------------------
  C     -2.770530   -2.283520   -3.918590
  C     -1.696050   -3.148090   -4.065240
  C     -0.435700   -2.668960   -3.770140
  C     -0.251940   -1.348290   -3.344950
  C      1.199130   -1.147200   -3.093500
  O      1.781490   -0.168630   -2.704050
  N      1.794040   -2.365050   -3.388450
  C      0.889490   -3.331240   -3.806000
  O      1.175190   -4.461250   -4.110970
  C      3.220720   -2.593970   -3.301970
  C      3.926240   -2.178510   -4.587880
  C     -1.309650   -0.482930   -3.206780
  C     -2.601530   -0.959640   -3.494540
  C     -3.744760   -0.085740   -3.342790
  C     -3.753670    1.284000   -3.364940
  C     -5.095070    1.750510   -3.185780
  C     -5.923880    0.546150   -3.007930
  C     -5.110130   -0.537700   -3.112780
  C     -7.285100    0.489070   -2.684150
  N     -8.386390    0.377630   -2.378340
  C     -5.537600    3.051350   -3.179400
  C     -6.882220    3.506550   -3.082640
  C     -6.895490    4.886900   -3.026030
  C     -5.516150    5.345860   -3.117960
  C     -4.702210    4.263820   -3.232940
  C     -3.310320    4.325830   -3.362230
  N     -2.169810    4.417450   -3.464010
  C     -8.087740    5.650940   -2.909570
  N     -8.214400    6.937330   -2.450940
  C     -7.182650    7.830530   -1.979290
  C     -6.672610    8.737710   -3.096640
  C     -9.562120    7.353640   -2.412090
  O     -9.912620    8.437890   -2.000370
  C    -10.300640    6.220570   -2.923620
  C     -9.376210    5.190870   -3.204120
  C    -10.115250    4.054360   -3.718940
  O     -9.770480    2.972170   -4.136830
  N    -11.463480    4.466400   -3.655710
  C    -12.525160    3.608840   -4.122820
  C    -13.035450    4.033430   -5.497430
  C    -11.588980    5.752990   -3.196330
  C    -12.829420    6.405580   -3.007630
  C    -12.944520    7.730160   -2.724130
  C    -14.179630    8.369060   -2.476810
  S    -15.679490    7.481710   -2.232840
  C    -16.600290    8.936870   -1.933250
  C    -15.767850   10.035280   -2.038340
  C    -14.425580    9.723380   -2.340630
  C    -13.632220   10.950400   -2.482250
  O    -12.486300   11.059400   -2.832160
  C    -14.580720   12.095610   -2.136280
  C    -15.954170   11.481270   -1.906080
  O    -16.977060   12.075490   -1.668160
  C    -17.982370    8.954470   -1.610000
  C    -18.744990    7.850780   -1.472280
  C    -20.141430    7.810350   -1.109060
  C    -20.740540    6.550510   -0.921310
  C    -22.062330    6.498340   -0.552110
  C    -22.814820    7.663140   -0.369440
  C    -24.186760    7.267010    0.027180
  O    -25.144000    7.954540    0.274640
  N    -24.174530    5.878060    0.055330
  C    -22.943910    5.334480   -0.275600
  O    -22.693470    4.157380   -0.323370
  C    -25.321200    5.081570    0.438140
  C    -25.345570    4.837960    1.942910
  C    -22.246800    8.907710   -0.559860
  C    -20.911590    8.967560   -0.927590
  H     -3.761870   -2.636590   -4.158050
  H     -1.835860   -4.165240   -4.396580
  H      3.366300   -3.660240   -3.113090
  H      3.597110   -2.010900   -2.457800
  H      3.542500   -2.750460   -5.429680
  H      4.993030   -2.362070   -4.497330
  H      3.767770   -1.119310   -4.776650
  H     -1.152490    0.527950   -2.865750
  H     -2.913740    1.926070   -3.541810
  H     -5.413610   -1.561720   -2.999020
  H     -7.743080    2.868550   -3.058280
  H     -5.186510    6.366260   -3.146640
  H     -6.377680    7.245840   -1.529660
  H     -7.642810    8.450730   -1.203860
  H     -6.307260    8.158510   -3.942350
  H     -5.867900    9.365940   -2.724660
  H     -7.480570    9.377080   -3.443220
  H    -13.338610    3.600250   -3.391640
  H    -12.094560    2.605400   -4.182420
  H    -13.430840    5.046760   -5.472050
  H    -13.822310    3.358350   -5.821660
  H    -12.225750    3.995660   -6.221900
  H    -13.728740    5.809020   -3.094980
  H    -12.068730    8.366200   -2.677570
  H    -14.605970   12.844790   -2.929990
  H    -14.239260   12.609250   -1.234430
  H    -18.381050    9.948420   -1.460130
  H    -18.276620    6.885380   -1.627290
  H    -20.172750    5.642510   -1.057830
  H    -25.254850    4.133270   -0.100470
  H    -26.215720    5.625960    0.126290
  H    -24.448360    4.306780    2.252370
  H    -26.213810    4.239960    2.204370
  H    -25.399090    5.784520    2.475860
  H    -22.829600    9.805090   -0.422670
  H    -20.458120    9.934320   -1.078620

 Total Charge           Charge          ....    0
 Multiplicity           Mult            ....    1
 Number of Electrons    NEL             ....  476
 Basis Dimension        Dim             .... 1136

ORBITAL ENERGIES
----------------

  NO   OCC          E(Eh)            E(eV)
   0   2.0000     -88.987656     -2421.4772
   1   2.0000     -19.222017      -523.0577
   2   2.0000     -19.218745      -522.9686
   3   2.0000     -19.212998      -522.8122
   4   2.0000     -19.212503      -522.7988
   5   2.0000     -19.210784      -522.7520
   6   2.0000     -19.210601      -522.7470
   7   2.0000     -19.198447      -522.4163
   8   2.0000     -19.196618      -522.3665
   9   2.0000     -14.461919      -393.5288
  10   2.0000     -14.460329      -393.4856
  11   2.0000     -14.453519      -393.3002
  12   2.0000     -14.451759      -393.2523
  13   2.0000     -14.412570      -392.1860
  14   2.0000     -14.405507      -391.9938
  15   2.0000     -10.392735      -282.8007
  16   2.0000     -10.392310      -282.7891
  17   2.0000     -10.390795      -282.7479
  18   2.0000     -10.390328      -282.7352
  19   2.0000     -10.381398      -282.4922
  20   2.0000     -10.379209      -282.4326
  21   2.0000     -10.375602      -282.3345
  22   2.0000     -10.372987      -282.2633
  23   2.0000     -10.349559      -281.6258
  24   2.0000     -10.349265      -281.6178
  25   2.0000     -10.340474      -281.3786
  26   2.0000     -10.336664      -281.2749
  27   2.0000     -10.328419      -281.0506
  28   2.0000     -10.325709      -280.9768
  29   2.0000     -10.320520      -280.8356
  30   2.0000     -10.317787      -280.7613
  31   2.0000     -10.316729      -280.7325
  32   2.0000     -10.315017      -280.6859
  33   2.0000     -10.314536      -280.6728
  34   2.0000     -10.313681      -280.6495
  35   2.0000     -10.311766      -280.5974
  36   2.0000     -10.311400      -280.5875
  37   2.0000     -10.310173      -280.5541
  38   2.0000     -10.309426      -280.5337
  39   2.0000     -10.307899      -280.4922
  40   2.0000     -10.307897      -280.4921
  41   2.0000     -10.306560      -280.4558
  42   2.0000     -10.306040      -280.4416
  43   2.0000     -10.305556      -280.4284
  44   2.0000     -10.305316      -280.4219
  45   2.0000     -10.303991      -280.3859
  46   2.0000     -10.303282      -280.3666
  47   2.0000     -10.302228      -280.3379
  48   2.0000     -10.300972      -280.3037
  49   2.0000     -10.300818      -280.2995
  50   2.0000     -10.300797      -280.2989
  51   2.0000     -10.300542      -280.2920
  52   2.0000     -10.299355      -280.2597
  53   2.0000     -10.299131      -280.2536
  54   2.0000     -10.298485      -280.2360
  55   2.0000     -10.298089      -280.2252
  56   2.0000     -10.297823      -280.2180
  57   2.0000     -10.297452      -280.2079
  58   2.0000     -10.296568      -280.1839
  59   2.0000     -10.288979      -279.9773
  60   2.0000     -10.288321      -279.9594
  61   2.0000     -10.286260      -279.9034
  62   2.0000     -10.272537      -279.5299
  63   2.0000     -10.269691      -279.4525
  64   2.0000     -10.269221      -279.4397
  65   2.0000     -10.268073      -279.4085
  66   2.0000     -10.259273      -279.1690
  67   2.0000     -10.256970      -279.1063
  68   2.0000      -8.082557      -219.9375
  69   2.0000      -6.051621      -164.6730
  70   2.0000      -6.047676      -164.5656
  71   2.0000      -6.044986      -164.4924
  72   2.0000      -1.158664       -31.5288
  73   2.0000      -1.156740       -31.4765
  74   2.0000      -1.141535       -31.0627
  75   2.0000      -1.139396       -31.0045
  76   2.0000      -1.135217       -30.8908
  77   2.0000      -1.134848       -30.8808
  78   2.0000      -1.134074       -30.8597
  79   2.0000      -1.133238       -30.8370
  80   2.0000      -1.072030       -29.1714
  81   2.0000      -1.063718       -28.9452
  82   2.0000      -1.049483       -28.5579
  83   2.0000      -1.047566       -28.5057
  84   2.0000      -1.019573       -27.7440
  85   2.0000      -1.017831       -27.6966
  86   2.0000      -1.003349       -27.3025
  87   2.0000      -0.987391       -26.8683
  88   2.0000      -0.986045       -26.8317
  89   2.0000      -0.982720       -26.7412
  90   2.0000      -0.973418       -26.4880
  91   2.0000      -0.938633       -25.5415
  92   2.0000      -0.935853       -25.4659
  93   2.0000      -0.932906       -25.3857
  94   2.0000      -0.912251       -24.8236
  95   2.0000      -0.909769       -24.7561
  96   2.0000      -0.892034       -24.2735
  97   2.0000      -0.884721       -24.0745
  98   2.0000      -0.877505       -23.8781
  99   2.0000      -0.872378       -23.7386
 100   2.0000      -0.869650       -23.6644
 101   2.0000      -0.860356       -23.4115
 102   2.0000      -0.850466       -23.1424
 103   2.0000      -0.847300       -23.0562
 104   2.0000      -0.833718       -22.6866
 105   2.0000      -0.829827       -22.5808
 106   2.0000      -0.827517       -22.5179
 107   2.0000      -0.826674       -22.4949
 108   2.0000      -0.809787       -22.0354
 109   2.0000      -0.794430       -21.6175
 110   2.0000      -0.776212       -21.1218
 111   2.0000      -0.766820       -20.8662
 112   2.0000      -0.765121       -20.8200
 113   2.0000      -0.758820       -20.6485
 114   2.0000      -0.756918       -20.5968
 115   2.0000      -0.752738       -20.4830
 116   2.0000      -0.732998       -19.9459
 117   2.0000      -0.725837       -19.7510
 118   2.0000      -0.722624       -19.6636
 119   2.0000      -0.718163       -19.5422
 120   2.0000      -0.714225       -19.4351
 121   2.0000      -0.707235       -19.2448
 122   2.0000      -0.702152       -19.1065
 123   2.0000      -0.698569       -19.0090
 124   2.0000      -0.697909       -18.9911
 125   2.0000      -0.687127       -18.6977
 126   2.0000      -0.684260       -18.6197
 127   2.0000      -0.673022       -18.3139
 128   2.0000      -0.668441       -18.1892
 129   2.0000      -0.662551       -18.0289
 130   2.0000      -0.656802       -17.8725
 131   2.0000      -0.648466       -17.6456
 132   2.0000      -0.643639       -17.5143
 133   2.0000      -0.637279       -17.3412
 134   2.0000      -0.634432       -17.2638
 135   2.0000      -0.618612       -16.8333
 136   2.0000      -0.606628       -16.5072
 137   2.0000      -0.598943       -16.2981
 138   2.0000      -0.596950       -16.2438
 139   2.0000      -0.593878       -16.1602
 140   2.0000      -0.588871       -16.0240
 141   2.0000      -0.587806       -15.9950
 142   2.0000      -0.583424       -15.8758
 143   2.0000      -0.572863       -15.5884
 144   2.0000      -0.571912       -15.5625
 145   2.0000      -0.570091       -15.5130
 146   2.0000      -0.569030       -15.4841
 147   2.0000      -0.568354       -15.4657
 148   2.0000      -0.567614       -15.4456
 149   2.0000      -0.556263       -15.1367
 150   2.0000      -0.554314       -15.0837
 151   2.0000      -0.551599       -15.0098
 152   2.0000      -0.551274       -15.0009
 153   2.0000      -0.545314       -14.8388
 154   2.0000      -0.544050       -14.8044
 155   2.0000      -0.539938       -14.6925
 156   2.0000      -0.539422       -14.6784
 157   2.0000      -0.539055       -14.6684
 158   2.0000      -0.537083       -14.6148
 159   2.0000      -0.534983       -14.5576
 160   2.0000      -0.530904       -14.4466
 161   2.0000      -0.526422       -14.3247
 162   2.0000      -0.526292       -14.3211
 163   2.0000      -0.525185       -14.2910
 164   2.0000      -0.524080       -14.2609
 165   2.0000      -0.522215       -14.2102
 166   2.0000      -0.519243       -14.1293
 167   2.0000      -0.516875       -14.0649
 168   2.0000      -0.514968       -14.0130
 169   2.0000      -0.512851       -13.9554
 170   2.0000      -0.508689       -13.8421
 171   2.0000      -0.508426       -13.8350
 172   2.0000      -0.507952       -13.8221
 173   2.0000      -0.506435       -13.7808
 174   2.0000      -0.506276       -13.7765
 175   2.0000      -0.503696       -13.7063
 176   2.0000      -0.500826       -13.6282
 177   2.0000      -0.494159       -13.4468
 178   2.0000      -0.493129       -13.4187
 179   2.0000      -0.488541       -13.2939
 180   2.0000      -0.487495       -13.2654
 181   2.0000      -0.485518       -13.2116
 182   2.0000      -0.483826       -13.1656
 183   2.0000      -0.481770       -13.1096
 184   2.0000      -0.481626       -13.1057
 185   2.0000      -0.481243       -13.0953
 186   2.0000      -0.479670       -13.0525
 187   2.0000      -0.477208       -12.9855
 188   2.0000      -0.472051       -12.8452
 189   2.0000      -0.469134       -12.7658
 190   2.0000      -0.468256       -12.7419
 191   2.0000      -0.466985       -12.7073
 192   2.0000      -0.464759       -12.6467
 193   2.0000      -0.464066       -12.6279
 194   2.0000      -0.461401       -12.5553
 195   2.0000      -0.460145       -12.5212
 196   2.0000      -0.457632       -12.4528
 197   2.0000      -0.452829       -12.3221
 198   2.0000      -0.449835       -12.2406
 199   2.0000      -0.449538       -12.2325
 200   2.0000      -0.447678       -12.1819
 201   2.0000      -0.446887       -12.1604
 202   2.0000      -0.442904       -12.0520
 203   2.0000      -0.440517       -11.9871
 204   2.0000      -0.438474       -11.9315
 205   2.0000      -0.437285       -11.8991
 206   2.0000      -0.435016       -11.8374
 207   2.0000      -0.434124       -11.8131
 208   2.0000      -0.430749       -11.7213
 209   2.0000      -0.427352       -11.6288
 210   2.0000      -0.426587       -11.6080
 211   2.0000      -0.424326       -11.5465
 212   2.0000      -0.417759       -11.3678
 213   2.0000      -0.415699       -11.3117
 214   2.0000      -0.409530       -11.1439
 215   2.0000      -0.398277       -10.8377
 216   2.0000      -0.381576       -10.3832
 217   2.0000      -0.366884        -9.9834
 218   2.0000      -0.366666        -9.9775
 219   2.0000      -0.364468        -9.9177
 220   2.0000      -0.354624        -9.6498
 221   2.0000      -0.352768        -9.5993
 222   2.0000      -0.351650        -9.5689
 223   2.0000      -0.351499        -9.5648
 224   2.0000      -0.351012        -9.5515
 225   2.0000      -0.344679        -9.3792
 226   2.0000      -0.344379        -9.3710
 227   2.0000      -0.342365        -9.3162
 228   2.0000      -0.341134        -9.2827
 229   2.0000      -0.339015        -9.2251
 230   2.0000      -0.333416        -9.0727
 231   2.0000      -0.330682        -8.9983
 232   2.0000      -0.327286        -8.9059
 233   2.0000      -0.323736        -8.8093
 234   2.0000      -0.315895        -8.5959
 235   2.0000      -0.297067        -8.0836
 236   2.0000      -0.286416        -7.7938
 237   2.0000      -0.241410        -6.5691
 238   0.0000      -0.131877        -3.5885
 239   0.0000      -0.096487        -2.6255
 240   0.0000      -0.066762        -1.8167
 241   0.0000      -0.049049        -1.3347
 242   0.0000      -0.037920        -1.0319

MULLIKEN ATOMIC CHARGES
-----------------------
   0 C :   -0.024701
   1 C :   -0.019390
   2 C :   -0.006248
   3 C :    0.012651
   4 C :    0.193032
   5 O :   -0.151055
   6 N :   -0.303849
   7 C :    0.188914
   8 O :   -0.155206
   9 C :    0.131678
  10 C :   -0.011323
  11 C :   -0.081513
  12 C :    0.113413
  13 C :    0.097966
  14 C :   -0.113921
  15 C :    0.108611
  16 C :   -0.082932
  17 C :   -0.019060
  18 C :   -0.181213
  19 N :    0.147438
  20 C :    0.117496
  21 C :   -0.106770
  22 C :    0.041380
  23 C :   -0.027158
  24 C :   -0.092341
  25 C :   -0.186468
  26 N :    0.143962
  27 C :    0.150658
  28 N :   -0.259941
  29 C :    0.104162
  30 C :   -0.000223
  31 C :    0.147775
  32 O :   -0.191066
  33 C :   -0.056560
  34 C :   -0.052521
  35 C :    0.146438
  36 O :   -0.179836
  37 N :   -0.257976
  38 C :    0.093590
  39 C :    0.000691
  40 C :    0.144406
  41 C :   -0.036997
  42 C :    0.015168
  43 C :   -0.122572
  44 S :    0.135085
  45 C :   -0.096365
  46 C :    0.014998
  47 C :    0.051556
  48 C :    0.023658
  49 O :   -0.126599
  50 C :    0.046355
  51 C :    0.030707
  52 O :   -0.150430
  53 C :    0.009982
  54 C :    0.004886
  55 C :    0.120343
  56 C :   -0.093767
  57 C :    0.015983
  58 C :   -0.004753
  59 C :    0.187273
  60 O :   -0.154625
  61 N :   -0.302301
  62 C :    0.188825
  63 O :   -0.158641
  64 C :    0.135686
  65 C :   -0.009425
  66 C :   -0.018122
  67 C :   -0.005904
  68 H :   -0.009906
  69 H :    0.001264
  70 H :    0.033104
  71 H :    0.031657
  72 H :    0.025004
  73 H :    0.023784
  74 H :    0.031034
  75 H :    0.004382
  76 H :    0.007488
  77 H :    0.000611
  78 H :    0.027715
  79 H :   -0.009246
  80 H :    0.025208
  81 H :    0.042266
  82 H :    0.018012
  83 H :    0.026160
  84 H :    0.040122
  85 H :    0.025289
  86 H :    0.053909
  87 H :    0.014914
  88 H :    0.026772
  89 H :    0.032072
  90 H :   -0.013883
  91 H :    0.045781
  92 H :    0.066138
  93 H :    0.072906
  94 H :    0.014290
  95 H :   -0.010267
  96 H :   -0.007462
  97 H :    0.030842
  98 H :    0.031015
  99 H :    0.026006
 100 H :    0.022565
 101 H :    0.027721
 102 H :    0.001953
 103 H :   -0.002206
Sum of atomic charges:    0.0000000

LOEWDIN ATOMIC CHARGES
----------------------
   0 C :   -0.000573
   1 C :    0.013618
   2 C :   -0.046731
   3 C :   -0.046128
   4 C :    0.088692
   5 O :   -0.152560
   6 N :   -0.035855
   7 C :    0.086888
   8 O :   -0.157378
   9 C :    0.044332
  10 C :   -0.059903
  11 C :    0.027495
  12 C :   -0.010260
  13 C :   -0.004715
  14 C :   -0.025022
  15 C :    0.047554
  16 C :   -0.075754
  17 C :    0.048158
  18 C :   -0.035595
  19 N :   -0.049204
  20 C :    0.032239
  21 C :    0.014550
  22 C :   -0.034875
  23 C :    0.045388
  24 C :   -0.079316
  25 C :   -0.032644
  26 N :   -0.059523
  27 C :    0.070763
  28 N :    0.001142
  29 C :    0.036848
  30 C :   -0.062116
  31 C :    0.078226
  32 O :   -0.185903
  33 C :   -0.118084
  34 C :   -0.105166
  35 C :    0.082635
  36 O :   -0.173982
  37 N :   -0.000269
  38 C :    0.036656
  39 C :   -0.061248
  40 C :    0.080129
  41 C :   -0.047284
  42 C :    0.019103
  43 C :   -0.136095
  44 S :    0.455732
  45 C :   -0.123136
  46 C :   -0.097350
  47 C :   -0.079859
  48 C :    0.076061
  49 O :   -0.118196
  50 C :   -0.070101
  51 C :    0.078651
  52 O :   -0.139251
  53 C :   -0.029889
  54 C :   -0.002536
  55 C :   -0.014864
  56 C :    0.015771
  57 C :   -0.048344
  58 C :   -0.048368
  59 C :    0.087553
  60 O :   -0.156031
  61 N :   -0.036394
  62 C :    0.088114
  63 O :   -0.158374
  64 C :    0.044830
  65 C :   -0.059531
  66 C :    0.014522
  67 C :    0.008075
  68 H :    0.032269
  69 H :    0.041844
  70 H :    0.032451
  71 H :    0.032322
  72 H :    0.027644
  73 H :    0.030629
  74 H :    0.029216
  75 H :    0.043614
  76 H :    0.034500
  77 H :    0.036054
  78 H :    0.039326
  79 H :    0.036598
  80 H :    0.024189
  81 H :    0.038656
  82 H :    0.019943
  83 H :    0.032169
  84 H :    0.037264
  85 H :    0.023036
  86 H :    0.041716
  87 H :    0.021669
  88 H :    0.031971
  89 H :    0.033122
  90 H :    0.023567
  91 H :    0.051430
  92 H :    0.061328
  93 H :    0.065443
  94 H :    0.040948
  95 H :    0.024778
  96 H :    0.037889
  97 H :    0.032167
  98 H :    0.032202
  99 H :    0.027904
 100 H :    0.030409
 101 H :    0.028336
 102 H :    0.042263
 103 H :    0.035817

  Mayer bond orders larger than 0.100000
B(  0-C ,  1-C ) :   1.3494 B(  0-C , 12-C ) :   1.3631 B(  0-C , 68-H ) :   0.9937
B(  1-C ,  2-C ) :   1.4027 B(  1-C , 69-H ) :   1.0057 B(  2-C ,  3-C ) :   1.3570
B(  2-C ,  7-C ) :   0.8861 B(  3-C ,  4-C ) :   0.8676 B(  3-C , 11-C ) :   1.4079
B(  4-C ,  5-O ) :   2.2310 B(  4-C ,  6-N ) :   1.0660 B(  6-N ,  7-C ) :   1.0623
B(  6-N ,  9-C ) :   0.9169 B(  7-C ,  8-O ) :   2.2303 B(  9-C , 10-C ) :   1.1243
B(  9-C , 70-H ) :   0.9422 B(  9-C , 71-H ) :   0.9432 B( 10-C , 72-H ) :   0.9692
B( 10-C , 73-H ) :   0.9703 B( 10-C , 74-H ) :   0.9700 B( 11-C , 12-C ) :   1.2999
B( 11-C , 75-H ) :   1.0102 B( 12-C , 13-C ) :   0.9947 B( 13-C , 14-C ) :   1.6018
B( 13-C , 17-C ) :   1.0556 B( 14-C , 15-C ) :   1.1016 B( 14-C , 76-H ) :   0.9990
B( 15-C , 16-C ) :   1.1057 B( 15-C , 20-C ) :   1.4156 B( 16-C , 17-C ) :   1.6699
B( 16-C , 18-C ) :   1.0847 B( 17-C , 77-H ) :   1.0167 B( 18-C , 19-N ) :   2.9849
B( 20-C , 21-C ) :   1.1121 B( 20-C , 24-C ) :   1.0960 B( 21-C , 22-C ) :   1.5555
B( 21-C , 78-H ) :   0.9920 B( 22-C , 23-C ) :   1.0281 B( 22-C , 27-C ) :   1.0388
B( 23-C , 24-C ) :   1.6647 B( 23-C , 79-H ) :   1.0247 B( 24-C , 25-C ) :   1.0861
B( 25-C , 26-N ) :   2.9730 B( 27-C , 28-N ) :   1.2028 B( 27-C , 34-C ) :   1.3640
B( 28-N , 29-C ) :   0.9392 B( 28-N , 31-C ) :   1.0381 B( 29-C , 30-C ) :   1.1183
B( 29-C , 80-H ) :   0.9502 B( 29-C , 81-H ) :   0.9269 B( 30-C , 82-H ) :   0.9650
B( 30-C , 83-H ) :   0.9686 B( 30-C , 84-H ) :   0.9603 B( 31-C , 32-O ) :   2.0687
B( 31-C , 33-C ) :   0.9846 B( 33-C , 34-C ) :   1.2535 B( 33-C , 40-C ) :   1.3209
B( 34-C , 35-C ) :   0.9679 B( 35-C , 36-O ) :   2.0997 B( 35-C , 37-N ) :   1.0366
B( 37-N , 38-C ) :   0.9439 B( 37-N , 40-C ) :   1.1736 B( 38-C , 39-C ) :   1.1206
B( 38-C , 85-H ) :   0.9493 B( 38-C , 86-H ) :   0.9281 B( 39-C , 87-H ) :   0.9679
B( 39-C , 88-H ) :   0.9677 B( 39-C , 89-H ) :   0.9639 B( 40-C , 41-C ) :   1.1645
B( 41-C , 42-C ) :   1.5578 B( 41-C , 90-H ) :   0.9578 B( 42-C , 43-C ) :   1.1904
B( 42-C , 91-H ) :   0.9556 B( 43-C , 44-S ) :   1.1071 B( 43-C , 47-C ) :   1.4613
B( 44-S , 45-C ) :   1.1249 B( 45-C , 46-C ) :   1.4597 B( 45-C , 53-C ) :   1.1802
B( 46-C , 47-C ) :   1.2061 B( 46-C , 51-C ) :   0.9443 B( 47-C , 48-C ) :   0.9325
B( 48-C , 49-O ) :   2.2426 B( 48-C , 50-C ) :   0.9905 B( 50-C , 51-C ) :   0.9975
B( 50-C , 92-H ) :   0.8987 B( 50-C , 93-H ) :   0.8959 B( 51-C , 52-O ) :   2.2079
B( 53-C , 54-C ) :   1.6414 B( 53-C , 94-H ) :   0.9606 B( 54-C , 55-C ) :   1.0783
B( 54-C , 95-H ) :   0.9849 B( 55-C , 56-C ) :   1.2764 B( 55-C , 67-C ) :   1.3543
B( 56-C , 57-C ) :   1.3940 B( 56-C , 96-H ) :   1.0167 B( 57-C , 58-C ) :   1.3706
B( 57-C , 62-C ) :   0.8721 B( 58-C , 59-C ) :   0.8853 B( 58-C , 66-C ) :   1.3861
B( 59-C , 60-O ) :   2.2300 B( 59-C , 61-N ) :   1.0600 B( 61-N , 62-C ) :   1.0686
B( 61-N , 64-C ) :   0.9181 B( 62-C , 63-O ) :   2.2276 B( 64-C , 65-C ) :   1.1230
B( 64-C , 97-H ) :   0.9424 B( 64-C , 98-H ) :   0.9430 B( 65-C , 99-H ) :   0.9699
B( 65-C ,100-H ) :   0.9705 B( 65-C ,101-H ) :   0.9697 B( 66-C , 67-C ) :   1.3703
B( 66-C ,102-H ) :   1.0058 B( 67-C ,103-H ) :   0.9909

-----------------------------------------------------------------------------
         ABSORPTION SPECTRUM VIA TRANSITION ELECTRIC DIPOLE MOMENTS
-----------------------------------------------------------------------------
State   Energy  Wavelength   fosc         T2         TX        TY        TZ
        (cm-1)    (nm)                  (au**2)     (au)      (au)      (au)
-----------------------------------------------------------------------------
   0    8729.1   1145.6   0.458291370  17.28419   3.47240  -2.28388  -0.10276
   1   16526.0    605.1   0.465275166   9.26866  -2.96039   0.66682   0.24516
   2   16935.4    590.5   0.059998991   1.16634  -0.74676  -0.77557   0.08471
   3   20295.4    492.7   0.020490439   0.33238  -0.56578   0.11052   0.00695
   4   22053.4    453.4   0.391696900   5.84724  -2.18969   0.84288   0.58485
   5   23611.4    423.5   0.008883862   0.12387   0.29070  -0.08182  -0.18074
   6   24565.9    407.1   0.072893886   0.97687  -0.75591  -0.32469   0.54776
   7   25307.7    395.1   0.009967187   0.12966  -0.00140   0.29692  -0.20371
   8   26938.3    371.2   0.534751102   6.53516   2.04161  -1.49473  -0.36438
   9   27020.2    370.1   0.231653659   2.82245  -0.06690  -1.67148   0.15533
  10   27172.2    368.0   0.058964172   0.71440  -0.76793  -0.26997   0.22757
  11   29017.8    344.6   0.003555589   0.04034  -0.19521  -0.04723  -0.00158
  12   29728.8    336.4   0.127909407   1.41645   0.52610   1.00938   0.34760
  13   30461.0    328.3   0.104678699   1.13133  -0.58171   0.88796   0.06690
  14   30763.4    325.1   0.001450118   0.01552   0.11083   0.05512  -0.01398
  15   30885.7    323.8   0.002374160   0.02531   0.05055   0.09878  -0.11399
  16   31522.4    317.2   0.061485539   0.64214  -0.59829   0.52826   0.07159
  17   31606.1    316.4   0.043427892   0.45235   0.53056  -0.38734  -0.14427
  18   32242.0    310.2   0.177128856   1.80860  -0.92561  -0.96503   0.14343
  19   32618.8    306.6   0.025564719   0.25802   0.48297   0.00168  -0.15734
  20   32780.8    305.1   0.269577791   2.70732  -0.09027   1.62985   0.20679
  21   33037.2    302.7   0.011580225   0.11540   0.31065  -0.13162  -0.03962
  22   33236.8    300.9   0.044909179   0.44483   0.26110  -0.59754  -0.14002
  23   33495.6    298.5   0.047176842   0.46368   0.34494   0.58640  -0.02869
  24   34081.0    293.4   0.111511331   1.07717   0.68566  -0.76930  -0.12335
  25   34358.4    291.0   0.000272033   0.00261  -0.01973  -0.03020   0.03612
  26   34642.5    288.7   0.000988315   0.00939   0.02455   0.01708   0.09218
  27   35093.4    285.0   0.089411057   0.83877   0.19282  -0.89396   0.04926
  28   35512.0    281.6   0.004224835   0.03917   0.10513  -0.16762  -0.00426
  29   35579.3    281.1   0.018439524   0.17062  -0.28385   0.29591  -0.04983
  30   35722.4    279.9   0.003403455   0.03137  -0.06327  -0.16288  -0.02887
  31   35798.4    279.3   0.037335539   0.34335  -0.22900  -0.53875   0.02568
  32   35971.2    278.0   0.004320065   0.03954   0.10830  -0.16008   0.04673
  33   36374.3    274.9   0.160366335   1.45142   0.38746   1.14074   0.00356
  34   36677.6    272.6   0.107122891   0.96152  -0.81807   0.50736   0.18670
  35   36989.6    270.3   0.004477439   0.03985   0.18565   0.03285  -0.06561
  36   37037.8    270.0   0.004888728   0.04345  -0.09771   0.17689   0.05113
  37   37485.7    266.8   0.012144995   0.10666  -0.23436  -0.22684   0.01686
  38   37842.2    264.3   0.075304687   0.65512   0.43761   0.67954  -0.04299
  39   38761.5    258.0   0.002434767   0.02068  -0.04928  -0.11970   0.06263
  40   38839.2    257.5   0.022211007   0.18827   0.16756   0.39798  -0.04241
  41   39324.7    254.3   0.056109424   0.46973  -0.65104   0.21186   0.03136
  42   39603.9    252.5   0.004276655   0.03555  -0.12902  -0.13206   0.03828
  43   39745.5    251.6   0.021824778   0.18077  -0.25459  -0.33303   0.07105
  44   40015.3    249.9   0.000351593   0.00289  -0.00376  -0.04099   0.03462
  45   40271.8    248.3   0.014899914   0.12180   0.21172  -0.27738  -0.00613

FINAL SINGLE POINT ENERGY     -3366.050331715174

DIPOLE MOMENT
-------------
                                X             Y             Z
Electronic contribution:      2.60820       6.53957       1.63805
Nuclear contribution   :     -3.76860      -6.48983      -1.95058
                        -----------------------------------------
Total Dipole Moment    :     -1.16040       0.04974      -0.31253
                        -----------------------------------------
Magnitude (a.u.)       :      1.20278
Magnitude (Debye)      :      3.05723

Rotational constants in cm-1:     0.002132     0.000232     0.000212
Rotational constants in MHz :    63.914068     6.964478     6.370200

                             ****ORCA TERMINATED NORMALLY****
TOTAL RUN TIME: 0 days 0 hours 9 minutes 4 seconds 486 msec
