                         Program Version 4.2.0 -  RELEASE  -
|  1> # ORCA input file
|  2> # SCF done       -173.435038010123          0.000968643892
|  3> ! CAM-B3LYP def2-SVP def2/J RIJCOSX Grid4 TightSCF
|  4> %maxcore 5000
|  5> %tddft
|  6>     Mode sTDDFT
|  7>     Ethresh 5.0
|  8>     maxcore 5000
|  9> end
| 10>
| 11> %pal
| 12>   nprocs 6
| 13>   end
| 14> * xyz 0 1
| 15>    C       -0.31681         1.40394        -5.63979
| 16>    C       -1.18456         1.43320        -4.58738
| 17>    F       -1.54818         2.55598        -3.96621
| 18>    C       -1.65744         0.15561        -4.22293
| 19>    F       -2.50983        -0.04486        -3.21892
| 20>    C       -1.14386        -0.86063        -5.00645
| 21>    S       -0.06475        -0.19058        -6.19851
| 22>    C       -1.39094        -2.25896        -4.93020
| 23>    C       -2.22333        -2.93236        -4.06681
| 24>    C       -2.12505        -4.32844        -4.33268
| 25>    C       -1.18185        -4.47351        -5.46089
| 26>    C       -0.75723        -3.23324        -5.80967
| 27>    C       -0.85586        -5.65357        -6.14235
| 28>    N       -0.59776        -6.58334        -6.76441
| 29>    C       -2.76017        -5.35822        -3.67576
| 30>    C       -2.52957        -6.75074        -3.83704
| 31>    C       -3.40259        -7.45717        -3.02682
| 32>    C       -4.22377        -6.48761        -2.31596
| 33>    C       -3.82977        -5.23644        -2.67238
| 34>    C       -4.39921        -4.05516        -2.18085
| 35>    N       -4.89958        -3.11447        -1.75338
| 36>    C       -3.40824        -8.87227        -2.94565
| 37>    N       -4.40332        -9.68813        -2.46749
| 38>    C       -5.73192        -9.32398        -2.03045
| 39>    C       -6.57431        -8.74982        -3.16466
| 40>    C       -4.05783       -11.04915        -2.57526
| 41>    O       -4.79318       -11.95526        -2.23623
| 42>    C       -2.72548       -11.04482        -3.13711
| 43>    C       -2.35833        -9.70605        -3.36104
| 44>    C       -0.99288        -9.69354        -3.86300
| 45>    O       -0.23906        -8.79157        -4.14743
| 46>    N       -0.64484       -11.05530        -3.94101
| 47>    C        0.63835       -11.46649        -4.46338
| 48>    C        0.54971       -11.82279        -5.94459
| 49>    C       -1.65735       -11.87547        -3.52228
| 50>    C       -1.56656       -13.28203        -3.51720
| 51>    C       -2.58614       -14.07553        -3.07110
| 52>    C       -2.59060       -15.48261        -2.93779
| 53>    C       -1.55933       -16.37451        -2.63784
| 54>    N       -0.16441       -16.19654        -2.59813
| 55>    O        0.35275       -15.32034        -3.27533
| 56>    O        0.46734       -16.96157        -1.89102
| 57>    C       -2.12733       -17.61282        -2.17831
| 58>    C       -3.47842       -17.53943        -2.24775
| 59>    C       -3.84545       -16.26463        -2.80295
| 60>    C       -5.07810       -15.88447        -3.27920
| 61>    C       -5.42036       -14.64471        -3.93146
| 62>    C       -6.76529       -14.53233        -3.97747
| 63>    C       -7.35513       -15.71788        -3.39407
| 64>    N       -8.74904       -15.91932        -3.43573
| 65>    O       -9.24156       -16.82553        -2.78623
| 66>    O       -9.38859       -15.16211        -4.14512
| 67>    C       -6.35514       -16.60492        -3.04545
| 68>    C       -6.45709       -17.98588        -2.69561
| 69>    C       -7.34474       -18.55545        -1.85147
| 70>    C       -7.40927       -19.95958        -1.62948
| 71>    C       -8.23332       -20.62101        -0.74181
| 72>    F       -9.08123       -19.99302         0.07028
| 73>    C       -8.07894       -22.02392        -0.76974
| 74>    F       -8.77376       -22.85774         0.00587
| 75>    C       -7.14253       -22.43897        -1.66837
| 76>    S       -6.43620       -21.11903        -2.49471
| 77>    H        0.17551         2.23566        -6.10102
| 78>    H       -2.82776        -2.49834        -3.29538
| 79>    H       -0.07630        -2.98143        -6.60162
| 80>    H       -1.77968        -7.17665        -4.47321
| 81>    H       -4.98712        -6.70675        -1.59518
| 82>    H       -5.67078        -8.62926        -1.18949
| 83>    H       -6.18307       -10.25383        -1.67083
| 84>    H       -6.13584        -7.83659        -3.56116
| 85>    H       -7.57230        -8.52530        -2.79915
| 86>    H       -6.65603        -9.47357        -3.97209
| 87>    H        1.01497       -12.31120        -3.88240
| 88>    H        1.30822       -10.61266        -4.33185
| 89>    H       -0.13734       -12.65052        -6.10494
| 90>    H        1.53147       -12.11115        -6.30807
| 91>    H        0.20569       -10.96338        -6.51515
| 92>    H       -0.66007       -13.72752        -3.89458
| 93>    H       -3.49430       -13.58897        -2.73880
| 94>    H       -1.53137       -18.43760        -1.83562
| 95>    H       -4.15758       -18.31247        -1.95443
| 96>    H       -4.72181       -13.93914        -4.33021
| 97>    H       -7.34861       -13.72864        -4.38374
| 98>    H       -5.75000       -18.63603        -3.19956
| 99>    H       -8.04167       -17.96137        -1.28018
|100>    H       -6.84215       -23.44496        -1.87967
|101> *
|102>
|103>                          ****END OF INPUT****

CARTESIAN COORDINATES (ANGSTROEM)
---------------------------------
  C     -0.316810    1.403940   -5.639790
  C     -1.184560    1.433200   -4.587380
  F     -1.548180    2.555980   -3.966210
  C     -1.657440    0.155610   -4.222930
  F     -2.509830   -0.044860   -3.218920
  C     -1.143860   -0.860630   -5.006450
  S     -0.064750   -0.190580   -6.198510
  C     -1.390940   -2.258960   -4.930200
  C     -2.223330   -2.932360   -4.066810
  C     -2.125050   -4.328440   -4.332680
  C     -1.181850   -4.473510   -5.460890
  C     -0.757230   -3.233240   -5.809670
  C     -0.855860   -5.653570   -6.142350
  N     -0.597760   -6.583340   -6.764410
  C     -2.760170   -5.358220   -3.675760
  C     -2.529570   -6.750740   -3.837040
  C     -3.402590   -7.457170   -3.026820
  C     -4.223770   -6.487610   -2.315960
  C     -3.829770   -5.236440   -2.672380
  C     -4.399210   -4.055160   -2.180850
  N     -4.899580   -3.114470   -1.753380
  C     -3.408240   -8.872270   -2.945650
  N     -4.403320   -9.688130   -2.467490
  C     -5.731920   -9.323980   -2.030450
  C     -6.574310   -8.749820   -3.164660
  C     -4.057830  -11.049150   -2.575260
  O     -4.793180  -11.955260   -2.236230
  C     -2.725480  -11.044820   -3.137110
  C     -2.358330   -9.706050   -3.361040
  C     -0.992880   -9.693540   -3.863000
  O     -0.239060   -8.791570   -4.147430
  N     -0.644840  -11.055300   -3.941010
  C      0.638350  -11.466490   -4.463380
  C      0.549710  -11.822790   -5.944590
  C     -1.657350  -11.875470   -3.522280
  C     -1.566560  -13.282030   -3.517200
  C     -2.586140  -14.075530   -3.071100
  C     -2.590600  -15.482610   -2.937790
  C     -1.559330  -16.374510   -2.637840
  N     -0.164410  -16.196540   -2.598130
  O      0.352750  -15.320340   -3.275330
  O      0.467340  -16.961570   -1.891020
  C     -2.127330  -17.612820   -2.178310
  C     -3.478420  -17.539430   -2.247750
  C     -3.845450  -16.264630   -2.802950
  C     -5.078100  -15.884470   -3.279200
  C     -5.420360  -14.644710   -3.931460
  C     -6.765290  -14.532330   -3.977470
  C     -7.355130  -15.717880   -3.394070
  N     -8.749040  -15.919320   -3.435730
  O     -9.241560  -16.825530   -2.786230
  O     -9.388590  -15.162110   -4.145120
  C     -6.355140  -16.604920   -3.045450
  C     -6.457090  -17.985880   -2.695610
  C     -7.344740  -18.555450   -1.851470
  C     -7.409270  -19.959580   -1.629480
  C     -8.233320  -20.621010   -0.741810
  F     -9.081230  -19.993020    0.070280
  C     -8.078940  -22.023920   -0.769740
  F     -8.773760  -22.857740    0.005870
  C     -7.142530  -22.438970   -1.668370
  S     -6.436200  -21.119030   -2.494710
  H      0.175510    2.235660   -6.101020
  H     -2.827760   -2.498340   -3.295380
  H     -0.076300   -2.981430   -6.601620
  H     -1.779680   -7.176650   -4.473210
  H     -4.987120   -6.706750   -1.595180
  H     -5.670780   -8.629260   -1.189490
  H     -6.183070  -10.253830   -1.670830
  H     -6.135840   -7.836590   -3.561160
  H     -7.572300   -8.525300   -2.799150
  H     -6.656030   -9.473570   -3.972090
  H      1.014970  -12.311200   -3.882400
  H      1.308220  -10.612660   -4.331850
  H     -0.137340  -12.650520   -6.104940
  H      1.531470  -12.111150   -6.308070
  H      0.205690  -10.963380   -6.515150
  H     -0.660070  -13.727520   -3.894580
  H     -3.494300  -13.588970   -2.738800
  H     -1.531370  -18.437600   -1.835620
  H     -4.157580  -18.312470   -1.954430
  H     -4.721810  -13.939140   -4.330210
  H     -7.348610  -13.728640   -4.383740
  H     -5.750000  -18.636030   -3.199560
  H     -8.041670  -17.961370   -1.280180
  H     -6.842150  -23.444960   -1.879670

 Total Charge           Charge          ....    0
 Multiplicity           Mult            ....    1
 Number of Electrons    NEL             ....  446
 Basis Dimension        Dim             ....  996

ORBITAL ENERGIES
----------------

  NO   OCC          E(Eh)            E(eV)
   0   2.0000     -88.988446     -2421.4987
   1   2.0000     -88.979988     -2421.2686
   2   2.0000     -24.810813      -675.1366
   3   2.0000     -24.803785      -674.9453
   4   2.0000     -24.802241      -674.9033
   5   2.0000     -24.797241      -674.7672
   6   2.0000     -19.246133      -523.7139
   7   2.0000     -19.243300      -523.6368
   8   2.0000     -19.235832      -523.4336
   9   2.0000     -19.234502      -523.3974
  10   2.0000     -19.206214      -522.6277
  11   2.0000     -19.199526      -522.4457
  12   2.0000     -14.652686      -398.7198
  13   2.0000     -14.643734      -398.4763
  14   2.0000     -14.468018      -393.6948
  15   2.0000     -14.461576      -393.5195
  16   2.0000     -14.410595      -392.1322
  17   2.0000     -14.408926      -392.0868
  18   2.0000     -10.387591      -282.6607
  19   2.0000     -10.384821      -282.5853
  20   2.0000     -10.382721      -282.5282
  21   2.0000     -10.381398      -282.4922
  22   2.0000     -10.378506      -282.4135
  23   2.0000     -10.375244      -282.3247
  24   2.0000     -10.353579      -281.7352
  25   2.0000     -10.349846      -281.6336
  26   2.0000     -10.336573      -281.2725
  27   2.0000     -10.331429      -281.1325
  28   2.0000     -10.330436      -281.1055
  29   2.0000     -10.328407      -281.0502
  30   2.0000     -10.328320      -281.0479
  31   2.0000     -10.326690      -281.0035
  32   2.0000     -10.326602      -281.0011
  33   2.0000     -10.323607      -280.9196
  34   2.0000     -10.323220      -280.9091
  35   2.0000     -10.322887      -280.9000
  36   2.0000     -10.322767      -280.8968
  37   2.0000     -10.320816      -280.8437
  38   2.0000     -10.319635      -280.8115
  39   2.0000     -10.319576      -280.8099
  40   2.0000     -10.318178      -280.7719
  41   2.0000     -10.316842      -280.7355
  42   2.0000     -10.316393      -280.7233
  43   2.0000     -10.315548      -280.7003
  44   2.0000     -10.312294      -280.6118
  45   2.0000     -10.311378      -280.5869
  46   2.0000     -10.309881      -280.5461
  47   2.0000     -10.308527      -280.5093
  48   2.0000     -10.306274      -280.4480
  49   2.0000     -10.303927      -280.3841
  50   2.0000     -10.300147      -280.2813
  51   2.0000     -10.299875      -280.2738
  52   2.0000     -10.296218      -280.1743
  53   2.0000     -10.293706      -280.1060
  54   2.0000     -10.290499      -280.0187
  55   2.0000     -10.288474      -279.9636
  56   2.0000     -10.286970      -279.9227
  57   2.0000     -10.280848      -279.7561
  58   2.0000     -10.276049      -279.6255
  59   2.0000     -10.275696      -279.6159
  60   2.0000     -10.273173      -279.5472
  61   2.0000     -10.261681      -279.2345
  62   2.0000      -8.083790      -219.9711
  63   2.0000      -8.075389      -219.7425
  64   2.0000      -6.053137      -164.7142
  65   2.0000      -6.049119      -164.6049
  66   2.0000      -6.045666      -164.5109
  67   2.0000      -6.044653      -164.4834
  68   2.0000      -6.040803      -164.3786
  69   2.0000      -6.037257      -164.2821
  70   2.0000      -1.328285       -36.1445
  71   2.0000      -1.323452       -36.0130
  72   2.0000      -1.322300       -35.9816
  73   2.0000      -1.314967       -35.7821
  74   2.0000      -1.314784       -35.7771
  75   2.0000      -1.309557       -35.6349
  76   2.0000      -1.146841       -31.2071
  77   2.0000      -1.140105       -31.0238
  78   2.0000      -1.138596       -30.9828
  79   2.0000      -1.132194       -30.8086
  80   2.0000      -1.076287       -29.2873
  81   2.0000      -1.066936       -29.0328
  82   2.0000      -1.024508       -27.8783
  83   2.0000      -1.017483       -27.6871
  84   2.0000      -1.013963       -27.5913
  85   2.0000      -1.009285       -27.4640
  86   2.0000      -1.001469       -27.2514
  87   2.0000      -0.996824       -27.1250
  88   2.0000      -0.986978       -26.8570
  89   2.0000      -0.982429       -26.7333
  90   2.0000      -0.938482       -25.5374
  91   2.0000      -0.919140       -25.0111
  92   2.0000      -0.914555       -24.8863
  93   2.0000      -0.911731       -24.8095
  94   2.0000      -0.896387       -24.3919
  95   2.0000      -0.884436       -24.0667
  96   2.0000      -0.881055       -23.9747
  97   2.0000      -0.873931       -23.7809
  98   2.0000      -0.858724       -23.3671
  99   2.0000      -0.853673       -23.2296
 100   2.0000      -0.852981       -23.2108
 101   2.0000      -0.848995       -23.1023
 102   2.0000      -0.846195       -23.0261
 103   2.0000      -0.835325       -22.7303
 104   2.0000      -0.827946       -22.5296
 105   2.0000      -0.816872       -22.2282
 106   2.0000      -0.807597       -21.9758
 107   2.0000      -0.787328       -21.4243
 108   2.0000      -0.776741       -21.1362
 109   2.0000      -0.767896       -20.8955
 110   2.0000      -0.763745       -20.7826
 111   2.0000      -0.735530       -20.0148
 112   2.0000      -0.733430       -19.9576
 113   2.0000      -0.728109       -19.8128
 114   2.0000      -0.725877       -19.7521
 115   2.0000      -0.716258       -19.4904
 116   2.0000      -0.713181       -19.4066
 117   2.0000      -0.694233       -18.8910
 118   2.0000      -0.690975       -18.8024
 119   2.0000      -0.688949       -18.7473
 120   2.0000      -0.685066       -18.6416
 121   2.0000      -0.675300       -18.3758
 122   2.0000      -0.674900       -18.3650
 123   2.0000      -0.672255       -18.2930
 124   2.0000      -0.670748       -18.2520
 125   2.0000      -0.660878       -17.9834
 126   2.0000      -0.656027       -17.8514
 127   2.0000      -0.648360       -17.6428
 128   2.0000      -0.646798       -17.6003
 129   2.0000      -0.639079       -17.3902
 130   2.0000      -0.636909       -17.3312
 131   2.0000      -0.632782       -17.2189
 132   2.0000      -0.625800       -17.0289
 133   2.0000      -0.621675       -16.9166
 134   2.0000      -0.615461       -16.7476
 135   2.0000      -0.610759       -16.6196
 136   2.0000      -0.601921       -16.3791
 137   2.0000      -0.598207       -16.2780
 138   2.0000      -0.594866       -16.1871
 139   2.0000      -0.592631       -16.1263
 140   2.0000      -0.590271       -16.0621
 141   2.0000      -0.589476       -16.0405
 142   2.0000      -0.586618       -15.9627
 143   2.0000      -0.586312       -15.9544
 144   2.0000      -0.584452       -15.9037
 145   2.0000      -0.579103       -15.7582
 146   2.0000      -0.572330       -15.5739
 147   2.0000      -0.567644       -15.4464
 148   2.0000      -0.559659       -15.2291
 149   2.0000      -0.557037       -15.1578
 150   2.0000      -0.555186       -15.1074
 151   2.0000      -0.553680       -15.0664
 152   2.0000      -0.551099       -14.9962
 153   2.0000      -0.549729       -14.9589
 154   2.0000      -0.543616       -14.7925
 155   2.0000      -0.538266       -14.6470
 156   2.0000      -0.537525       -14.6268
 157   2.0000      -0.535977       -14.5847
 158   2.0000      -0.530559       -14.4372
 159   2.0000      -0.529189       -14.4000
 160   2.0000      -0.525886       -14.3101
 161   2.0000      -0.523013       -14.2319
 162   2.0000      -0.520090       -14.1524
 163   2.0000      -0.518787       -14.1169
 164   2.0000      -0.514203       -13.9922
 165   2.0000      -0.510420       -13.8892
 166   2.0000      -0.508880       -13.8473
 167   2.0000      -0.499742       -13.5987
 168   2.0000      -0.499066       -13.5803
 169   2.0000      -0.497437       -13.5359
 170   2.0000      -0.496177       -13.5017
 171   2.0000      -0.493755       -13.4358
 172   2.0000      -0.491704       -13.3799
 173   2.0000      -0.489824       -13.3288
 174   2.0000      -0.488914       -13.3040
 175   2.0000      -0.485986       -13.2244
 176   2.0000      -0.484600       -13.1866
 177   2.0000      -0.483340       -13.1523
 178   2.0000      -0.478800       -13.0288
 179   2.0000      -0.475363       -12.9353
 180   2.0000      -0.473578       -12.8867
 181   2.0000      -0.472059       -12.8454
 182   2.0000      -0.470462       -12.8019
 183   2.0000      -0.466676       -12.6989
 184   2.0000      -0.463423       -12.6104
 185   2.0000      -0.460940       -12.5428
 186   2.0000      -0.459045       -12.4913
 187   2.0000      -0.450228       -12.2513
 188   2.0000      -0.447292       -12.1714
 189   2.0000      -0.446952       -12.1622
 190   2.0000      -0.441046       -12.0015
 191   2.0000      -0.440269       -11.9803
 192   2.0000      -0.439219       -11.9518
 193   2.0000      -0.436481       -11.8773
 194   2.0000      -0.433659       -11.8005
 195   2.0000      -0.431763       -11.7489
 196   2.0000      -0.431460       -11.7406
 197   2.0000      -0.425847       -11.5879
 198   2.0000      -0.417775       -11.3682
 199   2.0000      -0.413056       -11.2398
 200   2.0000      -0.401220       -10.9177
 201   2.0000      -0.399921       -10.8824
 202   2.0000      -0.392951       -10.6927
 203   2.0000      -0.386952       -10.5295
 204   2.0000      -0.381763       -10.3883
 205   2.0000      -0.374642       -10.1945
 206   2.0000      -0.373120       -10.1531
 207   2.0000      -0.371479       -10.1085
 208   2.0000      -0.365899        -9.9566
 209   2.0000      -0.362119        -9.8538
 210   2.0000      -0.359275        -9.7764
 211   2.0000      -0.343154        -9.3377
 212   2.0000      -0.341339        -9.2883
 213   2.0000      -0.336311        -9.1515
 214   2.0000      -0.330224        -8.9859
 215   2.0000      -0.328793        -8.9469
 216   2.0000      -0.328124        -8.9287
 217   2.0000      -0.325419        -8.8551
 218   2.0000      -0.316152        -8.6029
 219   2.0000      -0.305841        -8.3224
 220   2.0000      -0.289531        -7.8785
 221   2.0000      -0.277423        -7.5491
 222   2.0000      -0.243253        -6.6193
 223   0.0000      -0.139366        -3.7923
 224   0.0000      -0.122914        -3.3447
 225   0.0000      -0.075883        -2.0649
 226   0.0000      -0.044262        -1.2044
 227   0.0000      -0.029056        -0.7906

MULLIKEN ATOMIC CHARGES
-----------------------
   0 C :   -0.130188
   1 C :    0.248708
   2 F :   -0.165706
   3 C :    0.216774
   4 F :   -0.153643
   5 C :   -0.183658
   6 S :    0.156992
   7 C :    0.145955
   8 C :   -0.141114
   9 C :    0.110940
  10 C :   -0.075695
  11 C :   -0.029957
  12 C :   -0.179436
  13 N :    0.148525
  14 C :    0.116764
  15 C :   -0.103202
  16 C :    0.031265
  17 C :   -0.033808
  18 C :   -0.092422
  19 C :   -0.187235
  20 N :    0.152445
  21 C :    0.158242
  22 N :   -0.254738
  23 C :    0.094788
  24 C :   -0.007364
  25 C :    0.161094
  26 O :   -0.205621
  27 C :   -0.072865
  28 C :   -0.057055
  29 C :    0.155260
  30 O :   -0.181539
  31 N :   -0.254827
  32 C :    0.092589
  33 C :    0.002631
  34 C :    0.146425
  35 C :   -0.015068
  36 C :   -0.086759
  37 C :    0.068872
  38 C :    0.065026
  39 N :    0.276045
  40 O :   -0.255055
  41 O :   -0.243254
  42 C :    0.023052
  43 C :    0.000038
  44 C :    0.036114
  45 C :    0.038352
  46 C :    0.018661
  47 C :    0.029773
  48 C :    0.065531
  49 N :    0.266270
  50 O :   -0.249868
  51 O :   -0.250237
  52 C :    0.054055
  53 C :   -0.112507
  54 C :    0.112630
  55 C :   -0.198237
  56 C :    0.226079
  57 F :   -0.159697
  58 C :    0.248420
  59 F :   -0.168647
  60 C :   -0.133786
  61 S :    0.135127
  62 H :    0.048114
  63 H :    0.009530
  64 H :    0.009449
  65 H :    0.028180
  66 H :   -0.011905
  67 H :    0.028468
  68 H :    0.050348
  69 H :    0.031233
  70 H :    0.030751
  71 H :    0.027271
  72 H :    0.040726
  73 H :    0.045268
  74 H :    0.015118
  75 H :    0.027215
  76 H :    0.037351
  77 H :    0.013329
  78 H :    0.051452
  79 H :    0.006728
  80 H :   -0.009156
  81 H :   -0.003820
  82 H :    0.003663
  83 H :    0.025257
  84 H :    0.028653
  85 H :    0.046524
Sum of atomic charges:    0.0000000

LOEWDIN ATOMIC CHARGES
----------------------
   0 C :   -0.202427
   1 C :    0.021296
   2 F :   -0.045380
   3 C :    0.040492
   4 F :   -0.029330
   5 C :   -0.205709
   6 S :    0.470565
   7 C :   -0.018202
   8 C :   -0.034908
   9 C :    0.052396
  10 C :   -0.068738
  11 C :    0.042201
  12 C :   -0.033877
  13 N :   -0.047091
  14 C :    0.023957
  15 C :    0.020286
  16 C :   -0.042649
  17 C :    0.042201
  18 C :   -0.078562
  19 C :   -0.034340
  20 N :   -0.056678
  21 C :    0.076532
  22 N :    0.001254
  23 C :    0.035403
  24 C :   -0.060718
  25 C :    0.080854
  26 O :   -0.192013
  27 C :   -0.115583
  28 C :   -0.103827
  29 C :    0.082239
  30 O :   -0.173117
  31 N :    0.007602
  32 C :    0.038254
  33 C :   -0.059221
  34 C :    0.076084
  35 C :   -0.014541
  36 C :    0.008199
  37 C :    0.011299
  38 C :   -0.039129
  39 N :    0.286815
  40 O :   -0.214003
  41 O :   -0.206703
  42 C :    0.013194
  43 C :   -0.037713
  44 C :    0.031937
  45 C :    0.045142
  46 C :   -0.034934
  47 C :    0.023183
  48 C :   -0.043100
  49 N :    0.283645
  50 O :   -0.206565
  51 O :   -0.214002
  52 C :    0.018080
  53 C :   -0.056576
  54 C :    0.020250
  55 C :   -0.211057
  56 C :    0.036314
  57 F :   -0.037305
  58 C :    0.017613
  59 F :   -0.048011
  60 C :   -0.202380
  61 S :    0.456376
  62 H :    0.037903
  63 H :    0.034470
  64 H :    0.033285
  65 H :    0.038582
  66 H :    0.034692
  67 H :    0.021098
  68 H :    0.039653
  69 H :    0.024954
  70 H :    0.034859
  71 H :    0.032174
  72 H :    0.030280
  73 H :    0.038738
  74 H :    0.022191
  75 H :    0.033023
  76 H :    0.034560
  77 H :    0.029941
  78 H :    0.042020
  79 H :    0.038255
  80 H :    0.029821
  81 H :    0.030874
  82 H :    0.037615
  83 H :    0.026223
  84 H :    0.043077
  85 H :    0.036439

  Mayer bond orders larger than 0.100000
B(  0-C ,  1-C ) :   1.5285 B(  0-C ,  5-C ) :   0.1245 B(  0-C ,  6-S ) :   1.1433
B(  0-C , 62-H ) :   0.9685 B(  1-C ,  2-F ) :   1.1497 B(  1-C ,  3-C ) :   1.2093
B(  3-C ,  4-F ) :   1.1597 B(  3-C ,  5-C ) :   1.4219 B(  5-C ,  6-S ) :   1.1273
B(  5-C ,  7-C ) :   1.1237 B(  7-C ,  8-C ) :   1.5693 B(  7-C , 11-C ) :   1.0265
B(  8-C ,  9-C ) :   1.1158 B(  8-C , 63-H ) :   1.0051 B(  9-C , 10-C ) :   1.0986
B(  9-C , 14-C ) :   1.3917 B( 10-C , 11-C ) :   1.6950 B( 10-C , 12-C ) :   1.0824
B( 11-C , 64-H ) :   1.0131 B( 12-C , 13-N ) :   2.9839 B( 14-C , 15-C ) :   1.1191
B( 14-C , 18-C ) :   1.1107 B( 15-C , 16-C ) :   1.5357 B( 15-C , 65-H ) :   0.9880
B( 16-C , 17-C ) :   1.0267 B( 16-C , 21-C ) :   1.0512 B( 17-C , 18-C ) :   1.6620
B( 17-C , 66-H ) :   1.0287 B( 18-C , 19-C ) :   1.0820 B( 19-C , 20-N ) :   2.9823
B( 21-C , 22-N ) :   1.1979 B( 21-C , 28-C ) :   1.3612 B( 22-N , 23-C ) :   0.9388
B( 22-N , 25-C ) :   1.0543 B( 23-C , 24-C ) :   1.1175 B( 23-C , 67-H ) :   0.9513
B( 23-C , 68-H ) :   0.9223 B( 24-C , 69-H ) :   0.9669 B( 24-C , 70-H ) :   0.9664
B( 24-C , 71-H ) :   0.9615 B( 25-C , 26-O ) :   2.0130 B( 25-C , 27-C ) :   0.9923
B( 26-O , 78-H ) :   0.1058 B( 27-C , 28-C ) :   1.2712 B( 27-C , 34-C ) :   1.2792
B( 28-C , 29-C ) :   0.9639 B( 29-C , 30-O ) :   2.0920 B( 29-C , 31-N ) :   1.0474
B( 31-N , 32-C ) :   0.9338 B( 31-N , 34-C ) :   1.1811 B( 32-C , 33-C ) :   1.1244
B( 32-C , 72-H ) :   0.9482 B( 32-C , 73-H ) :   0.9280 B( 33-C , 74-H ) :   0.9679
B( 33-C , 75-H ) :   0.9679 B( 33-C , 76-H ) :   0.9639 B( 34-C , 35-C ) :   1.1631
B( 35-C , 36-C ) :   1.5708 B( 35-C , 77-H ) :   0.9464 B( 36-C , 37-C ) :   1.1579
B( 36-C , 78-H ) :   0.9304 B( 37-C , 38-C ) :   1.5072 B( 37-C , 44-C ) :   1.0135
B( 38-C , 39-N ) :   0.9530 B( 38-C , 42-C ) :   1.1358 B( 39-N , 40-O ) :   1.4675
B( 39-N , 41-O ) :   1.5409 B( 40-O , 41-O ) :   0.2545 B( 42-C , 43-C ) :   1.5841
B( 42-C , 79-H ) :   1.0079 B( 43-C , 44-C ) :   1.0968 B( 43-C , 80-H ) :   1.0021
B( 44-C , 45-C ) :   1.5755 B( 45-C , 46-C ) :   1.0914 B( 45-C , 52-C ) :   1.0217
B( 46-C , 47-C ) :   1.6174 B( 46-C , 81-H ) :   0.9996 B( 47-C , 48-C ) :   1.0972
B( 47-C , 82-H ) :   1.0091 B( 48-C , 49-N ) :   0.9482 B( 48-C , 52-C ) :   1.5935
B( 49-N , 50-O ) :   1.5019 B( 49-N , 51-O ) :   1.5357 B( 50-O , 51-O ) :   0.2586
B( 52-C , 53-C ) :   1.1052 B( 53-C , 54-C ) :   1.6829 B( 53-C , 83-H ) :   0.9389
B( 54-C , 55-C ) :   1.1430 B( 54-C , 84-H ) :   0.9693 B( 55-C , 56-C ) :   1.4334
B( 55-C , 60-C ) :   0.1136 B( 55-C , 61-S ) :   1.1093 B( 56-C , 57-F ) :   1.1776
B( 56-C , 58-C ) :   1.1920 B( 58-C , 59-F ) :   1.1474 B( 58-C , 60-C ) :   1.5388
B( 60-C , 61-S ) :   1.1428 B( 60-C , 85-H ) :   0.9679

-----------------------------------------------------------------------------
         ABSORPTION SPECTRUM VIA TRANSITION ELECTRIC DIPOLE MOMENTS
-----------------------------------------------------------------------------
State   Energy  Wavelength   fosc         T2         TX        TY        TZ
        (cm-1)    (nm)                  (au**2)     (au)      (au)      (au)
-----------------------------------------------------------------------------
   0    7429.8   1345.9   0.467248143  20.70348  -0.54282  -4.48267   0.56081
   1   10888.4    918.4   0.011279303   0.34103  -0.18158   0.36590  -0.41735
   2   13309.7    751.3   0.053872116   1.33252  -0.71380  -0.83781   0.34797
   3   15873.5    630.0   0.106586013   2.21057   0.61788   1.21178  -0.60033
   4   18915.8    528.7   0.043282925   0.75330   0.75273   0.37525  -0.21421
   5   20011.0    499.7   0.142240046   2.34007  -0.94076   1.15341   0.35311
   6   20621.1    484.9   0.059233522   0.94565   0.61235  -0.73468  -0.17585
   7   22809.0    438.4   0.060690614   0.87597   0.16470  -0.88395   0.25977
   8   23249.2    430.1   0.003761999   0.05327  -0.10342  -0.19279   0.07352
   9   23749.7    421.1   0.120869218   1.67545   0.13282  -1.23038   0.37946
  10   24578.5    406.9   0.021888033   0.29318   0.16637  -0.47998   0.18738
  11   25177.0    397.2   0.201001297   2.62827   0.58601   1.46817  -0.35962
  12   26013.7    384.4   0.254544024   3.22134   1.00103   1.45602  -0.31512
  13   26270.5    380.7   0.349169575   4.37566  -0.74371  -1.77015   0.83014
  14   26578.5    376.2   0.096095334   1.19027  -1.07725   0.16070  -0.06304
  15   27053.7    369.6   0.067657159   0.82331  -0.88332   0.20607  -0.02408
  16   27326.1    365.9   0.021254522   0.25606   0.07313   0.48223   0.13481
  17   27337.0    365.8   0.004471841   0.05385  -0.14417  -0.00528   0.18177
  18   27499.1    363.6   0.020076717   0.24035   0.34277   0.35047   0.00564
  19   27733.1    360.6   0.005263225   0.06248   0.15430  -0.10617  -0.16553
  20   28220.1    354.4   0.035496582   0.41410   0.05413   0.63648  -0.07789
  21   28515.8    350.7   0.011042585   0.12749   0.09317  -0.33280   0.08973
  22   28733.0    348.0   0.082400276   0.94411   0.40313   0.73449  -0.49207
  23   30155.6    331.6   0.128610261   1.40405  -1.16568   0.16705  -0.13171
  24   31982.3    312.7   0.017811744   0.18335  -0.22235   0.35780  -0.07670
  25   32165.7    310.9   0.065941337   0.67490   0.80703  -0.07573   0.13370
  26   32355.7    309.1   0.067614629   0.68796  -0.75004  -0.35328  -0.02442
  27   32464.4    308.0   0.084964585   0.86160   0.18712  -0.87270   0.25491
  28   32698.6    305.8   0.008908142   0.08969  -0.09166   0.28359  -0.02935
  29   33240.2    300.8   0.119979790   1.18828  -0.35547   0.93876  -0.42504
  30   33309.1    300.2   0.035218306   0.34808  -0.53161   0.23438  -0.10264
  31   33497.5    298.5   0.156156568   1.53470  -1.04232   0.65920  -0.11713
  32   34099.9    293.3   0.091796747   0.88624  -0.91761  -0.07121  -0.19788
  33   34266.2    291.8   0.092158732   0.88541  -0.14674   0.84579  -0.38538
  34   34367.8    291.0   0.165077359   1.58129   0.97006  -0.73022   0.32720
  35   34440.2    290.4   0.124681119   1.19182  -0.64991  -0.77728   0.40653
  36   34691.5    288.3   0.015971042   0.15156  -0.10297   0.35150  -0.13192
  37   35409.1    282.4   0.085212243   0.79225  -0.61114  -0.15791   0.62756
  38   35578.6    281.1   0.013932896   0.12892   0.02507  -0.35810  -0.00777
  39   35845.1    279.0   0.113107526   1.03881  -0.93877  -0.36195  -0.16280
  40   36094.5    277.1   0.052349477   0.47747  -0.67468   0.13796  -0.05695
  41   36176.2    276.4   0.079593243   0.72432  -0.51312  -0.65346   0.18444
  42   36309.8    275.4   0.053926233   0.48894   0.11650  -0.62695   0.28687
  43   36356.9    275.1   0.052609445   0.47638   0.18637  -0.60678   0.27104
  44   36439.4    274.4   0.007975379   0.07205  -0.24838   0.01748  -0.10028
  45   36805.6    271.7   0.094789516   0.84786  -0.21566  -0.84973   0.28162
  46   36988.2    270.4   0.211984786   1.88676  -0.14328  -1.36610  -0.00112
  47   37306.9    268.0   0.002544870   0.02246  -0.03648   0.14289   0.02661
  48   37425.1    267.2   0.117284717   1.03170  -0.14373   0.89417  -0.45989
  49   37762.7    264.8   0.024368616   0.21244  -0.41689  -0.16516   0.10662
  50   38342.2    260.8   0.016474114   0.14145  -0.32523   0.13461  -0.13250
  51   38664.1    258.6   0.215159498   1.83201  -0.38209  -1.25679   0.32634
  52   39064.5    256.0   0.111019346   0.93560  -0.95732  -0.10569  -0.08934
  53   39191.6    255.2   0.012182887   0.10234  -0.17218   0.23864  -0.12546
  54   40091.5    249.4   0.032083775   0.26346  -0.40500  -0.31418   0.02679

FINAL SINGLE POINT ENERGY     -3662.623018364308

DIPOLE MOMENT
-------------
                                X             Y             Z
Electronic contribution:    -12.42011      11.73101      12.66840
Nuclear contribution   :     13.65023     -11.51830     -13.63380
                        -----------------------------------------
Total Dipole Moment    :      1.23013       0.21270      -0.96540
                        -----------------------------------------
Magnitude (a.u.)       :      1.57812
Magnitude (Debye)      :      4.01126

Rotational constants in cm-1:     0.002923     0.000347     0.000321
Rotational constants in MHz :    87.619689    10.412211     9.617707

                             ****ORCA TERMINATED NORMALLY****
TOTAL RUN TIME: 0 days 0 hours 7 minutes 54 seconds 895 msec
