                         Program Version 4.2.0 -  RELEASE  -
|  1> # ORCA input file
|  2> # SCF done       -184.299382943426          0.000208842598
|  3> ! CAM-B3LYP def2-SVP def2/J RIJCOSX Grid4 TightSCF
|  4> %maxcore 5000
|  5> %tddft
|  6>     Mode sTDDFT
|  7>     Ethresh 5.0
|  8>     maxcore 5000
|  9> end
| 10>
| 11> %pal
| 12>   nprocs 6
| 13>   end
| 14> * xyz 0 1
| 15>    C        3.32345         1.24590        -2.10890
| 16>    C        2.80469         1.12958        -3.37151
| 17>    C        3.40698         0.37549        -4.40171
| 18>    N        3.84828        -0.21491        -5.28134
| 19>    C        1.58551         1.68847        -3.81172
| 20>    N        0.59572         2.08923        -4.23391
| 21>    C        4.51436         0.56633        -1.61903
| 22>    C        4.59647         0.76245        -0.21133
| 23>    C        5.60854         0.22950         0.53490
| 24>    C        6.60874        -0.53285        -0.10797
| 25>    C        6.53912        -0.72624        -1.51855
| 26>    C        5.47626        -0.16604        -2.26350
| 27>    C        7.54596        -1.48410        -2.15034
| 28>    C        8.57225        -2.02645        -1.42553
| 29>    C        8.63952        -1.83590        -0.03715
| 30>    C        7.67846        -1.10547         0.60788
| 31>    C        3.46916         1.59076         0.24202
| 32>    O        3.22267         1.89535         1.38955
| 33>    C        2.73792         1.98159        -0.99532
| 34>    C        1.80165         2.96202        -1.15226
| 35>    C        1.10651         3.74323        -0.19952
| 36>    S        0.15836         5.07871        -0.81166
| 37>    C       -0.40093         5.50026         0.77600
| 38>    C        0.13747         4.61048         1.72893
| 39>    C        0.97347         3.64016         1.17618
| 40>    C       -0.11408         4.66904         3.11048
| 41>    N       -0.30139         4.69266         4.24231
| 42>    C       -1.25947         6.59763         0.93268
| 43>    C       -1.84319         7.00434         2.11051
| 44>    C       -2.68035         8.11406         2.17036
| 45>    S       -3.52303         8.61666         3.58661
| 46>    C       -4.24140         9.93526         2.72090
| 47>    C       -3.78049         9.92379         1.37030
| 48>    O       -2.91993         8.89055         1.12573
| 49>    N       -4.07187        10.82471         0.50361
| 50>    C       -3.79585        10.70569        -0.82798
| 51>    O       -3.67133         9.68323        -1.45330
| 52>    C       -5.13883        10.86502         3.24040
| 53>    C       -5.61997        10.84832         4.52425
| 54>    C       -6.54124        11.76789         5.05064
| 55>    C       -7.08606        11.72779         6.32685
| 56>    C       -7.99297        12.80185         6.48728
| 57>    C       -7.97224        13.54603         5.20947
| 58>    C       -7.11297        12.92127         4.36585
| 59>    C       -8.70633        14.69538         4.89192
| 60>    N       -9.29246        15.63678         4.59307
| 61>    C       -8.77247        13.08890         7.58917
| 62>    C       -9.72263        14.14423         7.72967
| 63>    C      -10.36822        14.01040         8.93917
| 64>    C       -9.77437        12.88211         9.64316
| 65>    C       -8.81837        12.33146         8.84713
| 66>    C       -8.00948        11.24638         9.20135
| 67>    N       -7.35091        10.35934         9.51697
| 68>    C      -11.42231        14.84093         9.41229
| 69>    C      -12.47130        14.41671        10.16869
| 70>    C      -13.51447        15.22767        10.76987
| 71>    C      -13.48094        16.58613        10.94406
| 72>    C      -14.50969        17.32865        11.56072
| 73>    N      -15.31484        17.98368        12.05078
| 74>    C      -12.40424        17.41585        10.56537
| 75>    N      -11.55575        18.14308        10.30264
| 76>    C      -14.56449        14.32920        11.23255
| 77>    C      -14.16112        12.98643        10.97805
| 78>    C      -12.84668        12.98253        10.31811
| 79>    O      -12.23830        12.01798         9.90686
| 80>    C      -14.94776        11.92065        11.30915
| 81>    C      -16.19824        12.15297        11.92360
| 82>    C      -16.61186        13.49300        12.17758
| 83>    C      -15.77634        14.57658        11.82188
| 84>    C      -17.86444        13.71254        12.78601
| 85>    C      -18.67033        12.66081        13.12815
| 86>    C      -18.26189        11.34218        12.87779
| 87>    C      -17.05177        11.09350        12.28888
| 88>    H        5.64549         0.39008         1.60216
| 89>    H        5.45540        -0.32482        -3.32991
| 90>    H        7.48912        -1.62945        -3.21906
| 91>    H        9.33831        -2.60575        -1.91854
| 92>    H        9.45671        -2.27048         0.51867
| 93>    H        7.72494        -0.95536         1.67650
| 94>    H        1.54692         3.22185        -2.17366
| 95>    H        1.47514         2.88770         1.75810
| 96>    H       -1.49000         7.15929         0.03636
| 97>    H       -1.68648         6.46554         3.03146
| 98>    H       -3.77409        11.70389        -1.29862
| 99>    H       -5.45403        11.61994         2.53467
|100>    H       -5.28641        10.06295         5.19272
|101>    H       -6.86550        10.99218         7.07514
|102>    H       -6.88491        13.22405         3.36128
|103>    H       -9.94145        14.87999         6.98029
|104>    H      -10.01227        12.58272        10.64521
|105>    H      -11.38867        15.87366         9.08603
|106>    H      -14.61888        10.91249        11.10474
|107>    H      -16.12082        15.57925        12.01983
|108>    H      -18.17446        14.72929        12.97759
|109>    H      -19.62786        12.83938        13.59383
|110>    H      -18.91085        10.52451        13.15344
|111>    H      -16.73173        10.08056        12.09315
|112> *
|113>
|114>                          ****END OF INPUT****

CARTESIAN COORDINATES (ANGSTROEM)
---------------------------------
  C      3.323450    1.245900   -2.108900
  C      2.804690    1.129580   -3.371510
  C      3.406980    0.375490   -4.401710
  N      3.848280   -0.214910   -5.281340
  C      1.585510    1.688470   -3.811720
  N      0.595720    2.089230   -4.233910
  C      4.514360    0.566330   -1.619030
  C      4.596470    0.762450   -0.211330
  C      5.608540    0.229500    0.534900
  C      6.608740   -0.532850   -0.107970
  C      6.539120   -0.726240   -1.518550
  C      5.476260   -0.166040   -2.263500
  C      7.545960   -1.484100   -2.150340
  C      8.572250   -2.026450   -1.425530
  C      8.639520   -1.835900   -0.037150
  C      7.678460   -1.105470    0.607880
  C      3.469160    1.590760    0.242020
  O      3.222670    1.895350    1.389550
  C      2.737920    1.981590   -0.995320
  C      1.801650    2.962020   -1.152260
  C      1.106510    3.743230   -0.199520
  S      0.158360    5.078710   -0.811660
  C     -0.400930    5.500260    0.776000
  C      0.137470    4.610480    1.728930
  C      0.973470    3.640160    1.176180
  C     -0.114080    4.669040    3.110480
  N     -0.301390    4.692660    4.242310
  C     -1.259470    6.597630    0.932680
  C     -1.843190    7.004340    2.110510
  C     -2.680350    8.114060    2.170360
  S     -3.523030    8.616660    3.586610
  C     -4.241400    9.935260    2.720900
  C     -3.780490    9.923790    1.370300
  O     -2.919930    8.890550    1.125730
  N     -4.071870   10.824710    0.503610
  C     -3.795850   10.705690   -0.827980
  O     -3.671330    9.683230   -1.453300
  C     -5.138830   10.865020    3.240400
  C     -5.619970   10.848320    4.524250
  C     -6.541240   11.767890    5.050640
  C     -7.086060   11.727790    6.326850
  C     -7.992970   12.801850    6.487280
  C     -7.972240   13.546030    5.209470
  C     -7.112970   12.921270    4.365850
  C     -8.706330   14.695380    4.891920
  N     -9.292460   15.636780    4.593070
  C     -8.772470   13.088900    7.589170
  C     -9.722630   14.144230    7.729670
  C    -10.368220   14.010400    8.939170
  C     -9.774370   12.882110    9.643160
  C     -8.818370   12.331460    8.847130
  C     -8.009480   11.246380    9.201350
  N     -7.350910   10.359340    9.516970
  C    -11.422310   14.840930    9.412290
  C    -12.471300   14.416710   10.168690
  C    -13.514470   15.227670   10.769870
  C    -13.480940   16.586130   10.944060
  C    -14.509690   17.328650   11.560720
  N    -15.314840   17.983680   12.050780
  C    -12.404240   17.415850   10.565370
  N    -11.555750   18.143080   10.302640
  C    -14.564490   14.329200   11.232550
  C    -14.161120   12.986430   10.978050
  C    -12.846680   12.982530   10.318110
  O    -12.238300   12.017980    9.906860
  C    -14.947760   11.920650   11.309150
  C    -16.198240   12.152970   11.923600
  C    -16.611860   13.493000   12.177580
  C    -15.776340   14.576580   11.821880
  C    -17.864440   13.712540   12.786010
  C    -18.670330   12.660810   13.128150
  C    -18.261890   11.342180   12.877790
  C    -17.051770   11.093500   12.288880
  H      5.645490    0.390080    1.602160
  H      5.455400   -0.324820   -3.329910
  H      7.489120   -1.629450   -3.219060
  H      9.338310   -2.605750   -1.918540
  H      9.456710   -2.270480    0.518670
  H      7.724940   -0.955360    1.676500
  H      1.546920    3.221850   -2.173660
  H      1.475140    2.887700    1.758100
  H     -1.490000    7.159290    0.036360
  H     -1.686480    6.465540    3.031460
  H     -3.774090   11.703890   -1.298620
  H     -5.454030   11.619940    2.534670
  H     -5.286410   10.062950    5.192720
  H     -6.865500   10.992180    7.075140
  H     -6.884910   13.224050    3.361280
  H     -9.941450   14.879990    6.980290
  H    -10.012270   12.582720   10.645210
  H    -11.388670   15.873660    9.086030
  H    -14.618880   10.912490   11.104740
  H    -16.120820   15.579250   12.019830
  H    -18.174460   14.729290   12.977590
  H    -19.627860   12.839380   13.593830
  H    -18.910850   10.524510   13.153440
  H    -16.731730   10.080560   12.093150

 Total Charge           Charge          ....    0
 Multiplicity           Mult            ....    1
 Number of Electrons    NEL             ....  498
 Basis Dimension        Dim             .... 1150

ORBITAL ENERGIES
----------------

  NO   OCC          E(Eh)            E(eV)
   0   2.0000     -89.029509     -2422.6161
   1   2.0000     -89.004596     -2421.9382
   2   2.0000     -19.347250      -526.4654
   3   2.0000     -19.236564      -523.4535
   4   2.0000     -19.220919      -523.0278
   5   2.0000     -19.187234      -522.1112
   6   2.0000     -14.435494      -392.8098
   7   2.0000     -14.429501      -392.6467
   8   2.0000     -14.427096      -392.5813
   9   2.0000     -14.416184      -392.2843
  10   2.0000     -14.415734      -392.2721
  11   2.0000     -14.410331      -392.1250
  12   2.0000     -14.398796      -391.8112
  13   2.0000     -14.393899      -391.6779
  14   2.0000     -10.429349      -283.7970
  15   2.0000     -10.410840      -283.2934
  16   2.0000     -10.387579      -282.6604
  17   2.0000     -10.370946      -282.2078
  18   2.0000     -10.363557      -282.0067
  19   2.0000     -10.359091      -281.8852
  20   2.0000     -10.357691      -281.8471
  21   2.0000     -10.355165      -281.7784
  22   2.0000     -10.349775      -281.6317
  23   2.0000     -10.347642      -281.5737
  24   2.0000     -10.344566      -281.4900
  25   2.0000     -10.344104      -281.4774
  26   2.0000     -10.342746      -281.4404
  27   2.0000     -10.341638      -281.4103
  28   2.0000     -10.338107      -281.3142
  29   2.0000     -10.336621      -281.2738
  30   2.0000     -10.335458      -281.2421
  31   2.0000     -10.331717      -281.1403
  32   2.0000     -10.329290      -281.0743
  33   2.0000     -10.323736      -280.9231
  34   2.0000     -10.322734      -280.8959
  35   2.0000     -10.322246      -280.8826
  36   2.0000     -10.320816      -280.8437
  37   2.0000     -10.319687      -280.8130
  38   2.0000     -10.318551      -280.7821
  39   2.0000     -10.317859      -280.7632
  40   2.0000     -10.315968      -280.7118
  41   2.0000     -10.315565      -280.7008
  42   2.0000     -10.314333      -280.6673
  43   2.0000     -10.311842      -280.5995
  44   2.0000     -10.311246      -280.5833
  45   2.0000     -10.309573      -280.5377
  46   2.0000     -10.309214      -280.5280
  47   2.0000     -10.308948      -280.5207
  48   2.0000     -10.308794      -280.5166
  49   2.0000     -10.306906      -280.4652
  50   2.0000     -10.304689      -280.4048
  51   2.0000     -10.303355      -280.3685
  52   2.0000     -10.302220      -280.3377
  53   2.0000     -10.301938      -280.3300
  54   2.0000     -10.301803      -280.3263
  55   2.0000     -10.301768      -280.3254
  56   2.0000     -10.301279      -280.3121
  57   2.0000     -10.299564      -280.2654
  58   2.0000     -10.299336      -280.2592
  59   2.0000     -10.299122      -280.2533
  60   2.0000     -10.298759      -280.2435
  61   2.0000     -10.298322      -280.2316
  62   2.0000     -10.296720      -280.1880
  63   2.0000     -10.296255      -280.1753
  64   2.0000     -10.295965      -280.1675
  65   2.0000     -10.295478      -280.1542
  66   2.0000     -10.293090      -280.0892
  67   2.0000     -10.290752      -280.0256
  68   2.0000     -10.287825      -279.9459
  69   2.0000     -10.287373      -279.9337
  70   2.0000     -10.287129      -279.9270
  71   2.0000     -10.286662      -279.9143
  72   2.0000     -10.278474      -279.6915
  73   2.0000      -8.124487      -221.0785
  74   2.0000      -8.100131      -220.4158
  75   2.0000      -6.093221      -165.8050
  76   2.0000      -6.089222      -165.6962
  77   2.0000      -6.087539      -165.6503
  78   2.0000      -6.069164      -165.1503
  79   2.0000      -6.065123      -165.0404
  80   2.0000      -6.062557      -164.9706
  81   2.0000      -1.271922       -34.6108
  82   2.0000      -1.151584       -31.3362
  83   2.0000      -1.136265       -30.9194
  84   2.0000      -1.116107       -30.3708
  85   2.0000      -1.041962       -28.3532
  86   2.0000      -1.032015       -28.0826
  87   2.0000      -1.019136       -27.7321
  88   2.0000      -1.017980       -27.7007
  89   2.0000      -1.014577       -27.6080
  90   2.0000      -1.013944       -27.5908
  91   2.0000      -1.011686       -27.5294
  92   2.0000      -1.006313       -27.3832
  93   2.0000      -0.999749       -27.2045
  94   2.0000      -0.997115       -27.1329
  95   2.0000      -0.994307       -27.0565
  96   2.0000      -0.994210       -27.0538
  97   2.0000      -0.984520       -26.7902
  98   2.0000      -0.983858       -26.7721
  99   2.0000      -0.977464       -26.5981
 100   2.0000      -0.971529       -26.4367
 101   2.0000      -0.958175       -26.0733
 102   2.0000      -0.938869       -25.5479
 103   2.0000      -0.926879       -25.2217
 104   2.0000      -0.925773       -25.1916
 105   2.0000      -0.914635       -24.8885
 106   2.0000      -0.905995       -24.6534
 107   2.0000      -0.900943       -24.5159
 108   2.0000      -0.894833       -24.3496
 109   2.0000      -0.892442       -24.2846
 110   2.0000      -0.883845       -24.0507
 111   2.0000      -0.880145       -23.9500
 112   2.0000      -0.873474       -23.7684
 113   2.0000      -0.855723       -23.2854
 114   2.0000      -0.851339       -23.1661
 115   2.0000      -0.840000       -22.8576
 116   2.0000      -0.838820       -22.8254
 117   2.0000      -0.831256       -22.6196
 118   2.0000      -0.829801       -22.5800
 119   2.0000      -0.809778       -22.0352
 120   2.0000      -0.801182       -21.8013
 121   2.0000      -0.786227       -21.3943
 122   2.0000      -0.777760       -21.1639
 123   2.0000      -0.775832       -21.1115
 124   2.0000      -0.763149       -20.7663
 125   2.0000      -0.761224       -20.7140
 126   2.0000      -0.749269       -20.3886
 127   2.0000      -0.733423       -19.9575
 128   2.0000      -0.724585       -19.7170
 129   2.0000      -0.720362       -19.6020
 130   2.0000      -0.715829       -19.4787
 131   2.0000      -0.711906       -19.3719
 132   2.0000      -0.708012       -19.2660
 133   2.0000      -0.705370       -19.1941
 134   2.0000      -0.703287       -19.1374
 135   2.0000      -0.696538       -18.9538
 136   2.0000      -0.693612       -18.8741
 137   2.0000      -0.682386       -18.5687
 138   2.0000      -0.679261       -18.4836
 139   2.0000      -0.674992       -18.3675
 140   2.0000      -0.670240       -18.2382
 141   2.0000      -0.658244       -17.9117
 142   2.0000      -0.650543       -17.7022
 143   2.0000      -0.645971       -17.5778
 144   2.0000      -0.637948       -17.3594
 145   2.0000      -0.636287       -17.3143
 146   2.0000      -0.630688       -17.1619
 147   2.0000      -0.627550       -17.0765
 148   2.0000      -0.622788       -16.9469
 149   2.0000      -0.618100       -16.8194
 150   2.0000      -0.617595       -16.8056
 151   2.0000      -0.614633       -16.7250
 152   2.0000      -0.607922       -16.5424
 153   2.0000      -0.597456       -16.2576
 154   2.0000      -0.589391       -16.0381
 155   2.0000      -0.579869       -15.7790
 156   2.0000      -0.578202       -15.7337
 157   2.0000      -0.575430       -15.6583
 158   2.0000      -0.570791       -15.5320
 159   2.0000      -0.559464       -15.2238
 160   2.0000      -0.558050       -15.1853
 161   2.0000      -0.554783       -15.0964
 162   2.0000      -0.553232       -15.0542
 163   2.0000      -0.551783       -15.0148
 164   2.0000      -0.548141       -14.9157
 165   2.0000      -0.545556       -14.8453
 166   2.0000      -0.544489       -14.8163
 167   2.0000      -0.543494       -14.7892
 168   2.0000      -0.538831       -14.6624
 169   2.0000      -0.537679       -14.6310
 170   2.0000      -0.533600       -14.5200
 171   2.0000      -0.530944       -14.4477
 172   2.0000      -0.530149       -14.4261
 173   2.0000      -0.526104       -14.3160
 174   2.0000      -0.525495       -14.2995
 175   2.0000      -0.522262       -14.2115
 176   2.0000      -0.519973       -14.1492
 177   2.0000      -0.516942       -14.0667
 178   2.0000      -0.515826       -14.0363
 179   2.0000      -0.513621       -13.9763
 180   2.0000      -0.511636       -13.9223
 181   2.0000      -0.509859       -13.8740
 182   2.0000      -0.509634       -13.8678
 183   2.0000      -0.509000       -13.8506
 184   2.0000      -0.504989       -13.7415
 185   2.0000      -0.500501       -13.6193
 186   2.0000      -0.499395       -13.5892
 187   2.0000      -0.499062       -13.5802
 188   2.0000      -0.495643       -13.4871
 189   2.0000      -0.494313       -13.4509
 190   2.0000      -0.487567       -13.2674
 191   2.0000      -0.486524       -13.2390
 192   2.0000      -0.484988       -13.1972
 193   2.0000      -0.480291       -13.0694
 194   2.0000      -0.477837       -13.0026
 195   2.0000      -0.477739       -12.9999
 196   2.0000      -0.470017       -12.7898
 197   2.0000      -0.469635       -12.7794
 198   2.0000      -0.467446       -12.7199
 199   2.0000      -0.465729       -12.6731
 200   2.0000      -0.464929       -12.6514
 201   2.0000      -0.460874       -12.5410
 202   2.0000      -0.460547       -12.5321
 203   2.0000      -0.457812       -12.4577
 204   2.0000      -0.455769       -12.4021
 205   2.0000      -0.455580       -12.3970
 206   2.0000      -0.451440       -12.2843
 207   2.0000      -0.448934       -12.2161
 208   2.0000      -0.446238       -12.1427
 209   2.0000      -0.445298       -12.1172
 210   2.0000      -0.444500       -12.0954
 211   2.0000      -0.441915       -12.0251
 212   2.0000      -0.439054       -11.9473
 213   2.0000      -0.438882       -11.9426
 214   2.0000      -0.436996       -11.8913
 215   2.0000      -0.434867       -11.8333
 216   2.0000      -0.434198       -11.8151
 217   2.0000      -0.433616       -11.7993
 218   2.0000      -0.431397       -11.7389
 219   2.0000      -0.431008       -11.7283
 220   2.0000      -0.428599       -11.6628
 221   2.0000      -0.427751       -11.6397
 222   2.0000      -0.425358       -11.5746
 223   2.0000      -0.420258       -11.4358
 224   2.0000      -0.419190       -11.4067
 225   2.0000      -0.413646       -11.2559
 226   2.0000      -0.409666       -11.1476
 227   2.0000      -0.405761       -11.0413
 228   2.0000      -0.402454       -10.9513
 229   2.0000      -0.393111       -10.6971
 230   2.0000      -0.388819       -10.5803
 231   2.0000      -0.385703       -10.4955
 232   2.0000      -0.376988       -10.2584
 233   2.0000      -0.369470       -10.0538
 234   2.0000      -0.364785        -9.9263
 235   2.0000      -0.362640        -9.8679
 236   2.0000      -0.355869        -9.6837
 237   2.0000      -0.351638        -9.5686
 238   2.0000      -0.346722        -9.4348
 239   2.0000      -0.330230        -8.9860
 240   2.0000      -0.322062        -8.7638
 241   2.0000      -0.321536        -8.7494
 242   2.0000      -0.320377        -8.7179
 243   2.0000      -0.314578        -8.5601
 244   2.0000      -0.308234        -8.3875
 245   2.0000      -0.302013        -8.2182
 246   2.0000      -0.299031        -8.1371
 247   2.0000      -0.289023        -7.8647
 248   2.0000      -0.241433        -6.5697
 249   0.0000      -0.146692        -3.9917
 250   0.0000      -0.117655        -3.2016
 251   0.0000      -0.094553        -2.5729
 252   0.0000      -0.079225        -2.1558
 253   0.0000      -0.070626        -1.9218

MULLIKEN ATOMIC CHARGES
-----------------------
   0 C :    0.294743
   1 C :   -0.339728
   2 C :   -0.180687
   3 N :    0.155152
   4 C :   -0.205044
   5 N :    0.170737
   6 C :    0.049647
   7 C :   -0.002369
   8 C :   -0.077906
   9 C :    0.098262
  10 C :    0.096420
  11 C :   -0.079345
  12 C :   -0.018871
  13 C :    0.038849
  14 C :    0.037267
  15 C :   -0.016901
  16 C :    0.162042
  17 O :   -0.150146
  18 C :   -0.079150
  19 C :    0.050688
  20 C :   -0.105279
  21 S :    0.203575
  22 C :   -0.057594
  23 C :   -0.067374
  24 C :    0.044398
  25 C :   -0.164437
  26 N :    0.128223
  27 C :    0.052351
  28 C :   -0.006887
  29 C :    0.086051
  30 S :    0.241038
  31 C :   -0.128071
  32 C :    0.150933
  33 O :   -0.147135
  34 N :   -0.146073
  35 C :    0.162410
  36 O :   -0.237544
  37 C :    0.013189
  38 C :   -0.020883
  39 C :    0.126359
  40 C :   -0.124966
  41 C :    0.132820
  42 C :   -0.089856
  43 C :   -0.007432
  44 C :   -0.179193
  45 N :    0.138476
  46 C :    0.099319
  47 C :   -0.074136
  48 C :    0.071688
  49 C :    0.080861
  50 C :   -0.124982
  51 C :   -0.181203
  52 N :    0.119865
  53 C :   -0.016490
  54 C :   -0.101663
  55 C :    0.309947
  56 C :   -0.335247
  57 C :   -0.180746
  58 N :    0.152046
  59 C :   -0.202439
  60 N :    0.167402
  61 C :    0.056520
  62 C :   -0.008212
  63 C :    0.144285
  64 O :   -0.141334
  65 C :   -0.082218
  66 C :    0.101759
  67 C :    0.101720
  68 C :   -0.090872
  69 C :   -0.023026
  70 C :    0.041202
  71 C :    0.037445
  72 C :   -0.018624
  73 H :   -0.008742
  74 H :   -0.004509
  75 H :   -0.005581
  76 H :   -0.000711
  77 H :   -0.001218
  78 H :   -0.013516
  79 H :    0.021368
  80 H :    0.033179
  81 H :    0.041411
  82 H :    0.029994
  83 H :   -0.008480
  84 H :    0.022647
  85 H :   -0.010275
  86 H :   -0.001471
  87 H :    0.004811
  88 H :    0.009329
  89 H :   -0.001456
  90 H :    0.041623
  91 H :   -0.011666
  92 H :   -0.007515
  93 H :   -0.008640
  94 H :   -0.004236
  95 H :   -0.003795
  96 H :   -0.016184
Sum of atomic charges:   -0.0000000

LOEWDIN ATOMIC CHARGES
----------------------
   0 C :    0.073257
   1 C :   -0.131821
   2 C :   -0.017352
   3 N :   -0.044487
   4 C :   -0.027165
   5 N :   -0.042987
   6 C :   -0.026906
   7 C :   -0.057795
   8 C :    0.036414
   9 C :   -0.007552
  10 C :   -0.004460
  11 C :    0.021760
  12 C :   -0.004452
  13 C :   -0.009374
  14 C :   -0.008990
  15 C :   -0.008060
  16 C :    0.089163
  17 O :   -0.136922
  18 C :   -0.073174
  19 C :    0.038402
  20 C :   -0.166997
  21 S :    0.503730
  22 C :   -0.138126
  23 C :   -0.095826
  24 C :    0.020148
  25 C :   -0.025541
  26 N :   -0.043646
  27 C :    0.004622
  28 C :   -0.060260
  29 C :   -0.062329
  30 S :    0.540622
  31 C :   -0.234570
  32 C :    0.075402
  33 O :    0.029872
  34 N :   -0.192838
  35 C :    0.075397
  36 O :   -0.187562
  37 C :   -0.003025
  38 C :   -0.031213
  39 C :   -0.003605
  40 C :   -0.040857
  41 C :    0.042884
  42 C :   -0.069797
  43 C :    0.052951
  44 C :   -0.031377
  45 N :   -0.056915
  46 C :    0.022202
  47 C :    0.017285
  48 C :   -0.034515
  49 C :    0.076286
  50 C :   -0.099333
  51 C :   -0.026285
  52 N :   -0.075878
  53 C :    0.077401
  54 C :   -0.084970
  55 C :    0.072778
  56 C :   -0.131845
  57 C :   -0.016991
  58 N :   -0.049511
  59 C :   -0.024173
  60 N :   -0.043703
  61 C :   -0.025346
  62 C :   -0.056894
  63 C :    0.084768
  64 O :   -0.128919
  65 C :    0.034426
  66 C :   -0.008090
  67 C :   -0.005196
  68 C :    0.020080
  69 C :   -0.005036
  70 C :   -0.011815
  71 C :   -0.011427
  72 C :   -0.008757
  73 H :    0.040513
  74 H :    0.040023
  75 H :    0.036009
  76 H :    0.034928
  77 H :    0.034500
  78 H :    0.033266
  79 H :    0.045506
  80 H :    0.045267
  81 H :    0.049652
  82 H :    0.048623
  83 H :   -0.009854
  84 H :    0.047190
  85 H :    0.027358
  86 H :    0.034572
  87 H :    0.037597
  88 H :    0.038093
  89 H :    0.035769
  90 H :    0.052433
  91 H :    0.039711
  92 H :    0.039312
  93 H :    0.035037
  94 H :    0.033620
  95 H :    0.033360
  96 H :    0.032329

  Mayer bond orders larger than 0.100000
B(  0-C ,  1-C ) :   1.6447 B(  0-C ,  6-C ) :   0.9908 B(  0-C , 18-C ) :   1.0568
B(  1-C ,  2-C ) :   1.1451 B(  1-C ,  4-C ) :   1.1375 B(  2-C ,  3-N ) :   2.9695
B(  4-C ,  5-N ) :   2.9944 B(  6-C ,  7-C ) :   1.2117 B(  6-C , 11-C ) :   1.4481
B(  7-C ,  8-C ) :   1.4644 B(  7-C , 16-C ) :   0.9591 B(  8-C ,  9-C ) :   1.1831
B(  8-C , 73-H ) :   1.0168 B(  9-C , 10-C ) :   1.2521 B(  9-C , 15-C ) :   1.2434
B( 10-C , 11-C ) :   1.2085 B( 10-C , 12-C ) :   1.2403 B( 11-C , 74-H ) :   0.9907
B( 12-C , 13-C ) :   1.4892 B( 12-C , 75-H ) :   0.9974 B( 13-C , 14-C ) :   1.2595
B( 13-C , 76-H ) :   0.9885 B( 14-C , 15-C ) :   1.4895 B( 14-C , 77-H ) :   0.9886
B( 15-C , 78-H ) :   0.9981 B( 16-C , 17-O ) :   2.1757 B( 16-C , 18-C ) :   0.9286
B( 18-C , 19-C ) :   1.6433 B( 19-C , 20-C ) :   1.1681 B( 19-C , 79-H ) :   0.9200
B( 20-C , 21-S ) :   1.1246 B( 20-C , 24-C ) :   1.4234 B( 21-S , 22-C ) :   1.1569
B( 22-C , 23-C ) :   1.3627 B( 22-C , 27-C ) :   1.2168 B( 23-C , 24-C ) :   1.3335
B( 23-C , 25-C ) :   1.1166 B( 24-C , 80-H ) :   0.9790 B( 25-C , 26-N ) :   2.9599
B( 27-C , 28-C ) :   1.5538 B( 27-C , 81-H ) :   0.9487 B( 28-C , 29-C ) :   1.2989
B( 28-C , 82-H ) :   0.9269 B( 29-C , 30-S ) :   1.2495 B( 29-C , 33-O ) :   1.2172
B( 30-S , 31-C ) :   1.0881 B( 31-C , 32-C ) :   1.1353 B( 31-C , 37-C ) :   1.3041
B( 32-C , 33-O ) :   1.0291 B( 32-C , 34-N ) :   1.7664 B( 34-N , 35-C ) :   1.1584
B( 35-C , 36-O ) :   2.0651 B( 35-C , 83-H ) :   0.9501 B( 37-C , 38-C ) :   1.4964
B( 37-C , 84-H ) :   0.9599 B( 38-C , 39-C ) :   1.2077 B( 38-C , 85-H ) :   0.9696
B( 39-C , 40-C ) :   1.4493 B( 39-C , 43-C ) :   1.0312 B( 40-C , 41-C ) :   1.1638
B( 40-C , 86-H ) :   1.0093 B( 41-C , 42-C ) :   1.0886 B( 41-C , 46-C ) :   1.3763
B( 42-C , 43-C ) :   1.7020 B( 42-C , 44-C ) :   1.0872 B( 43-C , 87-H ) :   1.0145
B( 44-C , 45-N ) :   2.9684 B( 46-C , 47-C ) :   1.1170 B( 46-C , 50-C ) :   1.1282
B( 47-C , 48-C ) :   1.5069 B( 47-C , 88-H ) :   1.0056 B( 48-C , 49-C ) :   1.0657
B( 48-C , 53-C ) :   1.0953 B( 49-C , 50-C ) :   1.6577 B( 49-C , 89-H ) :   1.0057
B( 50-C , 51-C ) :   1.0936 B( 51-C , 52-N ) :   2.9646 B( 53-C , 54-C ) :   1.6292
B( 53-C , 90-H ) :   0.9499 B( 54-C , 55-C ) :   1.0413 B( 54-C , 63-C ) :   0.9405
B( 55-C , 56-C ) :   1.6542 B( 55-C , 61-C ) :   0.9950 B( 56-C , 57-C ) :   1.1426
B( 56-C , 59-C ) :   1.1405 B( 57-C , 58-N ) :   2.9670 B( 59-C , 60-N ) :   2.9909
B( 61-C , 62-C ) :   1.2118 B( 61-C , 68-C ) :   1.4459 B( 62-C , 63-C ) :   0.9470
B( 62-C , 65-C ) :   1.4672 B( 63-C , 64-O ) :   2.2091 B( 65-C , 66-C ) :   1.1786
B( 65-C , 91-H ) :   1.0183 B( 66-C , 67-C ) :   1.2549 B( 66-C , 72-C ) :   1.2423
B( 67-C , 68-C ) :   1.2038 B( 67-C , 69-C ) :   1.2391 B( 68-C , 92-H ) :   0.9920
B( 69-C , 70-C ) :   1.4905 B( 69-C , 93-H ) :   0.9979 B( 70-C , 71-C ) :   1.2582
B( 70-C , 94-H ) :   0.9880 B( 71-C , 72-C ) :   1.4886 B( 71-C , 95-H ) :   0.9892
B( 72-C , 96-H ) :   0.9987

-----------------------------------------------------------------------------
         ABSORPTION SPECTRUM VIA TRANSITION ELECTRIC DIPOLE MOMENTS
-----------------------------------------------------------------------------
State   Energy  Wavelength   fosc         T2         TX        TY        TZ
        (cm-1)    (nm)                  (au**2)     (au)      (au)      (au)
-----------------------------------------------------------------------------
   0    7721.4   1295.1   1.295214411  55.22325  -4.94282   4.11995   3.71722
   1   13468.1    742.5   0.127212812   3.10956   0.36610   0.88064  -1.48324
   2   17177.6    582.2   0.016415422   0.31460   0.36483   0.11149  -0.41118
   3   19960.7    501.0   0.093935226   1.54927   0.71073  -0.98153  -0.28413
   4   20654.2    484.2   0.048982103   0.78074  -0.50086   0.57812   0.44232
   5   20840.8    479.8   0.091121432   1.43940   0.67954  -0.69474  -0.70354
   6   21827.7    458.1   0.020019175   0.30193  -0.25311  -0.45536   0.17469
   7   22052.8    453.5   0.372057242   5.55420   1.35533  -1.18720  -1.51915
   8   22957.5    435.6   0.196287617   2.81477  -1.34890   0.24540   0.96697
   9   23768.5    420.7   0.425964206   5.89992   1.63946  -1.71205  -0.53007
  10   23943.3    417.7   0.110875842   1.52450   0.67371  -0.28839  -0.99371
  11   25578.9    390.9   0.022337526   0.28749  -0.33353   0.03928   0.41798
  12   26166.8    382.2   0.203629585   2.56192   1.03800  -0.45939  -1.12846
  13   26476.1    377.7   0.027110720   0.33710  -0.00859  -0.57401   0.08686
  14   26501.4    377.3   0.010498213   0.13041  -0.30010   0.18479  -0.07878
  15   27034.9    369.9   0.001673168   0.02037  -0.09926  -0.08111   0.06280
  16   27269.3    366.7   0.172116993   2.07790   1.12359  -0.83903   0.33386
  17   27610.3    362.2   0.019650310   0.23430  -0.32166   0.18358   0.31166
  18   28239.4    354.1   0.053556511   0.62436  -0.66395  -0.03621   0.42687
  19   28615.3    349.5   0.083108847   0.95615   0.04954  -0.94635  -0.24106
  20   28874.2    346.3   0.055429883   0.63199  -0.74499   0.04394   0.27394
  21   29454.6    339.5   0.050590669   0.56545   0.48988  -0.00162  -0.57050
  22   29672.0    337.0   0.037690085   0.41817  -0.53623  -0.09085   0.34982
  23   29786.3    335.7   0.156842989   1.73350  -0.06731  -0.26378   1.28817
  24   30112.8    332.1   0.226415800   2.47532  -1.51725   0.15298   0.38712
  25   30570.0    327.1   0.084250435   0.90730   0.92299   0.18674  -0.14324
  26   30780.3    324.9   0.114190385   1.22133   0.42524   0.55743  -0.85426
  27   31111.1    321.4   0.167928543   1.77699   0.89454  -0.79540   0.58662
  28   31542.4    317.0   0.091384209   0.95379  -0.74503   0.52897   0.34484
  29   32054.0    312.0   0.411698767   4.22837  -1.34250   0.14521   1.55080
  30   32262.3    310.0   0.086867603   0.88642   0.66657   0.17680   0.64097
  31   32662.2    306.2   0.061525244   0.62013  -0.76403   0.07564   0.17512
  32   33011.3    302.9   0.140335402   1.39952   1.02022   0.42497  -0.42198
  33   33214.0    301.1   0.081835781   0.81114  -0.35838  -0.82553  -0.03480
  34   33632.4    297.3   0.204366020   2.00044   0.69712  -0.69758  -1.01382
  35   33698.0    296.8   0.127769412   1.24824  -0.96326  -0.54648   0.14739
  36   34023.8    293.9   0.158545211   1.53407   0.56958   0.57702  -0.93633
  37   34285.7    291.7   0.132973878   1.27682  -0.34122  -1.05791   0.20302
  38   34427.6    290.5   0.017401381   0.16640  -0.33273   0.19636  -0.13089
  39   34580.8    289.2   0.002596930   0.02472   0.00114   0.11089   0.11146
  40   34817.9    287.2   0.056382300   0.53311  -0.28723  -0.00653  -0.67124
  41   35467.2    282.0   0.394958210   3.66606  -1.46817   0.28496  -1.19554
  42   36159.4    276.6   0.132708966   1.20824   0.75078  -0.60857   0.52366
  43   36222.5    276.1   0.053624120   0.48737  -0.51326  -0.46611  -0.08174
  44   36245.8    275.9   0.156081014   1.41765   0.48220   1.07129  -0.19355
  45   36651.2    272.8   0.005783712   0.05195   0.07880   0.08869  -0.19462
  46   36768.9    272.0   0.065554631   0.58695  -0.50869   0.48285  -0.30827
  47   36928.1    270.8   0.016137518   0.14386  -0.17123  -0.05925  -0.33322
  48   37083.0    269.7   0.021996489   0.19528  -0.05660  -0.09807  -0.42715
  49   37126.5    269.3   0.046263872   0.41024  -0.21636  -0.60278   0.00862
  50   37436.0    267.1   0.149361538   1.31348   0.49596   1.02269  -0.14701
  51   37642.3    265.7   0.002664866   0.02331   0.02575  -0.03087   0.14728
  52   38105.2    262.4   0.062448707   0.53953   0.56628  -0.41697   0.21211
  53   38281.6    261.2   0.001300253   0.01118  -0.02091  -0.07213  -0.07444
  54   38489.5    259.8   0.091575286   0.78327   0.60947  -0.30370  -0.56531
  55   38844.4    257.4   0.059311193   0.50267  -0.26125   0.60816   0.25408
  56   39064.5    256.0   0.082295674   0.69354  -0.20049  -0.21906  -0.77805
  57   39245.1    254.8   0.062081753   0.52078   0.63308   0.10374  -0.33049
  58   39352.4    254.1   0.007364904   0.06161  -0.05059  -0.23458   0.06347
  59   39607.9    252.5   0.012568287   0.10446  -0.19977   0.16138   0.19626
  60   39859.0    250.9   0.077448113   0.63968   0.25258  -0.67452  -0.34770
  61   40268.4    248.3   0.076285808   0.62367   0.56969  -0.32349  -0.44100

FINAL SINGLE POINT ENERGY     -3793.748425824824

DIPOLE MOMENT
-------------
                                X             Y             Z
Electronic contribution:      6.77207       8.70929     -12.75786
Nuclear contribution   :     -3.86187     -12.91830      13.09756
                        -----------------------------------------
Total Dipole Moment    :      2.91020      -4.20901       0.33970
                        -----------------------------------------
Magnitude (a.u.)       :      5.12839
Magnitude (Debye)      :     13.03534

Rotational constants in cm-1:     0.002326     0.000151     0.000147
Rotational constants in MHz :    69.730624     4.539323     4.421675

                             ****ORCA TERMINATED NORMALLY****
TOTAL RUN TIME: 0 days 0 hours 10 minutes 30 seconds 387 msec
