                         Program Version 4.2.0 -  RELEASE  -
|  1> # ORCA input file
|  2> # SCF done       -200.430230795099          0.000465443213
|  3> ! CAM-B3LYP def2-SVP def2/J RIJCOSX Grid4 TightSCF
|  4> %maxcore 5000
|  5> %tddft
|  6>     Mode sTDDFT
|  7>     Ethresh 5.0
|  8>     maxcore 5000
|  9> end
| 10>
| 11> %pal
| 12>   nprocs 6
| 13>   end
| 14> * xyz 0 1
| 15>    C       -7.65212        -0.22165         1.42899
| 16>    C       -7.28290        -0.24825         0.14985
| 17>    C       -6.42592         0.82965        -0.29646
| 18>    C       -6.09988         1.73361         0.64830
| 19>    S       -6.91255         1.23060         2.19058
| 20>    O       -7.90141         2.19715         2.57758
| 21>    O       -5.92339         0.86548         3.16591
| 22>    C       -5.28894         2.88602         0.68142
| 23>    C       -4.46920         3.29596        -0.32462
| 24>    C       -3.61822         4.42478        -0.26354
| 25>    C       -3.15501         5.17808        -1.34134
| 26>    N       -3.33428         4.92957        -2.71360
| 27>    O       -2.87013         5.74353        -3.49197
| 28>    O       -3.93451         3.92215        -3.05549
| 29>    C       -2.46806         6.33765        -0.85302
| 30>    C       -2.52514         6.33681         0.50644
| 31>    C       -3.18222         5.13861         0.94387
| 32>    C       -3.16371         4.66312         2.24410
| 33>    C       -2.99568         3.29949         2.62962
| 34>    C       -2.59970         3.25584         3.93877
| 35>    C       -2.57454         4.57851         4.46016
| 36>    N       -2.17031         4.87079         5.78319
| 37>    O       -1.86886         6.01808         6.05083
| 38>    O       -2.10919         3.93709         6.56069
| 39>    C       -2.99030         5.47937         3.46780
| 40>    C       -3.42957         6.78945         3.69286
| 41>    C       -4.17101         7.53831         2.80335
| 42>    C       -4.63429         8.82755         3.08292
| 43>    N       -5.27839         9.62844         2.16580
| 44>    C       -5.53331         9.32524         0.77597
| 45>    C       -4.29852         9.55062        -0.09114
| 46>    C       -5.61915        10.87658         2.69980
| 47>    O       -6.17714        11.75315         2.07213
| 48>    C       -5.17632        10.81128         4.08248
| 49>    C       -4.58218         9.56256         4.28781
| 50>    C       -4.22902         9.45786         5.69748
| 51>    O       -3.74000         8.56292         6.34236
| 52>    N       -4.63190        10.69164         6.24558
| 53>    C       -4.39594        10.99432         7.63959
| 54>    C       -3.17916        11.89413         7.83117
| 55>    C       -5.18812        11.51734         5.30863
| 56>    C       -5.66392        12.80665         5.59644
| 57>    C       -6.18905        13.63030         4.63285
| 58>    C       -6.57517        14.97815         4.76921
| 59>    C       -6.13854        15.97536         5.65284
| 60>    N       -5.40392        15.90264         6.85150
| 61>    O       -4.80943        16.90858         7.19438
| 62>    O       -5.41296        14.86889         7.50363
| 63>    C       -6.44758        17.26039         5.09835
| 64>    C       -7.12276        17.09711         3.93180
| 65>    C       -7.32895        15.69415         3.70975
| 66>    C       -8.18670        15.11523         2.80180
| 67>    C       -8.50549        13.71727         2.66312
| 68>    C       -9.14810        13.52920         1.48874
| 69>    C       -9.30638        14.80923         0.83423
| 70>    N      -10.07333        14.93496        -0.34435
| 71>    O      -10.66311        13.93706        -0.71866
| 72>    O      -10.12720        16.01411        -0.90596
| 73>    C       -8.81603        15.80818         1.65076
| 74>    C       -8.96176        17.22426         1.51027
| 75>    C       -8.70828        17.94794         0.39387
| 76>    C       -8.88230        19.34899         0.30618
| 77>    C       -9.65861        20.22004         0.98610
| 78>    C       -9.53587        21.60410         0.62686
| 79>    C       -8.64396        21.89313        -0.34067
| 80>    S       -7.89433        20.32682        -0.86375
| 81>    O       -6.51341        20.28251        -0.46606
| 82>    O       -8.20226        20.03164        -2.23134
| 83>    C       -8.22354        23.10928        -0.95692
| 84>    C       -8.64266        24.33277        -0.62408
| 85>    H       -8.26526        -0.91236         1.96898
| 86>    H       -7.58340        -1.01118        -0.55185
| 87>    H       -6.11007         0.88046        -1.32626
| 88>    H       -5.35282         3.44871         1.60382
| 89>    H       -4.49749         2.77669        -1.27344
| 90>    H       -1.99521         7.05998        -1.49098
| 91>    H       -2.04090         7.02991         1.16759
| 92>    H       -3.03953         2.46318         1.96021
| 93>    H       -2.33204         2.38387         4.50496
| 94>    H       -3.21667         7.20346         4.67236
| 95>    H       -4.42698         7.12011         1.84109
| 96>    H       -6.33049        10.00347         0.45977
| 97>    H       -5.89154         8.29657         0.68783
| 98>    H       -3.99452        10.59312        -0.04094
| 99>    H       -4.52717         9.30624        -1.12430
|100>    H       -3.47158         8.92754         0.23969
|101>    H       -4.22271        10.03184         8.12852
|102>    H       -5.28726        11.45840         8.06808
|103>    H       -2.29848        11.43482         7.38894
|104>    H       -3.00071        12.03542         8.89276
|105>    H       -3.33737        12.86916         7.37804
|106>    H       -5.60838        13.14269         6.62016
|107>    H       -6.27267        13.23380         3.62909
|108>    H       -6.16163        18.18394         5.56561
|109>    H       -7.45871        17.88715         3.29294
|110>    H       -8.29036        12.95671         3.38439
|111>    H       -9.51601        12.60956         1.07670
|112>    H       -9.30552        17.74060         2.39828
|113>    H       -8.26824        17.48233        -0.47571
|114>    H      -10.37316        19.92367         1.73892
|115>    H      -10.14802        22.34128         1.12249
|116>    H       -7.50202        22.97297        -1.75153
|117>    H       -9.35634        24.49613         0.16537
|118>    H       -8.27982        25.20604        -1.13641
|119> *
|120>
|121>                          ****END OF INPUT****

CARTESIAN COORDINATES (ANGSTROEM)
---------------------------------
  C     -7.652120   -0.221650    1.428990
  C     -7.282900   -0.248250    0.149850
  C     -6.425920    0.829650   -0.296460
  C     -6.099880    1.733610    0.648300
  S     -6.912550    1.230600    2.190580
  O     -7.901410    2.197150    2.577580
  O     -5.923390    0.865480    3.165910
  C     -5.288940    2.886020    0.681420
  C     -4.469200    3.295960   -0.324620
  C     -3.618220    4.424780   -0.263540
  C     -3.155010    5.178080   -1.341340
  N     -3.334280    4.929570   -2.713600
  O     -2.870130    5.743530   -3.491970
  O     -3.934510    3.922150   -3.055490
  C     -2.468060    6.337650   -0.853020
  C     -2.525140    6.336810    0.506440
  C     -3.182220    5.138610    0.943870
  C     -3.163710    4.663120    2.244100
  C     -2.995680    3.299490    2.629620
  C     -2.599700    3.255840    3.938770
  C     -2.574540    4.578510    4.460160
  N     -2.170310    4.870790    5.783190
  O     -1.868860    6.018080    6.050830
  O     -2.109190    3.937090    6.560690
  C     -2.990300    5.479370    3.467800
  C     -3.429570    6.789450    3.692860
  C     -4.171010    7.538310    2.803350
  C     -4.634290    8.827550    3.082920
  N     -5.278390    9.628440    2.165800
  C     -5.533310    9.325240    0.775970
  C     -4.298520    9.550620   -0.091140
  C     -5.619150   10.876580    2.699800
  O     -6.177140   11.753150    2.072130
  C     -5.176320   10.811280    4.082480
  C     -4.582180    9.562560    4.287810
  C     -4.229020    9.457860    5.697480
  O     -3.740000    8.562920    6.342360
  N     -4.631900   10.691640    6.245580
  C     -4.395940   10.994320    7.639590
  C     -3.179160   11.894130    7.831170
  C     -5.188120   11.517340    5.308630
  C     -5.663920   12.806650    5.596440
  C     -6.189050   13.630300    4.632850
  C     -6.575170   14.978150    4.769210
  C     -6.138540   15.975360    5.652840
  N     -5.403920   15.902640    6.851500
  O     -4.809430   16.908580    7.194380
  O     -5.412960   14.868890    7.503630
  C     -6.447580   17.260390    5.098350
  C     -7.122760   17.097110    3.931800
  C     -7.328950   15.694150    3.709750
  C     -8.186700   15.115230    2.801800
  C     -8.505490   13.717270    2.663120
  C     -9.148100   13.529200    1.488740
  C     -9.306380   14.809230    0.834230
  N    -10.073330   14.934960   -0.344350
  O    -10.663110   13.937060   -0.718660
  O    -10.127200   16.014110   -0.905960
  C     -8.816030   15.808180    1.650760
  C     -8.961760   17.224260    1.510270
  C     -8.708280   17.947940    0.393870
  C     -8.882300   19.348990    0.306180
  C     -9.658610   20.220040    0.986100
  C     -9.535870   21.604100    0.626860
  C     -8.643960   21.893130   -0.340670
  S     -7.894330   20.326820   -0.863750
  O     -6.513410   20.282510   -0.466060
  O     -8.202260   20.031640   -2.231340
  C     -8.223540   23.109280   -0.956920
  C     -8.642660   24.332770   -0.624080
  H     -8.265260   -0.912360    1.968980
  H     -7.583400   -1.011180   -0.551850
  H     -6.110070    0.880460   -1.326260
  H     -5.352820    3.448710    1.603820
  H     -4.497490    2.776690   -1.273440
  H     -1.995210    7.059980   -1.490980
  H     -2.040900    7.029910    1.167590
  H     -3.039530    2.463180    1.960210
  H     -2.332040    2.383870    4.504960
  H     -3.216670    7.203460    4.672360
  H     -4.426980    7.120110    1.841090
  H     -6.330490   10.003470    0.459770
  H     -5.891540    8.296570    0.687830
  H     -3.994520   10.593120   -0.040940
  H     -4.527170    9.306240   -1.124300
  H     -3.471580    8.927540    0.239690
  H     -4.222710   10.031840    8.128520
  H     -5.287260   11.458400    8.068080
  H     -2.298480   11.434820    7.388940
  H     -3.000710   12.035420    8.892760
  H     -3.337370   12.869160    7.378040
  H     -5.608380   13.142690    6.620160
  H     -6.272670   13.233800    3.629090
  H     -6.161630   18.183940    5.565610
  H     -7.458710   17.887150    3.292940
  H     -8.290360   12.956710    3.384390
  H     -9.516010   12.609560    1.076700
  H     -9.305520   17.740600    2.398280
  H     -8.268240   17.482330   -0.475710
  H    -10.373160   19.923670    1.738920
  H    -10.148020   22.341280    1.122490
  H     -7.502020   22.972970   -1.751530
  H     -9.356340   24.496130    0.165370
  H     -8.279820   25.206040   -1.136410

 Total Charge           Charge          ....    0
 Multiplicity           Mult            ....    1
 Number of Electrons    NEL             ....  508
 Basis Dimension        Dim             .... 1158

ORBITAL ENERGIES
----------------

  NO   OCC          E(Eh)            E(eV)
   0   2.0000     -89.149230     -2425.8739
   1   2.0000     -89.141013     -2425.6503
   2   2.0000     -19.250379      -523.8294
   3   2.0000     -19.247558      -523.7527
   4   2.0000     -19.245200      -523.6885
   5   2.0000     -19.244383      -523.6663
   6   2.0000     -19.238527      -523.5069
   7   2.0000     -19.237805      -523.4873
   8   2.0000     -19.234586      -523.3997
   9   2.0000     -19.234447      -523.3959
  10   2.0000     -19.209803      -522.7253
  11   2.0000     -19.208509      -522.6901
  12   2.0000     -19.206840      -522.6447
  13   2.0000     -19.205979      -522.6213
  14   2.0000     -19.202404      -522.5240
  15   2.0000     -19.197981      -522.4036
  16   2.0000     -14.656996      -398.8371
  17   2.0000     -14.654033      -398.7565
  18   2.0000     -14.647250      -398.5719
  19   2.0000     -14.643654      -398.4741
  20   2.0000     -14.469967      -393.7478
  21   2.0000     -14.468101      -393.6971
  22   2.0000     -10.392165      -282.7852
  23   2.0000     -10.389961      -282.7252
  24   2.0000     -10.357084      -281.8306
  25   2.0000     -10.355289      -281.7817
  26   2.0000     -10.341361      -281.4027
  27   2.0000     -10.341194      -281.3982
  28   2.0000     -10.337434      -281.2959
  29   2.0000     -10.335348      -281.2391
  30   2.0000     -10.334147      -281.2064
  31   2.0000     -10.333769      -281.1962
  32   2.0000     -10.332116      -281.1512
  33   2.0000     -10.331117      -281.1240
  34   2.0000     -10.330982      -281.1203
  35   2.0000     -10.327862      -281.0354
  36   2.0000     -10.325241      -280.9641
  37   2.0000     -10.324318      -280.9390
  38   2.0000     -10.322884      -280.9000
  39   2.0000     -10.322012      -280.8762
  40   2.0000     -10.320826      -280.8439
  41   2.0000     -10.319832      -280.8169
  42   2.0000     -10.316269      -280.7200
  43   2.0000     -10.315906      -280.7101
  44   2.0000     -10.315213      -280.6912
  45   2.0000     -10.315131      -280.6890
  46   2.0000     -10.314403      -280.6692
  47   2.0000     -10.312608      -280.6203
  48   2.0000     -10.312077      -280.6059
  49   2.0000     -10.311462      -280.5891
  50   2.0000     -10.310441      -280.5614
  51   2.0000     -10.310426      -280.5610
  52   2.0000     -10.309559      -280.5374
  53   2.0000     -10.308569      -280.5104
  54   2.0000     -10.305291      -280.4212
  55   2.0000     -10.304835      -280.4088
  56   2.0000     -10.304630      -280.4032
  57   2.0000     -10.304043      -280.3873
  58   2.0000     -10.303916      -280.3838
  59   2.0000     -10.298359      -280.2326
  60   2.0000     -10.296737      -280.1885
  61   2.0000     -10.296148      -280.1724
  62   2.0000     -10.293861      -280.1102
  63   2.0000     -10.292471      -280.0724
  64   2.0000     -10.290627      -280.0222
  65   2.0000     -10.286381      -279.9067
  66   2.0000     -10.284789      -279.8633
  67   2.0000     -10.284550      -279.8568
  68   2.0000     -10.272118      -279.5185
  69   2.0000     -10.262818      -279.2655
  70   2.0000      -8.215564      -223.5569
  71   2.0000      -8.207544      -223.3386
  72   2.0000      -6.184387      -168.2857
  73   2.0000      -6.184234      -168.2816
  74   2.0000      -6.183624      -168.2650
  75   2.0000      -6.176291      -168.0654
  76   2.0000      -6.176242      -168.0641
  77   2.0000      -6.175589      -168.0463
  78   2.0000      -1.327922       -36.1346
  79   2.0000      -1.324033       -36.0288
  80   2.0000      -1.318562       -35.8799
  81   2.0000      -1.315404       -35.7940
  82   2.0000      -1.211017       -32.9534
  83   2.0000      -1.204794       -32.7841
  84   2.0000      -1.152422       -31.3590
  85   2.0000      -1.146061       -31.1859
  86   2.0000      -1.144615       -31.1466
  87   2.0000      -1.141240       -31.0547
  88   2.0000      -1.135957       -30.9110
  89   2.0000      -1.133417       -30.8418
  90   2.0000      -1.089128       -29.6367
  91   2.0000      -1.083049       -29.4713
  92   2.0000      -1.081922       -29.4406
  93   2.0000      -1.072805       -29.1925
  94   2.0000      -1.026168       -27.9235
  95   2.0000      -1.021392       -27.7935
  96   2.0000      -1.004367       -27.3302
  97   2.0000      -1.001090       -27.2410
  98   2.0000      -0.986676       -26.8488
  99   2.0000      -0.982028       -26.7223
 100   2.0000      -0.943992       -25.6873
 101   2.0000      -0.928578       -25.2679
 102   2.0000      -0.926556       -25.2129
 103   2.0000      -0.925391       -25.1812
 104   2.0000      -0.921185       -25.0667
 105   2.0000      -0.915738       -24.9185
 106   2.0000      -0.915210       -24.9041
 107   2.0000      -0.893230       -24.3060
 108   2.0000      -0.885873       -24.1058
 109   2.0000      -0.884191       -24.0601
 110   2.0000      -0.882077       -24.0025
 111   2.0000      -0.866702       -23.5842
 112   2.0000      -0.856981       -23.3196
 113   2.0000      -0.851014       -23.1573
 114   2.0000      -0.848186       -23.0803
 115   2.0000      -0.831129       -22.6162
 116   2.0000      -0.823635       -22.4123
 117   2.0000      -0.817624       -22.2487
 118   2.0000      -0.810452       -22.0535
 119   2.0000      -0.801409       -21.8074
 120   2.0000      -0.791870       -21.5479
 121   2.0000      -0.786392       -21.3988
 122   2.0000      -0.778422       -21.1819
 123   2.0000      -0.769825       -20.9480
 124   2.0000      -0.766869       -20.8676
 125   2.0000      -0.738518       -20.0961
 126   2.0000      -0.733707       -19.9652
 127   2.0000      -0.732938       -19.9443
 128   2.0000      -0.729365       -19.8470
 129   2.0000      -0.723821       -19.6962
 130   2.0000      -0.719159       -19.5693
 131   2.0000      -0.717191       -19.5158
 132   2.0000      -0.702615       -19.1191
 133   2.0000      -0.689770       -18.7696
 134   2.0000      -0.685681       -18.6583
 135   2.0000      -0.677861       -18.4455
 136   2.0000      -0.675975       -18.3942
 137   2.0000      -0.666545       -18.1376
 138   2.0000      -0.665628       -18.1127
 139   2.0000      -0.659629       -17.9494
 140   2.0000      -0.650910       -17.7122
 141   2.0000      -0.645913       -17.5762
 142   2.0000      -0.644967       -17.5505
 143   2.0000      -0.640359       -17.4251
 144   2.0000      -0.638677       -17.3793
 145   2.0000      -0.635989       -17.3061
 146   2.0000      -0.635225       -17.2853
 147   2.0000      -0.628742       -17.1089
 148   2.0000      -0.628017       -17.0892
 149   2.0000      -0.627568       -17.0770
 150   2.0000      -0.625833       -17.0298
 151   2.0000      -0.623239       -16.9592
 152   2.0000      -0.619717       -16.8634
 153   2.0000      -0.613533       -16.6951
 154   2.0000      -0.610437       -16.6108
 155   2.0000      -0.606841       -16.5130
 156   2.0000      -0.606530       -16.5045
 157   2.0000      -0.602026       -16.3820
 158   2.0000      -0.599366       -16.3096
 159   2.0000      -0.597009       -16.2454
 160   2.0000      -0.591479       -16.0950
 161   2.0000      -0.588209       -16.0060
 162   2.0000      -0.585631       -15.9358
 163   2.0000      -0.582257       -15.8440
 164   2.0000      -0.576125       -15.6772
 165   2.0000      -0.571356       -15.5474
 166   2.0000      -0.567674       -15.4472
 167   2.0000      -0.563196       -15.3254
 168   2.0000      -0.560513       -15.2523
 169   2.0000      -0.557190       -15.1619
 170   2.0000      -0.555168       -15.1069
 171   2.0000      -0.552929       -15.0460
 172   2.0000      -0.550165       -14.9708
 173   2.0000      -0.544309       -14.8114
 174   2.0000      -0.542355       -14.7582
 175   2.0000      -0.540242       -14.7007
 176   2.0000      -0.540162       -14.6985
 177   2.0000      -0.539574       -14.6825
 178   2.0000      -0.536401       -14.5962
 179   2.0000      -0.535022       -14.5587
 180   2.0000      -0.532224       -14.4826
 181   2.0000      -0.529223       -14.4009
 182   2.0000      -0.526069       -14.3151
 183   2.0000      -0.524235       -14.2652
 184   2.0000      -0.524172       -14.2635
 185   2.0000      -0.521170       -14.1818
 186   2.0000      -0.519681       -14.1412
 187   2.0000      -0.517776       -14.0894
 188   2.0000      -0.513772       -13.9804
 189   2.0000      -0.512456       -13.9446
 190   2.0000      -0.508727       -13.8432
 191   2.0000      -0.506007       -13.7691
 192   2.0000      -0.500508       -13.6195
 193   2.0000      -0.497337       -13.5332
 194   2.0000      -0.496780       -13.5181
 195   2.0000      -0.491496       -13.3743
 196   2.0000      -0.490468       -13.3463
 197   2.0000      -0.487490       -13.2653
 198   2.0000      -0.485773       -13.2186
 199   2.0000      -0.483008       -13.1433
 200   2.0000      -0.481696       -13.1076
 201   2.0000      -0.478011       -13.0073
 202   2.0000      -0.477185       -12.9849
 203   2.0000      -0.473857       -12.8943
 204   2.0000      -0.470321       -12.7981
 205   2.0000      -0.465532       -12.6678
 206   2.0000      -0.464751       -12.6465
 207   2.0000      -0.463716       -12.6184
 208   2.0000      -0.462021       -12.5722
 209   2.0000      -0.455996       -12.4083
 210   2.0000      -0.453929       -12.3520
 211   2.0000      -0.451654       -12.2901
 212   2.0000      -0.450395       -12.2559
 213   2.0000      -0.445712       -12.1284
 214   2.0000      -0.444597       -12.0981
 215   2.0000      -0.437137       -11.8951
 216   2.0000      -0.433171       -11.7872
 217   2.0000      -0.429243       -11.6803
 218   2.0000      -0.426511       -11.6059
 219   2.0000      -0.407867       -11.0986
 220   2.0000      -0.401082       -10.9140
 221   2.0000      -0.399984       -10.8841
 222   2.0000      -0.397411       -10.8141
 223   2.0000      -0.394455       -10.7337
 224   2.0000      -0.391491       -10.6530
 225   2.0000      -0.390528       -10.6268
 226   2.0000      -0.387342       -10.5401
 227   2.0000      -0.384259       -10.4562
 228   2.0000      -0.383622       -10.4389
 229   2.0000      -0.380700       -10.3594
 230   2.0000      -0.379354       -10.3227
 231   2.0000      -0.378891       -10.3102
 232   2.0000      -0.375310       -10.2127
 233   2.0000      -0.375170       -10.2089
 234   2.0000      -0.372994       -10.1497
 235   2.0000      -0.371942       -10.1211
 236   2.0000      -0.371503       -10.1091
 237   2.0000      -0.369782       -10.0623
 238   2.0000      -0.368122       -10.0171
 239   2.0000      -0.364567        -9.9204
 240   2.0000      -0.363548        -9.8926
 241   2.0000      -0.362480        -9.8636
 242   2.0000      -0.356222        -9.6933
 243   2.0000      -0.349202        -9.5023
 244   2.0000      -0.345471        -9.4007
 245   2.0000      -0.344047        -9.3620
 246   2.0000      -0.341917        -9.3040
 247   2.0000      -0.334056        -9.0901
 248   2.0000      -0.318453        -8.6656
 249   2.0000      -0.312336        -8.4991
 250   2.0000      -0.306005        -8.3268
 251   2.0000      -0.285140        -7.7591
 252   2.0000      -0.278818        -7.5870
 253   2.0000      -0.242003        -6.5852
 254   0.0000      -0.152920        -4.1612
 255   0.0000      -0.132904        -3.6165
 256   0.0000      -0.097477        -2.6525
 257   0.0000      -0.082483        -2.2445
 258   0.0000      -0.070618        -1.9216

MULLIKEN ATOMIC CHARGES
-----------------------
   0 C :   -0.004918
   1 C :    0.037974
   2 C :    0.015186
   3 C :   -0.085512
   4 S :    0.744564
   5 O :   -0.449460
   6 O :   -0.452927
   7 C :    0.078185
   8 C :   -0.026257
   9 C :    0.037568
  10 C :    0.084484
  11 N :    0.274086
  12 O :   -0.242033
  13 O :   -0.256767
  14 C :    0.008573
  15 C :   -0.012936
  16 C :    0.016509
  17 C :    0.002259
  18 C :    0.007442
  19 C :    0.043455
  20 C :    0.098600
  21 N :    0.260322
  22 O :   -0.226808
  23 O :   -0.243433
  24 C :    0.031379
  25 C :   -0.025244
  26 C :   -0.030195
  27 C :    0.138792
  28 N :   -0.252102
  29 C :    0.096480
  30 C :    0.013813
  31 C :    0.161906
  32 O :   -0.204302
  33 C :   -0.066697
  34 C :   -0.054441
  35 C :    0.161256
  36 O :   -0.162851
  37 N :   -0.250636
  38 C :    0.093435
  39 C :    0.006895
  40 C :    0.146550
  41 C :   -0.022420
  42 C :   -0.076357
  43 C :    0.065941
  44 C :    0.071003
  45 N :    0.273652
  46 O :   -0.239277
  47 O :   -0.252361
  48 C :    0.024673
  49 C :   -0.000054
  50 C :    0.036716
  51 C :    0.042746
  52 C :    0.027686
  53 C :    0.029938
  54 C :    0.077702
  55 N :    0.261266
  56 O :   -0.244486
  57 O :   -0.241122
  58 C :    0.029394
  59 C :   -0.096915
  60 C :    0.160727
  61 C :   -0.066762
  62 C :    0.009794
  63 C :    0.005046
  64 C :   -0.044327
  65 S :    0.750612
  66 O :   -0.453080
  67 O :   -0.436111
  68 C :    0.061497
  69 C :   -0.002842
  70 H :    0.055466
  71 H :    0.023905
  72 H :    0.020004
  73 H :    0.024134
  74 H :    0.025563
  75 H :    0.008215
  76 H :    0.014168
  77 H :    0.005929
  78 H :    0.014819
  79 H :    0.043489
  80 H :   -0.003362
  81 H :    0.044403
  82 H :    0.029492
  83 H :    0.030103
  84 H :    0.030708
  85 H :    0.004906
  86 H :    0.048713
  87 H :    0.036710
  88 H :    0.025885
  89 H :    0.031279
  90 H :    0.017433
  91 H :    0.012613
  92 H :    0.047662
  93 H :    0.008835
  94 H :   -0.000530
  95 H :   -0.004026
  96 H :    0.004906
  97 H :    0.021228
  98 H :    0.024290
  99 H :    0.005616
 100 H :   -0.001615
 101 H :    0.016274
 102 H :    0.025500
 103 H :    0.042810
Sum of atomic charges:   -0.0000000

LOEWDIN ATOMIC CHARGES
----------------------
   0 C :   -0.145639
   1 C :   -0.013051
   2 C :   -0.014514
   3 C :   -0.150663
   4 S :    1.165911
   5 O :   -0.490311
   6 O :   -0.494316
   7 C :   -0.016192
   8 C :    0.005065
   9 C :   -0.000504
  10 C :   -0.043888
  11 N :    0.285599
  12 O :   -0.206998
  13 O :   -0.219737
  14 C :    0.003849
  15 C :   -0.039935
  16 C :    0.023042
  17 C :    0.053640
  18 C :   -0.033961
  19 C :    0.033094
  20 C :   -0.030895
  21 N :    0.279239
  22 O :   -0.196131
  23 O :   -0.208827
  24 C :   -0.006280
  25 C :    0.031884
  26 C :   -0.026649
  27 C :    0.067261
  28 N :    0.003458
  29 C :    0.039306
  30 C :   -0.060289
  31 C :    0.078114
  32 O :   -0.191573
  33 C :   -0.107683
  34 C :   -0.095491
  35 C :    0.079967
  36 O :   -0.156654
  37 N :    0.008006
  38 C :    0.038751
  39 C :   -0.058315
  40 C :    0.077902
  41 C :   -0.015730
  42 C :    0.013545
  43 C :    0.007876
  44 C :   -0.036865
  45 N :    0.286319
  46 O :   -0.202946
  47 O :   -0.213297
  48 C :    0.015721
  49 C :   -0.034560
  50 C :    0.035404
  51 C :    0.044162
  52 C :   -0.030155
  53 C :    0.023072
  54 C :   -0.035029
  55 N :    0.282510
  56 O :   -0.208843
  57 O :   -0.200740
  58 C :    0.011526
  59 C :   -0.025717
  60 C :    0.013270
  61 C :   -0.156557
  62 C :   -0.012910
  63 C :   -0.025062
  64 C :   -0.142800
  65 S :    1.167769
  66 O :   -0.496261
  67 O :   -0.481402
  68 C :   -0.037337
  69 C :   -0.001342
  70 H :    0.039897
  71 H :    0.042394
  72 H :    0.040640
  73 H :    0.035286
  74 H :    0.038769
  75 H :    0.038792
  76 H :    0.032463
  77 H :    0.033818
  78 H :    0.044522
  79 H :    0.044392
  80 H :    0.032843
  81 H :    0.038585
  82 H :    0.025294
  83 H :    0.032757
  84 H :    0.033969
  85 H :    0.020001
  86 H :    0.039813
  87 H :    0.028871
  88 H :    0.030471
  89 H :    0.035411
  90 H :    0.022254
  91 H :    0.030074
  92 H :    0.042457
  93 H :    0.039329
  94 H :    0.033097
  95 H :    0.030575
  96 H :    0.038389
  97 H :    0.032489
  98 H :    0.041080
  99 H :    0.037027
 100 H :    0.036123
 101 H :    0.039197
 102 H :    0.025394
 103 H :    0.034312

  Mayer bond orders larger than 0.100000
B(  0-C ,  1-C ) :   1.7678 B(  0-C ,  4-S ) :   0.8242 B(  0-C , 70-H ) :   0.9753
B(  1-C ,  2-C ) :   1.0866 B(  1-C , 71-H ) :   0.9890 B(  2-C ,  3-C ) :   1.6802
B(  2-C , 72-H ) :   0.9926 B(  3-C ,  4-S ) :   0.8128 B(  3-C ,  7-C ) :   1.1523
B(  4-S ,  5-O ) :   1.7154 B(  4-S ,  6-O ) :   1.7159 B(  7-C ,  8-C ) :   1.6167
B(  7-C , 73-H ) :   0.9415 B(  8-C ,  9-C ) :   1.1928 B(  8-C , 74-H ) :   0.9518
B(  9-C , 10-C ) :   1.4843 B(  9-C , 16-C ) :   1.0334 B( 10-C , 11-N ) :   0.9489
B( 10-C , 14-C ) :   1.1524 B( 11-N , 12-O ) :   1.5386 B( 11-N , 13-O ) :   1.4920
B( 12-O , 13-O ) :   0.2613 B( 14-C , 15-C ) :   1.5390 B( 14-C , 75-H ) :   1.0114
B( 15-C , 16-C ) :   1.1583 B( 15-C , 76-H ) :   0.9966 B( 16-C , 17-C ) :   1.4534
B( 17-C , 18-C ) :   1.1848 B( 17-C , 24-C ) :   0.9804 B( 18-C , 19-C ) :   1.5177
B( 18-C , 77-H ) :   1.0009 B( 19-C , 20-C ) :   1.1744 B( 19-C , 78-H ) :   1.0103
B( 20-C , 21-N ) :   0.9367 B( 20-C , 24-C ) :   1.4430 B( 21-N , 22-O ) :   1.5231
B( 21-N , 23-O ) :   1.5289 B( 22-O , 23-O ) :   0.2681 B( 24-C , 25-C ) :   1.2507
B( 25-C , 26-C ) :   1.4489 B( 25-C , 79-H ) :   0.9482 B( 26-C , 27-C ) :   1.2384
B( 26-C , 80-H ) :   0.9455 B( 27-C , 28-N ) :   1.1533 B( 27-C , 34-C ) :   1.2763
B( 28-N , 29-C ) :   0.9388 B( 28-N , 31-C ) :   1.0779 B( 29-C , 30-C ) :   1.1231
B( 29-C , 81-H ) :   0.9277 B( 29-C , 82-H ) :   0.9480 B( 30-C , 83-H ) :   0.9602
B( 30-C , 84-H ) :   0.9668 B( 30-C , 85-H ) :   0.9642 B( 31-C , 32-O ) :   2.0189
B( 31-C , 33-C ) :   0.9811 B( 32-O , 92-H ) :   0.1028 B( 33-C , 34-C ) :   1.3281
B( 33-C , 40-C ) :   1.2462 B( 34-C , 35-C ) :   0.9642 B( 35-C , 36-O ) :   2.0905
B( 35-C , 37-N ) :   1.0451 B( 37-N , 38-C ) :   0.9325 B( 37-N , 40-C ) :   1.1887
B( 38-C , 39-C ) :   1.1249 B( 38-C , 86-H ) :   0.9273 B( 38-C , 87-H ) :   0.9483
B( 39-C , 88-H ) :   0.9634 B( 39-C , 89-H ) :   0.9670 B( 39-C , 90-H ) :   0.9649
B( 40-C , 41-C ) :   1.1854 B( 41-C , 42-C ) :   1.5333 B( 41-C , 91-H ) :   0.9450
B( 42-C , 43-C ) :   1.1867 B( 42-C , 92-H ) :   0.9367 B( 43-C , 44-C ) :   1.4734
B( 43-C , 50-C ) :   1.0090 B( 44-C , 45-N ) :   0.9526 B( 44-C , 48-C ) :   1.1487
B( 45-N , 46-O ) :   1.5433 B( 45-N , 47-O ) :   1.4604 B( 46-O , 47-O ) :   0.2519
B( 48-C , 49-C ) :   1.5686 B( 48-C , 93-H ) :   1.0081 B( 49-C , 50-C ) :   1.1042
B( 49-C , 94-H ) :   1.0034 B( 50-C , 51-C ) :   1.5674 B( 51-C , 52-C ) :   1.0915
B( 51-C , 58-C ) :   1.0284 B( 52-C , 53-C ) :   1.6179 B( 52-C , 95-H ) :   0.9988
B( 53-C , 54-C ) :   1.0990 B( 53-C , 96-H ) :   1.0102 B( 54-C , 55-N ) :   0.9382
B( 54-C , 58-C ) :   1.6033 B( 55-N , 56-O ) :   1.5369 B( 55-N , 57-O ) :   1.5149
B( 56-O , 57-O ) :   0.2650 B( 58-C , 59-C ) :   1.0890 B( 59-C , 60-C ) :   1.7315
B( 59-C , 97-H ) :   0.9397 B( 60-C , 61-C ) :   1.1241 B( 60-C , 98-H ) :   0.9451
B( 61-C , 62-C ) :   1.6755 B( 61-C , 65-S ) :   0.7870 B( 62-C , 63-C ) :   1.1046
B( 62-C , 99-H ) :   0.9921 B( 63-C , 64-C ) :   1.6954 B( 63-C ,100-H ) :   0.9931
B( 64-C , 65-S ) :   0.8024 B( 64-C , 68-C ) :   1.1103 B( 65-S , 66-O ) :   1.7235
B( 65-S , 67-O ) :   1.7346 B( 68-C , 69-C ) :   1.9307 B( 68-C ,101-H ) :   0.9500
B( 69-C ,102-H ) :   0.9572 B( 69-C ,103-H ) :   0.9509

-----------------------------------------------------------------------------
         ABSORPTION SPECTRUM VIA TRANSITION ELECTRIC DIPOLE MOMENTS
-----------------------------------------------------------------------------
State   Energy  Wavelength   fosc         T2         TX        TY        TZ
        (cm-1)    (nm)                  (au**2)     (au)      (au)      (au)
-----------------------------------------------------------------------------
   0    4415.1   2265.0   0.242744875  18.10043  -1.10980   3.96659   1.06534
   1    8784.3   1138.4   0.069034209   2.58721  -0.88787   1.13629  -0.71256
   2   12016.3    832.2   0.033944591   0.92999  -0.91198  -0.28057  -0.13984
   3   12751.7    784.2   0.076197723   1.96721  -0.09505   1.18223  -0.74867
   4   15935.1    627.5   0.052019430   1.07470   0.13822  -0.88782  -0.51708
   5   16988.1    588.6   0.055419684   1.07398  -0.51038   0.48435   0.76085
   6   17919.4    558.1   0.051290413   0.94230   0.55668  -0.68532   0.40342
   7   20528.8    487.1   0.016669355   0.26732   0.02548   0.36442  -0.36588
   8   20736.3    482.2   0.064716528   1.02745  -0.15823   0.98129  -0.19869
   9   21114.0    473.6   0.132097339   2.05967  -0.06855  -1.27634  -0.65263
  10   21402.4    467.2   0.074812606   1.15077   0.96626   0.41121   0.21915
  11   22016.8    454.2   0.004181398   0.06252  -0.00420  -0.19295  -0.15898
  12   23225.7    430.6   0.067305302   0.95402   0.23077   0.88383   0.34583
  13   23693.2    422.1   0.094138754   1.30804   0.31895  -1.08353   0.17961
  14   23991.9    416.8   0.214891673   2.94869   0.48424  -1.45269   0.77711
  15   24494.5    408.3   0.022130739   0.29744  -0.26404  -0.27065  -0.39303
  16   24703.9    404.8   0.107894211   1.43783  -0.59587  -1.00703   0.26205
  17   24983.6    400.3   0.033439587   0.44064  -0.19416   0.54940   0.31796
  18   25548.3    391.4   0.119654038   1.54185  -0.60362   0.84184  -0.68469
  19   25748.1    388.4   0.070259156   0.89832  -0.52661  -0.24440   0.74918
  20   25894.7    386.2   0.183935650   2.33847  -0.84995  -1.25022  -0.23023
  21   26050.9    383.9   0.110737554   1.39942  -0.27818  -1.06677   0.42900
  22   26458.7    377.9   0.021395384   0.26621   0.51177  -0.04420   0.04845
  23   27146.2    368.4   0.033909415   0.41123  -0.17928  -0.59631  -0.15332
  24   27185.9    367.8   0.040160645   0.48633   0.30327   0.62372   0.07304
  25   27352.9    365.6   0.010503627   0.12642  -0.20937   0.25219  -0.13778
  26   27604.9    362.3   0.183848539   2.19255  -0.06719   0.51941  -1.38501
  27   28350.8    352.7   0.005875958   0.06823  -0.04318   0.17164  -0.19212
  28   28906.9    345.9   0.030378327   0.34597   0.34931   0.18665   0.43487
  29   29202.4    342.4   0.092587161   1.04378  -0.55968   0.40591  -0.75218
  30   29617.1    337.6   0.176057944   1.95699   0.53613   1.24018   0.36265
  31   29963.2    333.7   0.038090282   0.41851   0.52854   0.29059   0.23390
  32   30132.6    331.9   0.048662783   0.53166   0.25609   0.61005   0.30647
  33   30289.9    330.1   0.006592675   0.07165   0.01323   0.23137  -0.13397
  34   30527.7    327.6   0.033311377   0.35923  -0.22440  -0.38635   0.39951
  35   30631.2    326.5   0.165985064   1.78394   0.03848   0.93452  -0.95349
  36   30853.6    324.1   0.213298252   2.27592   0.18951   1.01576  -1.09920
  37   31073.2    321.8   0.245817554   2.60437  -0.30733   0.24350  -1.56545
  38   31262.3    319.9   0.320291958   3.37288  -0.09067  -1.81317  -0.27759
  39   31624.5    316.2   0.025607745   0.26658  -0.02670  -0.42720   0.28872
  40   31825.2    314.2   0.008745987   0.09047   0.16984  -0.24632  -0.03091
  41   31904.2    313.4   0.087284510   0.90067  -0.24794   0.11231  -0.90916
  42   32072.2    311.8   0.040169034   0.41232  -0.38263  -0.08913   0.50791
  43   32363.3    309.0   0.014722019   0.14976  -0.37384   0.06581   0.07529
  44   32407.4    308.6   0.013164264   0.13373  -0.14075  -0.27235  -0.19936
  45   32634.0    306.4   0.052803696   0.53268   0.36546  -0.19731   0.60016
  46   32894.2    304.0   0.073652246   0.73713  -0.24094  -0.19696   0.80018
  47   32994.0    303.1   0.061500176   0.61364  -0.13376   0.42965  -0.64121
  48   33286.8    300.4   0.039856745   0.39419   0.48286   0.37778   0.13533
  49   33424.8    299.2   0.002893521   0.02850  -0.06084   0.07417   0.13891
  50   33615.8    297.5   0.065275504   0.63927   0.53703   0.21941   0.55020
  51   33741.8    296.4   0.031609727   0.30841   0.12479   0.38383  -0.38146
  52   33867.7    295.3   0.007097403   0.06899   0.02103   0.00428  -0.26178
  53   33953.3    294.5   0.181724124   1.76200  -0.46347  -0.59020  -1.09493
  54   34116.3    293.1   0.050407710   0.48642  -0.21317  -0.14019  -0.64909
  55   34204.9    292.4   0.023382370   0.22505   0.38177  -0.06360   0.27433
  56   34555.7    289.4   0.047092997   0.44865   0.49098  -0.09366   0.44590
  57   34736.2    287.9   0.068334599   0.64764  -0.25112   0.38808  -0.65876
  58   34806.1    287.3   0.108065567   1.02213   0.62668  -0.35681   0.70859
  59   35089.8    285.0   0.007689707   0.07214  -0.20335   0.06421   0.16331
  60   35534.0    281.4   0.021142090   0.19588  -0.18968  -0.17432  -0.35987
  61   35697.7    280.1   0.041725291   0.38480   0.36970   0.18291   0.46332
  62   35833.3    279.1   0.024737002   0.22727   0.37443   0.26794   0.12359
  63   35863.1    278.8   0.017344585   0.15922  -0.26864  -0.09456  -0.27947
  64   36025.7    277.6   0.027645641   0.25263  -0.05577  -0.28590  -0.40961
  65   36227.3    276.0   0.027664909   0.25140  -0.05156   0.26309   0.42371
  66   36271.5    275.7   0.016406049   0.14891   0.04535  -0.35551   0.14305
  67   36607.9    273.2   0.017902323   0.16099   0.20072   0.10116   0.33238
  68   36896.5    271.0   0.135417859   1.20828   0.19848  -0.10506   1.07603
  69   37122.2    269.4   0.051076531   0.45296  -0.36422  -0.23536  -0.51470
  70   37361.1    267.7   0.003377052   0.02976   0.09630  -0.14308  -0.00343
  71   37587.5    266.0   0.004646999   0.04070   0.01330  -0.15859   0.12399
  72   37624.5    265.8   0.001637195   0.01433   0.00340  -0.06487  -0.10053
  73   37696.0    265.3   0.003453251   0.03016  -0.13705  -0.10599   0.01192
  74   37920.8    263.7   0.016633083   0.14440   0.24575   0.14734   0.24960
  75   38310.4    261.0   0.009266476   0.07963  -0.10686  -0.03582  -0.25870
  76   38422.0    260.3   0.055941731   0.47933  -0.42125  -0.27474  -0.47581
  77   38640.3    258.8   0.041518633   0.35373  -0.12824   0.53690  -0.22142
  78   38823.3    257.6   0.014128127   0.11980  -0.08083   0.21320  -0.26042
  79   38951.5    256.7   0.013146122   0.11111   0.04243  -0.30208  -0.13437
  80   39168.8    255.3   0.002868426   0.02411   0.06467  -0.13997  -0.01834
  81   39224.5    254.9   0.005279732   0.04431   0.00230  -0.20871  -0.02737
  82   39336.0    254.2   0.020348134   0.17030   0.15382  -0.34324   0.16979
  83   39474.0    253.3   0.010333361   0.08618  -0.06914   0.17127   0.22818
  84   39676.5    252.0   0.015199022   0.12611  -0.08264   0.34474  -0.02090
  85   39726.2    251.7   0.083411867   0.69124   0.30749  -0.10054   0.76589
  86   40105.1    249.3   0.011233346   0.09221  -0.26129  -0.00255   0.15471
  87   40274.0    248.3   0.016180467   0.13226  -0.30683  -0.16937   0.09713
  88   40310.9    248.1   0.027502601   0.22461   0.30304  -0.36376   0.02138

FINAL SINGLE POINT ENERGY     -4022.589228817611

DIPOLE MOMENT
-------------
                                X             Y             Z
Electronic contribution:     -3.38436     -17.04767      -2.79625
Nuclear contribution   :      1.95295      17.20836       2.90680
                        -----------------------------------------
Total Dipole Moment    :     -1.43141       0.16069       0.11055
                        -----------------------------------------
Magnitude (a.u.)       :      1.44464
Magnitude (Debye)      :      3.67197

Rotational constants in cm-1:     0.001458     0.000355     0.000314
Rotational constants in MHz :    43.700360    10.635366     9.412193

                             ****ORCA TERMINATED NORMALLY****
TOTAL RUN TIME: 0 days 0 hours 13 minutes 34 seconds 241 msec
