                         Program Version 4.2.0 -  RELEASE  -
|  1> # ORCA input file
|  2> # SCF done       -126.795290919550          0.000667220695
|  3> ! CAM-B3LYP def2-SVP def2/J RIJCOSX Grid4 TightSCF
|  4> %maxcore 5000
|  5> %tddft
|  6>     Mode sTDDFT
|  7>     Ethresh 5.0
|  8>     maxcore 5000
|  9> end
| 10>
| 11> %pal
| 12>   nprocs 6
| 13>   end
| 14> * xyz 0 1
| 15>    C        5.28430        -4.47410        -0.19341
| 16>    C        4.83429        -5.71019        -0.52580
| 17>    F        5.55217        -6.82288        -0.36999
| 18>    C        3.53094        -5.71157        -1.08614
| 19>    F        2.93961        -6.82134        -1.54798
| 20>    C        2.98435        -4.45607        -1.16096
| 21>    S        4.10235        -3.27354        -0.53612
| 22>    N        1.76801        -4.03690        -1.63875
| 23>    C        0.57387        -4.69514        -1.58902
| 24>    S        0.34337        -6.14188        -0.67689
| 25>    C       -1.33830        -6.12763        -1.10981
| 26>    N       -2.14267        -7.15982        -0.62422
| 27>    O       -3.32073        -7.15716        -0.93653
| 28>    O       -1.60272        -7.99050         0.08855
| 29>    C       -1.68902        -5.07131        -1.90640
| 30>    C       -0.60264        -4.22465        -2.20007
| 31>    C       -0.63742        -3.03685        -2.99542
| 32>    C       -1.74185        -2.48558        -3.56045
| 33>    C       -1.77692        -1.28515        -4.30652
| 34>    C       -0.78289        -0.36900        -4.53606
| 35>    C       -0.94533         0.82799        -5.28611
| 36>    C        0.15924         1.61663        -5.35774
| 37>    C        1.28208         1.09841        -4.67187
| 38>    S        0.86972        -0.43790        -3.93611
| 39>    C        2.54024         1.64236        -4.55062
| 40>    C        3.01021         2.86715        -5.08612
| 41>    C        4.30810         3.14087        -4.79820
| 42>    C        4.96035         2.14797        -4.01562
| 43>    S        3.82220         0.84718        -3.65997
| 44>    C        6.24741         2.09238        -3.56549
| 45>    C        7.23008         3.09096        -3.80249
| 46>    C        8.52322         3.01638        -3.42250
| 47>    C        9.10161         1.85756        -2.67166
| 48>    C        9.47770         4.13232        -3.76139
| 49>    N       10.08789         4.70742        -2.58333
| 50>    C       11.33602         4.43719        -2.12607
| 51>    C       12.31125         3.74575        -2.75126
| 52>    C       13.61814         3.57030        -2.20717
| 53>    C       14.65694         2.87422        -2.77751
| 54>    F       14.55002         2.25313        -3.96773
| 55>    C       15.83833         2.87034        -2.00245
| 56>    F       16.96347         2.24898        -2.38007
| 57>    C       15.71635         3.55795        -0.83760
| 58>    S       14.13723         4.22436        -0.67815
| 59>    H        6.23233        -4.20785         0.22508
| 60>    H        1.72528        -3.06840        -1.93337
| 61>    H       -2.69345        -4.93296        -2.26053
| 62>    H        0.31301        -2.55569        -3.16415
| 63>    H       -2.69288        -2.98528        -3.44424
| 64>    H       -2.73390        -1.03111        -4.74480
| 65>    H       -1.88798         1.06526        -5.74735
| 66>    H        0.19900         2.55480        -5.88148
| 67>    H        2.37241         3.50786        -5.66867
| 68>    H        4.81932         4.02639        -5.13004
| 69>    H        6.53791         1.22095        -2.99784
| 70>    H        6.91004         3.96823        -4.34822
| 71>    H        9.17112         0.98471        -3.32230
| 72>    H        8.47845         1.58793        -1.82013
| 73>    H       10.09997         2.09078        -2.31086
| 74>    H        8.94898         4.92672        -4.29917
| 75>    H       10.27196         3.75662        -4.40959
| 76>    H        9.44112         5.11313        -1.92619
| 77>    H       11.55754         4.87654        -1.16133
| 78>    H       12.16139         3.27732        -3.71255
| 79>    H       16.45264         3.70815        -0.07642
| 80> *
| 81>
| 82>                          ****END OF INPUT****

CARTESIAN COORDINATES (ANGSTROEM)
---------------------------------
  C      5.284300   -4.474100   -0.193410
  C      4.834290   -5.710190   -0.525800
  F      5.552170   -6.822880   -0.369990
  C      3.530940   -5.711570   -1.086140
  F      2.939610   -6.821340   -1.547980
  C      2.984350   -4.456070   -1.160960
  S      4.102350   -3.273540   -0.536120
  N      1.768010   -4.036900   -1.638750
  C      0.573870   -4.695140   -1.589020
  S      0.343370   -6.141880   -0.676890
  C     -1.338300   -6.127630   -1.109810
  N     -2.142670   -7.159820   -0.624220
  O     -3.320730   -7.157160   -0.936530
  O     -1.602720   -7.990500    0.088550
  C     -1.689020   -5.071310   -1.906400
  C     -0.602640   -4.224650   -2.200070
  C     -0.637420   -3.036850   -2.995420
  C     -1.741850   -2.485580   -3.560450
  C     -1.776920   -1.285150   -4.306520
  C     -0.782890   -0.369000   -4.536060
  C     -0.945330    0.827990   -5.286110
  C      0.159240    1.616630   -5.357740
  C      1.282080    1.098410   -4.671870
  S      0.869720   -0.437900   -3.936110
  C      2.540240    1.642360   -4.550620
  C      3.010210    2.867150   -5.086120
  C      4.308100    3.140870   -4.798200
  C      4.960350    2.147970   -4.015620
  S      3.822200    0.847180   -3.659970
  C      6.247410    2.092380   -3.565490
  C      7.230080    3.090960   -3.802490
  C      8.523220    3.016380   -3.422500
  C      9.101610    1.857560   -2.671660
  C      9.477700    4.132320   -3.761390
  N     10.087890    4.707420   -2.583330
  C     11.336020    4.437190   -2.126070
  C     12.311250    3.745750   -2.751260
  C     13.618140    3.570300   -2.207170
  C     14.656940    2.874220   -2.777510
  F     14.550020    2.253130   -3.967730
  C     15.838330    2.870340   -2.002450
  F     16.963470    2.248980   -2.380070
  C     15.716350    3.557950   -0.837600
  S     14.137230    4.224360   -0.678150
  H      6.232330   -4.207850    0.225080
  H      1.725280   -3.068400   -1.933370
  H     -2.693450   -4.932960   -2.260530
  H      0.313010   -2.555690   -3.164150
  H     -2.692880   -2.985280   -3.444240
  H     -2.733900   -1.031110   -4.744800
  H     -1.887980    1.065260   -5.747350
  H      0.199000    2.554800   -5.881480
  H      2.372410    3.507860   -5.668670
  H      4.819320    4.026390   -5.130040
  H      6.537910    1.220950   -2.997840
  H      6.910040    3.968230   -4.348220
  H      9.171120    0.984710   -3.322300
  H      8.478450    1.587930   -1.820130
  H     10.099970    2.090780   -2.310860
  H      8.948980    4.926720   -4.299170
  H     10.271960    3.756620   -4.409590
  H      9.441120    5.113130   -1.926190
  H     11.557540    4.876540   -1.161330
  H     12.161390    3.277320   -3.712550
  H     16.452640    3.708150   -0.076420

 Total Charge           Charge          ....    0
 Multiplicity           Mult            ....    1
 Number of Electrons    NEL             ....  354
 Basis Dimension        Dim             ....  741

ORBITAL ENERGIES
----------------

  NO   OCC          E(Eh)            E(eV)
   0   2.0000     -88.980351     -2421.2785
   1   2.0000     -88.975444     -2421.1449
   2   2.0000     -88.954136     -2420.5651
   3   2.0000     -88.951733     -2420.4997
   4   2.0000     -88.948123     -2420.4015
   5   2.0000     -24.800827      -674.8648
   6   2.0000     -24.795272      -674.7136
   7   2.0000     -24.774895      -674.1592
   8   2.0000     -24.774244      -674.1414
   9   2.0000     -19.225394      -523.1496
  10   2.0000     -19.224549      -523.1266
  11   2.0000     -14.636985      -398.2926
  12   2.0000     -14.485858      -394.1802
  13   2.0000     -14.437112      -392.8538
  14   2.0000     -10.374005      -282.2910
  15   2.0000     -10.371764      -282.2301
  16   2.0000     -10.364149      -282.0228
  17   2.0000     -10.362199      -281.9698
  18   2.0000     -10.349542      -281.6254
  19   2.0000     -10.340242      -281.3723
  20   2.0000     -10.330170      -281.0982
  21   2.0000     -10.317069      -280.7417
  22   2.0000     -10.316806      -280.7346
  23   2.0000     -10.314547      -280.6731
  24   2.0000     -10.314245      -280.6649
  25   2.0000     -10.313004      -280.6311
  26   2.0000     -10.310694      -280.5682
  27   2.0000     -10.308226      -280.5011
  28   2.0000     -10.298937      -280.2483
  29   2.0000     -10.298714      -280.2423
  30   2.0000     -10.296092      -280.1709
  31   2.0000     -10.292142      -280.0634
  32   2.0000     -10.290738      -280.0252
  33   2.0000     -10.289958      -280.0040
  34   2.0000     -10.288331      -279.9597
  35   2.0000     -10.286181      -279.9012
  36   2.0000     -10.285730      -279.8889
  37   2.0000     -10.284652      -279.8596
  38   2.0000     -10.284115      -279.8450
  39   2.0000     -10.282262      -279.7946
  40   2.0000     -10.279679      -279.7243
  41   2.0000     -10.275615      -279.6137
  42   2.0000     -10.268227      -279.4127
  43   2.0000     -10.259341      -279.1709
  44   2.0000      -8.076492      -219.7725
  45   2.0000      -8.070912      -219.6207
  46   2.0000      -8.049660      -219.0424
  47   2.0000      -8.047327      -218.9789
  48   2.0000      -8.044637      -218.9057
  49   2.0000      -6.046181      -164.5250
  50   2.0000      -6.042048      -164.4125
  51   2.0000      -6.040569      -164.3722
  52   2.0000      -6.037631      -164.2923
  53   2.0000      -6.036094      -164.2505
  54   2.0000      -6.032330      -164.1480
  55   2.0000      -6.019398      -163.7962
  56   2.0000      -6.016738      -163.7238
  57   2.0000      -6.015461      -163.6890
  58   2.0000      -6.014453      -163.6616
  59   2.0000      -6.012926      -163.6200
  60   2.0000      -6.010687      -163.5591
  61   2.0000      -6.010493      -163.5538
  62   2.0000      -6.008904      -163.5106
  63   2.0000      -6.005309      -163.4128
  64   2.0000      -1.318457       -35.8770
  65   2.0000      -1.306740       -35.5582
  66   2.0000      -1.305659       -35.5288
  67   2.0000      -1.292213       -35.1629
  68   2.0000      -1.280788       -34.8520
  69   2.0000      -1.124452       -30.5979
  70   2.0000      -1.092052       -29.7162
  71   2.0000      -1.036218       -28.1969
  72   2.0000      -1.008161       -27.4334
  73   2.0000      -0.999566       -27.1996
  74   2.0000      -0.985048       -26.8045
  75   2.0000      -0.979788       -26.6614
  76   2.0000      -0.977293       -26.5935
  77   2.0000      -0.922337       -25.0981
  78   2.0000      -0.916337       -24.9348
  79   2.0000      -0.892415       -24.2838
  80   2.0000      -0.880213       -23.9518
  81   2.0000      -0.870115       -23.6770
  82   2.0000      -0.860008       -23.4020
  83   2.0000      -0.851898       -23.1813
  84   2.0000      -0.846864       -23.0443
  85   2.0000      -0.836385       -22.7592
  86   2.0000      -0.829515       -22.5722
  87   2.0000      -0.828507       -22.5448
  88   2.0000      -0.817364       -22.2416
  89   2.0000      -0.807443       -21.9716
  90   2.0000      -0.798521       -21.7288
  91   2.0000      -0.777077       -21.1454
  92   2.0000      -0.773418       -21.0458
  93   2.0000      -0.757067       -20.6008
  94   2.0000      -0.731851       -19.9147
  95   2.0000      -0.719903       -19.5895
  96   2.0000      -0.704646       -19.1744
  97   2.0000      -0.697668       -18.9845
  98   2.0000      -0.685066       -18.6416
  99   2.0000      -0.676313       -18.4034
 100   2.0000      -0.664328       -18.0773
 101   2.0000      -0.663192       -18.0464
 102   2.0000      -0.662758       -18.0346
 103   2.0000      -0.648539       -17.6476
 104   2.0000      -0.640236       -17.4217
 105   2.0000      -0.638452       -17.3732
 106   2.0000      -0.633712       -17.2442
 107   2.0000      -0.626125       -17.0377
 108   2.0000      -0.620258       -16.8781
 109   2.0000      -0.618281       -16.8243
 110   2.0000      -0.615188       -16.7401
 111   2.0000      -0.613602       -16.6970
 112   2.0000      -0.612897       -16.6778
 113   2.0000      -0.601534       -16.3686
 114   2.0000      -0.593520       -16.1505
 115   2.0000      -0.589662       -16.0455
 116   2.0000      -0.583839       -15.8871
 117   2.0000      -0.577667       -15.7191
 118   2.0000      -0.573164       -15.5966
 119   2.0000      -0.569844       -15.5062
 120   2.0000      -0.563667       -15.3382
 121   2.0000      -0.558677       -15.2024
 122   2.0000      -0.551673       -15.0118
 123   2.0000      -0.550314       -14.9748
 124   2.0000      -0.548802       -14.9337
 125   2.0000      -0.546411       -14.8686
 126   2.0000      -0.543464       -14.7884
 127   2.0000      -0.538663       -14.6578
 128   2.0000      -0.529337       -14.4040
 129   2.0000      -0.523786       -14.2530
 130   2.0000      -0.522915       -14.2292
 131   2.0000      -0.515688       -14.0326
 132   2.0000      -0.510153       -13.8820
 133   2.0000      -0.504974       -13.7410
 134   2.0000      -0.500907       -13.6304
 135   2.0000      -0.498666       -13.5694
 136   2.0000      -0.495317       -13.4782
 137   2.0000      -0.492557       -13.4032
 138   2.0000      -0.489474       -13.3193
 139   2.0000      -0.483598       -13.1594
 140   2.0000      -0.479222       -13.0403
 141   2.0000      -0.476594       -12.9688
 142   2.0000      -0.473780       -12.8922
 143   2.0000      -0.472488       -12.8570
 144   2.0000      -0.469269       -12.7695
 145   2.0000      -0.465860       -12.6767
 146   2.0000      -0.460316       -12.5258
 147   2.0000      -0.458194       -12.4681
 148   2.0000      -0.453993       -12.3538
 149   2.0000      -0.447609       -12.1801
 150   2.0000      -0.443317       -12.0633
 151   2.0000      -0.442411       -12.0386
 152   2.0000      -0.439543       -11.9606
 153   2.0000      -0.439398       -11.9566
 154   2.0000      -0.430897       -11.7253
 155   2.0000      -0.425674       -11.5832
 156   2.0000      -0.424921       -11.5627
 157   2.0000      -0.418170       -11.3790
 158   2.0000      -0.408449       -11.1145
 159   2.0000      -0.407623       -11.0920
 160   2.0000      -0.402114       -10.9421
 161   2.0000      -0.394816       -10.7435
 162   2.0000      -0.373426       -10.1614
 163   2.0000      -0.367030        -9.9874
 164   2.0000      -0.360438        -9.8080
 165   2.0000      -0.354058        -9.6344
 166   2.0000      -0.344097        -9.3633
 167   2.0000      -0.337041        -9.1713
 168   2.0000      -0.332338        -9.0434
 169   2.0000      -0.331545        -9.0218
 170   2.0000      -0.328269        -8.9327
 171   2.0000      -0.322570        -8.7776
 172   2.0000      -0.302459        -8.2303
 173   2.0000      -0.292878        -7.9696
 174   2.0000      -0.263049        -7.1579
 175   2.0000      -0.240285        -6.5385
 176   2.0000      -0.215087        -5.8528
 177   0.0000      -0.080828        -2.1994
 178   0.0000      -0.044325        -1.2061
 179   0.0000      -0.020569        -0.5597
 180   0.0000       0.007354         0.2001
 181   0.0000       0.011734         0.3193

MULLIKEN ATOMIC CHARGES
-----------------------
   0 C :   -0.155134
   1 C :    0.251208
   2 F :   -0.168303
   3 C :    0.220122
   4 F :   -0.169624
   5 C :   -0.168346
   6 S :    0.132111
   7 N :   -0.028608
   8 C :   -0.100013
   9 S :    0.194175
  10 C :   -0.023706
  11 N :    0.278089
  12 O :   -0.258598
  13 O :   -0.270674
  14 C :    0.006226
  15 C :    0.126285
  16 C :   -0.035701
  17 C :    0.011408
  18 C :   -0.008108
  19 C :   -0.014803
  20 C :    0.038314
  21 C :    0.027361
  22 C :   -0.030552
  23 S :    0.016187
  24 C :   -0.045172
  25 C :    0.021880
  26 C :    0.030131
  27 C :   -0.040640
  28 S :    0.074294
  29 C :    0.019809
  30 C :   -0.004732
  31 C :   -0.214391
  32 C :    0.092668
  33 C :    0.219705
  34 N :   -0.162645
  35 C :    0.051628
  36 C :   -0.034800
  37 C :   -0.162641
  38 C :    0.179721
  39 F :   -0.192482
  40 C :    0.260460
  41 F :   -0.182205
  42 C :   -0.165695
  43 S :    0.096793
  44 H :    0.041502
  45 H :    0.149862
  46 H :    0.006684
  47 H :   -0.029103
  48 H :   -0.018783
  49 H :   -0.015789
  50 H :   -0.011981
  51 H :   -0.014825
  52 H :   -0.011809
  53 H :   -0.012125
  54 H :   -0.023631
  55 H :   -0.036757
  56 H :    0.034283
  57 H :    0.027191
  58 H :    0.025646
  59 H :    0.003090
  60 H :    0.035468
  61 H :    0.120422
  62 H :    0.007331
  63 H :   -0.018161
  64 H :    0.030486
Sum of atomic charges:    0.0000000

LOEWDIN ATOMIC CHARGES
----------------------
   0 C :   -0.225869
   1 C :    0.028839
   2 F :   -0.045969
   3 C :   -0.018019
   4 F :   -0.049754
   5 C :   -0.171955
   6 S :    0.434201
   7 N :    0.013979
   8 C :   -0.100104
   9 S :    0.479247
  10 C :   -0.215712
  11 N :    0.274074
  12 O :   -0.224846
  13 O :   -0.235861
  14 C :    0.002563
  15 C :   -0.104691
  16 C :   -0.038055
  17 C :   -0.035967
  18 C :   -0.059179
  19 C :   -0.143484
  20 C :   -0.028980
  21 C :   -0.040484
  22 C :   -0.180917
  23 S :    0.364960
  24 C :   -0.176261
  25 C :   -0.025359
  26 C :   -0.036088
  27 C :   -0.142988
  28 S :    0.355265
  29 C :   -0.053824
  30 C :   -0.055880
  31 C :   -0.034744
  32 C :   -0.056554
  33 C :    0.046036
  34 N :   -0.010443
  35 C :    0.033007
  36 C :   -0.147910
  37 C :   -0.186391
  38 C :   -0.003053
  39 F :   -0.068900
  40 C :    0.021886
  41 F :   -0.059878
  42 C :   -0.235136
  43 S :    0.419218
  44 H :    0.034740
  45 H :    0.093152
  46 H :    0.042579
  47 H :   -0.001066
  48 H :    0.029482
  49 H :    0.035089
  50 H :    0.034016
  51 H :    0.031568
  52 H :    0.033030
  53 H :    0.031793
  54 H :    0.026534
  55 H :    0.021220
  56 H :    0.041305
  57 H :    0.034090
  58 H :    0.034693
  59 H :    0.026212
  60 H :    0.036943
  61 H :    0.077564
  62 H :    0.022037
  63 H :    0.026541
  64 H :    0.028456

  Mayer bond orders larger than 0.100000
B(  0-C ,  1-C ) :   1.5768 B(  0-C ,  5-C ) :   0.1055 B(  0-C ,  6-S ) :   1.0984
B(  0-C , 44-H ) :   0.9704 B(  1-C ,  2-F ) :   1.1457 B(  1-C ,  3-C ) :   1.1762
B(  3-C ,  4-F ) :   1.1469 B(  3-C ,  5-C ) :   1.4555 B(  5-C ,  6-S ) :   1.1445
B(  5-C ,  7-N ) :   1.1011 B(  7-N ,  8-C ) :   1.2007 B(  7-N , 45-H ) :   0.8973
B(  8-C ,  9-S ) :   1.1524 B(  8-C , 15-C ) :   1.3424 B(  9-S , 10-C ) :   1.0776
B( 10-C , 11-N ) :   0.9797 B( 10-C , 14-C ) :   1.4849 B( 11-N , 12-O ) :   1.5261
B( 11-N , 13-O ) :   1.5069 B( 12-O , 13-O ) :   0.2532 B( 14-C , 15-C ) :   1.2337
B( 14-C , 46-H ) :   0.9999 B( 15-C , 16-C ) :   1.1219 B( 16-C , 17-C ) :   1.6614
B( 16-C , 47-H ) :   0.9381 B( 17-C , 18-C ) :   1.1902 B( 17-C , 48-H ) :   0.9696
B( 18-C , 19-C ) :   1.5883 B( 18-C , 49-H ) :   0.9603 B( 19-C , 20-C ) :   1.1456
B( 19-C , 23-S ) :   1.0267 B( 20-C , 21-C ) :   1.5995 B( 20-C , 50-H ) :   0.9978
B( 21-C , 22-C ) :   1.1802 B( 21-C , 51-H ) :   0.9911 B( 22-C , 23-S ) :   1.0331
B( 22-C , 24-C ) :   1.5275 B( 24-C , 25-C ) :   1.1767 B( 24-C , 28-S ) :   1.0445
B( 25-C , 26-C ) :   1.6235 B( 25-C , 52-H ) :   0.9927 B( 26-C , 27-C ) :   1.1348
B( 26-C , 53-H ) :   0.9906 B( 27-C , 28-S ) :   1.0251 B( 27-C , 29-C ) :   1.6089
B( 29-C , 30-C ) :   1.1416 B( 29-C , 54-H ) :   0.9534 B( 30-C , 31-C ) :   1.7535
B( 30-C , 55-H ) :   0.9670 B( 31-C , 32-C ) :   1.0734 B( 31-C , 33-C ) :   1.0611
B( 32-C , 56-H ) :   0.9422 B( 32-C , 57-H ) :   0.9432 B( 32-C , 58-H ) :   0.9503
B( 33-C , 34-N ) :   0.9837 B( 33-C , 59-H ) :   0.9369 B( 33-C , 60-H ) :   0.9223
B( 34-N , 35-C ) :   1.2173 B( 34-N , 61-H ) :   0.9402 B( 35-C , 36-C ) :   1.6406
B( 35-C , 62-H ) :   0.9623 B( 36-C , 37-C ) :   1.1534 B( 36-C , 63-H ) :   0.9633
B( 37-C , 38-C ) :   1.4808 B( 37-C , 42-C ) :   0.1149 B( 37-C , 43-S ) :   1.1132
B( 38-C , 39-F ) :   1.1317 B( 38-C , 40-C ) :   1.1829 B( 40-C , 41-F ) :   1.1343
B( 40-C , 42-C ) :   1.5608 B( 42-C , 43-S ) :   1.1040 B( 42-C , 64-H ) :   0.9687

-----------------------------------------------------------------------------
         ABSORPTION SPECTRUM VIA TRANSITION ELECTRIC DIPOLE MOMENTS
-----------------------------------------------------------------------------
State   Energy  Wavelength   fosc         T2         TX        TY        TZ
        (cm-1)    (nm)                  (au**2)     (au)      (au)      (au)
-----------------------------------------------------------------------------
   0   15768.4    634.2   1.199552737  25.04426   3.76411   3.23617  -0.63473
   1   22822.0    438.2   0.092251173   1.33074   0.61421  -0.71047   0.66986
   2   23171.7    431.6   0.136487963   1.93916   1.35942   0.27333   0.12812
   3   24522.4    407.8   0.066189439   0.88859   0.91138   0.08451   0.22548
   4   27283.0    366.5   0.737434866   8.89831  -2.55844   0.85825  -1.27127
   5   30831.9    324.3   0.398941823   4.25976   1.79961   0.98021  -0.24570
   6   31477.1    317.7   0.298854774   3.12566   0.91409  -1.17792   0.95006
   7   33053.7    302.5   0.005105368   0.05085  -0.11653   0.13786  -0.13514
   8   33435.9    299.1   0.007718039   0.07599  -0.24624  -0.11714   0.04045
   9   33796.5    295.9   0.046414736   0.45213  -0.64284  -0.09658  -0.17191
  10   34421.9    290.5   0.076480269   0.73146  -0.37206   0.62176  -0.45436
  11   35967.1    278.0   0.021314969   0.19510   0.25028   0.31734  -0.17820
  12   36172.5    276.5   0.051256547   0.46649  -0.57607   0.21870  -0.29463
  13   36404.6    274.7   0.025774174   0.23308  -0.47057  -0.09285   0.05495
  14   36607.5    273.2   0.301840676   2.71446   1.62173   0.07405   0.28100
  15   37844.1    264.2   0.004363584   0.03796  -0.14417   0.12848   0.02585
  16   37857.9    264.1   0.018395213   0.15996  -0.39697   0.03945  -0.02866
  17   38339.6    260.8   0.052628758   0.45191  -0.64074   0.17203  -0.10849
  18   38668.6    258.6   0.042834806   0.36468  -0.04139  -0.50645   0.32631
  19   39359.7    254.1   0.001632381   0.01365   0.04136   0.03202   0.10449
  20   39877.7    250.8   0.008624682   0.07120   0.03277  -0.26396  -0.02122

FINAL SINGLE POINT ENERGY     -3857.758671684239

DIPOLE MOMENT
-------------
                                X             Y             Z
Electronic contribution:      8.69032     -44.78616      16.83702
Nuclear contribution   :     -8.68451      48.77543     -17.45476
                        -----------------------------------------
Total Dipole Moment    :      0.00581       3.98927      -0.61775
                        -----------------------------------------
Magnitude (a.u.)       :      4.03682
Magnitude (Debye)      :     10.26078

Rotational constants in cm-1:     0.002645     0.000552     0.000466
Rotational constants in MHz :    79.289033    16.549896    13.983715

                             ****ORCA TERMINATED NORMALLY****
TOTAL RUN TIME: 0 days 0 hours 3 minutes 34 seconds 703 msec
