                         Program Version 4.2.0 -  RELEASE  -
|  1> # ORCA input file
|  2> # SCF done       -209.447313496901          0.000738202381
|  3> ! CAM-B3LYP def2-SVP def2/J RIJCOSX Grid4 TightSCF
|  4> %maxcore 5000
|  5> %tddft
|  6>     Mode sTDDFT
|  7>     Ethresh 5.0
|  8>     maxcore 5000
|  9> end
| 10>
| 11> %pal
| 12>   nprocs 6
| 13>   end
| 14> * xyz 0 1
| 15>    C       -8.45157         8.07937         2.19479
| 16>    C       -8.10159         8.95994         1.21089
| 17>    F       -8.32187        10.27377         1.37496
| 18>    C       -7.51703         8.50265         0.01410
| 19>    F       -7.19669         9.38813        -0.94234
| 20>    C       -7.27564         7.17107        -0.17691
| 21>    C       -7.65465         6.23568         0.80509
| 22>    C       -8.26956         6.69536         2.00487
| 23>    C       -8.72166         5.77179         2.97395
| 24>    C       -8.54403         4.43194         2.75743
| 25>    C       -7.85870         3.98437         1.58969
| 26>    C       -7.43675         4.85183         0.62340
| 27>    C       -7.71834         2.52593         1.65271
| 28>    O       -7.11371         1.79190         0.87903
| 29>    C       -8.41727         2.10064         2.87543
| 30>    C       -8.93863         3.26861         3.54857
| 31>    C       -9.68544         3.29438         4.69704
| 32>    C      -10.05847         2.14369         5.42238
| 33>    N      -10.37906         1.23353         6.04384
| 34>    C      -10.19332         4.46429         5.29423
| 35>    N      -10.64483         5.37080         5.83571
| 36>    C       -8.50069         0.77893         3.23167
| 37>    N       -7.93851        -0.16128         2.46005
| 38>    C       -7.89129        -1.49600         2.69629
| 39>    S       -8.42123        -2.17186         4.20503
| 40>    C       -7.87903        -3.73121         3.67588
| 41>    N       -8.05345        -4.81630         4.54927
| 42>    O       -7.66516        -5.90587         4.17690
| 43>    O       -8.58096        -4.57537         5.61898
| 44>    C       -7.32236        -3.72399         2.42594
| 45>    C       -7.33805        -2.44810         1.83094
| 46>    C       -6.82315        -2.19503         0.50809
| 47>    C       -7.25151        -1.23175        -0.32937
| 48>    C       -6.67813        -0.94315        -1.60078
| 49>    C       -7.07683         0.09117        -2.43511
| 50>    C       -8.07721         1.00230        -2.05496
| 51>    N       -8.86446         1.74952        -1.68535
| 52>    C       -6.28723         0.17333        -3.61210
| 53>    C       -5.28427        -0.78954        -3.61918
| 54>    S       -5.31369        -1.82808        -2.24700
| 55>    S       -4.18100        -0.68712        -4.95681
| 56>    C       -5.07831         0.68655        -5.52404
| 57>    C       -6.18354         1.02040        -4.75100
| 58>    C       -6.90176         2.11932        -5.29321
| 59>    C       -8.23052         2.37453        -4.92399
| 60>    N       -9.34955         2.46719        -4.68602
| 61>    C       -6.26923         2.66815        -6.40894
| 62>    S       -4.85115         1.72791        -6.87587
| 63>    C       -6.55532         3.84142        -7.13866
| 64>    C       -7.20810         4.95271        -6.66938
| 65>    C       -7.46402         6.14419        -7.40326
| 66>    C       -8.05475         7.13285        -6.67880
| 67>    C       -8.31258         6.77388        -5.33540
| 68>    S       -7.74619         5.15587        -5.01514
| 69>    C       -8.95208         7.48637        -4.33768
| 70>    C       -9.42324         8.81857        -4.34839
| 71>    C      -10.00496         9.20582        -3.17783
| 72>    C      -10.03567         8.19070        -2.19027
| 73>    S       -9.29027         6.73303        -2.79770
| 74>    C      -10.53086         8.20859        -0.90229
| 75>    C      -11.04536         9.34011        -0.27079
| 76>    C      -11.47801         9.35509         1.03785
| 77>    C      -11.91887        10.51034         1.78421
| 78>    C      -12.13410        11.77692         1.29646
| 79>    C      -12.56530        12.86427         2.08285
| 80>    N      -12.91623        13.78875         2.66673
| 81>    C      -11.98364        12.16990        -0.04825
| 82>    N      -11.89503        12.56138        -1.12512
| 83>    C      -12.10939        10.09571         3.17150
| 84>    C      -11.84925         8.70590         3.26754
| 85>    C      -11.47736         8.18496         1.93986
| 86>    O      -11.21459         7.02522         1.67355
| 87>    C      -11.92520         8.01684         4.45293
| 88>    C      -12.26688         8.73516         5.60242
| 89>    C      -12.53376        10.12069         5.49849
| 90>    C      -12.46176        10.81675         4.29675
| 91>    S      -12.94010        10.80501         7.04277
| 92>    C      -12.73583         9.24146         7.79381
| 93>    C      -12.38714         8.25553         6.93473
| 94>   Br      -13.00537         9.06760         9.64153
| 95>    H       -8.89190         8.44604         3.10916
| 96>    H       -6.81210         6.83630        -1.09134
| 97>    H       -9.20868         6.15089         3.85720
| 98>    H       -6.95624         4.48699        -0.27132
| 99>    H       -9.01713         0.44587         4.12301
|100>    H       -7.44667         0.21910         1.63029
|101>    H       -6.94011        -4.61161         1.95497
|102>    H       -6.04491        -2.87204         0.17853
|103>    H       -8.09815        -0.60582        -0.08218
|104>    H       -6.13560         3.90145        -8.13444
|105>    H       -7.20411         6.22298        -8.44398
|106>    H       -8.32284         8.09701        -7.07146
|107>    H       -9.31181         9.45468        -5.20797
|108>    H      -10.41623        10.18421        -3.00543
|109>    H      -10.49200         7.28574        -0.34090
|110>    H      -11.05689        10.26664        -0.82552
|111>    H      -11.72073         6.95896         4.50629
|112>    H      -12.66860        11.87343         4.26940
|113>    H      -12.20933         7.23340         7.21491
|114> *
|115>
|116>                          ****END OF INPUT****

CARTESIAN COORDINATES (ANGSTROEM)
---------------------------------
  C     -8.451570    8.079370    2.194790
  C     -8.101590    8.959940    1.210890
  F     -8.321870   10.273770    1.374960
  C     -7.517030    8.502650    0.014100
  F     -7.196690    9.388130   -0.942340
  C     -7.275640    7.171070   -0.176910
  C     -7.654650    6.235680    0.805090
  C     -8.269560    6.695360    2.004870
  C     -8.721660    5.771790    2.973950
  C     -8.544030    4.431940    2.757430
  C     -7.858700    3.984370    1.589690
  C     -7.436750    4.851830    0.623400
  C     -7.718340    2.525930    1.652710
  O     -7.113710    1.791900    0.879030
  C     -8.417270    2.100640    2.875430
  C     -8.938630    3.268610    3.548570
  C     -9.685440    3.294380    4.697040
  C    -10.058470    2.143690    5.422380
  N    -10.379060    1.233530    6.043840
  C    -10.193320    4.464290    5.294230
  N    -10.644830    5.370800    5.835710
  C     -8.500690    0.778930    3.231670
  N     -7.938510   -0.161280    2.460050
  C     -7.891290   -1.496000    2.696290
  S     -8.421230   -2.171860    4.205030
  C     -7.879030   -3.731210    3.675880
  N     -8.053450   -4.816300    4.549270
  O     -7.665160   -5.905870    4.176900
  O     -8.580960   -4.575370    5.618980
  C     -7.322360   -3.723990    2.425940
  C     -7.338050   -2.448100    1.830940
  C     -6.823150   -2.195030    0.508090
  C     -7.251510   -1.231750   -0.329370
  C     -6.678130   -0.943150   -1.600780
  C     -7.076830    0.091170   -2.435110
  C     -8.077210    1.002300   -2.054960
  N     -8.864460    1.749520   -1.685350
  C     -6.287230    0.173330   -3.612100
  C     -5.284270   -0.789540   -3.619180
  S     -5.313690   -1.828080   -2.247000
  S     -4.181000   -0.687120   -4.956810
  C     -5.078310    0.686550   -5.524040
  C     -6.183540    1.020400   -4.751000
  C     -6.901760    2.119320   -5.293210
  C     -8.230520    2.374530   -4.923990
  N     -9.349550    2.467190   -4.686020
  C     -6.269230    2.668150   -6.408940
  S     -4.851150    1.727910   -6.875870
  C     -6.555320    3.841420   -7.138660
  C     -7.208100    4.952710   -6.669380
  C     -7.464020    6.144190   -7.403260
  C     -8.054750    7.132850   -6.678800
  C     -8.312580    6.773880   -5.335400
  S     -7.746190    5.155870   -5.015140
  C     -8.952080    7.486370   -4.337680
  C     -9.423240    8.818570   -4.348390
  C    -10.004960    9.205820   -3.177830
  C    -10.035670    8.190700   -2.190270
  S     -9.290270    6.733030   -2.797700
  C    -10.530860    8.208590   -0.902290
  C    -11.045360    9.340110   -0.270790
  C    -11.478010    9.355090    1.037850
  C    -11.918870   10.510340    1.784210
  C    -12.134100   11.776920    1.296460
  C    -12.565300   12.864270    2.082850
  N    -12.916230   13.788750    2.666730
  C    -11.983640   12.169900   -0.048250
  N    -11.895030   12.561380   -1.125120
  C    -12.109390   10.095710    3.171500
  C    -11.849250    8.705900    3.267540
  C    -11.477360    8.184960    1.939860
  O    -11.214590    7.025220    1.673550
  C    -11.925200    8.016840    4.452930
  C    -12.266880    8.735160    5.602420
  C    -12.533760   10.120690    5.498490
  C    -12.461760   10.816750    4.296750
  S    -12.940100   10.805010    7.042770
  C    -12.735830    9.241460    7.793810
  C    -12.387140    8.255530    6.934730
  Br   -13.005370    9.067600    9.641530
  H     -8.891900    8.446040    3.109160
  H     -6.812100    6.836300   -1.091340
  H     -9.208680    6.150890    3.857200
  H     -6.956240    4.486990   -0.271320
  H     -9.017130    0.445870    4.123010
  H     -7.446670    0.219100    1.630290
  H     -6.940110   -4.611610    1.954970
  H     -6.044910   -2.872040    0.178530
  H     -8.098150   -0.605820   -0.082180
  H     -6.135600    3.901450   -8.134440
  H     -7.204110    6.222980   -8.443980
  H     -8.322840    8.097010   -7.071460
  H     -9.311810    9.454680   -5.207970
  H    -10.416230   10.184210   -3.005430
  H    -10.492000    7.285740   -0.340900
  H    -11.056890   10.266640   -0.825520
  H    -11.720730    6.958960    4.506290
  H    -12.668600   11.873430    4.269400
  H    -12.209330    7.233400    7.214910

 Total Charge           Charge          ....    0
 Multiplicity           Mult            ....    1
 Number of Electrons    NEL             ....  620
 Basis Dimension        Dim             .... 1261

ORBITAL ENERGIES
----------------

  NO   OCC          E(Eh)            E(eV)
   0   2.0000    -482.874650    -13139.6872
   1   2.0000     -89.000050     -2421.8145
   2   2.0000     -88.999168     -2421.7905
   3   2.0000     -88.997103     -2421.7343
   4   2.0000     -88.995769     -2421.6980
   5   2.0000     -88.970606     -2421.0133
   6   2.0000     -88.969806     -2420.9915
   7   2.0000     -88.964906     -2420.8582
   8   2.0000     -62.552353     -1702.1361
   9   2.0000     -56.386293     -1534.3491
  10   2.0000     -56.383599     -1534.2757
  11   2.0000     -56.383561     -1534.2747
  12   2.0000     -24.801378      -674.8798
  13   2.0000     -24.800186      -674.8474
  14   2.0000     -19.245723      -523.7027
  15   2.0000     -19.245084      -523.6854
  16   2.0000     -19.235863      -523.4345
  17   2.0000     -19.210927      -522.7559
  18   2.0000     -14.657493      -398.8507
  19   2.0000     -14.501965      -394.6185
  20   2.0000     -14.426188      -392.5565
  21   2.0000     -14.423960      -392.4959
  22   2.0000     -14.413244      -392.2043
  23   2.0000     -14.411495      -392.1567
  24   2.0000     -14.410964      -392.1423
  25   2.0000     -14.406067      -392.0090
  26   2.0000     -10.383008      -282.5360
  27   2.0000     -10.382847      -282.5316
  28   2.0000     -10.381333      -282.4904
  29   2.0000     -10.380778      -282.4753
  30   2.0000     -10.375908      -282.3428
  31   2.0000     -10.360371      -281.9200
  32   2.0000     -10.355159      -281.7782
  33   2.0000     -10.351562      -281.6803
  34   2.0000     -10.350547      -281.6527
  35   2.0000     -10.350065      -281.6396
  36   2.0000     -10.348813      -281.6055
  37   2.0000     -10.346688      -281.5477
  38   2.0000     -10.346306      -281.5373
  39   2.0000     -10.344498      -281.4881
  40   2.0000     -10.340576      -281.3814
  41   2.0000     -10.340198      -281.3711
  42   2.0000     -10.336839      -281.2797
  43   2.0000     -10.335534      -281.2442
  44   2.0000     -10.333694      -281.1941
  45   2.0000     -10.333409      -281.1863
  46   2.0000     -10.332825      -281.1705
  47   2.0000     -10.331910      -281.1456
  48   2.0000     -10.331465      -281.1334
  49   2.0000     -10.326617      -281.0015
  50   2.0000     -10.320930      -280.8468
  51   2.0000     -10.320539      -280.8361
  52   2.0000     -10.320157      -280.8257
  53   2.0000     -10.317852      -280.7630
  54   2.0000     -10.317085      -280.7422
  55   2.0000     -10.315762      -280.7061
  56   2.0000     -10.315503      -280.6991
  57   2.0000     -10.314689      -280.6770
  58   2.0000     -10.314657      -280.6761
  59   2.0000     -10.314042      -280.6594
  60   2.0000     -10.313464      -280.6436
  61   2.0000     -10.313199      -280.6364
  62   2.0000     -10.312742      -280.6240
  63   2.0000     -10.311750      -280.5970
  64   2.0000     -10.310081      -280.5516
  65   2.0000     -10.309662      -280.5402
  66   2.0000     -10.309273      -280.5296
  67   2.0000     -10.309181      -280.5271
  68   2.0000     -10.308947      -280.5207
  69   2.0000     -10.305297      -280.4214
  70   2.0000     -10.305020      -280.4138
  71   2.0000     -10.304306      -280.3944
  72   2.0000     -10.304228      -280.3923
  73   2.0000     -10.300240      -280.2838
  74   2.0000     -10.299260      -280.2571
  75   2.0000     -10.298986      -280.2497
  76   2.0000     -10.297234      -280.2020
  77   2.0000     -10.296331      -280.1774
  78   2.0000     -10.295365      -280.1511
  79   2.0000     -10.289434      -279.9897
  80   2.0000     -10.288421      -279.9622
  81   2.0000     -10.287318      -279.9321
  82   2.0000     -10.282305      -279.7958
  83   2.0000     -10.281865      -279.7838
  84   2.0000      -8.781765      -238.9640
  85   2.0000      -8.094926      -220.2741
  86   2.0000      -8.094270      -220.2563
  87   2.0000      -8.092252      -220.2014
  88   2.0000      -8.091132      -220.1709
  89   2.0000      -8.066664      -219.5051
  90   2.0000      -8.065765      -219.4806
  91   2.0000      -8.060835      -219.3465
  92   2.0000      -6.618023      -180.0856
  93   2.0000      -6.603524      -179.6910
  94   2.0000      -6.603325      -179.6856
  95   2.0000      -6.064940      -165.0354
  96   2.0000      -6.063872      -165.0063
  97   2.0000      -6.061779      -164.9494
  98   2.0000      -6.060772      -164.9220
  99   2.0000      -6.060669      -164.9192
 100   2.0000      -6.059477      -164.8867
 101   2.0000      -6.057668      -164.8375
 102   2.0000      -6.056584      -164.8080
 103   2.0000      -6.055888      -164.7891
 104   2.0000      -6.055740      -164.7851
 105   2.0000      -6.053857      -164.7338
 106   2.0000      -6.052542      -164.6980
 107   2.0000      -6.036389      -164.2585
 108   2.0000      -6.035424      -164.2322
 109   2.0000      -6.032158      -164.1434
 110   2.0000      -6.031247      -164.1186
 111   2.0000      -6.030531      -164.0991
 112   2.0000      -6.027625      -164.0200
 113   2.0000      -6.026948      -164.0016
 114   2.0000      -6.026266      -163.9830
 115   2.0000      -6.022068      -163.8688
 116   2.0000      -2.733905       -74.3933
 117   2.0000      -2.729832       -74.2825
 118   2.0000      -2.729690       -74.2786
 119   2.0000      -2.718161       -73.9649
 120   2.0000      -2.718149       -73.9646
 121   2.0000      -1.327837       -36.1323
 122   2.0000      -1.321781       -35.9675
 123   2.0000      -1.307061       -35.5670
 124   2.0000      -1.151167       -31.3248
 125   2.0000      -1.147194       -31.2167
 126   2.0000      -1.124079       -30.5877
 127   2.0000      -1.110355       -30.2143
 128   2.0000      -1.052824       -28.6488
 129   2.0000      -1.027816       -27.9683
 130   2.0000      -1.024820       -27.8868
 131   2.0000      -1.019594       -27.7446
 132   2.0000      -1.017687       -27.6927
 133   2.0000      -1.013670       -27.5834
 134   2.0000      -1.008619       -27.4459
 135   2.0000      -1.004842       -27.3431
 136   2.0000      -1.004420       -27.3317
 137   2.0000      -1.001195       -27.2439
 138   2.0000      -0.997184       -27.1348
 139   2.0000      -0.989308       -26.9204
 140   2.0000      -0.987390       -26.8682
 141   2.0000      -0.984479       -26.7890
 142   2.0000      -0.980676       -26.6855
 143   2.0000      -0.964449       -26.2440
 144   2.0000      -0.938309       -25.5327
 145   2.0000      -0.935080       -25.4448
 146   2.0000      -0.932275       -25.3685
 147   2.0000      -0.920697       -25.0534
 148   2.0000      -0.912599       -24.8331
 149   2.0000      -0.908417       -24.7193
 150   2.0000      -0.901656       -24.5353
 151   2.0000      -0.898898       -24.4603
 152   2.0000      -0.895678       -24.3726
 153   2.0000      -0.892740       -24.2927
 154   2.0000      -0.883330       -24.0366
 155   2.0000      -0.875147       -23.8140
 156   2.0000      -0.874871       -23.8065
 157   2.0000      -0.872188       -23.7334
 158   2.0000      -0.870521       -23.6881
 159   2.0000      -0.864893       -23.5349
 160   2.0000      -0.851884       -23.1809
 161   2.0000      -0.845274       -23.0011
 162   2.0000      -0.842572       -22.9275
 163   2.0000      -0.830055       -22.5869
 164   2.0000      -0.820832       -22.3360
 165   2.0000      -0.817889       -22.2559
 166   2.0000      -0.814780       -22.1713
 167   2.0000      -0.795090       -21.6355
 168   2.0000      -0.777130       -21.1468
 169   2.0000      -0.774145       -21.0655
 170   2.0000      -0.764838       -20.8123
 171   2.0000      -0.752713       -20.4824
 172   2.0000      -0.750340       -20.4178
 173   2.0000      -0.742881       -20.2148
 174   2.0000      -0.736042       -20.0287
 175   2.0000      -0.728883       -19.8339
 176   2.0000      -0.719254       -19.5719
 177   2.0000      -0.716402       -19.4943
 178   2.0000      -0.710656       -19.3379
 179   2.0000      -0.704728       -19.1766
 180   2.0000      -0.698639       -19.0109
 181   2.0000      -0.694395       -18.8955
 182   2.0000      -0.690246       -18.7825
 183   2.0000      -0.683772       -18.6064
 184   2.0000      -0.681805       -18.5528
 185   2.0000      -0.670120       -18.2349
 186   2.0000      -0.666911       -18.1476
 187   2.0000      -0.662318       -18.0226
 188   2.0000      -0.657095       -17.8805
 189   2.0000      -0.655679       -17.8419
 190   2.0000      -0.652351       -17.7514
 191   2.0000      -0.646867       -17.6021
 192   2.0000      -0.646514       -17.5925
 193   2.0000      -0.643697       -17.5159
 194   2.0000      -0.638996       -17.3880
 195   2.0000      -0.638466       -17.3736
 196   2.0000      -0.633086       -17.2271
 197   2.0000      -0.629205       -17.1215
 198   2.0000      -0.623137       -16.9564
 199   2.0000      -0.619129       -16.8473
 200   2.0000      -0.614042       -16.7089
 201   2.0000      -0.610910       -16.6237
 202   2.0000      -0.604548       -16.4506
 203   2.0000      -0.602477       -16.3942
 204   2.0000      -0.594477       -16.1765
 205   2.0000      -0.589711       -16.0468
 206   2.0000      -0.588442       -16.0123
 207   2.0000      -0.583496       -15.8777
 208   2.0000      -0.580181       -15.7875
 209   2.0000      -0.574385       -15.6298
 210   2.0000      -0.570562       -15.5258
 211   2.0000      -0.562992       -15.3198
 212   2.0000      -0.561595       -15.2818
 213   2.0000      -0.559988       -15.2380
 214   2.0000      -0.556216       -15.1354
 215   2.0000      -0.555824       -15.1247
 216   2.0000      -0.550872       -14.9900
 217   2.0000      -0.550765       -14.9871
 218   2.0000      -0.547889       -14.9088
 219   2.0000      -0.545960       -14.8563
 220   2.0000      -0.539508       -14.6808
 221   2.0000      -0.538213       -14.6455
 222   2.0000      -0.534906       -14.5555
 223   2.0000      -0.533428       -14.5153
 224   2.0000      -0.532815       -14.4986
 225   2.0000      -0.530374       -14.4322
 226   2.0000      -0.529670       -14.4130
 227   2.0000      -0.526353       -14.3228
 228   2.0000      -0.524261       -14.2659
 229   2.0000      -0.521498       -14.1907
 230   2.0000      -0.520352       -14.1595
 231   2.0000      -0.519269       -14.1300
 232   2.0000      -0.518040       -14.0966
 233   2.0000      -0.515510       -14.0277
 234   2.0000      -0.512256       -13.9392
 235   2.0000      -0.509269       -13.8579
 236   2.0000      -0.506600       -13.7853
 237   2.0000      -0.505732       -13.7617
 238   2.0000      -0.505241       -13.7483
 239   2.0000      -0.501803       -13.6548
 240   2.0000      -0.498852       -13.5744
 241   2.0000      -0.494211       -13.4482
 242   2.0000      -0.491995       -13.3879
 243   2.0000      -0.488131       -13.2827
 244   2.0000      -0.486068       -13.2266
 245   2.0000      -0.483748       -13.1635
 246   2.0000      -0.482898       -13.1403
 247   2.0000      -0.478777       -13.0282
 248   2.0000      -0.477398       -12.9907
 249   2.0000      -0.473724       -12.8907
 250   2.0000      -0.472956       -12.8698
 251   2.0000      -0.470731       -12.8092
 252   2.0000      -0.468257       -12.7419
 253   2.0000      -0.467151       -12.7118
 254   2.0000      -0.466151       -12.6846
 255   2.0000      -0.463330       -12.6079
 256   2.0000      -0.461720       -12.5640
 257   2.0000      -0.455227       -12.3873
 258   2.0000      -0.455141       -12.3850
 259   2.0000      -0.452354       -12.3092
 260   2.0000      -0.450548       -12.2600
 261   2.0000      -0.448063       -12.1924
 262   2.0000      -0.444965       -12.1081
 263   2.0000      -0.443789       -12.0761
 264   2.0000      -0.443115       -12.0578
 265   2.0000      -0.441527       -12.0146
 266   2.0000      -0.439888       -11.9700
 267   2.0000      -0.438853       -11.9418
 268   2.0000      -0.437557       -11.9065
 269   2.0000      -0.436585       -11.8801
 270   2.0000      -0.435804       -11.8588
 271   2.0000      -0.433350       -11.7920
 272   2.0000      -0.432051       -11.7567
 273   2.0000      -0.430241       -11.7074
 274   2.0000      -0.428262       -11.6536
 275   2.0000      -0.427339       -11.6285
 276   2.0000      -0.420471       -11.4416
 277   2.0000      -0.420064       -11.4305
 278   2.0000      -0.415178       -11.2976
 279   2.0000      -0.414758       -11.2861
 280   2.0000      -0.409522       -11.1437
 281   2.0000      -0.400893       -10.9089
 282   2.0000      -0.400428       -10.8962
 283   2.0000      -0.399902       -10.8819
 284   2.0000      -0.394682       -10.7398
 285   2.0000      -0.392530       -10.6813
 286   2.0000      -0.385410       -10.4875
 287   2.0000      -0.384126       -10.4526
 288   2.0000      -0.383282       -10.4296
 289   2.0000      -0.379037       -10.3141
 290   2.0000      -0.374547       -10.1920
 291   2.0000      -0.374375       -10.1873
 292   2.0000      -0.364097        -9.9076
 293   2.0000      -0.362560        -9.8657
 294   2.0000      -0.358633        -9.7589
 295   2.0000      -0.356438        -9.6992
 296   2.0000      -0.353991        -9.6326
 297   2.0000      -0.346874        -9.4389
 298   2.0000      -0.342547        -9.3212
 299   2.0000      -0.332445        -9.0463
 300   2.0000      -0.330972        -9.0062
 301   2.0000      -0.324974        -8.8430
 302   2.0000      -0.319075        -8.6825
 303   2.0000      -0.306996        -8.3538
 304   2.0000      -0.305950        -8.3253
 305   2.0000      -0.298210        -8.1147
 306   2.0000      -0.293783        -7.9942
 307   2.0000      -0.283226        -7.7070
 308   2.0000      -0.274002        -7.4560
 309   2.0000      -0.240230        -6.5370
 310   0.0000      -0.120214        -3.2712
 311   0.0000      -0.097566        -2.6549
 312   0.0000      -0.072204        -1.9648
 313   0.0000      -0.068436        -1.8622
 314   0.0000      -0.062036        -1.6881

MULLIKEN ATOMIC CHARGES
-----------------------
   0 C :   -0.078469
   1 C :    0.225688
   2 F :   -0.177002
   3 C :    0.256232
   4 F :   -0.175900
   5 C :   -0.114045
   6 C :    0.112446
   7 C :    0.128940
   8 C :   -0.056773
   9 C :    0.040703
  10 C :    0.009843
  11 C :   -0.074151
  12 C :    0.192810
  13 O :   -0.215117
  14 C :   -0.130836
  15 C :    0.344468
  16 C :   -0.353422
  17 C :   -0.202184
  18 N :    0.144534
  19 C :   -0.148771
  20 N :    0.134601
  21 C :    0.025193
  22 N :   -0.015242
  23 C :   -0.114327
  24 S :    0.186409
  25 C :    0.004431
  26 N :    0.274215
  27 O :   -0.244459
  28 O :   -0.253486
  29 C :    0.014298
  30 C :    0.114675
  31 C :   -0.034497
  32 C :   -0.003045
  33 C :   -0.086166
  34 C :   -0.012229
  35 C :   -0.283997
  36 N :    0.182643
  37 C :    0.155767
  38 C :   -0.229637
  39 S :    0.160250
  40 S :    0.192137
  41 C :   -0.226327
  42 C :    0.103879
  43 C :   -0.008772
  44 C :   -0.297857
  45 N :    0.181902
  46 C :   -0.117134
  47 S :    0.165837
  48 C :    0.014772
  49 C :   -0.021961
  50 C :    0.042580
  51 C :    0.042320
  52 C :   -0.036815
  53 S :    0.112758
  54 C :   -0.053293
  55 C :    0.036509
  56 C :    0.039000
  57 C :   -0.036788
  58 S :    0.133086
  59 C :    0.011704
  60 C :   -0.027503
  61 C :   -0.082684
  62 C :    0.332244
  63 C :   -0.358225
  64 C :   -0.186608
  65 N :    0.146042
  66 C :   -0.193764
  67 N :    0.136020
  68 C :    0.017388
  69 C :   -0.002819
  70 C :    0.126901
  71 O :   -0.173684
  72 C :   -0.072610
  73 C :    0.105255
  74 C :   -0.090604
  75 C :   -0.028128
  76 S :    0.179060
  77 C :   -0.123697
  78 C :    0.049604
  79 Br:    0.017753
  80 H :   -0.003180
  81 H :   -0.004012
  82 H :   -0.017897
  83 H :   -0.011240
  84 H :    0.046546
  85 H :    0.179654
  86 H :    0.012250
  87 H :    0.006514
  88 H :    0.021263
  89 H :   -0.002647
  90 H :    0.000557
  91 H :   -0.001115
  92 H :    0.000237
  93 H :    0.019342
  94 H :    0.024824
  95 H :    0.002039
  96 H :   -0.022097
  97 H :   -0.008866
  98 H :    0.005956
Sum of atomic charges:   -0.0000000

LOEWDIN ATOMIC CHARGES
----------------------
   0 C :   -0.027605
   1 C :    0.066049
   2 F :   -0.049600
   3 C :    0.065467
   4 F :   -0.051205
   5 C :   -0.039711
   6 C :   -0.009918
   7 C :    0.000623
   8 C :    0.031710
   9 C :   -0.021071
  10 C :   -0.049410
  11 C :    0.039242
  12 C :    0.103645
  13 O :   -0.166686
  14 C :   -0.137609
  15 C :    0.086961
  16 C :   -0.153211
  17 C :   -0.020920
  18 N :   -0.054134
  19 C :    0.003569
  20 N :   -0.066212
  21 C :    0.112506
  22 N :    0.076944
  23 C :   -0.105187
  24 S :    0.481892
  25 C :   -0.202505
  26 N :    0.272699
  27 O :   -0.210624
  28 O :   -0.219854
  29 C :    0.002045
  30 C :   -0.091182
  31 C :   -0.018052
  32 C :   -0.036404
  33 C :   -0.127617
  34 C :   -0.089112
  35 C :   -0.034052
  36 N :   -0.040433
  37 C :   -0.062978
  38 C :   -0.328773
  39 S :    0.449152
  40 S :    0.428253
  41 C :   -0.333054
  42 C :   -0.059498
  43 C :   -0.114064
  44 C :   -0.066536
  45 N :   -0.032883
  46 C :   -0.131400
  47 S :    0.443877
  48 C :   -0.077461
  49 C :   -0.130711
  50 C :   -0.018610
  51 C :   -0.023753
  52 C :   -0.159489
  53 S :    0.437457
  54 C :   -0.177124
  55 C :   -0.007581
  56 C :   -0.026181
  57 C :   -0.108591
  58 S :    0.432203
  59 C :   -0.064034
  60 C :    0.054910
  61 C :   -0.097966
  62 C :    0.076572
  63 C :   -0.148384
  64 C :   -0.018735
  65 N :   -0.059609
  66 C :   -0.015680
  67 N :   -0.067927
  68 C :   -0.021669
  69 C :   -0.059543
  70 C :    0.081548
  71 O :   -0.157113
  72 C :    0.020576
  73 C :   -0.029897
  74 C :   -0.144920
  75 C :   -0.012146
  76 S :    0.425561
  77 C :   -0.273700
  78 C :   -0.060449
  79 Br:    0.132192
  80 H :    0.044784
  81 H :    0.036587
  82 H :    0.037562
  83 H :    0.041529
  84 H :    0.036299
  85 H :    0.085594
  86 H :    0.047691
  87 H :    0.029241
  88 H :    0.040535
  89 H :    0.038290
  90 H :    0.038407
  91 H :    0.037415
  92 H :    0.038448
  93 H :    0.044547
  94 H :    0.034504
  95 H :    0.038033
  96 H :    0.035198
  97 H :    0.040264
  98 H :    0.042193

  Mayer bond orders larger than 0.100000
B(  0-C ,  1-C ) :   1.4655 B(  0-C ,  5-C ) :   0.1037 B(  0-C ,  7-C ) :   1.2020
B(  0-C , 80-H ) :   0.9782 B(  1-C ,  2-F ) :   1.1112 B(  1-C ,  3-C ) :   1.1962
B(  3-C ,  4-F ) :   1.1239 B(  3-C ,  5-C ) :   1.4382 B(  5-C ,  6-C ) :   1.1846
B(  5-C , 81-H ) :   0.9989 B(  6-C ,  7-C ) :   1.2683 B(  6-C , 11-C ) :   1.1786
B(  7-C ,  8-C ) :   1.2139 B(  8-C ,  9-C ) :   1.4652 B(  8-C , 82-H ) :   0.9854
B(  9-C , 10-C ) :   1.2165 B(  9-C , 15-C ) :   0.9910 B( 10-C , 11-C ) :   1.4715
B( 10-C , 12-C ) :   0.9805 B( 11-C , 83-H ) :   1.0178 B( 12-C , 13-O ) :   2.0214
B( 12-C , 14-C ) :   0.9913 B( 13-O , 85-H ) :   0.1467 B( 14-C , 15-C ) :   1.1030
B( 14-C , 21-C ) :   1.4673 B( 15-C , 16-C ) :   1.6148 B( 16-C , 17-C ) :   1.1470
B( 16-C , 19-C ) :   1.1567 B( 17-C , 18-N ) :   2.9546 B( 19-C , 20-N ) :   2.9124
B( 21-C , 22-N ) :   1.3235 B( 21-C , 84-H ) :   0.9298 B( 22-N , 23-C ) :   1.1878
B( 22-N , 85-H ) :   0.8212 B( 23-C , 24-S ) :   1.1477 B( 23-C , 30-C ) :   1.3914
B( 24-S , 25-C ) :   1.0866 B( 25-C , 26-N ) :   0.9609 B( 25-C , 29-C ) :   1.4970
B( 26-N , 27-O ) :   1.5406 B( 26-N , 28-O ) :   1.5189 B( 27-O , 28-O ) :   0.2635
B( 29-C , 30-C ) :   1.2180 B( 29-C , 86-H ) :   1.0078 B( 30-C , 31-C ) :   1.0710
B( 31-C , 32-C ) :   1.6862 B( 31-C , 87-H ) :   0.9653 B( 32-C , 33-C ) :   1.1975
B( 32-C , 88-H ) :   0.9494 B( 33-C , 34-C ) :   1.4979 B( 33-C , 39-S ) :   1.1125
B( 34-C , 35-C ) :   1.1669 B( 34-C , 37-C ) :   1.2407 B( 35-C , 36-N ) :   2.9510
B( 37-C , 38-C ) :   1.4134 B( 37-C , 42-C ) :   1.0965 B( 38-C , 39-S ) :   1.0938
B( 38-C , 40-S ) :   1.0856 B( 40-S , 41-C ) :   1.0852 B( 41-C , 42-C ) :   1.4173
B( 41-C , 47-S ) :   1.0851 B( 42-C , 43-C ) :   1.2625 B( 43-C , 44-C ) :   1.1240
B( 43-C , 46-C ) :   1.4434 B( 44-C , 45-N ) :   3.0026 B( 46-C , 47-S ) :   1.1183
B( 46-C , 48-C ) :   1.1712 B( 48-C , 49-C ) :   1.6057 B( 48-C , 89-H ) :   0.9428
B( 49-C , 50-C ) :   1.1328 B( 49-C , 53-S ) :   1.0580 B( 50-C , 51-C ) :   1.6051
B( 50-C , 90-H ) :   0.9979 B( 51-C , 52-C ) :   1.1809 B( 51-C , 91-H ) :   0.9927
B( 52-C , 53-S ) :   1.0773 B( 52-C , 54-C ) :   1.4855 B( 54-C , 55-C ) :   1.1917
B( 54-C , 58-S ) :   1.0545 B( 55-C , 56-C ) :   1.5815 B( 55-C , 92-H ) :   0.9943
B( 56-C , 57-C ) :   1.1715 B( 56-C , 93-H ) :   0.9898 B( 57-C , 58-S ) :   1.0951
B( 57-C , 59-C ) :   1.4159 B( 59-C , 60-C ) :   1.2676 B( 59-C , 94-H ) :   0.9596
B( 60-C , 61-C ) :   1.5046 B( 60-C , 95-H ) :   0.9522 B( 61-C , 62-C ) :   1.0760
B( 61-C , 70-C ) :   0.9711 B( 62-C , 63-C ) :   1.6061 B( 62-C , 68-C ) :   1.0008
B( 63-C , 64-C ) :   1.1429 B( 63-C , 66-C ) :   1.1547 B( 64-C , 65-N ) :   2.9669
B( 66-C , 67-N ) :   2.9750 B( 68-C , 69-C ) :   1.2613 B( 68-C , 75-C ) :   1.4149
B( 69-C , 70-C ) :   0.9512 B( 69-C , 72-C ) :   1.3970 B( 70-C , 71-O ) :   2.1239
B( 72-C , 73-C ) :   1.2559 B( 72-C , 96-H ) :   1.0108 B( 73-C , 74-C ) :   1.3014
B( 73-C , 78-C ) :   1.1738 B( 74-C , 75-C ) :   1.3212 B( 74-C , 76-S ) :   1.0875
B( 75-C , 97-H ) :   0.9800 B( 76-S , 77-C ) :   1.0783 B( 77-C , 78-C ) :   1.6068
B( 77-C , 79-Br) :   1.0165 B( 78-C , 98-H ) :   0.9984

-----------------------------------------------------------------------------
         ABSORPTION SPECTRUM VIA TRANSITION ELECTRIC DIPOLE MOMENTS
-----------------------------------------------------------------------------
State   Energy  Wavelength   fosc         T2         TX        TY        TZ
        (cm-1)    (nm)                  (au**2)     (au)      (au)      (au)
-----------------------------------------------------------------------------
   0   12381.4    807.7   1.266542609  33.67638  -2.61846   3.52804   3.79117
   1   18985.8    526.7   0.037602001   0.65201  -0.34006   0.70864   0.18493
   2   21232.4    471.0   0.682073149  10.57566   0.89910  -2.60862  -1.72116
   3   21816.4    458.4   0.050276935   0.75869  -0.12499   0.80939   0.29655
   4   22205.3    450.3   0.068410313   1.01424  -0.07134   1.00376  -0.04020
   5   22881.2    437.0   0.005186321   0.07462   0.09911  -0.17635  -0.18356
   6   23185.0    431.3   0.035184685   0.49960   0.17731  -0.09521  -0.67757
   7   23639.2    423.0   0.087333011   1.21624  -0.15534   0.64844  -0.87843
   8   23820.7    419.8   0.074899729   1.03515   0.02083  -0.58309   0.83350
   9   25858.2    386.7   0.529319824   6.73899   0.02639  -1.47916   2.13316
  10   26334.2    379.7   0.020553002   0.25694   0.03482  -0.28564   0.41730
  11   26537.9    376.8   0.006691391   0.08301   0.22352  -0.09530  -0.15481
  12   26636.3    375.4   0.004560417   0.05636  -0.04110  -0.01894   0.23306
  13   26701.9    374.5   0.063284483   0.78024  -0.29357  -0.31942   0.76944
  14   27443.5    364.4   0.005350539   0.06419  -0.14224  -0.18369   0.10105
  15   27728.2    360.6   0.070823573   0.84088  -0.33356  -0.59538   0.61249
  16   28182.3    354.8   0.116492945   1.36082  -0.22419   0.11733   1.13877
  17   28286.0    353.5   0.001559717   0.01815   0.02045   0.13264  -0.01191
  18   28516.2    350.7   0.055380534   0.63935   0.00015   0.28388  -0.74751
  19   29009.3    344.7   0.062941075   0.71429  -0.31631  -0.33808   0.70706
  20   29431.0    339.8   0.446451777   4.99397  -0.06199  -1.87767   1.21016
  21   29768.0    335.9   0.025916263   0.28661  -0.06297   0.47312  -0.24250
  22   30025.3    333.1   0.598062483   6.55745  -0.35349  -2.13722   1.36556
  23   30843.5    324.2   0.379593224   4.05163   0.12129   0.78703  -1.84865
  24   31228.9    320.2   0.058290407   0.61449  -0.24984  -0.51045   0.53992
  25   31292.8    319.6   0.160820639   1.69189  -0.04930   0.55016  -1.17762
  26   31408.4    318.4   0.009462098   0.09918   0.00814   0.25198   0.18873
  27   32198.8    310.6   0.029786367   0.30455   0.00033  -0.53146   0.14865
  28   32230.4    310.3   0.007470929   0.07631  -0.08411   0.20350   0.16681
  29   32580.4    306.9   0.059352363   0.59973  -0.40043  -0.28386   0.59901
  30   32771.8    305.1   0.006397329   0.06427  -0.14728   0.10804   0.17579
  31   33043.6    302.6   0.092320643   0.91979  -0.25879  -0.69097   0.61268
  32   33654.5    297.1   1.009213805   9.87223  -0.82304  -2.07576   2.21045
  33   33947.5    294.6   0.006334639   0.06143   0.09178  -0.21916  -0.07055
  34   33987.3    294.2   0.053624709   0.51943   0.18095   0.50541  -0.48088
  35   34196.2    292.4   0.078018788   0.75110   0.29519   0.31605  -0.75105
  36   34320.1    291.4   0.011886949   0.11402  -0.22269  -0.03643   0.25121
  37   34837.5    287.0   0.046269389   0.43724  -0.12841   0.64116  -0.09829
  38   34874.5    286.7   0.036303060   0.34270  -0.06950   0.51716  -0.26536
  39   34948.1    286.1   0.021035979   0.19816   0.26521  -0.35745  -0.00712
  40   35187.3    284.2   0.012085297   0.11307   0.13115   0.28476  -0.12159
  41   35239.1    283.8   0.066813834   0.62419   0.43610  -0.11798  -0.64814
  42   35826.8    279.1   0.013976118   0.12843  -0.08019  -0.33388   0.10258
  43   35926.7    278.3   0.100073176   0.91701   0.31617   0.11893  -0.89605
  44   36102.8    277.0   0.017993827   0.16408   0.32681  -0.23691  -0.03398
  45   36254.0    275.8   0.018514720   0.16813  -0.13302   0.25030   0.29628
  46   36353.8    275.1   0.024779010   0.22439  -0.22936   0.01398   0.41424
  47   36775.9    271.9   0.161875830   1.44908   0.71820  -0.96559  -0.03023
  48   36810.0    271.7   0.013152483   0.11763   0.23763  -0.22653  -0.09921
  49   37089.7    269.6   0.019154751   0.17002  -0.16441   0.24672   0.28656
  50   37169.3    269.0   0.218688534   1.93695   0.57901  -1.03464  -0.72885
  51   37368.0    267.6   0.020729088   0.18262  -0.17203   0.33563   0.20095
  52   37436.7    267.1   0.125687917   1.10528   0.16447   0.86111  -0.58027
  53   37505.2    266.6   0.045740769   0.40150   0.16845  -0.58585   0.17295
  54   37891.3    263.9   0.023819176   0.20695   0.13704  -0.42564   0.08364
  55   38090.9    262.5   0.111028060   0.95959  -0.05157  -0.81087   0.54719
  56   38296.2    261.1   0.049830807   0.42837   0.08104   0.39670  -0.51423
  57   38414.3    260.3   0.046545775   0.39890   0.11507   0.27313  -0.55772
  58   38688.5    258.5   0.100549890   0.85561   0.33909   0.13003  -0.85071
  59   38991.0    256.5   0.004593870   0.03879   0.04876  -0.18837  -0.03046
  60   39210.6    255.0   0.042866003   0.35990  -0.25904   0.33185   0.42741
  61   39262.8    254.7   0.006886454   0.05774  -0.00975   0.17313  -0.16635
  62   39642.1    252.3   0.005994240   0.04978   0.06674   0.06752  -0.20191
  63   39751.2    251.6   0.030054113   0.24890   0.04203   0.43043  -0.24873
  64   39948.3    250.3   0.003032268   0.02499   0.01334   0.11795  -0.10440
  65   40180.2    248.9   0.009543364   0.07819  -0.05708  -0.17464   0.21080
  66   40266.9    248.3   0.003093531   0.02529  -0.03694   0.13303   0.07893

FINAL SINGLE POINT ENERGY     -8516.504089676808

DIPOLE MOMENT
-------------
                                X             Y             Z
Electronic contribution:    -32.36555      38.58627      93.39298
Nuclear contribution   :     36.61700     -40.04044     -97.94807
                        -----------------------------------------
Total Dipole Moment    :      4.25145      -1.45417      -4.55510
                        -----------------------------------------
Magnitude (a.u.)       :      6.39831
Magnitude (Debye)      :     16.26320

Rotational constants in cm-1:     0.000736     0.000416     0.000275
Rotational constants in MHz :    22.057127    12.484081     8.257758

                             ****ORCA TERMINATED NORMALLY****
TOTAL RUN TIME: 0 days 0 hours 12 minutes 11 seconds 915 msec
