                         Program Version 4.2.0 -  RELEASE  -
|  1> # ORCA input file
|  2> # SCF done       -167.156255719177          0.006528735616
|  3> ! CAM-B3LYP def2-SVP def2/J RIJCOSX Grid4 TightSCF
|  4> %maxcore 5000
|  5> %tddft
|  6>     Mode sTDDFT
|  7>     Ethresh 5.0
|  8>     maxcore 5000
|  9> end
| 10>
| 11> %pal
| 12>   nprocs 6
| 13>   end
| 14> * xyz 0 1
| 15>    C        9.25488       -13.84888         0.20543
| 16>    C        9.35234       -12.57853        -0.21181
| 17>    C       10.54039       -11.86027        -0.57045
| 18>    C       10.32779       -10.57721        -0.94563
| 19>    C        8.96646       -10.17599        -0.92022
| 20>    S        7.95149       -11.50777        -0.39197
| 21>    C        8.44581        -8.94713        -1.26072
| 22>    C        9.13619        -7.78349        -1.67198
| 23>    C        8.31860        -6.72655        -1.93525
| 24>    C        6.94155        -6.98751        -1.73980
| 25>    S        6.71892        -8.64506        -1.23265
| 26>    C        5.91956        -6.07134        -1.88674
| 27>    C        4.57170        -6.27582        -1.61358
| 28>    S        3.96155        -7.80750        -1.07287
| 29>    C        2.35233        -7.19566        -0.80257
| 30>    C        2.27312        -5.84468        -1.20099
| 31>    C        3.52020        -5.32441        -1.65839
| 32>    C        3.60721        -3.99192        -2.08796
| 33>    C        2.49136        -3.19695        -2.08481
| 34>    C        1.26959        -3.73542        -1.66145
| 35>    F        0.17935        -2.93723        -1.69243
| 36>    C        1.13251        -5.02584        -1.22788
| 37>    C        1.43810        -8.05057        -0.16448
| 38>    C        0.30180        -7.74516         0.56261
| 39>    C       -0.12999        -8.92055         1.20721
| 40>    N       -1.02002        -9.33771         2.13970
| 41>    C       -0.74105       -10.64931         2.45543
| 42>    C        0.32936       -11.08075         1.64901
| 43>    C        0.70665       -10.00281         0.87921
| 44>    C        1.74440        -9.53487        -0.06931
| 45>    C       -1.35543       -11.32810         3.54123
| 46>    C       -0.87871       -12.51791         3.96775
| 47>    N       -1.27193       -13.21087         5.08713
| 48>    C       -0.47024       -14.11009         5.70339
| 49>    S       -1.16373       -15.41087         6.62524
| 50>    C        0.43134       -16.07577         6.85871
| 51>    N        0.52603       -17.24009         7.62219
| 52>    O        1.63186       -17.71959         7.79990
| 53>    O       -0.52135       -17.68820         8.06616
| 54>    C        1.42191       -15.33965         6.27136
| 55>    C        0.93900       -14.18475         5.62082
| 56>    C        1.75860       -13.14824         5.07617
| 57>    C        3.07711       -13.23687         4.75456
| 58>    C        3.75021       -12.11651         4.21887
| 59>    C        5.06762       -12.07727         3.84370
| 60>    C        5.77477       -10.94775         3.27900
| 61>    C        5.24201        -9.74791         2.86775
| 62>    C        5.98277        -8.72279         2.24884
| 63>    N        6.51725        -7.84740         1.73352
| 64>    C        3.89109        -9.36335         2.98440
| 65>    N        2.81435        -8.96161         3.04085
| 66>    C        7.18495       -11.30988         3.18538
| 67>    C        7.34004       -12.65616         3.59623
| 68>    C        6.02359       -13.19978         3.99300
| 69>    O        5.79595       -14.32981         4.37304
| 70>    C        8.55978       -13.28619         3.62559
| 71>    C        9.68513       -12.54708         3.24493
| 72>    C        9.52311       -11.19672         2.85686
| 73>    C        8.28766       -10.56255         2.81628
| 74>    S       11.04273       -10.46149         2.44767
| 75>    C       11.86115       -11.96695         2.77127
| 76>    C       11.04287       -12.96422         3.18224
| 77>   Br       13.71776       -12.07866         2.52800
| 78>    H       10.13391       -14.46123         0.30058
| 79>    H        8.30924       -14.29316         0.45699
| 80>    H       11.50295       -12.33972        -0.53575
| 81>    H       11.10578        -9.89737        -1.24533
| 82>    H       10.20815        -7.75355        -1.74966
| 83>    H        8.66265        -5.75643        -2.24984
| 84>    H        6.20938        -5.07951        -2.20806
| 85>    H        4.55011        -3.59560        -2.43132
| 86>    H        2.52653        -2.16998        -2.41238
| 87>    H        0.16522        -5.40030        -0.94010
| 88>    H       -0.12546        -6.76877         0.69638
| 89>    H       -1.70593        -8.76766         2.60777
| 90>    H        0.77086       -12.05755         1.65560
| 91>    H        1.66507       -10.00705        -1.05281
| 92>    H        2.75578        -9.71354         0.30023
| 93>    H       -2.15114       -10.82565         4.07524
| 94>    H       -0.07162       -12.99116         3.43094
| 95>    H       -2.20609       -13.07063         5.44962
| 96>    H        2.45988       -15.60862         6.34586
| 97>    H        1.27556       -12.19004         4.92732
| 98>    H        3.62473       -14.15975         4.86685
| 99>    H        3.15704       -11.21714         4.09916
|100>    H        8.64473       -14.31639         3.93516
|101>    H        8.21791        -9.53209         2.50931
|102>    H       11.38196       -13.95350         3.43088
|103> *
|104>
|105>                          ****END OF INPUT****

CARTESIAN COORDINATES (ANGSTROEM)
---------------------------------
  C      9.254880  -13.848880    0.205430
  C      9.352340  -12.578530   -0.211810
  C     10.540390  -11.860270   -0.570450
  C     10.327790  -10.577210   -0.945630
  C      8.966460  -10.175990   -0.920220
  S      7.951490  -11.507770   -0.391970
  C      8.445810   -8.947130   -1.260720
  C      9.136190   -7.783490   -1.671980
  C      8.318600   -6.726550   -1.935250
  C      6.941550   -6.987510   -1.739800
  S      6.718920   -8.645060   -1.232650
  C      5.919560   -6.071340   -1.886740
  C      4.571700   -6.275820   -1.613580
  S      3.961550   -7.807500   -1.072870
  C      2.352330   -7.195660   -0.802570
  C      2.273120   -5.844680   -1.200990
  C      3.520200   -5.324410   -1.658390
  C      3.607210   -3.991920   -2.087960
  C      2.491360   -3.196950   -2.084810
  C      1.269590   -3.735420   -1.661450
  F      0.179350   -2.937230   -1.692430
  C      1.132510   -5.025840   -1.227880
  C      1.438100   -8.050570   -0.164480
  C      0.301800   -7.745160    0.562610
  C     -0.129990   -8.920550    1.207210
  N     -1.020020   -9.337710    2.139700
  C     -0.741050  -10.649310    2.455430
  C      0.329360  -11.080750    1.649010
  C      0.706650  -10.002810    0.879210
  C      1.744400   -9.534870   -0.069310
  C     -1.355430  -11.328100    3.541230
  C     -0.878710  -12.517910    3.967750
  N     -1.271930  -13.210870    5.087130
  C     -0.470240  -14.110090    5.703390
  S     -1.163730  -15.410870    6.625240
  C      0.431340  -16.075770    6.858710
  N      0.526030  -17.240090    7.622190
  O      1.631860  -17.719590    7.799900
  O     -0.521350  -17.688200    8.066160
  C      1.421910  -15.339650    6.271360
  C      0.939000  -14.184750    5.620820
  C      1.758600  -13.148240    5.076170
  C      3.077110  -13.236870    4.754560
  C      3.750210  -12.116510    4.218870
  C      5.067620  -12.077270    3.843700
  C      5.774770  -10.947750    3.279000
  C      5.242010   -9.747910    2.867750
  C      5.982770   -8.722790    2.248840
  N      6.517250   -7.847400    1.733520
  C      3.891090   -9.363350    2.984400
  N      2.814350   -8.961610    3.040850
  C      7.184950  -11.309880    3.185380
  C      7.340040  -12.656160    3.596230
  C      6.023590  -13.199780    3.993000
  O      5.795950  -14.329810    4.373040
  C      8.559780  -13.286190    3.625590
  C      9.685130  -12.547080    3.244930
  C      9.523110  -11.196720    2.856860
  C      8.287660  -10.562550    2.816280
  S     11.042730  -10.461490    2.447670
  C     11.861150  -11.966950    2.771270
  C     11.042870  -12.964220    3.182240
  Br    13.717760  -12.078660    2.528000
  H     10.133910  -14.461230    0.300580
  H      8.309240  -14.293160    0.456990
  H     11.502950  -12.339720   -0.535750
  H     11.105780   -9.897370   -1.245330
  H     10.208150   -7.753550   -1.749660
  H      8.662650   -5.756430   -2.249840
  H      6.209380   -5.079510   -2.208060
  H      4.550110   -3.595600   -2.431320
  H      2.526530   -2.169980   -2.412380
  H      0.165220   -5.400300   -0.940100
  H     -0.125460   -6.768770    0.696380
  H     -1.705930   -8.767660    2.607770
  H      0.770860  -12.057550    1.655600
  H      1.665070  -10.007050   -1.052810
  H      2.755780   -9.713540    0.300230
  H     -2.151140  -10.825650    4.075240
  H     -0.071620  -12.991160    3.430940
  H     -2.206090  -13.070630    5.449620
  H      2.459880  -15.608620    6.345860
  H      1.275560  -12.190040    4.927320
  H      3.624730  -14.159750    4.866850
  H      3.157040  -11.217140    4.099160
  H      8.644730  -14.316390    3.935160
  H      8.217910   -9.532090    2.509310
  H     11.381960  -13.953500    3.430880

 Total Charge           Charge          ....    0
 Multiplicity           Mult            ....    1
 Number of Electrons    NEL             ....  496
 Basis Dimension        Dim             .... 1045

ORBITAL ENERGIES
----------------

  NO   OCC          E(Eh)            E(eV)
   0   2.0000    -482.884738    -13139.9618
   1   2.0000     -88.985116     -2421.4081
   2   2.0000     -88.970431     -2421.0085
   3   2.0000     -88.952014     -2420.5074
   4   2.0000     -88.935846     -2420.0674
   5   2.0000     -88.934361     -2420.0270
   6   2.0000     -62.562400     -1702.4095
   7   2.0000     -56.396338     -1534.6224
   8   2.0000     -56.393655     -1534.5494
   9   2.0000     -56.393615     -1534.5483
  10   2.0000     -24.763848      -673.8586
  11   2.0000     -19.234830      -523.4063
  12   2.0000     -19.234219      -523.3897
  13   2.0000     -19.210948      -522.7565
  14   2.0000     -14.646169      -398.5425
  15   2.0000     -14.487767      -394.2322
  16   2.0000     -14.460352      -393.4862
  17   2.0000     -14.413434      -392.2095
  18   2.0000     -14.406350      -392.0167
  19   2.0000     -10.376969      -282.3717
  20   2.0000     -10.361413      -281.9484
  21   2.0000     -10.354917      -281.7716
  22   2.0000     -10.343822      -281.4697
  23   2.0000     -10.343127      -281.4508
  24   2.0000     -10.334733      -281.2224
  25   2.0000     -10.333875      -281.1990
  26   2.0000     -10.320251      -280.8283
  27   2.0000     -10.318407      -280.7781
  28   2.0000     -10.316125      -280.7160
  29   2.0000     -10.312394      -280.6145
  30   2.0000     -10.310075      -280.5514
  31   2.0000     -10.308891      -280.5192
  32   2.0000     -10.308726      -280.5147
  33   2.0000     -10.303462      -280.3714
  34   2.0000     -10.301420      -280.3159
  35   2.0000     -10.301324      -280.3133
  36   2.0000     -10.300932      -280.3026
  37   2.0000     -10.300151      -280.2813
  38   2.0000     -10.299315      -280.2586
  39   2.0000     -10.299148      -280.2541
  40   2.0000     -10.298204      -280.2284
  41   2.0000     -10.294910      -280.1387
  42   2.0000     -10.293891      -280.1110
  43   2.0000     -10.293721      -280.1064
  44   2.0000     -10.292583      -280.0754
  45   2.0000     -10.290473      -280.0180
  46   2.0000     -10.289353      -279.9875
  47   2.0000     -10.288679      -279.9692
  48   2.0000     -10.285327      -279.8780
  49   2.0000     -10.285131      -279.8726
  50   2.0000     -10.282061      -279.7891
  51   2.0000     -10.281699      -279.7793
  52   2.0000     -10.277475      -279.6643
  53   2.0000     -10.276734      -279.6442
  54   2.0000     -10.276230      -279.6304
  55   2.0000     -10.275639      -279.6144
  56   2.0000     -10.275557      -279.6121
  57   2.0000     -10.274855      -279.5930
  58   2.0000     -10.274372      -279.5799
  59   2.0000     -10.273422      -279.5540
  60   2.0000     -10.270284      -279.4686
  61   2.0000     -10.270206      -279.4665
  62   2.0000     -10.267673      -279.3976
  63   2.0000     -10.266420      -279.3635
  64   2.0000     -10.263669      -279.2886
  65   2.0000     -10.253659      -279.0162
  66   2.0000     -10.247678      -278.8535
  67   2.0000      -8.791791      -239.2368
  68   2.0000      -8.081112      -219.8982
  69   2.0000      -8.065722      -219.4794
  70   2.0000      -8.046396      -218.9536
  71   2.0000      -8.031415      -218.5459
  72   2.0000      -8.030239      -218.5139
  73   2.0000      -6.627978      -180.3564
  74   2.0000      -6.613604      -179.9653
  75   2.0000      -6.613373      -179.9590
  76   2.0000      -6.050873      -164.6526
  77   2.0000      -6.046463      -164.5326
  78   2.0000      -6.042268      -164.4185
  79   2.0000      -6.035481      -164.2338
  80   2.0000      -6.031174      -164.1166
  81   2.0000      -6.026971      -164.0022
  82   2.0000      -6.015463      -163.6891
  83   2.0000      -6.011292      -163.5756
  84   2.0000      -6.009159      -163.5175
  85   2.0000      -6.001190      -163.3007
  86   2.0000      -6.000106      -163.2712
  87   2.0000      -5.997031      -163.1875
  88   2.0000      -5.996190      -163.1646
  89   2.0000      -5.992399      -163.0615
  90   2.0000      -5.990853      -163.0194
  91   2.0000      -2.743867       -74.6644
  92   2.0000      -2.739843       -74.5549
  93   2.0000      -2.739683       -74.5506
  94   2.0000      -2.728248       -74.2394
  95   2.0000      -2.728229       -74.2389
  96   2.0000      -1.314320       -35.7645
  97   2.0000      -1.276970       -34.7481
  98   2.0000      -1.133462       -30.8431
  99   2.0000      -1.125005       -30.6129
 100   2.0000      -1.091618       -29.7044
 101   2.0000      -1.071926       -29.1686
 102   2.0000      -1.016504       -27.6605
 103   2.0000      -1.007946       -27.4276
 104   2.0000      -1.003815       -27.3152
 105   2.0000      -0.989691       -26.9309
 106   2.0000      -0.988320       -26.8935
 107   2.0000      -0.982927       -26.7468
 108   2.0000      -0.981588       -26.7104
 109   2.0000      -0.961022       -26.1507
 110   2.0000      -0.942685       -25.6518
 111   2.0000      -0.939956       -25.5775
 112   2.0000      -0.926483       -25.2109
 113   2.0000      -0.921810       -25.0837
 114   2.0000      -0.905106       -24.6292
 115   2.0000      -0.903281       -24.5795
 116   2.0000      -0.892131       -24.2761
 117   2.0000      -0.885638       -24.0994
 118   2.0000      -0.879315       -23.9274
 119   2.0000      -0.874158       -23.7870
 120   2.0000      -0.865032       -23.5387
 121   2.0000      -0.861666       -23.4471
 122   2.0000      -0.846765       -23.0416
 123   2.0000      -0.838520       -22.8173
 124   2.0000      -0.836117       -22.7519
 125   2.0000      -0.826097       -22.4792
 126   2.0000      -0.824163       -22.4266
 127   2.0000      -0.821555       -22.3557
 128   2.0000      -0.810767       -22.0621
 129   2.0000      -0.803115       -21.8539
 130   2.0000      -0.790486       -21.5102
 131   2.0000      -0.786018       -21.3886
 132   2.0000      -0.777571       -21.1588
 133   2.0000      -0.763617       -20.7791
 134   2.0000      -0.757017       -20.5995
 135   2.0000      -0.750160       -20.4129
 136   2.0000      -0.730515       -19.8783
 137   2.0000      -0.712624       -19.3915
 138   2.0000      -0.710976       -19.3466
 139   2.0000      -0.703611       -19.1462
 140   2.0000      -0.688887       -18.7456
 141   2.0000      -0.685975       -18.6663
 142   2.0000      -0.683099       -18.5881
 143   2.0000      -0.676534       -18.4094
 144   2.0000      -0.675986       -18.3945
 145   2.0000      -0.669355       -18.2141
 146   2.0000      -0.657344       -17.8873
 147   2.0000      -0.653055       -17.7705
 148   2.0000      -0.650704       -17.7065
 149   2.0000      -0.644353       -17.5337
 150   2.0000      -0.637258       -17.3407
 151   2.0000      -0.630973       -17.1696
 152   2.0000      -0.627307       -17.0699
 153   2.0000      -0.627032       -17.0624
 154   2.0000      -0.624047       -16.9812
 155   2.0000      -0.617366       -16.7994
 156   2.0000      -0.611749       -16.6465
 157   2.0000      -0.605458       -16.4754
 158   2.0000      -0.603631       -16.4256
 159   2.0000      -0.598213       -16.2782
 160   2.0000      -0.593649       -16.1540
 161   2.0000      -0.590170       -16.0593
 162   2.0000      -0.588272       -16.0077
 163   2.0000      -0.580975       -15.8091
 164   2.0000      -0.576354       -15.6834
 165   2.0000      -0.571996       -15.5648
 166   2.0000      -0.566335       -15.4108
 167   2.0000      -0.563567       -15.3354
 168   2.0000      -0.561618       -15.2824
 169   2.0000      -0.552793       -15.0423
 170   2.0000      -0.542341       -14.7578
 171   2.0000      -0.539152       -14.6711
 172   2.0000      -0.537826       -14.6350
 173   2.0000      -0.536804       -14.6072
 174   2.0000      -0.535481       -14.5712
 175   2.0000      -0.533825       -14.5261
 176   2.0000      -0.527619       -14.3572
 177   2.0000      -0.526899       -14.3376
 178   2.0000      -0.520397       -14.1607
 179   2.0000      -0.515624       -14.0308
 180   2.0000      -0.513938       -13.9850
 181   2.0000      -0.509861       -13.8740
 182   2.0000      -0.509325       -13.8594
 183   2.0000      -0.506860       -13.7924
 184   2.0000      -0.504326       -13.7234
 185   2.0000      -0.503166       -13.6918
 186   2.0000      -0.500980       -13.6324
 187   2.0000      -0.497263       -13.5312
 188   2.0000      -0.490512       -13.3475
 189   2.0000      -0.489957       -13.3324
 190   2.0000      -0.487266       -13.2592
 191   2.0000      -0.486123       -13.2281
 192   2.0000      -0.485385       -13.2080
 193   2.0000      -0.482403       -13.1269
 194   2.0000      -0.479644       -13.0518
 195   2.0000      -0.477519       -12.9940
 196   2.0000      -0.475153       -12.9296
 197   2.0000      -0.467684       -12.7263
 198   2.0000      -0.466450       -12.6927
 199   2.0000      -0.464528       -12.6404
 200   2.0000      -0.462429       -12.5833
 201   2.0000      -0.456683       -12.4270
 202   2.0000      -0.453571       -12.3423
 203   2.0000      -0.453049       -12.3281
 204   2.0000      -0.452144       -12.3035
 205   2.0000      -0.446028       -12.1370
 206   2.0000      -0.444516       -12.0959
 207   2.0000      -0.442856       -12.0507
 208   2.0000      -0.442416       -12.0388
 209   2.0000      -0.437162       -11.8958
 210   2.0000      -0.434806       -11.8317
 211   2.0000      -0.433101       -11.7853
 212   2.0000      -0.427772       -11.6403
 213   2.0000      -0.425379       -11.5751
 214   2.0000      -0.423765       -11.5312
 215   2.0000      -0.421366       -11.4660
 216   2.0000      -0.418417       -11.3857
 217   2.0000      -0.415953       -11.3186
 218   2.0000      -0.408454       -11.1146
 219   2.0000      -0.405765       -11.0414
 220   2.0000      -0.402807       -10.9609
 221   2.0000      -0.402003       -10.9391
 222   2.0000      -0.399415       -10.8686
 223   2.0000      -0.394404       -10.7323
 224   2.0000      -0.382879       -10.4187
 225   2.0000      -0.382807       -10.4167
 226   2.0000      -0.380643       -10.3578
 227   2.0000      -0.376017       -10.2320
 228   2.0000      -0.374027       -10.1778
 229   2.0000      -0.372885       -10.1467
 230   2.0000      -0.368814       -10.0359
 231   2.0000      -0.362971        -9.8769
 232   2.0000      -0.361035        -9.8243
 233   2.0000      -0.347360        -9.4522
 234   2.0000      -0.339276        -9.2322
 235   2.0000      -0.331703        -9.0261
 236   2.0000      -0.330257        -8.9867
 237   2.0000      -0.320525        -8.7219
 238   2.0000      -0.317272        -8.6334
 239   2.0000      -0.315530        -8.5860
 240   2.0000      -0.307230        -8.3602
 241   2.0000      -0.301711        -8.2100
 242   2.0000      -0.296925        -8.0797
 243   2.0000      -0.287405        -7.8207
 244   2.0000      -0.276780        -7.5316
 245   2.0000      -0.260647        -7.0926
 246   2.0000      -0.227286        -6.1848
 247   2.0000      -0.184231        -5.0132
 248   0.0000      -0.088372        -2.4047
 249   0.0000      -0.074397        -2.0245
 250   0.0000      -0.055285        -1.5044
 251   0.0000      -0.054722        -1.4891
 252   0.0000      -0.018482        -0.5029

MULLIKEN ATOMIC CHARGES
-----------------------
   0 C :   -0.016710
   1 C :   -0.077649
   2 C :    0.045220
   3 C :    0.041696
   4 C :   -0.087790
   5 S :    0.064621
   6 C :   -0.020083
   7 C :    0.019706
   8 C :    0.035428
   9 C :   -0.031597
  10 S :    0.068115
  11 C :   -0.004200
  12 C :   -0.073020
  13 S :    0.089253
  14 C :   -0.075377
  15 C :    0.127357
  16 C :    0.117971
  17 C :   -0.031384
  18 C :   -0.043921
  19 C :    0.294231
  20 F :   -0.206437
  21 C :   -0.125290
  22 C :   -0.108807
  23 C :   -0.096898
  24 C :    0.090072
  25 N :   -0.018877
  26 C :    0.065123
  27 C :   -0.128805
  28 C :   -0.078319
  29 C :    0.253673
  30 C :    0.015551
  31 C :    0.000405
  32 N :   -0.028523
  33 C :   -0.084271
  34 S :    0.170650
  35 C :   -0.012805
  36 N :    0.278378
  37 O :   -0.249174
  38 O :   -0.270221
  39 C :    0.015792
  40 C :    0.079763
  41 C :   -0.029658
  42 C :   -0.008237
  43 C :   -0.052739
  44 C :   -0.063163
  45 C :    0.331395
  46 C :   -0.374326
  47 C :   -0.176896
  48 N :    0.154728
  49 C :   -0.200224
  50 N :    0.150339
  51 C :    0.016466
  52 C :   -0.010963
  53 C :    0.137652
  54 O :   -0.154898
  55 C :   -0.083742
  56 C :    0.145694
  57 C :   -0.099897
  58 C :    0.001625
  59 S :    0.181847
  60 C :   -0.131370
  61 C :    0.037713
  62 Br:    0.013605
  63 H :    0.014535
  64 H :    0.018313
  65 H :   -0.015697
  66 H :   -0.015632
  67 H :   -0.020837
  68 H :   -0.018004
  69 H :   -0.023536
  70 H :   -0.022701
  71 H :   -0.009913
  72 H :   -0.029127
  73 H :   -0.034111
  74 H :    0.118255
  75 H :   -0.039939
  76 H :    0.035567
  77 H :    0.038299
  78 H :   -0.033903
  79 H :    0.042887
  80 H :    0.140146
  81 H :    0.022891
  82 H :    0.040367
  83 H :    0.024194
  84 H :    0.011681
  85 H :   -0.014997
  86 H :   -0.009107
  87 H :   -0.007431
Sum of atomic charges:   -0.0000000

LOEWDIN ATOMIC CHARGES
----------------------
   0 C :   -0.083211
   1 C :   -0.140278
   2 C :   -0.044969
   3 C :   -0.029358
   4 C :   -0.187409
   5 S :    0.352058
   6 C :   -0.174548
   7 C :   -0.047612
   8 C :   -0.028027
   9 C :   -0.156762
  10 S :    0.389252
  11 C :   -0.067195
  12 C :   -0.177849
  13 S :    0.474745
  14 C :   -0.176256
  15 C :   -0.037767
  16 C :   -0.048178
  17 C :   -0.000889
  18 C :   -0.053412
  19 C :    0.083968
  20 F :   -0.079793
  21 C :   -0.054690
  22 C :   -0.037289
  23 C :   -0.038098
  24 C :   -0.013119
  25 N :    0.088541
  26 C :   -0.020217
  27 C :   -0.071196
  28 C :   -0.042833
  29 C :   -0.019990
  30 C :   -0.068601
  31 C :   -0.003783
  32 N :    0.040936
  33 C :   -0.089531
  34 S :    0.443587
  35 C :   -0.208017
  36 N :    0.273725
  37 O :   -0.215877
  38 O :   -0.236346
  39 C :    0.016462
  40 C :   -0.119079
  41 C :    0.029824
  42 C :   -0.044754
  43 C :    0.067424
  44 C :   -0.103388
  45 C :    0.078014
  46 C :   -0.148635
  47 C :   -0.023233
  48 N :   -0.060642
  49 C :   -0.018982
  50 N :   -0.055600
  51 C :   -0.022457
  52 C :   -0.051003
  53 C :    0.084039
  54 O :   -0.150608
  55 C :    0.019544
  56 C :   -0.028161
  57 C :   -0.142500
  58 C :   -0.006670
  59 S :    0.442205
  60 C :   -0.274615
  61 C :   -0.069417
  62 Br:    0.129037
  63 H :    0.025677
  64 H :    0.024136
  65 H :    0.030128
  66 H :    0.030931
  67 H :    0.028749
  68 H :    0.031664
  69 H :    0.035974
  70 H :    0.029318
  71 H :    0.036231
  72 H :    0.032751
  73 H :    0.022463
  74 H :    0.089302
  75 H :    0.019399
  76 H :    0.050733
  77 H :    0.037337
  78 H :    0.024760
  79 H :    0.032345
  80 H :    0.094637
  81 H :    0.051200
  82 H :    0.042538
  83 H :    0.032072
  84 H :    0.041410
  85 H :    0.038977
  86 H :    0.039626
  87 H :    0.037126

  Mayer bond orders larger than 0.100000
B(  0-C ,  1-C ) :   1.8569 B(  0-C , 63-H ) :   0.9472 B(  0-C , 64-H ) :   0.9361
B(  1-C ,  2-C ) :   1.0870 B(  1-C ,  5-S ) :   1.0120 B(  2-C ,  3-C ) :   1.6287
B(  2-C , 65-H ) :   0.9935 B(  3-C ,  4-C ) :   1.1714 B(  3-C , 66-H ) :   0.9934
B(  4-C ,  5-S ) :   1.0381 B(  4-C ,  6-C ) :   1.5268 B(  6-C ,  7-C ) :   1.1852
B(  6-C , 10-S ) :   1.0472 B(  7-C ,  8-C ) :   1.5791 B(  7-C , 67-H ) :   0.9916
B(  8-C ,  9-C ) :   1.1670 B(  8-C , 68-H ) :   0.9969 B(  9-C , 10-S ) :   1.0473
B(  9-C , 11-C ) :   1.5126 B( 11-C , 12-C ) :   1.2699 B( 11-C , 69-H ) :   0.9602
B( 12-C , 13-S ) :   1.1123 B( 12-C , 16-C ) :   1.2505 B( 13-S , 14-C ) :   1.1320
B( 14-C , 15-C ) :   1.3042 B( 14-C , 22-C ) :   1.2004 B( 15-C , 16-C ) :   1.2327
B( 15-C , 21-C ) :   1.1828 B( 16-C , 17-C ) :   1.2408 B( 17-C , 18-C ) :   1.4840
B( 17-C , 70-H ) :   0.9898 B( 18-C , 19-C ) :   1.2383 B( 18-C , 71-H ) :   0.9888
B( 19-C , 20-F ) :   1.0686 B( 19-C , 21-C ) :   1.4802 B( 21-C , 72-H ) :   1.0007
B( 22-C , 23-C ) :   1.5492 B( 22-C , 29-C ) :   1.0422 B( 23-C , 24-C ) :   1.1090
B( 23-C , 73-H ) :   1.0153 B( 24-C , 25-N ) :   1.2029 B( 24-C , 28-C ) :   1.4299
B( 25-N , 26-C ) :   1.1808 B( 25-N , 74-H ) :   0.9351 B( 26-C , 27-C ) :   1.3723
B( 26-C , 30-C ) :   1.1272 B( 27-C , 28-C ) :   1.3766 B( 27-C , 75-H ) :   1.0095
B( 28-C , 29-C ) :   1.0189 B( 29-C , 76-H ) :   0.8669 B( 29-C , 77-H ) :   0.8793
B( 30-C , 31-C ) :   1.7063 B( 30-C , 78-H ) :   0.9589 B( 31-C , 32-N ) :   1.0738
B( 31-C , 79-H ) :   0.9504 B( 32-N , 33-C ) :   1.2524 B( 32-N , 80-H ) :   0.9158
B( 33-C , 34-S ) :   1.1385 B( 33-C , 40-C ) :   1.3086 B( 34-S , 35-C ) :   1.0610
B( 35-C , 36-N ) :   0.9762 B( 35-C , 39-C ) :   1.5019 B( 36-N , 37-O ) :   1.5315
B( 36-N , 38-O ) :   1.5022 B( 37-O , 38-O ) :   0.2569 B( 39-C , 40-C ) :   1.2279
B( 39-C , 81-H ) :   1.0042 B( 40-C , 41-C ) :   1.0752 B( 41-C , 42-C ) :   1.5713
B( 41-C , 82-H ) :   0.9786 B( 42-C , 43-C ) :   1.1755 B( 42-C , 83-H ) :   0.9793
B( 43-C , 44-C ) :   1.5161 B( 43-C , 84-H ) :   0.9631 B( 44-C , 45-C ) :   1.0740
B( 44-C , 53-C ) :   0.9484 B( 45-C , 46-C ) :   1.6088 B( 45-C , 51-C ) :   0.9995
B( 46-C , 47-C ) :   1.1584 B( 46-C , 49-C ) :   1.1571 B( 47-C , 48-N ) :   2.9205
B( 49-C , 50-N ) :   2.9332 B( 51-C , 52-C ) :   1.2779 B( 51-C , 58-C ) :   1.4052
B( 52-C , 53-C ) :   0.9398 B( 52-C , 55-C ) :   1.4213 B( 53-C , 54-O ) :   2.2018
B( 55-C , 56-C ) :   1.2348 B( 55-C , 85-H ) :   1.0159 B( 56-C , 57-C ) :   1.3134
B( 56-C , 61-C ) :   1.1583 B( 57-C , 58-C ) :   1.3331 B( 57-C , 59-S ) :   1.0900
B( 58-C , 86-H ) :   0.9802 B( 59-S , 60-C ) :   1.0926 B( 60-C , 61-C ) :   1.6160
B( 60-C , 62-Br) :   1.0116 B( 61-C , 87-H ) :   1.0002

-----------------------------------------------------------------------------
         ABSORPTION SPECTRUM VIA TRANSITION ELECTRIC DIPOLE MOMENTS
-----------------------------------------------------------------------------
State   Energy  Wavelength   fosc         T2         TX        TY        TZ
        (cm-1)    (nm)                  (au**2)     (au)      (au)      (au)
-----------------------------------------------------------------------------
   0    5761.2   1735.8   0.005304258   0.30310  -0.04718   0.16838  -0.52204
   1   10624.2    941.2   0.487046660  15.09206  -3.63317   0.32666   1.33620
   2   13185.1    758.4   0.081990889   2.04719   1.32651  -0.49502   0.20622
   3   15138.1    660.6   0.037164538   0.80823   0.88811   0.09545  -0.10183
   4   16991.7    588.5   0.296681855   5.74816   0.66065  -1.91066   1.28883
   5   19038.7    525.2   0.388209403   6.71282   0.80493  -2.21890   1.06836
   6   21263.9    470.3   0.351590705   5.44339   2.30424  -0.25928  -0.25818
   7   22013.4    454.3   0.703530474  10.52135   0.12668   2.90758  -1.43223
   8   23040.1    434.0   0.480998191   6.87282   1.15406   1.96137  -1.30153
   9   24372.7    410.3   0.007451810   0.10065   0.29270   0.01224   0.12179
  10   25132.1    397.9   0.261762874   3.42890   0.88540   1.37074  -0.87524
  11   25694.6    389.2   0.038578516   0.49429   0.34074  -0.29261   0.54089
  12   26515.4    377.1   0.675558501   8.38765  -1.21406  -2.30190   1.27080
  13   26961.4    370.9   0.081504403   0.99521  -0.58272  -0.51729   0.62294
  14   27107.3    368.9   0.259811125   3.15534  -1.69388   0.53449   0.02063
  15   28705.7    348.4   0.021143236   0.24248  -0.46368  -0.01812   0.16477
  16   28888.9    346.2   0.116911957   1.33231  -0.98468   0.54431  -0.25773
  17   29029.0    344.5   0.001007267   0.01142  -0.10189   0.02881  -0.01452
  18   29164.1    342.9   0.042586515   0.48073  -0.13514   0.56916  -0.37218
  19   29217.3    342.3   0.009116015   0.10272  -0.30691   0.08503  -0.03596
  20   29412.8    340.0   0.163867167   1.83413  -1.06402  -0.65469   0.52285
  21   30406.8    328.9   0.016437872   0.17797   0.34792  -0.23848   0.00726
  22   30787.2    324.8   0.126705313   1.35488  -0.92875   0.65187  -0.25956
  23   31215.0    320.4   0.015487171   0.16334   0.29616  -0.26839   0.05995
  24   31361.4    318.9   0.058946721   0.61879  -0.70696   0.20968  -0.27391
  25   31618.3    316.3   0.090337231   0.94060   0.88593   0.11612  -0.37716
  26   31778.0    314.7   0.034580285   0.35824   0.42615   0.25400  -0.33485
  27   32085.3    311.7   0.047713210   0.48956   0.64980  -0.25393   0.05334
  28   32250.0    310.1   0.377152580   3.85002  -1.78282   0.78521   0.23454
  29   32343.4    309.2   0.008534225   0.08687   0.24887  -0.15514   0.02932
  30   32470.1    308.0   0.053103828   0.53842   0.64094  -0.31303  -0.17210
  31   32576.2    307.0   0.141671871   1.43172  -1.14511   0.34664  -0.01678
  32   32949.2    303.5   0.120040208   1.19938  -0.90322   0.59901  -0.15735
  33   33231.6    300.9   0.010076703   0.09983   0.24522  -0.19363   0.04692
  34   33683.7    296.9   0.000842576   0.00824  -0.08299  -0.03671   0.00101
  35   33776.0    296.1   0.081132905   0.79080  -0.51229  -0.62204   0.37606
  36   34171.9    292.6   0.009436681   0.09091   0.14788  -0.24171   0.10306
  37   34387.2    290.8   0.028735337   0.27510   0.45464   0.07817  -0.24959
  38   35004.8    285.7   0.005554055   0.05223   0.17228  -0.10674  -0.10564
  39   35324.9    283.1   0.067940815   0.63318   0.11360  -0.66202   0.42662
  40   35551.8    281.3   0.040344832   0.37360  -0.34100   0.50364  -0.06053
  41   36178.3    276.4   0.001453300   0.01322  -0.00529   0.07530  -0.08676
  42   36317.3    275.4   0.083927399   0.76079   0.33665   0.72684  -0.34521
  43   36380.1    274.9   0.040368783   0.36531  -0.01781  -0.58541   0.14930
  44   36626.9    273.0   0.048941294   0.43990   0.28110   0.34438  -0.49222
  45   36862.9    271.3   0.086070261   0.76867   0.36596  -0.77416   0.18818
  46   37047.2    269.9   0.110355526   0.98065  -0.88170   0.07249   0.44497
  47   37137.2    269.3   0.022650955   0.20079  -0.40070   0.05353  -0.19331
  48   37566.7    266.2   0.099583422   0.87269  -0.11362  -0.83665   0.39975
  49   38316.6    261.0   0.004060604   0.03489   0.04086  -0.16357   0.08039
  50   38539.7    259.5   0.044998524   0.38438   0.25546  -0.55482   0.10633
  51   39002.8    256.4   0.012037661   0.10161  -0.26998  -0.14535   0.08713
  52   39041.9    256.1   0.005810818   0.04900  -0.20183  -0.02660  -0.08693
  53   39209.7    255.0   0.058725209   0.49307  -0.04053  -0.67045   0.20474
  54   39578.2    252.7   0.014393214   0.11972   0.29315  -0.17955  -0.03936
  55   39659.6    252.1   0.001875796   0.01557   0.11638   0.04085  -0.01894
  56   39832.2    251.1   0.008713364   0.07202  -0.10010   0.22530  -0.10599
  57   39916.3    250.5   0.001210162   0.00998  -0.02209   0.09737  -0.00335
  58   40092.7    249.4   0.027998119   0.22990  -0.03666   0.45865  -0.13488

FINAL SINGLE POINT ENERGY     -7004.447788065384

DIPOLE MOMENT
-------------
                                X             Y             Z
Electronic contribution:     92.08359     -14.36808      14.71473
Nuclear contribution   :    -92.07537      15.39897     -15.00777
                        -----------------------------------------
Total Dipole Moment    :      0.00821       1.03089      -0.29305
                        -----------------------------------------
Magnitude (a.u.)       :      1.07177
Magnitude (Debye)      :      2.72421

Rotational constants in cm-1:     0.000936     0.000756     0.000439
Rotational constants in MHz :    28.071229    22.650854    13.147646

                             ****ORCA TERMINATED NORMALLY****
TOTAL RUN TIME: 0 days 0 hours 9 minutes 51 seconds 900 msec
