                         Program Version 4.2.0 -  RELEASE  -
|  1> # ORCA input file
|  2> # SCF done       -134.093902818352          0.000356526597
|  3> ! CAM-B3LYP def2-SVP def2/J RIJCOSX Grid4 TightSCF
|  4> %maxcore 5000
|  5> %tddft
|  6>     Mode sTDDFT
|  7>     Ethresh 5.0
|  8>     maxcore 5000
|  9> end
| 10>
| 11> %pal
| 12>   nprocs 6
| 13>   end
| 14> * xyz 0 1
| 15>    C        1.42694         0.12967         4.12108
| 16>    C        1.32042        -1.08061         4.73030
| 17>    S        1.01432        -1.58017         6.36764
| 18>    C        1.12920        -3.27082         5.88230
| 19>    C        0.95134        -4.32322         6.91357
| 20>    C        1.38102        -3.43209         4.56274
| 21>    C        1.49886        -2.19991         3.86288
| 22>    C        1.74977        -1.80876         2.55588
| 23>    S        1.75537        -0.06146         2.44055
| 24>    C        1.98726        -2.60196         1.41274
| 25>    C        2.27224        -2.20535         0.12157
| 26>    S        2.43545        -0.64092        -0.60662
| 27>    C        2.76208        -1.39295        -2.16373
| 28>    C        3.01256        -0.52671        -3.34227
| 29>    C        2.74737        -2.74460        -2.11433
| 30>    C        2.47292        -3.25505        -0.81388
| 31>    C        2.33815        -4.51198        -0.23137
| 32>    S        1.95854        -4.34875         1.46935
| 33>    C        2.46777        -5.79688        -0.80293
| 34>    C        2.90121        -6.13074        -2.07576
| 35>    C        2.90231        -7.50700        -2.28773
| 36>    C        2.46771        -8.24163        -1.17122
| 37>    S        2.05807        -7.22673         0.14407
| 38>    C        2.51396        -9.61832        -1.49292
| 39>    C        2.98333        -9.75755        -2.81168
| 40>    C        3.23811        -8.43553        -3.35573
| 41>    C        3.68769        -8.12068        -4.60593
| 42>    C        3.87257        -6.78402        -5.01326
| 43>    N        4.01648        -5.69515        -5.34542
| 44>    C        3.99034        -9.10129        -5.57266
| 45>    N        4.24297        -9.88760        -6.36857
| 46>    C        3.06406       -11.08593        -3.22840
| 47>    C        2.65412       -11.96351        -2.23957
| 48>    S        2.16635       -11.12852        -0.76927
| 49>    C        2.59683       -13.37474        -2.31273
| 50>    C        2.97158       -14.21117        -3.34442
| 51>    S        3.62993       -13.91410        -4.91991
| 52>    C        3.61546       -15.64012        -5.26418
| 53>    C        4.10020       -16.10939        -6.58588
| 54>    C        3.14050       -16.37934        -4.23834
| 55>    C        2.76947       -15.59888        -3.10581
| 56>    C        2.22877       -15.84651        -1.85126
| 57>    S        1.97677       -14.34079        -0.99711
| 58>    C        1.86445       -17.05675        -1.20539
| 59>    C        2.22732       -18.36925        -1.41379
| 60>    S        3.30829       -19.18204        -2.50418
| 61>    C        2.94936       -20.73742        -1.75033
| 62>    C        3.61645       -21.95219        -2.28225
| 63>    C        2.06950       -20.63760        -0.73493
| 64>    C        1.63749       -19.29639        -0.49954
| 65>    C        0.81666       -18.68467         0.40567
| 66>    S        0.76069       -16.98650         0.15824
| 67>    H        1.33673         1.11064         4.53980
| 68>    H        1.70067        -4.21823         7.69801
| 69>    H        1.04561        -5.30822         6.46333
| 70>    H       -0.02972        -4.23822         7.38041
| 71>    H        1.48184        -4.39586         4.09777
| 72>    H        2.15156         0.11289        -3.53496
| 73>    H        3.20468        -1.13707        -4.22106
| 74>    H        3.87161         0.11952        -3.16414
| 75>    H        2.92027        -3.35097        -2.98362
| 76>    H        3.21681        -5.40550        -2.79947
| 77>    H        3.39663       -11.40786        -4.19784
| 78>    H        3.51123       -15.66566        -7.38815
| 79>    H        4.02749       -17.19230        -6.64786
| 80>    H        5.13829       -15.81404        -6.73631
| 81>    H        3.05031       -17.44769        -4.28263
| 82>    H        3.36233       -22.09766        -3.33198
| 83>    H        3.30510       -22.82807        -1.71848
| 84>    H        4.69947       -21.85277        -2.21415
| 85>    H        1.72851       -21.47528        -0.15385
| 86>    H        0.24907       -19.12590         1.19934
| 87> *
| 88>
| 89>                          ****END OF INPUT****

CARTESIAN COORDINATES (ANGSTROEM)
---------------------------------
  C      1.426940    0.129670    4.121080
  C      1.320420   -1.080610    4.730300
  S      1.014320   -1.580170    6.367640
  C      1.129200   -3.270820    5.882300
  C      0.951340   -4.323220    6.913570
  C      1.381020   -3.432090    4.562740
  C      1.498860   -2.199910    3.862880
  C      1.749770   -1.808760    2.555880
  S      1.755370   -0.061460    2.440550
  C      1.987260   -2.601960    1.412740
  C      2.272240   -2.205350    0.121570
  S      2.435450   -0.640920   -0.606620
  C      2.762080   -1.392950   -2.163730
  C      3.012560   -0.526710   -3.342270
  C      2.747370   -2.744600   -2.114330
  C      2.472920   -3.255050   -0.813880
  C      2.338150   -4.511980   -0.231370
  S      1.958540   -4.348750    1.469350
  C      2.467770   -5.796880   -0.802930
  C      2.901210   -6.130740   -2.075760
  C      2.902310   -7.507000   -2.287730
  C      2.467710   -8.241630   -1.171220
  S      2.058070   -7.226730    0.144070
  C      2.513960   -9.618320   -1.492920
  C      2.983330   -9.757550   -2.811680
  C      3.238110   -8.435530   -3.355730
  C      3.687690   -8.120680   -4.605930
  C      3.872570   -6.784020   -5.013260
  N      4.016480   -5.695150   -5.345420
  C      3.990340   -9.101290   -5.572660
  N      4.242970   -9.887600   -6.368570
  C      3.064060  -11.085930   -3.228400
  C      2.654120  -11.963510   -2.239570
  S      2.166350  -11.128520   -0.769270
  C      2.596830  -13.374740   -2.312730
  C      2.971580  -14.211170   -3.344420
  S      3.629930  -13.914100   -4.919910
  C      3.615460  -15.640120   -5.264180
  C      4.100200  -16.109390   -6.585880
  C      3.140500  -16.379340   -4.238340
  C      2.769470  -15.598880   -3.105810
  C      2.228770  -15.846510   -1.851260
  S      1.976770  -14.340790   -0.997110
  C      1.864450  -17.056750   -1.205390
  C      2.227320  -18.369250   -1.413790
  S      3.308290  -19.182040   -2.504180
  C      2.949360  -20.737420   -1.750330
  C      3.616450  -21.952190   -2.282250
  C      2.069500  -20.637600   -0.734930
  C      1.637490  -19.296390   -0.499540
  C      0.816660  -18.684670    0.405670
  S      0.760690  -16.986500    0.158240
  H      1.336730    1.110640    4.539800
  H      1.700670   -4.218230    7.698010
  H      1.045610   -5.308220    6.463330
  H     -0.029720   -4.238220    7.380410
  H      1.481840   -4.395860    4.097770
  H      2.151560    0.112890   -3.534960
  H      3.204680   -1.137070   -4.221060
  H      3.871610    0.119520   -3.164140
  H      2.920270   -3.350970   -2.983620
  H      3.216810   -5.405500   -2.799470
  H      3.396630  -11.407860   -4.197840
  H      3.511230  -15.665660   -7.388150
  H      4.027490  -17.192300   -6.647860
  H      5.138290  -15.814040   -6.736310
  H      3.050310  -17.447690   -4.282630
  H      3.362330  -22.097660   -3.331980
  H      3.305100  -22.828070   -1.718480
  H      4.699470  -21.852770   -2.214150
  H      1.728510  -21.475280   -0.153850
  H      0.249070  -19.125900    1.199340

 Total Charge           Charge          ....    0
 Multiplicity           Mult            ....    1
 Number of Electrons    NEL             ....  434
 Basis Dimension        Dim             ....  868

ORBITAL ENERGIES
----------------

  NO   OCC          E(Eh)            E(eV)
   0   2.0000     -88.976676     -2421.1784
   1   2.0000     -88.975958     -2421.1589
   2   2.0000     -88.959263     -2420.7046
   3   2.0000     -88.957608     -2420.6596
   4   2.0000     -88.955853     -2420.6118
   5   2.0000     -88.955538     -2420.6033
   6   2.0000     -88.945096     -2420.3191
   7   2.0000     -88.944222     -2420.2953
   8   2.0000     -88.943489     -2420.2754
   9   2.0000     -88.939433     -2420.1650
  10   2.0000     -14.422822      -392.4649
  11   2.0000     -14.420433      -392.3999
  12   2.0000     -10.353397      -281.7303
  13   2.0000     -10.341052      -281.3943
  14   2.0000     -10.323879      -280.9270
  15   2.0000     -10.321034      -280.8496
  16   2.0000     -10.318012      -280.7674
  17   2.0000     -10.316512      -280.7266
  18   2.0000     -10.315948      -280.7112
  19   2.0000     -10.315384      -280.6959
  20   2.0000     -10.310306      -280.5577
  21   2.0000     -10.309410      -280.5333
  22   2.0000     -10.308149      -280.4990
  23   2.0000     -10.307733      -280.4877
  24   2.0000     -10.306576      -280.4562
  25   2.0000     -10.303726      -280.3786
  26   2.0000     -10.303279      -280.3665
  27   2.0000     -10.302827      -280.3542
  28   2.0000     -10.301532      -280.3190
  29   2.0000     -10.300555      -280.2924
  30   2.0000     -10.296713      -280.1878
  31   2.0000     -10.296345      -280.1778
  32   2.0000     -10.294463      -280.1266
  33   2.0000     -10.292466      -280.0722
  34   2.0000     -10.291401      -280.0433
  35   2.0000     -10.291378      -280.0426
  36   2.0000     -10.289004      -279.9780
  37   2.0000     -10.288762      -279.9714
  38   2.0000     -10.286367      -279.9063
  39   2.0000     -10.285735      -279.8891
  40   2.0000     -10.281951      -279.7861
  41   2.0000     -10.280530      -279.7474
  42   2.0000     -10.278035      -279.6796
  43   2.0000     -10.277669      -279.6696
  44   2.0000     -10.275779      -279.6182
  45   2.0000     -10.274411      -279.5809
  46   2.0000     -10.272931      -279.5407
  47   2.0000     -10.272785      -279.5367
  48   2.0000     -10.269877      -279.4576
  49   2.0000     -10.268392      -279.4171
  50   2.0000     -10.267114      -279.3824
  51   2.0000     -10.265596      -279.3411
  52   2.0000      -8.071346      -219.6325
  53   2.0000      -8.070677      -219.6143
  54   2.0000      -8.053971      -219.1597
  55   2.0000      -8.052990      -219.1330
  56   2.0000      -8.051304      -219.0871
  57   2.0000      -8.050439      -219.0636
  58   2.0000      -8.040630      -218.7967
  59   2.0000      -8.040051      -218.7809
  60   2.0000      -8.039037      -218.7533
  61   2.0000      -8.035769      -218.6644
  62   2.0000      -6.040689      -164.3755
  63   2.0000      -6.040049      -164.3581
  64   2.0000      -6.036486      -164.2611
  65   2.0000      -6.035820      -164.2430
  66   2.0000      -6.033555      -164.1814
  67   2.0000      -6.032842      -164.1620
  68   2.0000      -6.023610      -163.9108
  69   2.0000      -6.022582      -163.8828
  70   2.0000      -6.020779      -163.8337
  71   2.0000      -6.019986      -163.8122
  72   2.0000      -6.019348      -163.7948
  73   2.0000      -6.018313      -163.7666
  74   2.0000      -6.016338      -163.7129
  75   2.0000      -6.015664      -163.6945
  76   2.0000      -6.015513      -163.6904
  77   2.0000      -6.014624      -163.6663
  78   2.0000      -6.013398      -163.6329
  79   2.0000      -6.012516      -163.6089
  80   2.0000      -6.010556      -163.5555
  81   2.0000      -6.009912      -163.5380
  82   2.0000      -6.008854      -163.5092
  83   2.0000      -6.006182      -163.4365
  84   2.0000      -6.005625      -163.4214
  85   2.0000      -6.005553      -163.4194
  86   2.0000      -6.004579      -163.3929
  87   2.0000      -6.001668      -163.3137
  88   2.0000      -6.001469      -163.3083
  89   2.0000      -6.001124      -163.2989
  90   2.0000      -6.000195      -163.2736
  91   2.0000      -5.996614      -163.1762
  92   2.0000      -1.031847       -28.0780
  93   2.0000      -1.013143       -27.5690
  94   2.0000      -1.009049       -27.4576
  95   2.0000      -1.006270       -27.3820
  96   2.0000      -0.999044       -27.1854
  97   2.0000      -0.995207       -27.0810
  98   2.0000      -0.992168       -26.9983
  99   2.0000      -0.979532       -26.6544
 100   2.0000      -0.951512       -25.8919
 101   2.0000      -0.946481       -25.7551
 102   2.0000      -0.942134       -25.6368
 103   2.0000      -0.934075       -25.4175
 104   2.0000      -0.932490       -25.3743
 105   2.0000      -0.903586       -24.5878
 106   2.0000      -0.878021       -23.8922
 107   2.0000      -0.870345       -23.6833
 108   2.0000      -0.854005       -23.2387
 109   2.0000      -0.849565       -23.1178
 110   2.0000      -0.848505       -23.0890
 111   2.0000      -0.844054       -22.9679
 112   2.0000      -0.841583       -22.9006
 113   2.0000      -0.839297       -22.8384
 114   2.0000      -0.833730       -22.6870
 115   2.0000      -0.830978       -22.6121
 116   2.0000      -0.810535       -22.0558
 117   2.0000      -0.803003       -21.8508
 118   2.0000      -0.792764       -21.5722
 119   2.0000      -0.777796       -21.1649
 120   2.0000      -0.773204       -21.0399
 121   2.0000      -0.770146       -20.9567
 122   2.0000      -0.765173       -20.8214
 123   2.0000      -0.762776       -20.7562
 124   2.0000      -0.759474       -20.6663
 125   2.0000      -0.739772       -20.1302
 126   2.0000      -0.713732       -19.4216
 127   2.0000      -0.695633       -18.9291
 128   2.0000      -0.678799       -18.4711
 129   2.0000      -0.674563       -18.3558
 130   2.0000      -0.659879       -17.9562
 131   2.0000      -0.652037       -17.7428
 132   2.0000      -0.642735       -17.4897
 133   2.0000      -0.632584       -17.2135
 134   2.0000      -0.632148       -17.2016
 135   2.0000      -0.628703       -17.1079
 136   2.0000      -0.626725       -17.0541
 137   2.0000      -0.624901       -17.0044
 138   2.0000      -0.615057       -16.7366
 139   2.0000      -0.612301       -16.6616
 140   2.0000      -0.607246       -16.5240
 141   2.0000      -0.599166       -16.3041
 142   2.0000      -0.595183       -16.1958
 143   2.0000      -0.586814       -15.9680
 144   2.0000      -0.580924       -15.8077
 145   2.0000      -0.568951       -15.4819
 146   2.0000      -0.554014       -15.0755
 147   2.0000      -0.538888       -14.6639
 148   2.0000      -0.535419       -14.5695
 149   2.0000      -0.534314       -14.5394
 150   2.0000      -0.526099       -14.3159
 151   2.0000      -0.522193       -14.2096
 152   2.0000      -0.518895       -14.1199
 153   2.0000      -0.518027       -14.0962
 154   2.0000      -0.514319       -13.9953
 155   2.0000      -0.513555       -13.9746
 156   2.0000      -0.511796       -13.9267
 157   2.0000      -0.505755       -13.7623
 158   2.0000      -0.500219       -13.6117
 159   2.0000      -0.498479       -13.5643
 160   2.0000      -0.497563       -13.5394
 161   2.0000      -0.492297       -13.3961
 162   2.0000      -0.491428       -13.3724
 163   2.0000      -0.489582       -13.3222
 164   2.0000      -0.487961       -13.2781
 165   2.0000      -0.486700       -13.2438
 166   2.0000      -0.486009       -13.2250
 167   2.0000      -0.483453       -13.1554
 168   2.0000      -0.481282       -13.0964
 169   2.0000      -0.479292       -13.0422
 170   2.0000      -0.474548       -12.9131
 171   2.0000      -0.470969       -12.8157
 172   2.0000      -0.466885       -12.7046
 173   2.0000      -0.464074       -12.6281
 174   2.0000      -0.461354       -12.5541
 175   2.0000      -0.460308       -12.5256
 176   2.0000      -0.457997       -12.4627
 177   2.0000      -0.454331       -12.3630
 178   2.0000      -0.453516       -12.3408
 179   2.0000      -0.449841       -12.2408
 180   2.0000      -0.447935       -12.1889
 181   2.0000      -0.441434       -12.0120
 182   2.0000      -0.439757       -11.9664
 183   2.0000      -0.435226       -11.8431
 184   2.0000      -0.432595       -11.7715
 185   2.0000      -0.432068       -11.7572
 186   2.0000      -0.428896       -11.6708
 187   2.0000      -0.420877       -11.4526
 188   2.0000      -0.418987       -11.4012
 189   2.0000      -0.417185       -11.3522
 190   2.0000      -0.414738       -11.2856
 191   2.0000      -0.413644       -11.2558
 192   2.0000      -0.409268       -11.1368
 193   2.0000      -0.408585       -11.1182
 194   2.0000      -0.407522       -11.0892
 195   2.0000      -0.400817       -10.9068
 196   2.0000      -0.399753       -10.8778
 197   2.0000      -0.396852       -10.7989
 198   2.0000      -0.396429       -10.7874
 199   2.0000      -0.393209       -10.6998
 200   2.0000      -0.391260       -10.6467
 201   2.0000      -0.383303       -10.4302
 202   2.0000      -0.374886       -10.2012
 203   2.0000      -0.348616        -9.4863
 204   2.0000      -0.340006        -9.2520
 205   2.0000      -0.334237        -9.0950
 206   2.0000      -0.329314        -8.9611
 207   2.0000      -0.312353        -8.4996
 208   2.0000      -0.303329        -8.2540
 209   2.0000      -0.299859        -8.1596
 210   2.0000      -0.298704        -8.1281
 211   2.0000      -0.293701        -7.9920
 212   2.0000      -0.290598        -7.9076
 213   2.0000      -0.282617        -7.6904
 214   2.0000      -0.267833        -7.2881
 215   2.0000      -0.232023        -6.3137
 216   2.0000      -0.208343        -5.6693
 217   0.0000      -0.094672        -2.5762
 218   0.0000      -0.050437        -1.3724
 219   0.0000      -0.035467        -0.9651
 220   0.0000       0.005044         0.1373
 221   0.0000       0.014064         0.3827

MULLIKEN ATOMIC CHARGES
-----------------------
   0 C :   -0.152118
   1 C :    0.005011
   2 S :    0.095155
   3 C :   -0.212380
   4 C :    0.114213
   5 C :    0.004475
   6 C :    0.073884
   7 C :   -0.126172
   8 S :    0.124801
   9 C :   -0.106338
  10 C :   -0.084317
  11 S :    0.102442
  12 C :   -0.193330
  13 C :    0.113727
  14 C :   -0.025915
  15 C :    0.128701
  16 C :   -0.091921
  17 S :    0.103530
  18 C :   -0.050068
  19 C :   -0.054830
  20 C :    0.002406
  21 C :   -0.100871
  22 S :    0.170686
  23 C :   -0.102597
  24 C :    0.000329
  25 C :    0.313950
  26 C :   -0.303700
  27 C :   -0.186741
  28 N :    0.159907
  29 C :   -0.188543
  30 N :    0.170825
  31 C :   -0.063163
  32 C :   -0.066760
  33 S :    0.177930
  34 C :   -0.108438
  35 C :   -0.066909
  36 S :    0.097780
  37 C :   -0.193285
  38 C :    0.120511
  39 C :   -0.025359
  40 C :    0.124835
  41 C :   -0.118359
  42 S :    0.125681
  43 C :   -0.170996
  44 C :   -0.012897
  45 S :    0.091162
  46 C :   -0.200490
  47 C :    0.117517
  48 C :    0.020308
  49 C :    0.114216
  50 C :   -0.135665
  51 S :    0.122936
  52 H :    0.019563
  53 H :    0.037101
  54 H :    0.021940
  55 H :    0.035185
  56 H :   -0.015538
  57 H :    0.036859
  58 H :    0.031543
  59 H :    0.037107
  60 H :   -0.010671
  61 H :   -0.014379
  62 H :    0.005916
  63 H :    0.038124
  64 H :    0.022962
  65 H :    0.037820
  66 H :   -0.022537
  67 H :    0.035061
  68 H :    0.021815
  69 H :    0.037709
  70 H :   -0.027166
  71 H :    0.016831
Sum of atomic charges:   -0.0000000

LOEWDIN ATOMIC CHARGES
----------------------
   0 C :   -0.213298
   1 C :   -0.189052
   2 S :    0.363641
   3 C :   -0.138509
   4 C :   -0.059388
   5 C :   -0.083287
   6 C :   -0.076958
   7 C :   -0.197929
   8 S :    0.442460
   9 C :   -0.196555
  10 C :   -0.197277
  11 S :    0.375288
  12 C :   -0.135207
  13 C :   -0.058565
  14 C :   -0.075262
  15 C :   -0.061391
  16 C :   -0.200887
  17 S :    0.432175
  18 C :   -0.171760
  19 C :   -0.038360
  20 C :   -0.070974
  21 C :   -0.187357
  22 S :    0.455036
  23 C :   -0.182379
  24 C :   -0.073718
  25 C :    0.088282
  26 C :   -0.107856
  27 C :   -0.011765
  28 N :   -0.044892
  29 C :   -0.017444
  30 N :   -0.035617
  31 C :   -0.040543
  32 C :   -0.178066
  33 S :    0.459939
  34 C :   -0.217631
  35 C :   -0.183002
  36 S :    0.390162
  37 C :   -0.141212
  38 C :   -0.058642
  39 C :   -0.079019
  40 C :   -0.069283
  41 C :   -0.187819
  42 S :    0.419616
  43 C :   -0.211577
  44 C :   -0.189572
  45 S :    0.383409
  46 C :   -0.143931
  47 C :   -0.059344
  48 C :   -0.070089
  49 C :   -0.075339
  50 C :   -0.196212
  51 S :    0.436824
  52 H :    0.025271
  53 H :    0.039216
  54 H :    0.038564
  55 H :    0.038768
  56 H :    0.019111
  57 H :    0.039691
  58 H :    0.042506
  59 H :    0.039917
  60 H :    0.031140
  61 H :    0.035420
  62 H :    0.028618
  63 H :    0.040055
  64 H :    0.039049
  65 H :    0.040114
  66 H :    0.012465
  67 H :    0.038511
  68 H :    0.038837
  69 H :    0.039367
  70 H :    0.029348
  71 H :    0.024169

  Mayer bond orders larger than 0.100000
B(  0-C ,  1-C ) :   1.5462 B(  0-C ,  8-S ) :   1.1505 B(  0-C , 52-H ) :   0.9778
B(  1-C ,  2-S ) :   1.0162 B(  1-C ,  6-C ) :   1.2309 B(  2-S ,  3-C ) :   1.0739
B(  3-C ,  4-C ) :   1.0728 B(  3-C ,  5-C ) :   1.6856 B(  4-C , 53-H ) :   0.9481
B(  4-C , 54-H ) :   0.9575 B(  4-C , 55-H ) :   0.9482 B(  5-C ,  6-C ) :   1.1369
B(  5-C , 56-H ) :   0.9840 B(  6-C ,  7-C ) :   1.4173 B(  7-C ,  8-S ) :   1.1273
B(  7-C ,  9-C ) :   1.2006 B(  9-C , 10-C ) :   1.5043 B(  9-C , 16-C ) :   0.1115
B(  9-C , 17-S ) :   1.1196 B( 10-C , 11-S ) :   1.0370 B( 10-C , 15-C ) :   1.2487
B( 11-S , 12-C ) :   1.0638 B( 12-C , 13-C ) :   1.0696 B( 12-C , 14-C ) :   1.6911
B( 13-C , 57-H ) :   0.9478 B( 13-C , 58-H ) :   0.9566 B( 13-C , 59-H ) :   0.9480
B( 14-C , 15-C ) :   1.1196 B( 14-C , 60-H ) :   0.9949 B( 15-C , 16-C ) :   1.4416
B( 16-C , 17-S ) :   1.0881 B( 16-C , 18-C ) :   1.1619 B( 18-C , 19-C ) :   1.4585
B( 18-C , 22-S ) :   1.0921 B( 19-C , 20-C ) :   1.2991 B( 19-C , 61-H ) :   0.9928
B( 20-C , 21-C ) :   1.4405 B( 20-C , 25-C ) :   0.9942 B( 21-C , 22-S ) :   1.1068
B( 21-C , 23-C ) :   1.1981 B( 23-C , 24-C ) :   1.4397 B( 23-C , 33-S ) :   1.1126
B( 24-C , 25-C ) :   0.9968 B( 24-C , 31-C ) :   1.2995 B( 25-C , 26-C ) :   1.7030
B( 26-C , 27-C ) :   1.1334 B( 26-C , 29-C ) :   1.1365 B( 27-C , 28-N ) :   2.9982
B( 29-C , 30-N ) :   2.9893 B( 31-C , 32-C ) :   1.4781 B( 31-C , 62-H ) :   0.9810
B( 32-C , 33-S ) :   1.0896 B( 32-C , 34-C ) :   1.1564 B( 34-C , 35-C ) :   1.5571
B( 34-C , 41-C ) :   0.1237 B( 34-C , 42-S ) :   1.1012 B( 35-C , 36-S ) :   1.0520
B( 35-C , 40-C ) :   1.2307 B( 36-S , 37-C ) :   1.0588 B( 37-C , 38-C ) :   1.0704
B( 37-C , 39-C ) :   1.7034 B( 38-C , 63-H ) :   0.9474 B( 38-C , 64-H ) :   0.9560
B( 38-C , 65-H ) :   0.9473 B( 39-C , 40-C ) :   1.1212 B( 39-C , 66-H ) :   0.9781
B( 40-C , 41-C ) :   1.4537 B( 41-C , 42-S ) :   1.1095 B( 41-C , 43-C ) :   1.1414
B( 43-C , 44-C ) :   1.5525 B( 43-C , 50-C ) :   0.1092 B( 43-C , 51-S ) :   1.1404
B( 44-C , 45-S ) :   1.0360 B( 44-C , 49-C ) :   1.2251 B( 45-S , 46-C ) :   1.0533
B( 46-C , 47-C ) :   1.0711 B( 46-C , 48-C ) :   1.7063 B( 47-C , 67-H ) :   0.9486
B( 47-C , 68-H ) :   0.9570 B( 47-C , 69-H ) :   0.9486 B( 48-C , 49-C ) :   1.0960
B( 48-C , 70-H ) :   0.9997 B( 49-C , 50-C ) :   1.4919 B( 50-C , 51-S ) :   1.1465
B( 50-C , 71-H ) :   0.9700

-----------------------------------------------------------------------------
         ABSORPTION SPECTRUM VIA TRANSITION ELECTRIC DIPOLE MOMENTS
-----------------------------------------------------------------------------
State   Energy  Wavelength   fosc         T2         TX        TY        TZ
        (cm-1)    (nm)                  (au**2)     (au)      (au)      (au)
-----------------------------------------------------------------------------
   0    7979.0   1253.3   0.154683304   6.38219  -0.10655   2.40862   0.75457
   1   15850.0    630.9   0.014495852   0.30109  -0.14066   0.01160   0.53025
   2   19377.8    516.1   1.729513613  29.38292  -0.22635   5.07959   1.87868
   3   23154.0    431.9   0.027109457   0.38545   0.12066  -0.40715  -0.45290
   4   23709.5    421.8   0.693429968   9.62845   0.86139   1.58583  -2.52420
   5   26725.2    374.2   0.044150344   0.54386  -0.14200  -0.40092   0.60246
   6   27435.8    364.5   0.009222918   0.11067   0.10967  -0.18336  -0.25499
   7   28587.5    349.8   0.026438022   0.30446  -0.08814  -0.54179   0.05611
   8   29418.7    339.9   0.006029885   0.06748   0.10003  -0.10361  -0.21619
   9   29793.4    335.6   0.009615902   0.10625   0.07488   0.10350   0.29989
  10   30645.4    326.3   0.037403893   0.40182  -0.25253   0.23518   0.53173
  11   30803.3    324.6   0.024414758   0.26093   0.08343   0.33279  -0.37845
  12   31311.1    319.4   0.302919929   3.18497  -0.64322  -0.38426   1.61975
  13   31518.0    317.3   0.059368609   0.62012  -0.16997  -0.28094   0.71575
  14   32178.4    310.8   0.042137155   0.43110  -0.04604  -0.62909   0.18229
  15   32621.1    306.6   0.027589464   0.27843  -0.18018  -0.26057   0.42199
  16   33019.6    302.9   0.101734458   1.01431   0.12281  -0.99912  -0.03147
  17   33558.2    298.0   0.190379910   1.86766  -0.05947   1.35890   0.13237
  18   33783.0    296.0   0.082085364   0.79991  -0.29365  -0.50193   0.67952
  19   34000.8    294.1   0.139368227   1.34943  -0.24617  -0.32577   1.08752
  20   34648.9    288.6   0.031220741   0.29664  -0.12711   0.43161   0.30691
  21   35472.1    281.9   0.017153537   0.15920   0.07836  -0.37858  -0.09866
  22   35891.8    278.6   0.201459418   1.84785  -0.43408   0.28558   1.25613
  23   37097.1    269.6   0.070397703   0.62473  -0.09394  -0.76068   0.19305
  24   37640.3    265.7   0.001216813   0.01064   0.04798   0.08446  -0.03474
  25   38241.1    261.5   0.046106028   0.39692   0.09669  -0.49485  -0.37776
  26   38563.2    259.3   0.089200100   0.76150  -0.21087  -0.35569   0.76845
  27   38723.1    258.2   0.004040506   0.03435  -0.02863  -0.06557   0.17097
  28   38930.5    256.9   0.100742945   0.85192   0.13305   0.82233  -0.39748
  29   39437.8    253.6   0.156100607   1.30307   0.07147  -0.84376   0.76552
  30   39548.4    252.9   0.054024428   0.44971   0.17061   0.05704  -0.64603
  31   39747.1    251.6   0.047815800   0.39604   0.13944   0.12917  -0.59993
  32   40302.3    248.1   0.248324192   2.02845   0.55083  -0.12210  -1.30772

FINAL SINGLE POINT ENERGY     -5624.333155571397

DIPOLE MOMENT
-------------
                                X             Y             Z
Electronic contribution:     -5.28223      23.27494       7.17039
Nuclear contribution   :      4.86748     -24.98176      -5.88326
                        -----------------------------------------
Total Dipole Moment    :     -0.41475      -1.70681       1.28713
                        -----------------------------------------
Magnitude (a.u.)       :      2.17760
Magnitude (Debye)      :      5.53501

Rotational constants in cm-1:     0.002439     0.000421     0.000361
Rotational constants in MHz :    73.111015    12.622526    10.824126

                             ****ORCA TERMINATED NORMALLY****
TOTAL RUN TIME: 0 days 0 hours 5 minutes 25 seconds 760 msec
