                         Program Version 4.2.0 -  RELEASE  -
|  1> # ORCA input file
|  2> # SCF done       -196.652930318377          0.000716734845
|  3> ! CAM-B3LYP def2-SVP def2/J RIJCOSX Grid4 TightSCF
|  4> %maxcore 5000
|  5> %tddft
|  6>     Mode sTDDFT
|  7>     Ethresh 5.0
|  8>     maxcore 5000
|  9> end
| 10>
| 11> %pal
| 12>   nprocs 6
| 13>   end
| 14> * xyz 0 1
| 15>    C        6.29451        -5.13502         9.72161
| 16>    C        5.60432        -4.44432        10.67851
| 17>    F        5.88980        -4.64823        11.97835
| 18>    C        4.59958        -3.52108        10.36075
| 19>    C        4.29671        -3.30004         9.04568
| 20>    C        4.97733        -3.98379         8.01800
| 21>    C        5.99382        -4.92135         8.36266
| 22>    C        6.68255        -5.62927         7.34960
| 23>    C        6.36644        -5.39962         6.03898
| 24>    C        5.36231        -4.44752         5.69836
| 25>    C        4.67581        -3.75837         6.65522
| 26>    C        5.24688        -4.36841         4.22813
| 27>    O        4.46910        -3.70695         3.57644
| 28>    C        6.33434        -5.23539         3.70478
| 29>    C        6.86898        -5.99809         4.80598
| 30>    C        7.49719        -7.21724         4.71775
| 31>    C        7.67957        -7.90530         3.50211
| 32>    N        7.79112        -8.50911         2.53089
| 33>    C        7.93398        -7.95764         5.83229
| 34>    N        8.32992        -8.58917         6.70607
| 35>    C        6.68489        -5.16426         2.38518
| 36>    C        7.89512        -5.55964         1.76416
| 37>    C        7.94897        -5.85119         0.41497
| 38>    C        9.06509        -6.34761        -0.24231
| 39>    C       10.30525        -6.63899         0.48816
| 40>    C       10.51825        -6.31845         1.78233
| 41>    S        9.33661        -5.58448         2.78054
| 42>    C       11.15163        -7.30143        -0.44287
| 43>    C       10.49437        -7.42604        -1.66819
| 44>    C       11.28675        -8.08545        -2.63427
| 45>    C       12.49619        -8.43790        -2.12702
| 46>    S       12.72421        -7.98570        -0.46910
| 47>    C        9.20341        -6.80133        -1.57684
| 48>    C        8.31835        -6.70305        -2.66919
| 49>    C        7.32778        -5.77852        -2.83655
| 50>    C        6.46630        -5.74139        -3.94918
| 51>    S        5.63550        -4.25730        -4.35482
| 52>    C        4.91090        -4.92843        -5.79472
| 53>    C        5.27430        -6.26088        -5.90710
| 54>    C        6.14481        -6.73087        -4.88570
| 55>    C        6.44153        -8.10401        -5.04637
| 56>    C        5.84482        -8.63706        -6.15081
| 57>    C        5.94441       -10.02524        -6.60120
| 58>    O        6.62254       -10.86933        -6.06768
| 59>    O        5.18316       -10.23659        -7.68219
| 60>    C        5.18986       -11.55372        -8.20841
| 61>    S        4.87736        -7.49818        -7.05528
| 62>    C        4.12860        -4.15291        -6.67828
| 63>    C        3.46589        -4.59517        -7.81286
| 64>    C        2.84199        -3.55197        -8.49094
| 65>    C        3.02800        -2.30026        -7.87523
| 66>    S        3.96030        -2.41578        -6.44708
| 67>    C        2.39199        -1.31191        -8.66320
| 68>    C        1.79862        -1.93447        -9.77452
| 69>    C        2.05356        -3.36400        -9.69841
| 70>    C        1.64580        -4.32468       -10.57644
| 71>    C        1.95997        -5.68897       -10.40208
| 72>    N        2.21008        -6.80040       -10.27127
| 73>    C        0.88072        -4.02057       -11.72209
| 74>    N        0.25821        -3.78177       -12.65510
| 75>    C        1.17169        -1.03435       -10.63578
| 76>    C        1.28629         0.27204       -10.19673
| 77>    S        2.17433         0.38575        -8.68184
| 78>    C        0.80569         1.44184       -10.83399
| 79>    C        0.95986         2.75710       -10.43001
| 80>    C        0.38047         3.65259       -11.32076
| 81>    C       -0.22077         3.02182       -12.40668
| 82>    S       -0.08030         1.31488       -12.34465
| 83>    C       -0.77547         4.00776       -13.26295
| 84>    C       -0.52762         5.26337       -12.72696
| 85>    C        0.23837         5.15358       -11.42922
| 86>    C       -0.56358         5.72449       -10.25675
| 87>    C        1.60674         5.83321       -11.53139
| 88>    C       -1.04373         6.29532       -13.52195
| 89>    C       -1.66734         5.80880       -14.63452
| 90>    S       -1.64283         4.08528       -14.74361
| 91>    H        7.05939        -5.84197        10.00279
| 92>    H        4.08813        -3.00606        11.15842
| 93>    H        3.52639        -2.59309         8.77630
| 94>    H        7.45070        -6.33010         7.63614
| 95>    H        3.90992        -3.04938         6.37841
| 96>    H        5.95400        -4.68213         1.74291
| 97>    H        7.01609        -5.77977        -0.12713
| 98>    H       11.45417        -6.50725         2.28379
| 99>    H       10.98398        -8.29329        -3.64435
|100>    H       13.29489        -8.94889        -2.62809
|101>    H        8.51762        -7.38451        -3.48462
|102>    H        7.23632        -4.95924        -2.13711
|103>    H        7.03780        -8.70057        -4.38149
|104>    H        4.50948       -11.54321        -9.05562
|105>    H        4.85333       -12.26519        -7.45135
|106>    H        6.19765       -11.82940        -8.52619
|107>    H        3.44919        -5.62501        -8.11723
|108>    H        0.66119        -1.29646       -11.54494
|109>    H        1.47876         3.02354        -9.52627
|110>    H       -1.53330         5.23653       -10.18961
|111>    H       -0.71899         6.79155       -10.39547
|112>    H       -0.02727         5.56560        -9.32440
|113>    H        2.17108         5.42189       -12.36530
|114>    H        2.17178         5.67574       -10.61594
|115>    H        1.48199         6.90176       -11.68815
|116>    H       -0.96707         7.34414       -13.29917
|117>    H       -2.14974         6.36491       -15.41368
|118> *
|119>
|120>                          ****END OF INPUT****

CARTESIAN COORDINATES (ANGSTROEM)
---------------------------------
  C      6.294510   -5.135020    9.721610
  C      5.604320   -4.444320   10.678510
  F      5.889800   -4.648230   11.978350
  C      4.599580   -3.521080   10.360750
  C      4.296710   -3.300040    9.045680
  C      4.977330   -3.983790    8.018000
  C      5.993820   -4.921350    8.362660
  C      6.682550   -5.629270    7.349600
  C      6.366440   -5.399620    6.038980
  C      5.362310   -4.447520    5.698360
  C      4.675810   -3.758370    6.655220
  C      5.246880   -4.368410    4.228130
  O      4.469100   -3.706950    3.576440
  C      6.334340   -5.235390    3.704780
  C      6.868980   -5.998090    4.805980
  C      7.497190   -7.217240    4.717750
  C      7.679570   -7.905300    3.502110
  N      7.791120   -8.509110    2.530890
  C      7.933980   -7.957640    5.832290
  N      8.329920   -8.589170    6.706070
  C      6.684890   -5.164260    2.385180
  C      7.895120   -5.559640    1.764160
  C      7.948970   -5.851190    0.414970
  C      9.065090   -6.347610   -0.242310
  C     10.305250   -6.638990    0.488160
  C     10.518250   -6.318450    1.782330
  S      9.336610   -5.584480    2.780540
  C     11.151630   -7.301430   -0.442870
  C     10.494370   -7.426040   -1.668190
  C     11.286750   -8.085450   -2.634270
  C     12.496190   -8.437900   -2.127020
  S     12.724210   -7.985700   -0.469100
  C      9.203410   -6.801330   -1.576840
  C      8.318350   -6.703050   -2.669190
  C      7.327780   -5.778520   -2.836550
  C      6.466300   -5.741390   -3.949180
  S      5.635500   -4.257300   -4.354820
  C      4.910900   -4.928430   -5.794720
  C      5.274300   -6.260880   -5.907100
  C      6.144810   -6.730870   -4.885700
  C      6.441530   -8.104010   -5.046370
  C      5.844820   -8.637060   -6.150810
  C      5.944410  -10.025240   -6.601200
  O      6.622540  -10.869330   -6.067680
  O      5.183160  -10.236590   -7.682190
  C      5.189860  -11.553720   -8.208410
  S      4.877360   -7.498180   -7.055280
  C      4.128600   -4.152910   -6.678280
  C      3.465890   -4.595170   -7.812860
  C      2.841990   -3.551970   -8.490940
  C      3.028000   -2.300260   -7.875230
  S      3.960300   -2.415780   -6.447080
  C      2.391990   -1.311910   -8.663200
  C      1.798620   -1.934470   -9.774520
  C      2.053560   -3.364000   -9.698410
  C      1.645800   -4.324680  -10.576440
  C      1.959970   -5.688970  -10.402080
  N      2.210080   -6.800400  -10.271270
  C      0.880720   -4.020570  -11.722090
  N      0.258210   -3.781770  -12.655100
  C      1.171690   -1.034350  -10.635780
  C      1.286290    0.272040  -10.196730
  S      2.174330    0.385750   -8.681840
  C      0.805690    1.441840  -10.833990
  C      0.959860    2.757100  -10.430010
  C      0.380470    3.652590  -11.320760
  C     -0.220770    3.021820  -12.406680
  S     -0.080300    1.314880  -12.344650
  C     -0.775470    4.007760  -13.262950
  C     -0.527620    5.263370  -12.726960
  C      0.238370    5.153580  -11.429220
  C     -0.563580    5.724490  -10.256750
  C      1.606740    5.833210  -11.531390
  C     -1.043730    6.295320  -13.521950
  C     -1.667340    5.808800  -14.634520
  S     -1.642830    4.085280  -14.743610
  H      7.059390   -5.841970   10.002790
  H      4.088130   -3.006060   11.158420
  H      3.526390   -2.593090    8.776300
  H      7.450700   -6.330100    7.636140
  H      3.909920   -3.049380    6.378410
  H      5.954000   -4.682130    1.742910
  H      7.016090   -5.779770   -0.127130
  H     11.454170   -6.507250    2.283790
  H     10.983980   -8.293290   -3.644350
  H     13.294890   -8.948890   -2.628090
  H      8.517620   -7.384510   -3.484620
  H      7.236320   -4.959240   -2.137110
  H      7.037800   -8.700570   -4.381490
  H      4.509480  -11.543210   -9.055620
  H      4.853330  -12.265190   -7.451350
  H      6.197650  -11.829400   -8.526190
  H      3.449190   -5.625010   -8.117230
  H      0.661190   -1.296460  -11.544940
  H      1.478760    3.023540   -9.526270
  H     -1.533300    5.236530  -10.189610
  H     -0.718990    6.791550  -10.395470
  H     -0.027270    5.565600   -9.324400
  H      2.171080    5.421890  -12.365300
  H      2.171780    5.675740  -10.615940
  H      1.481990    6.901760  -11.688150
  H     -0.967070    7.344140  -13.299170
  H     -2.149740    6.364910  -15.413680

 Total Charge           Charge          ....    0
 Multiplicity           Mult            ....    1
 Number of Electrons    NEL             ....  576
 Basis Dimension        Dim             .... 1231

ORBITAL ENERGIES
----------------

  NO   OCC          E(Eh)            E(eV)
   0   2.0000     -88.985450     -2421.4172
   1   2.0000     -88.982768     -2421.3442
   2   2.0000     -88.973859     -2421.1018
   3   2.0000     -88.973163     -2421.0828
   4   2.0000     -88.963946     -2420.8320
   5   2.0000     -88.961982     -2420.7786
   6   2.0000     -88.960589     -2420.7407
   7   2.0000     -88.957718     -2420.6626
   8   2.0000     -24.781920      -674.3503
   9   2.0000     -19.262119      -524.1489
  10   2.0000     -19.208319      -522.6849
  11   2.0000     -19.203647      -522.5578
  12   2.0000     -14.425668      -392.5424
  13   2.0000     -14.425556      -392.5393
  14   2.0000     -14.409755      -392.1094
  15   2.0000     -14.406608      -392.0237
  16   2.0000     -10.404122      -283.1106
  17   2.0000     -10.365335      -282.0551
  18   2.0000     -10.360087      -281.9123
  19   2.0000     -10.359627      -281.8998
  20   2.0000     -10.346407      -281.5400
  21   2.0000     -10.335432      -281.2414
  22   2.0000     -10.333467      -281.1879
  23   2.0000     -10.330106      -281.0965
  24   2.0000     -10.326840      -281.0076
  25   2.0000     -10.325961      -280.9837
  26   2.0000     -10.325928      -280.9828
  27   2.0000     -10.323979      -280.9298
  28   2.0000     -10.323261      -280.9102
  29   2.0000     -10.323144      -280.9070
  30   2.0000     -10.322915      -280.9008
  31   2.0000     -10.321250      -280.8555
  32   2.0000     -10.321189      -280.8538
  33   2.0000     -10.318376      -280.7773
  34   2.0000     -10.316621      -280.7295
  35   2.0000     -10.312594      -280.6200
  36   2.0000     -10.310697      -280.5683
  37   2.0000     -10.310131      -280.5529
  38   2.0000     -10.310030      -280.5502
  39   2.0000     -10.309571      -280.5377
  40   2.0000     -10.309320      -280.5309
  41   2.0000     -10.302063      -280.3334
  42   2.0000     -10.301417      -280.3158
  43   2.0000     -10.300880      -280.3012
  44   2.0000     -10.300444      -280.2893
  45   2.0000     -10.300181      -280.2822
  46   2.0000     -10.296563      -280.1837
  47   2.0000     -10.296385      -280.1789
  48   2.0000     -10.296370      -280.1785
  49   2.0000     -10.296304      -280.1767
  50   2.0000     -10.296161      -280.1728
  51   2.0000     -10.296018      -280.1689
  52   2.0000     -10.295888      -280.1653
  53   2.0000     -10.295102      -280.1440
  54   2.0000     -10.294348      -280.1234
  55   2.0000     -10.293855      -280.1100
  56   2.0000     -10.293705      -280.1060
  57   2.0000     -10.293020      -280.0873
  58   2.0000     -10.292371      -280.0697
  59   2.0000     -10.292270      -280.0669
  60   2.0000     -10.291611      -280.0490
  61   2.0000     -10.291406      -280.0434
  62   2.0000     -10.291323      -280.0411
  63   2.0000     -10.290349      -280.0146
  64   2.0000     -10.290204      -280.0107
  65   2.0000     -10.288886      -279.9748
  66   2.0000     -10.284775      -279.8629
  67   2.0000     -10.284735      -279.8619
  68   2.0000     -10.281982      -279.7870
  69   2.0000     -10.279993      -279.7328
  70   2.0000     -10.278901      -279.7031
  71   2.0000     -10.273613      -279.5592
  72   2.0000     -10.272090      -279.5178
  73   2.0000     -10.268789      -279.4280
  74   2.0000     -10.264962      -279.3238
  75   2.0000     -10.264882      -279.3216
  76   2.0000      -8.080135      -219.8717
  77   2.0000      -8.077224      -219.7924
  78   2.0000      -8.068756      -219.5620
  79   2.0000      -8.068377      -219.5517
  80   2.0000      -8.058752      -219.2898
  81   2.0000      -8.057517      -219.2562
  82   2.0000      -8.055257      -219.1947
  83   2.0000      -8.053094      -219.1358
  84   2.0000      -6.049482      -164.6148
  85   2.0000      -6.046544      -164.5348
  86   2.0000      -6.045298      -164.5009
  87   2.0000      -6.042421      -164.4226
  88   2.0000      -6.042307      -164.4195
  89   2.0000      -6.039444      -164.3416
  90   2.0000      -6.038408      -164.3134
  91   2.0000      -6.037745      -164.2954
  92   2.0000      -6.033835      -164.1890
  93   2.0000      -6.033613      -164.1830
  94   2.0000      -6.030493      -164.0981
  95   2.0000      -6.030392      -164.0953
  96   2.0000      -6.028146      -164.0342
  97   2.0000      -6.026946      -164.0015
  98   2.0000      -6.025038      -163.9496
  99   2.0000      -6.024113      -163.9245
 100   2.0000      -6.022672      -163.8852
 101   2.0000      -6.022478      -163.8799
 102   2.0000      -6.020725      -163.8323
 103   2.0000      -6.020678      -163.8310
 104   2.0000      -6.019536      -163.7999
 105   2.0000      -6.018135      -163.7618
 106   2.0000      -6.016567      -163.7191
 107   2.0000      -6.015317      -163.6851
 108   2.0000      -1.296573       -35.2815
 109   2.0000      -1.193090       -32.4656
 110   2.0000      -1.122932       -30.5565
 111   2.0000      -1.097644       -29.8684
 112   2.0000      -1.038597       -28.2617
 113   2.0000      -1.019041       -27.7295
 114   2.0000      -1.015793       -27.6411
 115   2.0000      -1.014794       -27.6140
 116   2.0000      -1.010170       -27.4881
 117   2.0000      -1.009808       -27.4783
 118   2.0000      -1.003097       -27.2956
 119   2.0000      -0.994713       -27.0675
 120   2.0000      -0.990975       -26.9658
 121   2.0000      -0.988173       -26.8895
 122   2.0000      -0.976847       -26.5814
 123   2.0000      -0.970436       -26.4069
 124   2.0000      -0.968877       -26.3645
 125   2.0000      -0.957686       -26.0600
 126   2.0000      -0.950065       -25.8526
 127   2.0000      -0.936412       -25.4811
 128   2.0000      -0.923006       -25.1163
 129   2.0000      -0.921327       -25.0706
 130   2.0000      -0.912848       -24.8399
 131   2.0000      -0.906102       -24.6563
 132   2.0000      -0.894237       -24.3334
 133   2.0000      -0.887583       -24.1524
 134   2.0000      -0.879864       -23.9423
 135   2.0000      -0.867913       -23.6171
 136   2.0000      -0.865836       -23.5606
 137   2.0000      -0.856538       -23.3076
 138   2.0000      -0.854722       -23.2582
 139   2.0000      -0.853723       -23.2310
 140   2.0000      -0.848925       -23.1004
 141   2.0000      -0.840464       -22.8702
 142   2.0000      -0.829824       -22.5806
 143   2.0000      -0.827647       -22.5214
 144   2.0000      -0.821462       -22.3531
 145   2.0000      -0.818992       -22.2859
 146   2.0000      -0.813515       -22.1369
 147   2.0000      -0.805456       -21.9176
 148   2.0000      -0.803417       -21.8621
 149   2.0000      -0.791235       -21.5306
 150   2.0000      -0.777631       -21.1604
 151   2.0000      -0.776400       -21.1269
 152   2.0000      -0.769451       -20.9378
 153   2.0000      -0.758176       -20.6310
 154   2.0000      -0.753395       -20.5009
 155   2.0000      -0.738748       -20.1024
 156   2.0000      -0.726010       -19.7557
 157   2.0000      -0.717431       -19.5223
 158   2.0000      -0.714773       -19.4500
 159   2.0000      -0.708806       -19.2876
 160   2.0000      -0.704287       -19.1646
 161   2.0000      -0.699576       -19.0364
 162   2.0000      -0.697600       -18.9827
 163   2.0000      -0.686806       -18.6889
 164   2.0000      -0.676672       -18.4132
 165   2.0000      -0.674698       -18.3595
 166   2.0000      -0.673739       -18.3334
 167   2.0000      -0.667619       -18.1668
 168   2.0000      -0.653978       -17.7957
 169   2.0000      -0.644135       -17.5278
 170   2.0000      -0.639431       -17.3998
 171   2.0000      -0.637495       -17.3471
 172   2.0000      -0.633418       -17.2362
 173   2.0000      -0.631387       -17.1809
 174   2.0000      -0.628261       -17.0959
 175   2.0000      -0.625884       -17.0312
 176   2.0000      -0.622738       -16.9456
 177   2.0000      -0.620859       -16.8944
 178   2.0000      -0.615024       -16.7357
 179   2.0000      -0.610674       -16.6173
 180   2.0000      -0.604551       -16.4507
 181   2.0000      -0.602169       -16.3859
 182   2.0000      -0.595736       -16.2108
 183   2.0000      -0.590405       -16.0657
 184   2.0000      -0.583079       -15.8664
 185   2.0000      -0.580713       -15.8020
 186   2.0000      -0.571981       -15.5644
 187   2.0000      -0.569787       -15.5047
 188   2.0000      -0.566131       -15.4052
 189   2.0000      -0.565052       -15.3758
 190   2.0000      -0.558456       -15.1964
 191   2.0000      -0.557657       -15.1746
 192   2.0000      -0.554334       -15.0842
 193   2.0000      -0.554091       -15.0776
 194   2.0000      -0.552247       -15.0274
 195   2.0000      -0.545078       -14.8323
 196   2.0000      -0.541991       -14.7483
 197   2.0000      -0.539841       -14.6898
 198   2.0000      -0.538734       -14.6597
 199   2.0000      -0.533869       -14.5273
 200   2.0000      -0.528827       -14.3901
 201   2.0000      -0.526046       -14.3145
 202   2.0000      -0.525834       -14.3087
 203   2.0000      -0.522961       -14.2305
 204   2.0000      -0.519996       -14.1498
 205   2.0000      -0.519133       -14.1263
 206   2.0000      -0.516554       -14.0562
 207   2.0000      -0.516248       -14.0478
 208   2.0000      -0.515292       -14.0218
 209   2.0000      -0.508630       -13.8405
 210   2.0000      -0.504864       -13.7381
 211   2.0000      -0.503066       -13.6891
 212   2.0000      -0.501983       -13.6596
 213   2.0000      -0.499928       -13.6037
 214   2.0000      -0.499430       -13.5902
 215   2.0000      -0.496383       -13.5073
 216   2.0000      -0.495170       -13.4743
 217   2.0000      -0.493245       -13.4219
 218   2.0000      -0.490268       -13.3409
 219   2.0000      -0.488618       -13.2960
 220   2.0000      -0.484007       -13.1705
 221   2.0000      -0.480260       -13.0685
 222   2.0000      -0.479930       -13.0596
 223   2.0000      -0.478011       -13.0073
 224   2.0000      -0.474898       -12.9226
 225   2.0000      -0.473292       -12.8789
 226   2.0000      -0.471378       -12.8269
 227   2.0000      -0.467384       -12.7182
 228   2.0000      -0.466719       -12.7001
 229   2.0000      -0.465132       -12.6569
 230   2.0000      -0.462953       -12.5976
 231   2.0000      -0.457976       -12.4622
 232   2.0000      -0.457131       -12.4392
 233   2.0000      -0.456053       -12.4098
 234   2.0000      -0.453692       -12.3456
 235   2.0000      -0.452163       -12.3040
 236   2.0000      -0.450364       -12.2550
 237   2.0000      -0.449302       -12.2261
 238   2.0000      -0.447100       -12.1662
 239   2.0000      -0.443647       -12.0723
 240   2.0000      -0.441339       -12.0094
 241   2.0000      -0.439116       -11.9490
 242   2.0000      -0.436887       -11.8883
 243   2.0000      -0.435869       -11.8606
 244   2.0000      -0.435803       -11.8588
 245   2.0000      -0.434865       -11.8333
 246   2.0000      -0.433892       -11.8068
 247   2.0000      -0.433422       -11.7940
 248   2.0000      -0.432709       -11.7746
 249   2.0000      -0.428179       -11.6513
 250   2.0000      -0.427489       -11.6326
 251   2.0000      -0.425447       -11.5770
 252   2.0000      -0.425101       -11.5676
 253   2.0000      -0.422891       -11.5074
 254   2.0000      -0.421684       -11.4746
 255   2.0000      -0.421092       -11.4585
 256   2.0000      -0.419328       -11.4105
 257   2.0000      -0.417282       -11.3548
 258   2.0000      -0.414751       -11.2859
 259   2.0000      -0.414410       -11.2767
 260   2.0000      -0.410910       -11.1814
 261   2.0000      -0.403569       -10.9817
 262   2.0000      -0.403003       -10.9663
 263   2.0000      -0.401266       -10.9190
 264   2.0000      -0.397377       -10.8132
 265   2.0000      -0.391978       -10.6663
 266   2.0000      -0.379613       -10.3298
 267   2.0000      -0.379172       -10.3178
 268   2.0000      -0.374529       -10.1915
 269   2.0000      -0.372645       -10.1402
 270   2.0000      -0.356608        -9.7038
 271   2.0000      -0.354287        -9.6406
 272   2.0000      -0.344129        -9.3642
 273   2.0000      -0.338684        -9.2161
 274   2.0000      -0.335801        -9.1376
 275   2.0000      -0.331717        -9.0265
 276   2.0000      -0.325231        -8.8500
 277   2.0000      -0.325092        -8.8462
 278   2.0000      -0.317800        -8.6478
 279   2.0000      -0.317043        -8.6272
 280   2.0000      -0.315496        -8.5851
 281   2.0000      -0.307624        -8.3709
 282   2.0000      -0.299431        -8.1479
 283   2.0000      -0.294342        -8.0095
 284   2.0000      -0.280897        -7.6436
 285   2.0000      -0.266346        -7.2476
 286   2.0000      -0.239912        -6.5283
 287   2.0000      -0.217320        -5.9136
 288   0.0000      -0.106943        -2.9101
 289   0.0000      -0.096876        -2.6361
 290   0.0000      -0.063372        -1.7244
 291   0.0000      -0.049194        -1.3386
 292   0.0000      -0.039879        -1.0852

MULLIKEN ATOMIC CHARGES
-----------------------
   0 C :   -0.098524
   1 C :    0.302224
   2 F :   -0.192304
   3 C :   -0.029186
   4 C :   -0.010992
   5 C :    0.097551
   6 C :    0.100341
   7 C :   -0.086990
   8 C :    0.043669
   9 C :    0.011382
  10 C :   -0.082204
  11 C :    0.137809
  12 O :   -0.147342
  13 C :   -0.135870
  14 C :    0.262684
  15 C :   -0.331009
  16 C :   -0.206641
  17 N :    0.167635
  18 C :   -0.175728
  19 N :    0.148123
  20 C :    0.031472
  21 C :   -0.111677
  22 C :    0.006131
  23 C :    0.050671
  24 C :    0.079175
  25 C :   -0.122211
  26 S :    0.139548
  27 C :   -0.091869
  28 C :    0.046108
  29 C :    0.014793
  30 C :   -0.069338
  31 S :    0.141765
  32 C :    0.098564
  33 C :   -0.047591
  34 C :    0.037568
  35 C :   -0.128528
  36 S :    0.150738
  37 C :   -0.123515
  38 C :   -0.050922
  39 C :    0.135957
  40 C :   -0.026123
  41 C :   -0.110035
  42 C :    0.201224
  43 O :   -0.198269
  44 O :   -0.304378
  45 C :    0.188318
  46 S :    0.158906
  47 C :   -0.067148
  48 C :   -0.062548
  49 C :    0.001244
  50 C :   -0.096668
  51 S :    0.180600
  52 C :   -0.106468
  53 C :    0.017309
  54 C :    0.307149
  55 C :   -0.301005
  56 C :   -0.185382
  57 N :    0.171265
  58 C :   -0.189151
  59 N :    0.171965
  60 C :   -0.071868
  61 C :   -0.040284
  62 S :    0.172343
  63 C :   -0.061601
  64 C :   -0.068296
  65 C :    0.010272
  66 C :   -0.085025
  67 S :    0.150334
  68 C :   -0.106281
  69 C :   -0.016158
  70 C :   -0.108860
  71 C :    0.106682
  72 C :    0.103001
  73 C :    0.012522
  74 C :   -0.084565
  75 S :    0.143886
  76 H :   -0.002278
  77 H :    0.002030
  78 H :   -0.010313
  79 H :   -0.005969
  80 H :   -0.013265
  81 H :    0.027885
  82 H :   -0.006886
  83 H :    0.038950
  84 H :   -0.010679
  85 H :    0.031545
  86 H :   -0.013767
  87 H :   -0.012179
  88 H :    0.011445
  89 H :    0.043580
  90 H :    0.036007
  91 H :    0.033465
  92 H :    0.010669
  93 H :    0.010450
  94 H :   -0.021869
  95 H :    0.021873
  96 H :    0.009807
  97 H :    0.007380
  98 H :    0.022899
  99 H :    0.007735
 100 H :    0.010570
 101 H :   -0.021408
 102 H :    0.023943
Sum of atomic charges:   -0.0000000

LOEWDIN ATOMIC CHARGES
----------------------
   0 C :   -0.043068
   1 C :    0.092552
   2 F :   -0.066632
   3 C :   -0.038920
   4 C :    0.003794
   5 C :   -0.020139
   6 C :    0.003347
   7 C :    0.007199
   8 C :   -0.014732
   9 C :   -0.059137
  10 C :    0.032505
  11 C :    0.081890
  12 O :   -0.150518
  13 C :   -0.106409
  14 C :    0.055957
  15 C :   -0.147022
  16 C :   -0.035572
  17 N :   -0.057209
  18 C :   -0.019356
  19 N :   -0.057365
  20 C :    0.043409
  21 C :   -0.187047
  22 C :    0.028360
  23 C :   -0.031293
  24 C :   -0.049504
  25 C :   -0.126123
  26 S :    0.475007
  27 C :   -0.183084
  28 C :   -0.044979
  29 C :   -0.058361
  30 C :   -0.160978
  31 S :    0.433275
  32 C :   -0.014310
  33 C :   -0.017815
  34 C :   -0.038961
  35 C :   -0.164923
  36 S :    0.442903
  37 C :   -0.210834
  38 C :   -0.183022
  39 C :   -0.071860
  40 C :   -0.011142
  41 C :   -0.197712
  42 C :    0.066426
  43 O :   -0.175224
  44 O :   -0.095087
  45 C :    0.084086
  46 S :    0.439817
  47 C :   -0.184114
  48 C :   -0.035701
  49 C :   -0.072328
  50 C :   -0.178536
  51 S :    0.461010
  52 C :   -0.188659
  53 C :   -0.067343
  54 C :    0.084395
  55 C :   -0.102150
  56 C :   -0.017139
  57 N :   -0.032968
  58 C :   -0.016187
  59 N :   -0.033680
  60 C :   -0.045752
  61 C :   -0.169639
  62 S :    0.465496
  63 C :   -0.190130
  64 C :   -0.059284
  65 C :   -0.042443
  66 C :   -0.188935
  67 S :    0.445805
  68 C :   -0.205213
  69 C :   -0.042746
  70 C :   -0.033944
  71 C :   -0.024407
  72 C :   -0.024636
  73 C :   -0.063856
  74 C :   -0.182660
  75 S :    0.436771
  76 H :    0.042871
  77 H :    0.041189
  78 H :    0.035092
  79 H :    0.038553
  80 H :    0.038891
  81 H :    0.048650
  82 H :    0.041390
  83 H :    0.038209
  84 H :    0.032908
  85 H :    0.025460
  86 H :    0.032819
  87 H :    0.028602
  88 H :    0.040522
  89 H :    0.029934
  90 H :    0.025162
  91 H :    0.024241
  92 H :    0.028863
  93 H :    0.035099
  94 H :    0.024109
  95 H :    0.030497
  96 H :    0.023452
  97 H :    0.022292
  98 H :    0.030636
  99 H :    0.022300
 100 H :    0.023548
 101 H :    0.029721
 102 H :    0.021773

  Mayer bond orders larger than 0.100000
B(  0-C ,  1-C ) :   1.4394 B(  0-C ,  6-C ) :   1.2059 B(  0-C , 76-H ) :   1.0066
B(  1-C ,  2-F ) :   1.0867 B(  1-C ,  3-C ) :   1.2552 B(  3-C ,  4-C ) :   1.4599
B(  3-C , 77-H ) :   0.9931 B(  4-C ,  5-C ) :   1.2349 B(  4-C , 78-H ) :   0.9971
B(  5-C ,  6-C ) :   1.2586 B(  5-C , 10-C ) :   1.1907 B(  6-C ,  7-C ) :   1.1980
B(  7-C ,  8-C ) :   1.4665 B(  7-C , 79-H ) :   0.9950 B(  8-C ,  9-C ) :   1.2168
B(  8-C , 14-C ) :   0.9995 B(  9-C , 10-C ) :   1.4726 B(  9-C , 11-C ) :   0.9217
B( 10-C , 80-H ) :   1.0155 B( 11-C , 12-O ) :   2.2687 B( 11-C , 13-C ) :   0.9469
B( 13-C , 14-C ) :   1.0585 B( 13-C , 20-C ) :   1.5824 B( 14-C , 15-C ) :   1.6299
B( 15-C , 16-C ) :   1.1591 B( 15-C , 18-C ) :   1.1436 B( 16-C , 17-N ) :   3.0104
B( 18-C , 19-N ) :   2.9814 B( 20-C , 21-C ) :   1.1604 B( 20-C , 81-H ) :   0.9479
B( 21-C , 22-C ) :   1.4399 B( 21-C , 26-S ) :   1.0475 B( 22-C , 23-C ) :   1.2666
B( 22-C , 82-H ) :   0.9747 B( 23-C , 24-C ) :   1.0495 B( 23-C , 32-C ) :   1.3282
B( 24-C , 25-C ) :   1.5954 B( 24-C , 27-C ) :   1.1852 B( 25-C , 26-S ) :   1.1497
B( 25-C , 83-H ) :   0.9428 B( 27-C , 28-C ) :   1.4226 B( 27-C , 31-S ) :   1.0924
B( 28-C , 29-C ) :   1.2125 B( 28-C , 32-C ) :   1.1207 B( 29-C , 30-C ) :   1.5987
B( 29-C , 84-H ) :   0.9982 B( 30-C , 31-S ) :   1.1464 B( 30-C , 85-H ) :   0.9655
B( 32-C , 33-C ) :   1.1947 B( 33-C , 34-C ) :   1.5874 B( 33-C , 86-H ) :   0.9578
B( 34-C , 35-C ) :   1.1790 B( 34-C , 87-H ) :   0.9550 B( 35-C , 36-S ) :   1.1098
B( 35-C , 37-C ) :   0.1093 B( 35-C , 39-C ) :   1.3548 B( 36-S , 37-C ) :   1.1216
B( 37-C , 38-C ) :   1.5167 B( 37-C , 47-C ) :   1.1678 B( 38-C , 39-C ) :   1.2553
B( 38-C , 46-S ) :   1.0549 B( 39-C , 40-C ) :   1.1339 B( 40-C , 41-C ) :   1.6232
B( 40-C , 88-H ) :   1.0018 B( 41-C , 42-C ) :   0.9543 B( 41-C , 46-S ) :   1.0621
B( 42-C , 43-O ) :   2.1394 B( 42-C , 44-O ) :   1.2403 B( 44-O , 45-C ) :   0.9171
B( 45-C , 89-H ) :   0.9811 B( 45-C , 90-H ) :   0.9767 B( 45-C , 91-H ) :   0.9770
B( 47-C , 48-C ) :   1.4651 B( 47-C , 51-S ) :   1.0877 B( 48-C , 49-C ) :   1.3087
B( 48-C , 92-H ) :   0.9807 B( 49-C , 50-C ) :   1.4412 B( 49-C , 54-C ) :   0.9953
B( 50-C , 51-S ) :   1.1158 B( 50-C , 52-C ) :   1.1965 B( 52-C , 53-C ) :   1.4480
B( 52-C , 62-S ) :   1.1045 B( 53-C , 54-C ) :   0.9934 B( 53-C , 60-C ) :   1.2943
B( 54-C , 55-C ) :   1.7109 B( 55-C , 56-C ) :   1.1331 B( 55-C , 58-C ) :   1.1352
B( 56-C , 57-N ) :   2.9875 B( 58-C , 59-N ) :   2.9916 B( 60-C , 61-C ) :   1.4587
B( 60-C , 93-H ) :   0.9883 B( 61-C , 62-S ) :   1.1050 B( 61-C , 63-C ) :   1.1717
B( 63-C , 64-C ) :   1.4583 B( 63-C , 67-S ) :   1.1095 B( 64-C , 65-C ) :   1.3129
B( 64-C , 94-H ) :   0.9954 B( 65-C , 66-C ) :   1.5489 B( 65-C , 70-C ) :   0.9436
B( 66-C , 67-S ) :   1.0864 B( 66-C , 68-C ) :   1.1662 B( 68-C , 69-C ) :   1.5559
B( 68-C , 75-S ) :   1.0901 B( 69-C , 70-C ) :   0.9506 B( 69-C , 73-C ) :   1.2925
B( 70-C , 71-C ) :   1.0348 B( 70-C , 72-C ) :   1.0332 B( 71-C , 95-H ) :   0.9644
B( 71-C , 96-H ) :   0.9645 B( 71-C , 97-H ) :   0.9644 B( 72-C , 98-H ) :   0.9648
B( 72-C , 99-H ) :   0.9647 B( 72-C ,100-H ) :   0.9649 B( 73-C , 74-C ) :   1.5377
B( 73-C ,101-H ) :   1.0052 B( 74-C , 75-S ) :   1.1616 B( 74-C ,102-H ) :   0.9668

-----------------------------------------------------------------------------
         ABSORPTION SPECTRUM VIA TRANSITION ELECTRIC DIPOLE MOMENTS
-----------------------------------------------------------------------------
State   Energy  Wavelength   fosc         T2         TX        TY        TZ
        (cm-1)    (nm)                  (au**2)     (au)      (au)      (au)
-----------------------------------------------------------------------------
   0    8900.8   1123.5   0.369978927  13.68433   1.41217  -1.69822   2.96752
   1   11783.7    848.6   0.858100101  23.97345   0.62744  -0.15811   4.85333
   2   16653.9    600.5   0.039417513   0.77920   0.53370  -0.69722  -0.09080
   3   18719.3    534.2   0.419474640   7.37722   2.43572  -1.20147  -0.03114
   4   19749.5    506.3   0.385516457   6.42633  -1.39222   1.04092  -1.84514
   5   21375.7    467.8   0.093172092   1.43497   1.06358   0.44645   0.32317
   6   22554.1    443.4   0.139211956   2.03202  -0.76053   0.96204  -0.72670
   7   22894.8    436.8   0.086010272   1.23677   0.30531  -1.06106   0.13308
   8   23947.9    417.6   0.166762390   2.29248   0.93449  -1.07688   0.50944
   9   24719.9    404.5   0.467030899   6.21976  -1.24863   1.93471  -0.95792
  10   25408.1    393.6   0.507217090   6.57201  -0.03109   2.34222  -1.04166
  11   26135.5    382.6   0.060981886   0.76815  -0.45365   0.57321   0.48350
  12   27056.5    369.6   0.057818438   0.70351   0.64595  -0.50991   0.16204
  13   27364.7    365.4   0.022908882   0.27561  -0.18809   0.42854   0.23787
  14   27766.2    360.1   0.006337726   0.07514  -0.00028   0.27132   0.03912
  15   29042.2    344.3   0.045542002   0.51625   0.02865  -0.36970  -0.61543
  16   29376.1    340.4   0.085212572   0.95496   0.45752   0.77948   0.37154
  17   29845.0    335.1   0.049427590   0.54522  -0.30420   0.25664  -0.62195
  18   30416.2    328.8   0.035067019   0.37955   0.21022  -0.51673   0.26145
  19   30784.7    324.8   0.054372660   0.58146  -0.40982  -0.17318  -0.61928
  20   31118.3    321.4   0.040735110   0.43095  -0.49372   0.05675  -0.42893
  21   31373.2    318.7   0.129039554   1.35406   0.63228  -0.70887  -0.67215
  22   31838.0    314.1   0.096373891   0.99653  -0.44502  -0.23758  -0.86142
  23   31970.3    312.8   0.312155492   3.21440  -0.13748   1.75768   0.32568
  24   32306.5    309.5   0.011278999   0.11494   0.27143   0.18307   0.08802
  25   32496.5    307.7   0.257244491   2.60607  -0.91812   0.38989  -1.26929
  26   32788.0    305.0   0.148881388   1.49486  -0.23300  -0.37262  -1.14093
  27   33117.9    302.0   0.305424692   3.03611   0.29786   0.70782   1.56409
  28   33269.3    300.6   0.002679119   0.02651   0.10966   0.11977  -0.01190
  29   33443.4    299.0   0.172662986   1.69967  -0.62711  -0.04199   1.14221
  30   33573.3    297.9   0.290866737   2.85217  -0.89211   0.51454   1.33849
  31   33816.7    295.7   0.061629104   0.59997  -0.39466   0.60584  -0.27780
  32   34061.3    293.6   0.620616200   5.99843   0.92385  -1.57513  -1.63214
  33   34296.2    291.6   0.035825800   0.34389   0.17043   0.12511  -0.54699
  34   34384.0    290.8   0.058152414   0.55678   0.36526  -0.08696  -0.64483
  35   35161.2    284.4   0.040345350   0.37775   0.51417  -0.23395  -0.24217
  36   35396.8    282.5   0.022015135   0.20475  -0.04670  -0.15827  -0.42134
  37   35627.1    280.7   0.022683330   0.20961  -0.08631   0.28274  -0.34959
  38   36093.5    277.1   0.027978667   0.25520  -0.11203  -0.26397  -0.41589
  39   36346.3    275.1   0.005293438   0.04795  -0.17660   0.10349   0.07776
  40   36470.7    274.2   0.054986667   0.49635  -0.69034  -0.10825  -0.08980
  41   36826.5    271.5   0.028883825   0.25821   0.22386   0.08101  -0.44893
  42   37373.0    267.6   0.170465759   1.50160   0.01231   0.79671   0.93097
  43   37535.7    266.4   0.066323763   0.58170  -0.41799   0.57129   0.28393
  44   37777.8    264.7   0.093567954   0.81539  -0.60883   0.64494   0.16963
  45   38027.0    263.0   0.023697924   0.20516   0.14839   0.28319  -0.32085
  46   38291.3    261.2   0.002067455   0.01778  -0.12433  -0.04240  -0.02280
  47   38400.7    260.4   0.009190954   0.07879   0.12671   0.15291  -0.19839
  48   38455.6    260.0   0.043803241   0.37499  -0.55456   0.12152  -0.22954
  49   39261.2    254.7   0.171320093   1.43655   0.65162  -0.96549  -0.28242
  50   39391.2    253.9   0.075494423   0.63094   0.14435   0.39763  -0.67231
  51   39774.6    251.4   0.176673439   1.46232  -0.32703   0.68383   0.94220
  52   39994.2    250.0   0.006068307   0.04995  -0.14292   0.01930   0.17074
  53   40237.9    248.5   0.004833095   0.03954   0.06874   0.01107  -0.18627
  54   40248.7    248.5   0.000149233   0.00122   0.00653   0.03431  -0.00107
  55   40294.3    248.2   0.009873996   0.08067   0.02497   0.09022   0.26816

FINAL SINGLE POINT ENERGY     -6028.010559402927

DIPOLE MOMENT
-------------
                                X             Y             Z
Electronic contribution:     11.95283     -30.36233      28.46425
Nuclear contribution   :    -11.31116      34.02187     -28.91114
                        -----------------------------------------
Total Dipole Moment    :      0.64167       3.65954      -0.44689
                        -----------------------------------------
Magnitude (a.u.)       :      3.74215
Magnitude (Debye)      :      9.51178

Rotational constants in cm-1:     0.000862     0.000210     0.000180
Rotational constants in MHz :    25.837802     6.300060     5.409640

                             ****ORCA TERMINATED NORMALLY****
TOTAL RUN TIME: 0 days 0 hours 12 minutes 15 seconds 896 msec
