                         Program Version 4.2.0 -  RELEASE  -
|  1> # ORCA input file
|  2> # SCF done       -171.619082453746          0.000913675092
|  3> ! CAM-B3LYP def2-SVP def2/J RIJCOSX Grid4 TightSCF
|  4> %maxcore 5000
|  5> %tddft
|  6>     Mode sTDDFT
|  7>     Ethresh 5.0
|  8>     maxcore 5000
|  9> end
| 10>
| 11> %pal
| 12>   nprocs 6
| 13>   end
| 14> * xyz 0 1
| 15>    C        6.60758        -4.36019        -9.08005
| 16>    C        5.79753        -4.36964       -10.18124
| 17>    F        4.74791        -5.21142       -10.22420
| 18>    C        6.01449        -3.52833       -11.28074
| 19>    C        7.06937        -2.65862       -11.25142
| 20>    C        7.93172        -2.59973       -10.13766
| 21>    C        7.70048        -3.47350        -9.03564
| 22>    C        8.55755        -3.44171        -7.91136
| 23>    C        9.58853        -2.54402        -7.88142
| 24>    C        9.80287        -1.65591        -8.97428
| 25>    C        9.00935        -1.68578       -10.08441
| 26>    C       10.93418        -0.76103        -8.65669
| 27>    O       11.44561         0.07538        -9.36570
| 28>    C       11.27883        -1.05853        -7.23906
| 29>    C       10.60029        -2.27710        -6.86316
| 30>    C       10.98445        -3.16383        -5.88685
| 31>    C       12.09594        -2.96424        -5.04517
| 32>    N       13.00779        -2.85641        -4.35566
| 33>    C       10.36176        -4.40762        -5.66244
| 34>    N        9.88539        -5.42378        -5.42026
| 35>    C       12.05398        -0.18105        -6.53407
| 36>    C       12.12634        -0.03108        -5.12644
| 37>    C       11.09907        -0.40235        -4.28068
| 38>    C       11.10803        -0.26975        -2.90149
| 39>    C       12.23024         0.39164        -2.22067
| 40>    C       13.33048         0.86187        -2.85242
| 41>    S       13.58673         0.74783        -4.53941
| 42>    C       11.86444         0.44185        -0.85027
| 43>    C       10.60541        -0.14246        -0.67730
| 44>    C       10.19133        -0.12507         0.67368
| 45>    C       11.11995         0.46282         1.47068
| 46>    S       12.53059         1.01254         0.62540
| 47>    C       10.12388        -0.61541        -1.94337
| 48>    C        8.89817        -1.30269        -2.10012
| 49>    C        8.53080        -2.08654        -3.14976
| 50>    C        7.26622        -2.69792        -3.26198
| 51>    S        6.91567        -3.67747        -4.71891
| 52>    C        5.35484        -3.94859        -4.07565
| 53>    C        5.21562        -3.30021        -2.83921
| 54>    N        6.27166        -2.61979        -2.41737
| 55>    C        3.85309        -3.53748        -2.26856
| 56>    C        3.23725        -4.39518        -3.33545
| 57>    C        4.14935        -4.61370        -4.37464
| 58>    S        3.50219        -5.59301        -5.62001
| 59>    C        1.98428        -5.72108        -4.74855
| 60>    C        2.01787        -5.02038        -3.55114
| 61>    C        0.94138        -6.49523        -5.32285
| 62>    C       -0.29114        -6.65380        -4.79171
| 63>    C       -1.34466        -7.44822        -5.35558
| 64>    C       -1.22692        -8.26453        -6.49437
| 65>    N       -2.22085        -8.98507        -6.96098
| 66>    C       -3.38020        -8.91974        -6.30880
| 67>    N       -3.61447        -8.18248        -5.22180
| 68>    C       -2.61893        -7.46614        -4.75878
| 69>    C       -4.48091        -9.70804        -6.79383
| 70>    S       -4.33161       -10.78356        -8.13559
| 71>    C       -5.98724       -11.27905        -7.99952
| 72>    C       -6.62012       -10.62341        -6.94827
| 73>    C       -5.75047        -9.73443        -6.27349
| 74>    N       -6.16421        -8.92335        -5.13978
| 75>    O       -6.10940        -9.44550        -4.05605
| 76>    O       -6.57318        -7.81849        -5.39089
| 77>    C       -7.96406       -10.78081        -6.56117
| 78>    N       -9.05222       -10.87396        -6.21227
| 79>    C       -6.49197       -12.25587        -8.92660
| 80>    C       -7.73071       -12.74460        -8.95457
| 81>    H        6.41390        -5.02336        -8.25139
| 82>    H        5.34450        -3.58287       -12.12412
| 83>    H        7.25369        -1.99857       -12.08565
| 84>    H        8.36336        -4.11621        -7.09314
| 85>    H        9.19334        -1.01394       -10.90934
| 86>    H       12.62647         0.51972        -7.13296
| 87>    H       10.20181        -0.76593        -4.75957
| 88>    H       14.13745         1.34222        -2.32156
| 89>    H        9.26138        -0.52255         1.03706
| 90>    H       11.07361         0.61512         2.53133
| 91>    H        8.19437        -1.21937        -1.28240
| 92>    H        9.21961        -2.30910        -3.94957
| 93>    H        3.30850        -2.60336        -2.11967
| 94>    H        3.90400        -4.04907        -1.30562
| 95>    H        1.18573        -4.98008        -2.87278
| 96>    H        1.18991        -6.97546        -6.25924
| 97>    H       -0.54070        -6.15071        -3.86724
| 98>    H       -0.30023        -8.34759        -7.04587
| 99>    H       -2.83314        -6.87781        -3.87553
|100>    H       -5.75949       -12.59656        -9.64709
|101>    H       -8.49079       -12.43547        -8.25899
|102>    H       -8.01553       -13.47811        -9.68821
|103> *
|104>
|105>                          ****END OF INPUT****

CARTESIAN COORDINATES (ANGSTROEM)
---------------------------------
  C      6.607580   -4.360190   -9.080050
  C      5.797530   -4.369640  -10.181240
  F      4.747910   -5.211420  -10.224200
  C      6.014490   -3.528330  -11.280740
  C      7.069370   -2.658620  -11.251420
  C      7.931720   -2.599730  -10.137660
  C      7.700480   -3.473500   -9.035640
  C      8.557550   -3.441710   -7.911360
  C      9.588530   -2.544020   -7.881420
  C      9.802870   -1.655910   -8.974280
  C      9.009350   -1.685780  -10.084410
  C     10.934180   -0.761030   -8.656690
  O     11.445610    0.075380   -9.365700
  C     11.278830   -1.058530   -7.239060
  C     10.600290   -2.277100   -6.863160
  C     10.984450   -3.163830   -5.886850
  C     12.095940   -2.964240   -5.045170
  N     13.007790   -2.856410   -4.355660
  C     10.361760   -4.407620   -5.662440
  N      9.885390   -5.423780   -5.420260
  C     12.053980   -0.181050   -6.534070
  C     12.126340   -0.031080   -5.126440
  C     11.099070   -0.402350   -4.280680
  C     11.108030   -0.269750   -2.901490
  C     12.230240    0.391640   -2.220670
  C     13.330480    0.861870   -2.852420
  S     13.586730    0.747830   -4.539410
  C     11.864440    0.441850   -0.850270
  C     10.605410   -0.142460   -0.677300
  C     10.191330   -0.125070    0.673680
  C     11.119950    0.462820    1.470680
  S     12.530590    1.012540    0.625400
  C     10.123880   -0.615410   -1.943370
  C      8.898170   -1.302690   -2.100120
  C      8.530800   -2.086540   -3.149760
  C      7.266220   -2.697920   -3.261980
  S      6.915670   -3.677470   -4.718910
  C      5.354840   -3.948590   -4.075650
  C      5.215620   -3.300210   -2.839210
  N      6.271660   -2.619790   -2.417370
  C      3.853090   -3.537480   -2.268560
  C      3.237250   -4.395180   -3.335450
  C      4.149350   -4.613700   -4.374640
  S      3.502190   -5.593010   -5.620010
  C      1.984280   -5.721080   -4.748550
  C      2.017870   -5.020380   -3.551140
  C      0.941380   -6.495230   -5.322850
  C     -0.291140   -6.653800   -4.791710
  C     -1.344660   -7.448220   -5.355580
  C     -1.226920   -8.264530   -6.494370
  N     -2.220850   -8.985070   -6.960980
  C     -3.380200   -8.919740   -6.308800
  N     -3.614470   -8.182480   -5.221800
  C     -2.618930   -7.466140   -4.758780
  C     -4.480910   -9.708040   -6.793830
  S     -4.331610  -10.783560   -8.135590
  C     -5.987240  -11.279050   -7.999520
  C     -6.620120  -10.623410   -6.948270
  C     -5.750470   -9.734430   -6.273490
  N     -6.164210   -8.923350   -5.139780
  O     -6.109400   -9.445500   -4.056050
  O     -6.573180   -7.818490   -5.390890
  C     -7.964060  -10.780810   -6.561170
  N     -9.052220  -10.873960   -6.212270
  C     -6.491970  -12.255870   -8.926600
  C     -7.730710  -12.744600   -8.954570
  H      6.413900   -5.023360   -8.251390
  H      5.344500   -3.582870  -12.124120
  H      7.253690   -1.998570  -12.085650
  H      8.363360   -4.116210   -7.093140
  H      9.193340   -1.013940  -10.909340
  H     12.626470    0.519720   -7.132960
  H     10.201810   -0.765930   -4.759570
  H     14.137450    1.342220   -2.321560
  H      9.261380   -0.522550    1.037060
  H     11.073610    0.615120    2.531330
  H      8.194370   -1.219370   -1.282400
  H      9.219610   -2.309100   -3.949570
  H      3.308500   -2.603360   -2.119670
  H      3.904000   -4.049070   -1.305620
  H      1.185730   -4.980080   -2.872780
  H      1.189910   -6.975460   -6.259240
  H     -0.540700   -6.150710   -3.867240
  H     -0.300230   -8.347590   -7.045870
  H     -2.833140   -6.877810   -3.875530
  H     -5.759490  -12.596560   -9.647090
  H     -8.490790  -12.435470   -8.258990
  H     -8.015530  -13.478110   -9.688210

 Total Charge           Charge          ....    0
 Multiplicity           Mult            ....    1
 Number of Electrons    NEL             ....  484
 Basis Dimension        Dim             .... 1054

ORBITAL ENERGIES
----------------

  NO   OCC          E(Eh)            E(eV)
   0   2.0000     -88.985987     -2421.4318
   1   2.0000     -88.981090     -2421.2985
   2   2.0000     -88.970656     -2421.0146
   3   2.0000     -88.970377     -2421.0071
   4   2.0000     -88.963590     -2420.8224
   5   2.0000     -24.789141      -674.5468
   6   2.0000     -19.240197      -523.5524
   7   2.0000     -19.239952      -523.5457
   8   2.0000     -19.214838      -522.8623
   9   2.0000     -14.647224      -398.5712
  10   2.0000     -14.425963      -392.5504
  11   2.0000     -14.422181      -392.4475
  12   2.0000     -14.417703      -392.3257
  13   2.0000     -14.416554      -392.2944
  14   2.0000     -14.414476      -392.2378
  15   2.0000     -14.412562      -392.1858
  16   2.0000     -10.372692      -282.2553
  17   2.0000     -10.367264      -282.1076
  18   2.0000     -10.359244      -281.8894
  19   2.0000     -10.344836      -281.4973
  20   2.0000     -10.344164      -281.4790
  21   2.0000     -10.343276      -281.4549
  22   2.0000     -10.338898      -281.3357
  23   2.0000     -10.338792      -281.3328
  24   2.0000     -10.335468      -281.2424
  25   2.0000     -10.331493      -281.1342
  26   2.0000     -10.329279      -281.0740
  27   2.0000     -10.328849      -281.0623
  28   2.0000     -10.327931      -281.0373
  29   2.0000     -10.324887      -280.9545
  30   2.0000     -10.324022      -280.9309
  31   2.0000     -10.320437      -280.8334
  32   2.0000     -10.317904      -280.7644
  33   2.0000     -10.313041      -280.6321
  34   2.0000     -10.312519      -280.6179
  35   2.0000     -10.312380      -280.6141
  36   2.0000     -10.311204      -280.5821
  37   2.0000     -10.309972      -280.5486
  38   2.0000     -10.308956      -280.5210
  39   2.0000     -10.308654      -280.5127
  40   2.0000     -10.308022      -280.4955
  41   2.0000     -10.304679      -280.4046
  42   2.0000     -10.303778      -280.3800
  43   2.0000     -10.303736      -280.3789
  44   2.0000     -10.302976      -280.3582
  45   2.0000     -10.302125      -280.3351
  46   2.0000     -10.300340      -280.2865
  47   2.0000     -10.300211      -280.2830
  48   2.0000     -10.300152      -280.2814
  49   2.0000     -10.298979      -280.2495
  50   2.0000     -10.298630      -280.2400
  51   2.0000     -10.297883      -280.2196
  52   2.0000     -10.297234      -280.2020
  53   2.0000     -10.294428      -280.1256
  54   2.0000     -10.293200      -280.0922
  55   2.0000     -10.292524      -280.0738
  56   2.0000     -10.292280      -280.0672
  57   2.0000     -10.290425      -280.0167
  58   2.0000     -10.288976      -279.9773
  59   2.0000     -10.288121      -279.9540
  60   2.0000     -10.287419      -279.9349
  61   2.0000     -10.287153      -279.9277
  62   2.0000     -10.286703      -279.9154
  63   2.0000     -10.285278      -279.8766
  64   2.0000     -10.281777      -279.7814
  65   2.0000     -10.281468      -279.7730
  66   2.0000      -8.080954      -219.8939
  67   2.0000      -8.076525      -219.7734
  68   2.0000      -8.065501      -219.4734
  69   2.0000      -8.065428      -219.4715
  70   2.0000      -8.059050      -219.2979
  71   2.0000      -6.050106      -164.6318
  72   2.0000      -6.046049      -164.5214
  73   2.0000      -6.046031      -164.5209
  74   2.0000      -6.043250      -164.4452
  75   2.0000      -6.041516      -164.3980
  76   2.0000      -6.038449      -164.3146
  77   2.0000      -6.034772      -164.2145
  78   2.0000      -6.034657      -164.2114
  79   2.0000      -6.030752      -164.1051
  80   2.0000      -6.030647      -164.1022
  81   2.0000      -6.028527      -164.0446
  82   2.0000      -6.027674      -164.0213
  83   2.0000      -6.027621      -164.0199
  84   2.0000      -6.024230      -163.9276
  85   2.0000      -6.021033      -163.8406
  86   2.0000      -1.322607       -35.9900
  87   2.0000      -1.303799       -35.4782
  88   2.0000      -1.143657       -31.1205
  89   2.0000      -1.130137       -30.7526
  90   2.0000      -1.098375       -29.8883
  91   2.0000      -1.070565       -29.1315
  92   2.0000      -1.025399       -27.9025
  93   2.0000      -1.022247       -27.8167
  94   2.0000      -1.013876       -27.5890
  95   2.0000      -1.003375       -27.3032
  96   2.0000      -1.002836       -27.2886
  97   2.0000      -0.996103       -27.1054
  98   2.0000      -0.992514       -27.0077
  99   2.0000      -0.992456       -27.0061
 100   2.0000      -0.983444       -26.7609
 101   2.0000      -0.975926       -26.5563
 102   2.0000      -0.943599       -25.6766
 103   2.0000      -0.938752       -25.5447
 104   2.0000      -0.930697       -25.3255
 105   2.0000      -0.927710       -25.2443
 106   2.0000      -0.915902       -24.9230
 107   2.0000      -0.913088       -24.8464
 108   2.0000      -0.903346       -24.5813
 109   2.0000      -0.895856       -24.3775
 110   2.0000      -0.894507       -24.3408
 111   2.0000      -0.888654       -24.1815
 112   2.0000      -0.884741       -24.0750
 113   2.0000      -0.869445       -23.6588
 114   2.0000      -0.859433       -23.3864
 115   2.0000      -0.854504       -23.2522
 116   2.0000      -0.848469       -23.0880
 117   2.0000      -0.838147       -22.8071
 118   2.0000      -0.836602       -22.7651
 119   2.0000      -0.820810       -22.3354
 120   2.0000      -0.808880       -22.0108
 121   2.0000      -0.801576       -21.8120
 122   2.0000      -0.789615       -21.4865
 123   2.0000      -0.782590       -21.2954
 124   2.0000      -0.768073       -20.9003
 125   2.0000      -0.764493       -20.8029
 126   2.0000      -0.761781       -20.7291
 127   2.0000      -0.753841       -20.5130
 128   2.0000      -0.739045       -20.1104
 129   2.0000      -0.733160       -19.9503
 130   2.0000      -0.721967       -19.6457
 131   2.0000      -0.717870       -19.5342
 132   2.0000      -0.711867       -19.3709
 133   2.0000      -0.706439       -19.2232
 134   2.0000      -0.690541       -18.7906
 135   2.0000      -0.684826       -18.6351
 136   2.0000      -0.683235       -18.5918
 137   2.0000      -0.673524       -18.3275
 138   2.0000      -0.668593       -18.1933
 139   2.0000      -0.664620       -18.0852
 140   2.0000      -0.657777       -17.8990
 141   2.0000      -0.648531       -17.6474
 142   2.0000      -0.643705       -17.5161
 143   2.0000      -0.636921       -17.3315
 144   2.0000      -0.635189       -17.2844
 145   2.0000      -0.631784       -17.1917
 146   2.0000      -0.628048       -17.0900
 147   2.0000      -0.624819       -17.0022
 148   2.0000      -0.622508       -16.9393
 149   2.0000      -0.615809       -16.7570
 150   2.0000      -0.605456       -16.4753
 151   2.0000      -0.599751       -16.3201
 152   2.0000      -0.599211       -16.3054
 153   2.0000      -0.591412       -16.0931
 154   2.0000      -0.585502       -15.9323
 155   2.0000      -0.583506       -15.8780
 156   2.0000      -0.578439       -15.7401
 157   2.0000      -0.571852       -15.5609
 158   2.0000      -0.568700       -15.4751
 159   2.0000      -0.567633       -15.4461
 160   2.0000      -0.565349       -15.3839
 161   2.0000      -0.563974       -15.3465
 162   2.0000      -0.561357       -15.2753
 163   2.0000      -0.556097       -15.1322
 164   2.0000      -0.551751       -15.0139
 165   2.0000      -0.547713       -14.9040
 166   2.0000      -0.546661       -14.8754
 167   2.0000      -0.544181       -14.8079
 168   2.0000      -0.543715       -14.7952
 169   2.0000      -0.538127       -14.6432
 170   2.0000      -0.534630       -14.5480
 171   2.0000      -0.533092       -14.5062
 172   2.0000      -0.526372       -14.3233
 173   2.0000      -0.522046       -14.2056
 174   2.0000      -0.520104       -14.1528
 175   2.0000      -0.518200       -14.1009
 176   2.0000      -0.516403       -14.0520
 177   2.0000      -0.512635       -13.9495
 178   2.0000      -0.511102       -13.9078
 179   2.0000      -0.507986       -13.8230
 180   2.0000      -0.503524       -13.7016
 181   2.0000      -0.501634       -13.6501
 182   2.0000      -0.494895       -13.4668
 183   2.0000      -0.493631       -13.4324
 184   2.0000      -0.491236       -13.3672
 185   2.0000      -0.488457       -13.2916
 186   2.0000      -0.486747       -13.2451
 187   2.0000      -0.486193       -13.2300
 188   2.0000      -0.480592       -13.0776
 189   2.0000      -0.479067       -13.0361
 190   2.0000      -0.473250       -12.8778
 191   2.0000      -0.469782       -12.7834
 192   2.0000      -0.468151       -12.7390
 193   2.0000      -0.465778       -12.6745
 194   2.0000      -0.462335       -12.5808
 195   2.0000      -0.459842       -12.5129
 196   2.0000      -0.459211       -12.4958
 197   2.0000      -0.452859       -12.3229
 198   2.0000      -0.451621       -12.2892
 199   2.0000      -0.450512       -12.2590
 200   2.0000      -0.445553       -12.1241
 201   2.0000      -0.444833       -12.1045
 202   2.0000      -0.443611       -12.0713
 203   2.0000      -0.440710       -11.9923
 204   2.0000      -0.439356       -11.9555
 205   2.0000      -0.434653       -11.8275
 206   2.0000      -0.433323       -11.7913
 207   2.0000      -0.430394       -11.7116
 208   2.0000      -0.428359       -11.6562
 209   2.0000      -0.428211       -11.6522
 210   2.0000      -0.427472       -11.6321
 211   2.0000      -0.422608       -11.4997
 212   2.0000      -0.420658       -11.4467
 213   2.0000      -0.418801       -11.3962
 214   2.0000      -0.418041       -11.3755
 215   2.0000      -0.410082       -11.1589
 216   2.0000      -0.409458       -11.1419
 217   2.0000      -0.405700       -11.0397
 218   2.0000      -0.404748       -11.0138
 219   2.0000      -0.395186       -10.7535
 220   2.0000      -0.391941       -10.6653
 221   2.0000      -0.385779       -10.4976
 222   2.0000      -0.379122       -10.3164
 223   2.0000      -0.376217       -10.2374
 224   2.0000      -0.375813       -10.2264
 225   2.0000      -0.373648       -10.1675
 226   2.0000      -0.365804        -9.9540
 227   2.0000      -0.354229        -9.6391
 228   2.0000      -0.351388        -9.5618
 229   2.0000      -0.344172        -9.3654
 230   2.0000      -0.339085        -9.2270
 231   2.0000      -0.334819        -9.1109
 232   2.0000      -0.333549        -9.0763
 233   2.0000      -0.331266        -9.0142
 234   2.0000      -0.330826        -9.0022
 235   2.0000      -0.316939        -8.6244
 236   2.0000      -0.315146        -8.5756
 237   2.0000      -0.301171        -8.1953
 238   2.0000      -0.293854        -7.9962
 239   2.0000      -0.283387        -7.7114
 240   2.0000      -0.258173        -7.0252
 241   2.0000      -0.226112        -6.1528
 242   0.0000      -0.106906        -2.9091
 243   0.0000      -0.073552        -2.0015
 244   0.0000      -0.062493        -1.7005
 245   0.0000      -0.051775        -1.4089
 246   0.0000      -0.040106        -1.0913

MULLIKEN ATOMIC CHARGES
-----------------------
   0 C :   -0.097130
   1 C :    0.302463
   2 F :   -0.192610
   3 C :   -0.030673
   4 C :   -0.008130
   5 C :    0.097365
   6 C :    0.106567
   7 C :   -0.087362
   8 C :    0.037750
   9 C :    0.018493
  10 C :   -0.082419
  11 C :    0.138212
  12 O :   -0.143788
  13 C :   -0.137900
  14 C :    0.254006
  15 C :   -0.346978
  16 C :   -0.202530
  17 N :    0.179447
  18 C :   -0.203993
  19 N :    0.172214
  20 C :    0.087610
  21 C :   -0.135615
  22 C :   -0.010561
  23 C :    0.048707
  24 C :    0.067553
  25 C :   -0.117504
  26 S :    0.168108
  27 C :   -0.102499
  28 C :    0.045581
  29 C :    0.017174
  30 C :   -0.066622
  31 S :    0.136391
  32 C :    0.104008
  33 C :   -0.019277
  34 C :    0.047544
  35 C :   -0.098014
  36 S :    0.108701
  37 C :   -0.047668
  38 C :   -0.232762
  39 N :   -0.008763
  40 C :    0.391321
  41 C :   -0.165952
  42 C :   -0.094194
  43 S :    0.152383
  44 C :   -0.086594
  45 C :   -0.013495
  46 C :    0.076021
  47 C :   -0.013933
  48 C :    0.038688
  49 C :    0.036394
  50 N :   -0.053685
  51 C :   -0.105559
  52 N :   -0.059916
  53 C :    0.034620
  54 C :   -0.079192
  55 S :    0.226445
  56 C :   -0.098322
  57 C :   -0.033871
  58 C :    0.171930
  59 N :    0.251964
  60 O :   -0.213290
  61 O :   -0.213255
  62 C :   -0.250997
  63 N :    0.159673
  64 C :    0.034759
  65 C :   -0.006790
  66 H :   -0.013508
  67 H :    0.004801
  68 H :   -0.007241
  69 H :   -0.006631
  70 H :   -0.010779
  71 H :    0.027782
  72 H :   -0.002091
  73 H :    0.040481
  74 H :   -0.010785
  75 H :    0.031700
  76 H :   -0.001913
  77 H :   -0.025539
  78 H :    0.037391
  79 H :    0.038072
  80 H :   -0.020811
  81 H :   -0.015668
  82 H :   -0.016651
  83 H :    0.006865
  84 H :    0.011210
  85 H :   -0.005027
  86 H :    0.049974
  87 H :    0.038123
Sum of atomic charges:   -0.0000000

LOEWDIN ATOMIC CHARGES
----------------------
   0 C :   -0.043741
   1 C :    0.093629
   2 F :   -0.066590
   3 C :   -0.037078
   4 C :    0.005435
   5 C :   -0.018275
   6 C :    0.003776
   7 C :    0.007255
   8 C :   -0.018768
   9 C :   -0.058008
  10 C :    0.033707
  11 C :    0.081945
  12 O :   -0.145672
  13 C :   -0.096444
  14 C :    0.060716
  15 C :   -0.150651
  16 C :   -0.020122
  17 N :   -0.043803
  18 C :   -0.028290
  19 N :   -0.052823
  20 C :    0.047039
  21 C :   -0.189695
  22 C :    0.020749
  23 C :   -0.020672
  24 C :   -0.048924
  25 C :   -0.129233
  26 S :    0.474976
  27 C :   -0.188884
  28 C :   -0.039435
  29 C :   -0.058598
  30 C :   -0.158941
  31 S :    0.427142
  32 C :   -0.027836
  33 C :    0.009689
  34 C :   -0.062936
  35 C :   -0.116217
  36 S :    0.426280
  37 C :   -0.219513
  38 C :   -0.032231
  39 N :   -0.089510
  40 C :   -0.011970
  41 C :   -0.048183
  42 C :   -0.195753
  43 S :    0.441172
  44 C :   -0.173880
  45 C :   -0.043870
  46 C :   -0.023742
  47 C :   -0.035583
  48 C :   -0.062772
  49 C :    0.055149
  50 N :   -0.085536
  51 C :    0.000091
  52 N :   -0.074618
  53 C :    0.055116
  54 C :   -0.188075
  55 S :    0.517578
  56 C :   -0.128480
  57 C :   -0.104474
  58 C :   -0.008390
  59 N :    0.281858
  60 O :   -0.176700
  61 O :   -0.178101
  62 C :   -0.033288
  63 N :   -0.038227
  64 C :   -0.052559
  65 C :    0.000000
  66 H :    0.038910
  67 H :    0.042242
  68 H :    0.036292
  69 H :    0.026971
  70 H :    0.040016
  71 H :    0.044011
  72 H :    0.039845
  73 H :    0.038934
  74 H :    0.033539
  75 H :    0.025500
  76 H :    0.037508
  77 H :    0.023750
  78 H :    0.056374
  79 H :    0.057078
  80 H :    0.031365
  81 H :    0.027256
  82 H :    0.028719
  83 H :    0.024931
  84 H :    0.029171
  85 H :    0.032257
  86 H :    0.035068
  87 H :    0.034050

  Mayer bond orders larger than 0.100000
B(  0-C ,  1-C ) :   1.4406 B(  0-C ,  6-C ) :   1.2024 B(  0-C , 66-H ) :   1.0054
B(  1-C ,  2-F ) :   1.0866 B(  1-C ,  3-C ) :   1.2579 B(  3-C ,  4-C ) :   1.4596
B(  3-C , 67-H ) :   0.9922 B(  4-C ,  5-C ) :   1.2376 B(  4-C , 68-H ) :   0.9964
B(  5-C ,  6-C ) :   1.2555 B(  5-C , 10-C ) :   1.1879 B(  6-C ,  7-C ) :   1.2082
B(  7-C ,  8-C ) :   1.4654 B(  7-C , 69-H ) :   0.9905 B(  8-C ,  9-C ) :   1.2188
B(  8-C , 14-C ) :   0.9952 B(  9-C , 10-C ) :   1.4715 B(  9-C , 11-C ) :   0.9141
B( 10-C , 70-H ) :   1.0154 B( 11-C , 12-O ) :   2.2726 B( 11-C , 13-C ) :   0.9446
B( 13-C , 14-C ) :   1.0587 B( 13-C , 20-C ) :   1.6331 B( 14-C , 15-C ) :   1.6288
B( 15-C , 16-C ) :   1.1671 B( 15-C , 18-C ) :   1.1401 B( 16-C , 17-N ) :   3.0028
B( 18-C , 19-N ) :   2.9812 B( 20-C , 21-C ) :   1.1432 B( 20-C , 71-H ) :   0.9294
B( 21-C , 22-C ) :   1.4554 B( 21-C , 26-S ) :   1.0480 B( 22-C , 23-C ) :   1.3067
B( 22-C , 72-H ) :   0.9650 B( 23-C , 24-C ) :   1.0592 B( 23-C , 32-C ) :   1.3316
B( 24-C , 25-C ) :   1.5927 B( 24-C , 27-C ) :   1.1975 B( 25-C , 26-S ) :   1.1593
B( 25-C , 73-H ) :   0.9379 B( 27-C , 28-C ) :   1.4134 B( 27-C , 31-S ) :   1.0835
B( 28-C , 29-C ) :   1.2142 B( 28-C , 32-C ) :   1.1258 B( 29-C , 30-C ) :   1.5974
B( 29-C , 74-H ) :   0.9975 B( 30-C , 31-S ) :   1.1439 B( 30-C , 75-H ) :   0.9659
B( 32-C , 33-C ) :   1.1528 B( 33-C , 34-C ) :   1.6479 B( 33-C , 76-H ) :   0.9643
B( 34-C , 35-C ) :   1.1389 B( 34-C , 77-H ) :   0.9397 B( 35-C , 36-S ) :   1.0723
B( 35-C , 39-N ) :   1.6433 B( 36-S , 37-C ) :   1.0970 B( 37-C , 38-C ) :   1.4712
B( 37-C , 42-C ) :   1.1926 B( 38-C , 39-N ) :   1.4528 B( 38-C , 40-C ) :   1.0424
B( 40-C , 41-C ) :   0.9793 B( 40-C , 78-H ) :   0.8614 B( 40-C , 79-H ) :   0.8601
B( 41-C , 42-C ) :   1.5081 B( 41-C , 45-C ) :   1.3279 B( 42-C , 43-S ) :   1.0951
B( 43-S , 44-C ) :   1.1016 B( 44-C , 45-C ) :   1.4586 B( 44-C , 46-C ) :   1.1299
B( 45-C , 80-H ) :   0.9964 B( 46-C , 47-C ) :   1.6979 B( 46-C , 81-H ) :   0.9525
B( 47-C , 48-C ) :   1.0936 B( 47-C , 82-H ) :   0.9799 B( 48-C , 49-C ) :   1.3052
B( 48-C , 53-C ) :   1.2909 B( 49-C , 50-N ) :   1.5726 B( 49-C , 83-H ) :   0.9820
B( 50-N , 51-C ) :   1.6049 B( 51-C , 52-N ) :   1.5625 B( 51-C , 54-C ) :   1.0193
B( 52-N , 53-C ) :   1.5660 B( 53-C , 84-H ) :   0.9898 B( 54-C , 55-S ) :   1.1342
B( 54-C , 58-C ) :   1.5767 B( 55-S , 56-C ) :   1.1466 B( 56-C , 57-C ) :   1.4826
B( 56-C , 64-C ) :   1.1146 B( 57-C , 58-C ) :   1.3338 B( 57-C , 62-C ) :   1.1178
B( 58-C , 59-N ) :   0.8563 B( 59-N , 60-O ) :   1.5599 B( 59-N , 61-O ) :   1.5600
B( 60-O , 61-O ) :   0.2964 B( 62-C , 63-N ) :   2.9856 B( 64-C , 65-C ) :   1.9323
B( 64-C , 85-H ) :   0.9420 B( 65-C , 86-H ) :   0.9479 B( 65-C , 87-H ) :   0.9457

-----------------------------------------------------------------------------
         ABSORPTION SPECTRUM VIA TRANSITION ELECTRIC DIPOLE MOMENTS
-----------------------------------------------------------------------------
State   Energy  Wavelength   fosc         T2         TX        TY        TZ
        (cm-1)    (nm)                  (au**2)     (au)      (au)      (au)
-----------------------------------------------------------------------------
   0   10088.7    991.2   0.226527122   7.39198   2.19133   0.47405  -1.53796
   1   18740.5    533.6   1.339485804  23.53063   3.67089   2.77693   1.53097
   2   18867.8    530.0   0.310544199   5.41848   1.95794   0.89591  -0.88449
   3   21672.6    461.4   0.299366699   4.54746   1.51370   0.90760   1.19685
   4   22296.2    448.5   0.692641130  10.22710  -2.32681  -1.63160  -1.46661
   5   22730.0    439.9   0.098110905   1.42100  -0.46637  -0.77517  -0.77628
   6   25530.3    391.7   0.026509689   0.34184   0.34500  -0.11298   0.45831
   7   26571.0    376.3   0.082385939   1.02075   0.70639   0.36690   0.62221
   8   26631.2    375.5   0.123424391   1.52576   1.08499   0.51145   0.29492
   9   27158.1    368.2   0.089090644   1.07996   0.60611  -0.22809   0.81275
  10   28594.0    349.7   0.001946773   0.02241  -0.12225  -0.03222  -0.08019
  11   28953.6    345.4   0.099092431   1.12671  -0.97458  -0.22545  -0.35506
  12   29179.9    342.7   0.072130625   0.81379   0.39136   0.01280   0.81269
  13   30228.3    330.8   0.130794547   1.42446   0.80286   0.85734  -0.21177
  14   31325.3    319.2   0.082628544   0.86838  -0.04877  -0.46340  -0.80701
  15   31747.1    315.0   0.155420534   1.61168  -0.97261  -0.32625  -0.74784
  16   31852.1    314.0   0.015933400   0.16468  -0.10878   0.35159   0.17098
  17   32634.0    306.4   0.059894778   0.60422   0.50369   0.59159   0.02318
  18   33277.1    300.5   0.001586522   0.01570   0.07689   0.07511   0.06436
  19   33398.1    299.4   0.548845289   5.41009   1.45810   0.29434   1.78813
  20   33721.9    296.5   0.296798332   2.89751  -1.27100  -0.70971  -0.88225
  21   34037.6    293.8   0.003768797   0.03645  -0.16280  -0.07079  -0.07025
  22   34076.6    293.5   0.149663417   1.44589  -0.82010  -0.51001  -0.71639
  23   34293.7    291.6   0.030020267   0.28819   0.15035  -0.45873  -0.23485
  24   35088.4    285.0   0.189563153   1.77855  -0.70053  -0.48015  -1.02823
  25   35114.9    284.8   0.099704843   0.93476   0.82866   0.46199   0.18614
  26   35299.2    283.3   0.016233321   0.15140  -0.35262  -0.16102   0.03356
  27   35345.2    282.9   0.044037866   0.41018  -0.42875  -0.10923   0.46305
  28   35387.0    282.6   0.031359936   0.29175   0.41781   0.33375   0.07612
  29   36279.0    275.6   0.035924580   0.32600  -0.21933  -0.18867   0.49224
  30   36453.0    274.3   0.036727072   0.33169   0.43357  -0.12366   0.35834
  31   36724.3    272.3   0.033810708   0.30309  -0.04226   0.01840   0.54861
  32   37135.5    269.3   0.083301513   0.73848  -0.60676  -0.59362  -0.13393
  33   37880.2    264.0   0.110451121   0.95992  -0.84264   0.49659  -0.05726
  34   38126.7    262.3   0.251990839   2.17586  -0.10625  -0.37905   1.42158
  35   38486.6    259.8   0.123211479   1.05394   0.54258   0.36782  -0.79010
  36   38835.7    257.5   0.060897708   0.51623   0.03508   0.38969   0.60262
  37   39168.2    255.3   0.074711713   0.62796  -0.30058  -0.00184  -0.73321
  38   39390.6    253.9   0.023418474   0.19572   0.04794  -0.01420   0.43957
  39   39425.8    253.6   0.010465640   0.08739   0.04668   0.25513   0.14185
  40   39596.0    252.6   0.095467292   0.79374   0.56328   0.68408  -0.09212
  41   40114.7    249.3   0.048031831   0.39419   0.10876   0.30701  -0.53675

FINAL SINGLE POINT ENERGY     -4614.175713280324

DIPOLE MOMENT
-------------
                                X             Y             Z
Electronic contribution:     12.27838       0.96660      -4.29019
Nuclear contribution   :    -10.10093       0.74334       3.52504
                        -----------------------------------------
Total Dipole Moment    :      2.17745       1.70994      -0.76515
                        -----------------------------------------
Magnitude (a.u.)       :      2.87239
Magnitude (Debye)      :      7.30104

Rotational constants in cm-1:     0.002042     0.000284     0.000255
Rotational constants in MHz :    61.206903     8.510219     7.649787

                             ****ORCA TERMINATED NORMALLY****
TOTAL RUN TIME: 0 days 0 hours 8 minutes 5 seconds 171 msec
