                         Program Version 4.2.0 -  RELEASE  -
|  1> # ORCA input file
|  2> # SCF done       -212.471319559971          0.000968285874
|  3> ! CAM-B3LYP def2-SVP def2/J RIJCOSX Grid4 TightSCF
|  4> %maxcore 5000
|  5> %tddft
|  6>     Mode sTDDFT
|  7>     Ethresh 5.0
|  8>     maxcore 5000
|  9> end
| 10>
| 11> %pal
| 12>   nprocs 6
| 13>   end
| 14> * xyz 0 1
| 15>    C       -3.57750        -0.05773        -0.23936
| 16>    C       -2.45778        -0.80768        -0.27604
| 17>    C       -1.26415        -0.02918        -0.22812
| 18>    C        0.06864        -0.47868        -0.19799
| 19>    C        0.42736        -1.88011        -0.29967
| 20>    C        1.40465        -2.54542         0.38236
| 21>    C        1.51773        -3.89864        -0.00527
| 22>    C        0.65058        -4.28002        -0.98670
| 23>    S       -0.34697        -2.94142        -1.44562
| 24>    C        0.49725        -5.60820        -1.63197
| 25>   Cl        2.66174        -4.96562         0.71384
| 26>    C        1.04983         0.49968        -0.07161
| 27>    C        0.76529         1.88499         0.01258
| 28>    C       -0.56863         2.33551        -0.02034
| 29>    C       -1.54964         1.35419        -0.14507
| 30>    S       -3.26899         1.63983        -0.14970
| 31>    C       -0.92372         3.73559         0.08674
| 32>    C       -1.92037         4.39938        -0.56967
| 33>    C       -2.02400         5.75284        -0.18236
| 34>    C       -1.13048         6.13890         0.77369
| 35>    S       -0.11908         4.80318         1.20792
| 36>    C       -0.95807         7.46964         1.40826
| 37>   Cl       -3.19040         6.81608        -0.87063
| 38>    C        1.94797         2.66084         0.07625
| 39>    C        3.09355         1.91939         0.05718
| 40>    S        2.76734         0.20164        -0.04792
| 41>    C        4.43181         2.39466         0.13941
| 42>    C        5.59578         1.65400         0.10740
| 43>    C        6.72924         2.45821         0.25180
| 44>    C        6.41735         3.81892         0.39261
| 45>    S        4.73663         4.11246         0.34250
| 46>    C        7.62401         4.54755         0.56431
| 47>    C        8.69812         3.64260         0.53477
| 48>    C        8.17413         2.30207         0.32238
| 49>    C        8.88853         1.14640         0.20677
| 50>    C        8.27056        -0.10394        -0.00711
| 51>    N        7.77419        -1.12263        -0.18002
| 52>    C       10.29704         1.12764         0.28685
| 53>    N       11.44165         1.11326         0.35169
| 54>    C        9.92953         4.26469         0.73162
| 55>    C        9.79948         5.63192         0.90464
| 56>    S        8.12396         6.15877         0.81470
| 57>    C       10.85919         6.54187         1.16783
| 58>    C       10.82271         7.92604         1.27124
| 59>    C        9.64612         8.67371         1.11744
| 60>    N        8.67144         9.26858         1.00593
| 61>    C       12.09581         8.48149         1.58284
| 62>    C       13.06119         7.49166         1.72230
| 63>    S       12.46593         5.89940         1.45067
| 64>    S       14.63991         8.05096         2.16763
| 65>    C       13.99827         9.66024         2.17258
| 66>    C       12.65570         9.76861         1.82859
| 67>    C       12.23846        11.13018         1.81092
| 68>    C       10.99169        11.60262         1.36098
| 69>    N       10.01605        12.03867         0.94812
| 70>    C       13.25463        11.99883         2.15669
| 71>    S       14.75149        11.16808         2.50989
| 72>    C       13.14747        13.43851         2.27434
| 73>    C       12.08772        14.06074         2.86770
| 74>    F       11.06142        13.46892         3.46732
| 75>    S       12.18419        15.78628         2.89125
| 76>    C       13.71465        15.66718         2.09173
| 77>    F       14.35945        16.79178         1.78467
| 78>    C       14.12862        14.39366         1.81428
| 79>    C       15.34646        13.99823         1.16172
| 80>    C       16.43533        14.76284         0.95018
| 81>    C       17.64231        14.23920         0.39840
| 82>    C       17.96725        12.92016         0.14343
| 83>    C       19.26909        12.78203        -0.33667
| 84>    C       19.94218        14.00467        -0.45614
| 85>    S       18.97502        15.32183         0.03165
| 86>    C       21.25725        13.74354        -0.94324
| 87>    C       21.40368        12.36270        -1.12162
| 88>    C       20.16578        11.70771        -0.74210
| 89>    C       19.88859        10.37117        -0.73622
| 90>    C       18.63888         9.87188        -0.31387
| 91>    N       17.62308         9.46945         0.03649
| 92>    C       20.83310         9.40487        -1.14097
| 93>    N       21.60032         8.61696        -1.46584
| 94>    C       22.68335        12.01452        -1.59552
| 95>    C       23.46537        13.11612        -1.76419
| 96>    S       22.67344        14.60186        -1.35321
| 97>    H       -4.59572        -0.39339        -0.26113
| 98>    H       -2.46788        -1.88037        -0.32219
| 99>    H        2.00419        -2.10846         1.15896
|100>    H        1.19289        -6.31342        -1.18429
|101>    H        0.69968        -5.54180        -2.70065
|102>    H       -0.51825        -5.98231        -1.50595
|103>    H       -2.54023         3.96009        -1.32862
|104>    H        0.04399         7.85612         1.22437
|105>    H       -1.09796         7.40225         2.48673
|106>    H       -1.68605         8.16611         1.00005
|107>    H        1.96073         3.73427         0.12314
|108>    H        5.60002         0.58522        -0.01002
|109>    H       10.88054         3.76274         0.75283
|110>    H       15.37234        12.96730         0.84519
|111>    H       16.44535        15.80759         1.22272
|112>    H       17.29746        12.09950         0.31771
|113>    H       23.01106        11.01179        -1.80054
|114>    H       24.47867        13.15608        -2.11034
|115> *
|116>
|117>                          ****END OF INPUT****

CARTESIAN COORDINATES (ANGSTROEM)
---------------------------------
  C     -3.577500   -0.057730   -0.239360
  C     -2.457780   -0.807680   -0.276040
  C     -1.264150   -0.029180   -0.228120
  C      0.068640   -0.478680   -0.197990
  C      0.427360   -1.880110   -0.299670
  C      1.404650   -2.545420    0.382360
  C      1.517730   -3.898640   -0.005270
  C      0.650580   -4.280020   -0.986700
  S     -0.346970   -2.941420   -1.445620
  C      0.497250   -5.608200   -1.631970
  Cl     2.661740   -4.965620    0.713840
  C      1.049830    0.499680   -0.071610
  C      0.765290    1.884990    0.012580
  C     -0.568630    2.335510   -0.020340
  C     -1.549640    1.354190   -0.145070
  S     -3.268990    1.639830   -0.149700
  C     -0.923720    3.735590    0.086740
  C     -1.920370    4.399380   -0.569670
  C     -2.024000    5.752840   -0.182360
  C     -1.130480    6.138900    0.773690
  S     -0.119080    4.803180    1.207920
  C     -0.958070    7.469640    1.408260
  Cl    -3.190400    6.816080   -0.870630
  C      1.947970    2.660840    0.076250
  C      3.093550    1.919390    0.057180
  S      2.767340    0.201640   -0.047920
  C      4.431810    2.394660    0.139410
  C      5.595780    1.654000    0.107400
  C      6.729240    2.458210    0.251800
  C      6.417350    3.818920    0.392610
  S      4.736630    4.112460    0.342500
  C      7.624010    4.547550    0.564310
  C      8.698120    3.642600    0.534770
  C      8.174130    2.302070    0.322380
  C      8.888530    1.146400    0.206770
  C      8.270560   -0.103940   -0.007110
  N      7.774190   -1.122630   -0.180020
  C     10.297040    1.127640    0.286850
  N     11.441650    1.113260    0.351690
  C      9.929530    4.264690    0.731620
  C      9.799480    5.631920    0.904640
  S      8.123960    6.158770    0.814700
  C     10.859190    6.541870    1.167830
  C     10.822710    7.926040    1.271240
  C      9.646120    8.673710    1.117440
  N      8.671440    9.268580    1.005930
  C     12.095810    8.481490    1.582840
  C     13.061190    7.491660    1.722300
  S     12.465930    5.899400    1.450670
  S     14.639910    8.050960    2.167630
  C     13.998270    9.660240    2.172580
  C     12.655700    9.768610    1.828590
  C     12.238460   11.130180    1.810920
  C     10.991690   11.602620    1.360980
  N     10.016050   12.038670    0.948120
  C     13.254630   11.998830    2.156690
  S     14.751490   11.168080    2.509890
  C     13.147470   13.438510    2.274340
  C     12.087720   14.060740    2.867700
  F     11.061420   13.468920    3.467320
  S     12.184190   15.786280    2.891250
  C     13.714650   15.667180    2.091730
  F     14.359450   16.791780    1.784670
  C     14.128620   14.393660    1.814280
  C     15.346460   13.998230    1.161720
  C     16.435330   14.762840    0.950180
  C     17.642310   14.239200    0.398400
  C     17.967250   12.920160    0.143430
  C     19.269090   12.782030   -0.336670
  C     19.942180   14.004670   -0.456140
  S     18.975020   15.321830    0.031650
  C     21.257250   13.743540   -0.943240
  C     21.403680   12.362700   -1.121620
  C     20.165780   11.707710   -0.742100
  C     19.888590   10.371170   -0.736220
  C     18.638880    9.871880   -0.313870
  N     17.623080    9.469450    0.036490
  C     20.833100    9.404870   -1.140970
  N     21.600320    8.616960   -1.465840
  C     22.683350   12.014520   -1.595520
  C     23.465370   13.116120   -1.764190
  S     22.673440   14.601860   -1.353210
  H     -4.595720   -0.393390   -0.261130
  H     -2.467880   -1.880370   -0.322190
  H      2.004190   -2.108460    1.158960
  H      1.192890   -6.313420   -1.184290
  H      0.699680   -5.541800   -2.700650
  H     -0.518250   -5.982310   -1.505950
  H     -2.540230    3.960090   -1.328620
  H      0.043990    7.856120    1.224370
  H     -1.097960    7.402250    2.486730
  H     -1.686050    8.166110    1.000050
  H      1.960730    3.734270    0.123140
  H      5.600020    0.585220   -0.010020
  H     10.880540    3.762740    0.752830
  H     15.372340   12.967300    0.845190
  H     16.445350   15.807590    1.222720
  H     17.297460   12.099500    0.317710
  H     23.011060   11.011790   -1.800540
  H     24.478670   13.156080   -2.110340

 Total Charge           Charge          ....    0
 Multiplicity           Mult            ....    1
 Number of Electrons    NEL             ....  664
 Basis Dimension        Dim             .... 1294

ORBITAL ENERGIES
----------------

  NO   OCC          E(Eh)            E(eV)
   0   2.0000    -101.581394     -2764.1703
   1   2.0000    -101.579071     -2764.1070
   2   2.0000     -88.990095     -2421.5436
   3   2.0000     -88.989593     -2421.5299
   4   2.0000     -88.988334     -2421.4957
   5   2.0000     -88.987963     -2421.4856
   6   2.0000     -88.987433     -2421.4712
   7   2.0000     -88.987378     -2421.4697
   8   2.0000     -88.987352     -2421.4689
   9   2.0000     -88.986648     -2421.4498
  10   2.0000     -88.956743     -2420.6360
  11   2.0000     -88.954859     -2420.5848
  12   2.0000     -88.954286     -2420.5692
  13   2.0000     -88.948497     -2420.4117
  14   2.0000     -24.817917      -675.3299
  15   2.0000     -24.813773      -675.2171
  16   2.0000     -14.432867      -392.7383
  17   2.0000     -14.429186      -392.6381
  18   2.0000     -14.429000      -392.6330
  19   2.0000     -14.427677      -392.5971
  20   2.0000     -14.409868      -392.1124
  21   2.0000     -14.401529      -391.8855
  22   2.0000     -10.397339      -282.9260
  23   2.0000     -10.392159      -282.7850
  24   2.0000     -10.362951      -281.9902
  25   2.0000     -10.362929      -281.9896
  26   2.0000     -10.351239      -281.6715
  27   2.0000     -10.350660      -281.6558
  28   2.0000     -10.344103      -281.4773
  29   2.0000     -10.339993      -281.3655
  30   2.0000     -10.338063      -281.3130
  31   2.0000     -10.337774      -281.3051
  32   2.0000     -10.334082      -281.2047
  33   2.0000     -10.331162      -281.1252
  34   2.0000     -10.330111      -281.0966
  35   2.0000     -10.329779      -281.0876
  36   2.0000     -10.329636      -281.0837
  37   2.0000     -10.329610      -281.0830
  38   2.0000     -10.329567      -281.0818
  39   2.0000     -10.328313      -281.0477
  40   2.0000     -10.327842      -281.0349
  41   2.0000     -10.325550      -280.9725
  42   2.0000     -10.325008      -280.9578
  43   2.0000     -10.324617      -280.9471
  44   2.0000     -10.320125      -280.8249
  45   2.0000     -10.316610      -280.7292
  46   2.0000     -10.314915      -280.6831
  47   2.0000     -10.314824      -280.6806
  48   2.0000     -10.311974      -280.6031
  49   2.0000     -10.310895      -280.5737
  50   2.0000     -10.310839      -280.5722
  51   2.0000     -10.310479      -280.5624
  52   2.0000     -10.308495      -280.5084
  53   2.0000     -10.306845      -280.4635
  54   2.0000     -10.305948      -280.4391
  55   2.0000     -10.305488      -280.4266
  56   2.0000     -10.305153      -280.4175
  57   2.0000     -10.304087      -280.3885
  58   2.0000     -10.302651      -280.3494
  59   2.0000     -10.302387      -280.3422
  60   2.0000     -10.302037      -280.3327
  61   2.0000     -10.301723      -280.3241
  62   2.0000     -10.301130      -280.3080
  63   2.0000     -10.300689      -280.2960
  64   2.0000     -10.300360      -280.2870
  65   2.0000     -10.298470      -280.2356
  66   2.0000     -10.298340      -280.2321
  67   2.0000     -10.297774      -280.2167
  68   2.0000     -10.297232      -280.2019
  69   2.0000     -10.297161      -280.2000
  70   2.0000     -10.297053      -280.1971
  71   2.0000     -10.296802      -280.1902
  72   2.0000     -10.295294      -280.1492
  73   2.0000     -10.293713      -280.1062
  74   2.0000     -10.289206      -279.9835
  75   2.0000     -10.286079      -279.8984
  76   2.0000     -10.279502      -279.7195
  77   2.0000     -10.277273      -279.6588
  78   2.0000     -10.276061      -279.6258
  79   2.0000     -10.274667      -279.5879
  80   2.0000     -10.273621      -279.5594
  81   2.0000     -10.271557      -279.5033
  82   2.0000      -9.536152      -259.4919
  83   2.0000      -9.533825      -259.4286
  84   2.0000      -8.085538      -220.0187
  85   2.0000      -8.084363      -219.9867
  86   2.0000      -8.083987      -219.9765
  87   2.0000      -8.082760      -219.9431
  88   2.0000      -8.082457      -219.9348
  89   2.0000      -8.082393      -219.9331
  90   2.0000      -8.081885      -219.9193
  91   2.0000      -8.081649      -219.9129
  92   2.0000      -8.052409      -219.1172
  93   2.0000      -8.050596      -219.0679
  94   2.0000      -8.049395      -219.0352
  95   2.0000      -8.044241      -218.8949
  96   2.0000      -7.306398      -198.8172
  97   2.0000      -7.304074      -198.7539
  98   2.0000      -7.296222      -198.5403
  99   2.0000      -7.296152      -198.5384
 100   2.0000      -7.293889      -198.4768
 101   2.0000      -7.293822      -198.4750
 102   2.0000      -6.054699      -164.7567
 103   2.0000      -6.053925      -164.7357
 104   2.0000      -6.053308      -164.7189
 105   2.0000      -6.052074      -164.6853
 106   2.0000      -6.051889      -164.6803
 107   2.0000      -6.051701      -164.6752
 108   2.0000      -6.051654      -164.6739
 109   2.0000      -6.051157      -164.6604
 110   2.0000      -6.051072      -164.6581
 111   2.0000      -6.049664      -164.6197
 112   2.0000      -6.048911      -164.5992
 113   2.0000      -6.047828      -164.5698
 114   2.0000      -6.047805      -164.5691
 115   2.0000      -6.047344      -164.5566
 116   2.0000      -6.047265      -164.5545
 117   2.0000      -6.046958      -164.5461
 118   2.0000      -6.046931      -164.5454
 119   2.0000      -6.046350      -164.5296
 120   2.0000      -6.046081      -164.5222
 121   2.0000      -6.045262      -164.5000
 122   2.0000      -6.045091      -164.4953
 123   2.0000      -6.044212      -164.4714
 124   2.0000      -6.043804      -164.4603
 125   2.0000      -6.042448      -164.4234
 126   2.0000      -6.021720      -163.8593
 127   2.0000      -6.019917      -163.8103
 128   2.0000      -6.019147      -163.7893
 129   2.0000      -6.017559      -163.7461
 130   2.0000      -6.015743      -163.6967
 131   2.0000      -6.014946      -163.6750
 132   2.0000      -6.014468      -163.6620
 133   2.0000      -6.013926      -163.6472
 134   2.0000      -6.012627      -163.6119
 135   2.0000      -6.010587      -163.5564
 136   2.0000      -6.009480      -163.5263
 137   2.0000      -6.005777      -163.4255
 138   2.0000      -1.333002       -36.2728
 139   2.0000      -1.330627       -36.2082
 140   2.0000      -1.045825       -28.4583
 141   2.0000      -1.041998       -28.3542
 142   2.0000      -1.041756       -28.3476
 143   2.0000      -1.021957       -27.8089
 144   2.0000      -1.021322       -27.7916
 145   2.0000      -1.018423       -27.7127
 146   2.0000      -1.012063       -27.5396
 147   2.0000      -1.008342       -27.4384
 148   2.0000      -1.006897       -27.3991
 149   2.0000      -1.005745       -27.3677
 150   2.0000      -0.999622       -27.2011
 151   2.0000      -0.996746       -27.1228
 152   2.0000      -0.993754       -27.0414
 153   2.0000      -0.993121       -27.0242
 154   2.0000      -0.990704       -26.9584
 155   2.0000      -0.981341       -26.7036
 156   2.0000      -0.975591       -26.5472
 157   2.0000      -0.958189       -26.0737
 158   2.0000      -0.956891       -26.0383
 159   2.0000      -0.946129       -25.7455
 160   2.0000      -0.941969       -25.6323
 161   2.0000      -0.937325       -25.5059
 162   2.0000      -0.922233       -25.0952
 163   2.0000      -0.917013       -24.9532
 164   2.0000      -0.902158       -24.5490
 165   2.0000      -0.901900       -24.5419
 166   2.0000      -0.897661       -24.4266
 167   2.0000      -0.895093       -24.3567
 168   2.0000      -0.881275       -23.9807
 169   2.0000      -0.871193       -23.7064
 170   2.0000      -0.867442       -23.6043
 171   2.0000      -0.860618       -23.4186
 172   2.0000      -0.859284       -23.3823
 173   2.0000      -0.854255       -23.2455
 174   2.0000      -0.850967       -23.1560
 175   2.0000      -0.846814       -23.0430
 176   2.0000      -0.844900       -22.9909
 177   2.0000      -0.837458       -22.7884
 178   2.0000      -0.835056       -22.7230
 179   2.0000      -0.820368       -22.3233
 180   2.0000      -0.807798       -21.9813
 181   2.0000      -0.805063       -21.9069
 182   2.0000      -0.803926       -21.8759
 183   2.0000      -0.794586       -21.6218
 184   2.0000      -0.783619       -21.3234
 185   2.0000      -0.781283       -21.2598
 186   2.0000      -0.776342       -21.1253
 187   2.0000      -0.775786       -21.1102
 188   2.0000      -0.773038       -21.0354
 189   2.0000      -0.747520       -20.3410
 190   2.0000      -0.743314       -20.2266
 191   2.0000      -0.738728       -20.1018
 192   2.0000      -0.721373       -19.6296
 193   2.0000      -0.712933       -19.3999
 194   2.0000      -0.703357       -19.1393
 195   2.0000      -0.703067       -19.1314
 196   2.0000      -0.700237       -19.0544
 197   2.0000      -0.696515       -18.9531
 198   2.0000      -0.691178       -18.8079
 199   2.0000      -0.683287       -18.5932
 200   2.0000      -0.678920       -18.4743
 201   2.0000      -0.677958       -18.4482
 202   2.0000      -0.673836       -18.3360
 203   2.0000      -0.663111       -18.0442
 204   2.0000      -0.656470       -17.8634
 205   2.0000      -0.653179       -17.7739
 206   2.0000      -0.649294       -17.6682
 207   2.0000      -0.642321       -17.4784
 208   2.0000      -0.640608       -17.4318
 209   2.0000      -0.636924       -17.3316
 210   2.0000      -0.631929       -17.1957
 211   2.0000      -0.627403       -17.0725
 212   2.0000      -0.625847       -17.0302
 213   2.0000      -0.617083       -16.7917
 214   2.0000      -0.614506       -16.7216
 215   2.0000      -0.613019       -16.6811
 216   2.0000      -0.611175       -16.6309
 217   2.0000      -0.607429       -16.5290
 218   2.0000      -0.603753       -16.4289
 219   2.0000      -0.599669       -16.3178
 220   2.0000      -0.591991       -16.1089
 221   2.0000      -0.590200       -16.0601
 222   2.0000      -0.588697       -16.0193
 223   2.0000      -0.581169       -15.8144
 224   2.0000      -0.576630       -15.6909
 225   2.0000      -0.575780       -15.6678
 226   2.0000      -0.571882       -15.5617
 227   2.0000      -0.561263       -15.2727
 228   2.0000      -0.556579       -15.1453
 229   2.0000      -0.550912       -14.9911
 230   2.0000      -0.548202       -14.9173
 231   2.0000      -0.544656       -14.8208
 232   2.0000      -0.543469       -14.7885
 233   2.0000      -0.541140       -14.7252
 234   2.0000      -0.538228       -14.6459
 235   2.0000      -0.536769       -14.6062
 236   2.0000      -0.525502       -14.2996
 237   2.0000      -0.523700       -14.2506
 238   2.0000      -0.520432       -14.1617
 239   2.0000      -0.519750       -14.1431
 240   2.0000      -0.518566       -14.1109
 241   2.0000      -0.517235       -14.0747
 242   2.0000      -0.516828       -14.0636
 243   2.0000      -0.512325       -13.9411
 244   2.0000      -0.511201       -13.9105
 245   2.0000      -0.508966       -13.8497
 246   2.0000      -0.505964       -13.7680
 247   2.0000      -0.504071       -13.7165
 248   2.0000      -0.503575       -13.7030
 249   2.0000      -0.500647       -13.6233
 250   2.0000      -0.499900       -13.6030
 251   2.0000      -0.497342       -13.5334
 252   2.0000      -0.495382       -13.4800
 253   2.0000      -0.491598       -13.3771
 254   2.0000      -0.491253       -13.3677
 255   2.0000      -0.489475       -13.3193
 256   2.0000      -0.484622       -13.1872
 257   2.0000      -0.483422       -13.1546
 258   2.0000      -0.481888       -13.1128
 259   2.0000      -0.480241       -13.0680
 260   2.0000      -0.479011       -13.0345
 261   2.0000      -0.471466       -12.8292
 262   2.0000      -0.470777       -12.8105
 263   2.0000      -0.470458       -12.8018
 264   2.0000      -0.468919       -12.7599
 265   2.0000      -0.466456       -12.6929
 266   2.0000      -0.465682       -12.6718
 267   2.0000      -0.464716       -12.6456
 268   2.0000      -0.464310       -12.6345
 269   2.0000      -0.460416       -12.5286
 270   2.0000      -0.459797       -12.5117
 271   2.0000      -0.459763       -12.5108
 272   2.0000      -0.458712       -12.4822
 273   2.0000      -0.458265       -12.4700
 274   2.0000      -0.457416       -12.4469
 275   2.0000      -0.456685       -12.4270
 276   2.0000      -0.453600       -12.3431
 277   2.0000      -0.453028       -12.3275
 278   2.0000      -0.450262       -12.2523
 279   2.0000      -0.447968       -12.1898
 280   2.0000      -0.447394       -12.1742
 281   2.0000      -0.446455       -12.1487
 282   2.0000      -0.442724       -12.0471
 283   2.0000      -0.441525       -12.0145
 284   2.0000      -0.440616       -11.9898
 285   2.0000      -0.440353       -11.9826
 286   2.0000      -0.438672       -11.9369
 287   2.0000      -0.438499       -11.9322
 288   2.0000      -0.437188       -11.8965
 289   2.0000      -0.436871       -11.8879
 290   2.0000      -0.434525       -11.8240
 291   2.0000      -0.431068       -11.7299
 292   2.0000      -0.427518       -11.6333
 293   2.0000      -0.426392       -11.6027
 294   2.0000      -0.426131       -11.5956
 295   2.0000      -0.423732       -11.5303
 296   2.0000      -0.421963       -11.4822
 297   2.0000      -0.420082       -11.4310
 298   2.0000      -0.417983       -11.3739
 299   2.0000      -0.417222       -11.3532
 300   2.0000      -0.413925       -11.2635
 301   2.0000      -0.413479       -11.2513
 302   2.0000      -0.406939       -11.0734
 303   2.0000      -0.403123       -10.9695
 304   2.0000      -0.401457       -10.9242
 305   2.0000      -0.400034       -10.8855
 306   2.0000      -0.390856       -10.6357
 307   2.0000      -0.386796       -10.5252
 308   2.0000      -0.378433       -10.2977
 309   2.0000      -0.375822       -10.2266
 310   2.0000      -0.374841       -10.2000
 311   2.0000      -0.372672       -10.1409
 312   2.0000      -0.371612       -10.1121
 313   2.0000      -0.365509        -9.9460
 314   2.0000      -0.347391        -9.4530
 315   2.0000      -0.346034        -9.4161
 316   2.0000      -0.345264        -9.3951
 317   2.0000      -0.331752        -9.0274
 318   2.0000      -0.325828        -8.8662
 319   2.0000      -0.321260        -8.7419
 320   2.0000      -0.319768        -8.7013
 321   2.0000      -0.315381        -8.5820
 322   2.0000      -0.314365        -8.5543
 323   2.0000      -0.312130        -8.4935
 324   2.0000      -0.311388        -8.4733
 325   2.0000      -0.298310        -8.1174
 326   2.0000      -0.291595        -7.9347
 327   2.0000      -0.287584        -7.8256
 328   2.0000      -0.285227        -7.7614
 329   2.0000      -0.257416        -7.0047
 330   2.0000      -0.255776        -6.9600
 331   2.0000      -0.239646        -6.5211
 332   0.0000      -0.103315        -2.8113
 333   0.0000      -0.101397        -2.7592
 334   0.0000      -0.057411        -1.5622
 335   0.0000      -0.044855        -1.2206
 336   0.0000      -0.038288        -1.0419

MULLIKEN ATOMIC CHARGES
-----------------------
   0 C :   -0.043539
   1 C :    0.000986
   2 C :    0.052604
   3 C :    0.143017
   4 C :   -0.211621
   5 C :    0.032639
   6 C :    0.086163
   7 C :   -0.266605
   8 S :    0.137682
   9 C :    0.123078
  10 Cl:   -0.086543
  11 C :   -0.137136
  12 C :    0.083700
  13 C :    0.145619
  14 C :   -0.162058
  15 S :    0.108921
  16 C :   -0.211559
  17 C :    0.032368
  18 C :    0.086154
  19 C :   -0.265887
  20 S :    0.133235
  21 C :    0.123341
  22 Cl:   -0.089302
  23 C :   -0.096235
  24 C :   -0.009582
  25 S :    0.120323
  26 C :   -0.044940
  27 C :   -0.060943
  28 C :    0.013356
  29 C :   -0.097616
  30 S :    0.194692
  31 C :   -0.089028
  32 C :    0.027569
  33 C :    0.301099
  34 C :   -0.294825
  35 C :   -0.190459
  36 N :    0.179108
  37 C :   -0.190496
  38 N :    0.170034
  39 C :   -0.065742
  40 C :   -0.099801
  41 S :    0.221653
  42 C :   -0.068923
  43 C :    0.013225
  44 C :   -0.367503
  45 N :    0.212684
  46 C :    0.131871
  47 C :   -0.226123
  48 S :    0.173747
  49 S :    0.220325
  50 C :   -0.227359
  51 C :    0.119509
  52 C :    0.030387
  53 C :   -0.339423
  54 N :    0.229777
  55 C :   -0.161072
  56 S :    0.181785
  57 C :    0.026518
  58 C :    0.078736
  59 F :   -0.141265
  60 S :    0.124454
  61 C :    0.027322
  62 F :   -0.158840
  63 C :    0.140754
  64 C :   -0.056458
  65 C :    0.058823
  66 C :   -0.088260
  67 C :   -0.033436
  68 C :   -0.002929
  69 C :   -0.105715
  70 S :    0.190729
  71 C :   -0.118447
  72 C :   -0.029817
  73 C :    0.303033
  74 C :   -0.301423
  75 C :   -0.174361
  76 N :    0.154346
  77 C :   -0.192970
  78 N :    0.172351
  79 C :    0.033031
  80 C :   -0.079730
  81 S :    0.180454
  82 H :    0.027785
  83 H :   -0.009809
  84 H :   -0.006716
  85 H :    0.024985
  86 H :    0.036608
  87 H :    0.031710
  88 H :   -0.006665
  89 H :    0.034818
  90 H :    0.036137
  91 H :    0.024846
  92 H :   -0.009771
  93 H :    0.017536
  94 H :    0.016364
  95 H :    0.014016
  96 H :   -0.009462
  97 H :   -0.002131
  98 H :    0.011023
  99 H :    0.035492
Sum of atomic charges:   -0.0000000

LOEWDIN ATOMIC CHARGES
----------------------
   0 C :   -0.160206
   1 C :   -0.070186
   2 C :   -0.042636
   3 C :   -0.054179
   4 C :   -0.173264
   5 C :   -0.074891
   6 C :   -0.177025
   7 C :   -0.198155
   8 S :    0.445252
   9 C :   -0.061246
  10 Cl:    0.130411
  11 C :   -0.141525
  12 C :   -0.041817
  13 C :   -0.052734
  14 C :   -0.146954
  15 S :    0.416693
  16 C :   -0.171999
  17 C :   -0.073971
  18 C :   -0.177295
  19 C :   -0.197914
  20 S :    0.444144
  21 C :   -0.061125
  22 Cl:    0.128513
  23 C :   -0.070080
  24 C :   -0.170966
  25 S :    0.423210
  26 C :   -0.172248
  27 C :   -0.034046
  28 C :   -0.067275
  29 C :   -0.181144
  30 S :    0.486846
  31 C :   -0.175540
  32 C :   -0.072140
  33 C :    0.082685
  34 C :   -0.101673
  35 C :   -0.018102
  36 N :   -0.029010
  37 C :   -0.016018
  38 N :   -0.034061
  39 C :   -0.028777
  40 C :   -0.192303
  41 S :    0.521630
  42 C :   -0.138841
  43 C :   -0.109841
  44 C :   -0.057986
  45 N :   -0.030584
  46 C :   -0.062036
  47 C :   -0.332623
  48 S :    0.459571
  49 S :    0.445776
  50 C :   -0.330021
  51 C :   -0.064703
  52 C :   -0.089747
  53 C :   -0.043591
  54 N :   -0.031643
  55 C :   -0.133882
  56 S :    0.472888
  57 C :   -0.114238
  58 C :   -0.065816
  59 F :   -0.030594
  60 S :    0.441054
  61 C :   -0.081331
  62 F :   -0.046447
  63 C :   -0.087487
  64 C :   -0.031512
  65 C :   -0.033569
  66 C :   -0.166889
  67 C :   -0.030379
  68 C :   -0.069437
  69 C :   -0.187728
  70 S :    0.478835
  71 C :   -0.180934
  72 C :   -0.080203
  73 C :    0.086754
  74 C :   -0.108552
  75 C :   -0.010094
  76 N :   -0.048769
  77 C :   -0.018033
  78 N :   -0.033786
  79 C :   -0.033607
  80 C :   -0.179646
  81 S :    0.477932
  82 H :    0.025958
  83 H :    0.020116
  84 H :    0.027490
  85 H :    0.034277
  86 H :    0.039769
  87 H :    0.037921
  88 H :    0.027034
  89 H :    0.039272
  90 H :    0.039604
  91 H :    0.034329
  92 H :    0.011492
  93 H :    0.038580
  94 H :    0.035325
  95 H :    0.019743
  96 H :    0.027347
  97 H :    0.034794
  98 H :    0.042404
  99 H :    0.027405

  Mayer bond orders larger than 0.100000
B(  0-C ,  1-C ) :   1.6462 B(  0-C , 15-S ) :   1.1084 B(  0-C , 82-H ) :   0.9669
B(  1-C ,  2-C ) :   1.1815 B(  1-C , 83-H ) :   0.9784 B(  2-C ,  3-C ) :   1.3121
B(  2-C , 14-C ) :   1.2783 B(  3-C ,  4-C ) :   0.9822 B(  3-C , 11-C ) :   1.4216
B(  4-C ,  5-C ) :   1.5532 B(  4-C ,  8-S ) :   1.1314 B(  5-C ,  6-C ) :   1.2204
B(  5-C , 84-H ) :   0.9969 B(  6-C ,  7-C ) :   1.6064 B(  6-C , 10-Cl) :   1.0067
B(  7-C ,  8-S ) :   1.1278 B(  7-C ,  9-C ) :   1.0833 B(  9-C , 85-H ) :   0.9437
B(  9-C , 86-H ) :   0.9489 B(  9-C , 87-H ) :   0.9483 B( 11-C , 12-C ) :   1.2722
B( 11-C , 25-S ) :   1.0531 B( 12-C , 13-C ) :   1.3088 B( 12-C , 23-C ) :   1.1810
B( 13-C , 14-C ) :   1.4180 B( 13-C , 16-C ) :   0.9886 B( 14-C , 15-S ) :   1.0731
B( 16-C , 17-C ) :   1.5515 B( 16-C , 20-S ) :   1.1277 B( 17-C , 18-C ) :   1.2204
B( 17-C , 88-H ) :   0.9963 B( 18-C , 19-C ) :   1.6054 B( 18-C , 22-Cl) :   1.0045
B( 19-C , 20-S ) :   1.1280 B( 19-C , 21-C ) :   1.0830 B( 21-C , 89-H ) :   0.9483
B( 21-C , 90-H ) :   0.9487 B( 21-C , 91-H ) :   0.9437 B( 23-C , 24-C ) :   1.5772
B( 23-C , 92-H ) :   0.9679 B( 24-C , 25-S ) :   1.0678 B( 24-C , 26-C ) :   1.1509
B( 26-C , 27-C ) :   1.4703 B( 26-C , 30-S ) :   1.1084 B( 27-C , 28-C ) :   1.2825
B( 27-C , 93-H ) :   0.9913 B( 28-C , 29-C ) :   1.4510 B( 28-C , 33-C ) :   0.9979
B( 29-C , 30-S ) :   1.1233 B( 29-C , 31-C ) :   1.1775 B( 31-C , 32-C ) :   1.4331
B( 31-C , 41-S ) :   1.1323 B( 32-C , 33-C ) :   0.9898 B( 32-C , 39-C ) :   1.3103
B( 33-C , 34-C ) :   1.7137 B( 34-C , 35-C ) :   1.1315 B( 34-C , 37-C ) :   1.1353
B( 35-C , 36-N ) :   2.9963 B( 37-C , 38-N ) :   2.9891 B( 39-C , 40-C ) :   1.4378
B( 39-C , 94-H ) :   0.9858 B( 40-C , 41-S ) :   1.1051 B( 40-C , 42-C ) :   1.1931
B( 42-C , 43-C ) :   1.4913 B( 42-C , 48-S ) :   1.1447 B( 43-C , 44-C ) :   1.1505
B( 43-C , 46-C ) :   1.2470 B( 44-C , 45-N ) :   2.9634 B( 46-C , 47-C ) :   1.4286
B( 46-C , 51-C ) :   1.0746 B( 47-C , 48-S ) :   1.0777 B( 47-C , 49-S ) :   1.0917
B( 49-S , 50-C ) :   1.0947 B( 50-C , 51-C ) :   1.4187 B( 50-C , 56-S ) :   1.0858
B( 51-C , 52-C ) :   1.2362 B( 52-C , 53-C ) :   1.1596 B( 52-C , 55-C ) :   1.5613
B( 53-C , 54-N ) :   3.0132 B( 55-C , 56-S ) :   1.1515 B( 55-C , 57-C ) :   1.0002
B( 57-C , 58-C ) :   1.4949 B( 57-C , 63-C ) :   1.1716 B( 58-C , 59-F ) :   1.1472
B( 58-C , 60-S ) :   1.1224 B( 60-S , 61-C ) :   1.1213 B( 61-C , 62-F ) :   1.1105
B( 61-C , 63-C ) :   1.4353 B( 63-C , 64-C ) :   1.0823 B( 64-C , 65-C ) :   1.7447
B( 64-C , 95-H ) :   0.9495 B( 65-C , 66-C ) :   1.0932 B( 65-C , 96-H ) :   0.9676
B( 66-C , 67-C ) :   1.4733 B( 66-C , 70-S ) :   1.1095 B( 67-C , 68-C ) :   1.2930
B( 67-C , 97-H ) :   0.9879 B( 68-C , 69-C ) :   1.4581 B( 68-C , 73-C ) :   1.0004
B( 69-C , 70-S ) :   1.1266 B( 69-C , 71-C ) :   1.1791 B( 71-C , 72-C ) :   1.4576
B( 71-C , 81-S ) :   1.1418 B( 72-C , 73-C ) :   1.0167 B( 72-C , 79-C ) :   1.2742
B( 73-C , 74-C ) :   1.7044 B( 74-C , 75-C ) :   1.1321 B( 74-C , 77-C ) :   1.1303
B( 75-C , 76-N ) :   2.9844 B( 77-C , 78-N ) :   3.0037 B( 79-C , 80-C ) :   1.5528
B( 79-C , 98-H ) :   0.9976 B( 80-C , 81-S ) :   1.1467 B( 80-C , 99-H ) :   0.9638

-----------------------------------------------------------------------------
         ABSORPTION SPECTRUM VIA TRANSITION ELECTRIC DIPOLE MOMENTS
-----------------------------------------------------------------------------
State   Energy  Wavelength   fosc         T2         TX        TY        TZ
        (cm-1)    (nm)                  (au**2)     (au)      (au)      (au)
-----------------------------------------------------------------------------
   0   12493.1    800.4   0.140811586   3.71058   1.66358   0.94907   0.20583
   1   14051.6    711.7   0.047674538   1.11696  -0.98039   0.16223   0.35982
   2   18903.9    529.0   0.012416926   0.21624   0.29617  -0.35571  -0.04464
   3   23229.4    430.5   0.000021475   0.00030  -0.00368   0.01689  -0.00235
   4   24575.5    406.9   1.747801459  23.41349  -4.48275  -1.76524  -0.44988
   5   25005.4    399.9   0.013583639   0.17884   0.11855   0.40586   0.00789
   6   26230.8    381.2   0.000246336   0.00309   0.00119  -0.05558   0.00097
   7   27150.3    368.3   0.001814749   0.02200   0.09182  -0.10642  -0.04743
   8   27258.9    366.9   0.008310598   0.10037  -0.17816   0.24607   0.08987
   9   27359.3    365.5   0.774126345   9.31500  -0.53863  -2.97922  -0.38618
  10   27718.4    360.8   0.027466297   0.32622  -0.30032  -0.47011  -0.12255
  11   28434.7    351.7   0.089525974   1.03651   0.86060  -0.37078  -0.39801
  12   29377.4    340.4   0.054691025   0.61288  -0.11558  -0.73658   0.23871
  13   29528.6    338.7   1.075698351  11.99287  -2.79157   1.69021   1.15898
  14   29795.9    335.6   0.000642352   0.00710  -0.04761   0.06068   0.03388
  15   30181.1    331.3   0.067421469   0.73543  -0.83861   0.17363   0.04494
  16   31165.3    320.9   0.163254847   1.72453   0.60012   1.14641   0.22390
  17   31502.3    317.4   0.429576677   4.48925   1.92223  -0.88274  -0.12280
  18   31799.4    314.5   0.073776465   0.76379  -0.35456  -0.79828  -0.02877
  19   32042.0    312.1   0.657784209   6.75833   1.61379   1.98434  -0.46521
  20   32144.4    311.1   0.024036810   0.24618   0.31058   0.37827  -0.08140
  21   32683.4    306.0   0.451927609   4.55215   0.16343  -2.12301  -0.13519
  22   33307.7    300.2   0.093470905   0.92386   0.75111   0.56364   0.20496
  23   33520.8    298.3   0.032469875   0.31889   0.32729   0.45596   0.06223
  24   33802.8    295.8   0.224192144   2.18345   1.13675  -0.79548  -0.50839
  25   33854.9    295.4   0.000435179   0.00423  -0.00137  -0.03927  -0.05185
  26   33966.8    294.4   0.011101428   0.10760  -0.32616  -0.02084   0.02798
  27   34160.6    292.7   0.119785824   1.15440  -0.64820  -0.83806  -0.17856
  28   34533.1    289.6   0.104677615   0.99792  -0.50302  -0.83603  -0.21435
  29   34613.1    288.9   0.016039369   0.15255  -0.27289  -0.27500  -0.04957
  30   35079.9    285.1   0.008557916   0.08031  -0.04717   0.27665   0.03944
  31   35245.4    283.7   0.068088826   0.63599   0.28112  -0.73501  -0.12929
  32   35383.5    282.6   0.081489128   0.75818  -0.30084  -0.81316   0.08036
  33   35860.0    278.9   0.018592270   0.17069  -0.31764  -0.23763  -0.11542
  34   36255.7    275.8   0.140044680   1.27164  -0.66124   0.88999   0.20574
  35   36667.8    272.7   0.162510894   1.45906   0.19923  -1.17147  -0.21687
  36   36705.7    272.4   0.320880968   2.87797  -0.67166   1.49803   0.42750
  37   36894.2    271.0   0.000762246   0.00680   0.07023   0.03932  -0.01799
  38   36935.9    270.7   0.062403334   0.55621  -0.59854  -0.44134  -0.05633
  39   37471.8    266.9   0.034832276   0.30602   0.36555   0.40470  -0.09281
  40   37538.3    266.4   0.063826964   0.55976  -0.16716   0.69824   0.21043
  41   37886.7    263.9   0.010176360   0.08843   0.00927  -0.29717  -0.00529
  42   38279.7    261.2   0.047156726   0.40556   0.63394   0.05831   0.01668
  43   38386.5    260.5   0.001869451   0.01603  -0.09173  -0.08508   0.01950
  44   38567.4    259.3   0.029491656   0.25174   0.15300   0.46861   0.09349
  45   38792.3    257.8   0.003236863   0.02747  -0.10456  -0.12843   0.00657
  46   39409.5    253.7   0.083826054   0.70025  -0.41358  -0.71490  -0.13459
  47   39996.4    250.0   0.008071759   0.06644  -0.07986   0.24399   0.02307
  48   40279.8    248.3   0.001650275   0.01349  -0.03646   0.10978  -0.01030

FINAL SINGLE POINT ENERGY     -8518.672711227866

DIPOLE MOMENT
-------------
                                X             Y             Z
Electronic contribution:     32.91537      39.47454      13.20964
Nuclear contribution   :    -31.66675     -37.24717     -12.57659
                        -----------------------------------------
Total Dipole Moment    :      1.24862       2.22736       0.63305
                        -----------------------------------------
Magnitude (a.u.)       :      2.63077
Magnitude (Debye)      :      6.68689

Rotational constants in cm-1:     0.001034     0.000147     0.000132
Rotational constants in MHz :    30.994065     4.404569     3.945869

                             ****ORCA TERMINATED NORMALLY****
TOTAL RUN TIME: 0 days 0 hours 10 minutes 23 seconds 213 msec
