                         Program Version 4.2.0 -  RELEASE  -
|  1> # ORCA input file
|  2> # SCF done       -215.892043710305          0.000242895964
|  3> ! CAM-B3LYP def2-SVP def2/J RIJCOSX Grid4 TightSCF
|  4> %maxcore 5000
|  5> %tddft
|  6>     Mode sTDDFT
|  7>     Ethresh 5.0
|  8>     maxcore 5000
|  9> end
| 10>
| 11> %pal
| 12>   nprocs 6
| 13>   end
| 14> * xyz 0 1
| 15>    C       -0.91159        13.80672         2.26719
| 16>    C        0.00531        14.48309         1.50634
| 17>    C        0.15520        15.88723         1.51276
| 18>    N        0.33147        17.02041         1.46701
| 19>    C        0.93051        13.90664         0.61051
| 20>    N        1.71222        13.52346        -0.13915
| 21>    C       -1.86330        14.42224         3.18450
| 22>    C       -2.63717        13.39523         3.79772
| 23>    C       -3.61896        13.67063         4.70581
| 24>    C       -3.88043        15.01543         5.04901
| 25>    C       -3.11200        16.05056         4.44113
| 26>    C       -2.10049        15.73345         3.50595
| 27>    C       -3.38242        17.38982         4.78905
| 28>    C       -4.36429        17.69357         5.69255
| 29>    C       -5.11994        16.67362         6.29012
| 30>    C       -4.88299        15.36279         5.97559
| 31>    C       -2.20125        12.08766         3.29054
| 32>    O       -2.63919        11.00188         3.61349
| 33>    C       -1.12443        12.36567         2.31438
| 34>    C       -0.45771        11.44126         1.56943
| 35>    C       -0.59697        10.03264         1.50068
| 36>    C        0.16630         9.28885         0.62162
| 37>    C       -0.11145         7.91242         0.65505
| 38>    C        0.41098         6.85679        -0.11995
| 39>    C       -0.10280         5.57966         0.14445
| 40>    C       -1.12209         5.44575         1.12720
| 41>    N       -1.63521         6.42575         1.83174
| 42>    C       -1.13625         7.62656         1.60388
| 43>    S       -1.70577         9.03616         2.42738
| 44>    S       -1.64361         3.79694         1.33748
| 45>    C       -0.47052         3.28646         0.15336
| 46>    C        0.25443         4.29951        -0.38018
| 47>    F        1.23805         4.10124        -1.27014
| 48>    F       -0.34904         1.99747        -0.13538
| 49>    C        1.39395         7.07194        -1.16005
| 50>    C        1.33394         6.60367        -2.45080
| 51>    C        2.45817         6.97626        -3.19441
| 52>    C        3.38405         7.71688        -2.44621
| 53>    S        2.85461         7.99462        -0.84967
| 54>    C        4.51049         7.99737        -3.26967
| 55>    C        4.27936         7.44593        -4.54001
| 56>    C        2.97892         6.79267        -4.53845
| 57>    C        2.37565         6.14371        -5.57434
| 58>    C        1.09727         5.55869        -5.44882
| 59>    N        0.05379         5.09337        -5.35456
| 60>    C        2.98163         6.02393        -6.84326
| 61>    N        3.46907         5.92362        -7.87597
| 62>    C        5.34338         7.64865        -5.41978
| 63>    C        6.38237         8.33329        -4.82104
| 64>    S        6.03577         8.75096        -3.15138
| 65>    C        7.63890         8.66716        -5.39969
| 66>    C        8.73503         9.18430        -4.76509
| 67>    C        9.85036         9.33242        -5.62010
| 68>    C       11.14352         9.81098        -5.33972
| 69>    C       12.06172         9.78542        -6.39931
| 70>    C       11.60417         9.39694        -7.68397
| 71>    N       10.38545         8.99315        -7.96721
| 72>    C        9.54885         8.94221        -6.95403
| 73>    S        7.91884         8.37706        -7.11119
| 74>    S       12.85173         9.48153        -8.89689
| 75>    C       13.99237         9.95799        -7.67362
| 76>    C       13.45814        10.06865        -6.43196
| 77>    F       14.19211        10.34704        -5.34257
| 78>    F       15.26234        10.16144        -8.00113
| 79>    C       11.44203        10.27391        -4.00143
| 80>    C       12.10194        11.40275        -3.67587
| 81>    C       12.45235        11.83357        -2.32569
| 82>    C       11.85298        11.42093        -1.16808
| 83>    C       12.22457        11.87698         0.11518
| 84>    N       12.49144        12.20904         1.18041
| 85>    C       10.74378        10.54962        -1.11891
| 86>    N        9.81727         9.87639        -1.03344
| 87>    C       13.48393        12.85017        -2.45342
| 88>    C       13.61004        13.20434        -3.82927
| 89>    C       12.68261        12.39481        -4.63378
| 90>    O       12.41723        12.51725        -5.80818
| 91>    C       14.49870        14.15218        -4.24848
| 92>    C       15.32507        14.79030        -3.29696
| 93>    C       15.21095        14.43477        -1.92084
| 94>    C       14.27607        13.45699        -1.51373
| 95>    C       16.04582        15.07562        -0.98234
| 96>    C       16.94960        16.02216        -1.38125
| 97>    C       17.06084        16.37151        -2.73570
| 98>    C       16.26596        15.76908        -3.67286
| 99>    H       -4.18963        12.87097         5.15410
|100>    H       -1.53909        16.54157         3.06522
|101>    H       -2.79825        18.17176         4.32661
|102>    H       -4.56438        18.72233         5.95172
|103>    H       -5.89078        16.93172         7.00061
|104>    H       -5.46138        14.57311         6.43216
|105>    H        0.30337        11.81285         0.89369
|106>    H        0.89229         9.74291        -0.02958
|107>    H        0.50449         6.03817        -2.83421
|108>    H        5.38247         7.31158        -6.43990
|109>    H        8.74045         9.42474        -3.71605
|110>    H       11.05393         9.64442        -3.21109
|111>    H       14.57634        14.40628        -5.29511
|112>    H       14.21592        13.20115        -0.46732
|113>    H       15.95569        14.80406         0.05917
|114>    H       17.58466        16.50705        -0.65521
|115>    H       17.78007        17.11993        -3.03270
|116>    H       16.34792        16.03365        -4.71682
|117> *
|118>
|119>                          ****END OF INPUT****

CARTESIAN COORDINATES (ANGSTROEM)
---------------------------------
  C     -0.911590   13.806720    2.267190
  C      0.005310   14.483090    1.506340
  C      0.155200   15.887230    1.512760
  N      0.331470   17.020410    1.467010
  C      0.930510   13.906640    0.610510
  N      1.712220   13.523460   -0.139150
  C     -1.863300   14.422240    3.184500
  C     -2.637170   13.395230    3.797720
  C     -3.618960   13.670630    4.705810
  C     -3.880430   15.015430    5.049010
  C     -3.112000   16.050560    4.441130
  C     -2.100490   15.733450    3.505950
  C     -3.382420   17.389820    4.789050
  C     -4.364290   17.693570    5.692550
  C     -5.119940   16.673620    6.290120
  C     -4.882990   15.362790    5.975590
  C     -2.201250   12.087660    3.290540
  O     -2.639190   11.001880    3.613490
  C     -1.124430   12.365670    2.314380
  C     -0.457710   11.441260    1.569430
  C     -0.596970   10.032640    1.500680
  C      0.166300    9.288850    0.621620
  C     -0.111450    7.912420    0.655050
  C      0.410980    6.856790   -0.119950
  C     -0.102800    5.579660    0.144450
  C     -1.122090    5.445750    1.127200
  N     -1.635210    6.425750    1.831740
  C     -1.136250    7.626560    1.603880
  S     -1.705770    9.036160    2.427380
  S     -1.643610    3.796940    1.337480
  C     -0.470520    3.286460    0.153360
  C      0.254430    4.299510   -0.380180
  F      1.238050    4.101240   -1.270140
  F     -0.349040    1.997470   -0.135380
  C      1.393950    7.071940   -1.160050
  C      1.333940    6.603670   -2.450800
  C      2.458170    6.976260   -3.194410
  C      3.384050    7.716880   -2.446210
  S      2.854610    7.994620   -0.849670
  C      4.510490    7.997370   -3.269670
  C      4.279360    7.445930   -4.540010
  C      2.978920    6.792670   -4.538450
  C      2.375650    6.143710   -5.574340
  C      1.097270    5.558690   -5.448820
  N      0.053790    5.093370   -5.354560
  C      2.981630    6.023930   -6.843260
  N      3.469070    5.923620   -7.875970
  C      5.343380    7.648650   -5.419780
  C      6.382370    8.333290   -4.821040
  S      6.035770    8.750960   -3.151380
  C      7.638900    8.667160   -5.399690
  C      8.735030    9.184300   -4.765090
  C      9.850360    9.332420   -5.620100
  C     11.143520    9.810980   -5.339720
  C     12.061720    9.785420   -6.399310
  C     11.604170    9.396940   -7.683970
  N     10.385450    8.993150   -7.967210
  C      9.548850    8.942210   -6.954030
  S      7.918840    8.377060   -7.111190
  S     12.851730    9.481530   -8.896890
  C     13.992370    9.957990   -7.673620
  C     13.458140   10.068650   -6.431960
  F     14.192110   10.347040   -5.342570
  F     15.262340   10.161440   -8.001130
  C     11.442030   10.273910   -4.001430
  C     12.101940   11.402750   -3.675870
  C     12.452350   11.833570   -2.325690
  C     11.852980   11.420930   -1.168080
  C     12.224570   11.876980    0.115180
  N     12.491440   12.209040    1.180410
  C     10.743780   10.549620   -1.118910
  N      9.817270    9.876390   -1.033440
  C     13.483930   12.850170   -2.453420
  C     13.610040   13.204340   -3.829270
  C     12.682610   12.394810   -4.633780
  O     12.417230   12.517250   -5.808180
  C     14.498700   14.152180   -4.248480
  C     15.325070   14.790300   -3.296960
  C     15.210950   14.434770   -1.920840
  C     14.276070   13.456990   -1.513730
  C     16.045820   15.075620   -0.982340
  C     16.949600   16.022160   -1.381250
  C     17.060840   16.371510   -2.735700
  C     16.265960   15.769080   -3.672860
  H     -4.189630   12.870970    5.154100
  H     -1.539090   16.541570    3.065220
  H     -2.798250   18.171760    4.326610
  H     -4.564380   18.722330    5.951720
  H     -5.890780   16.931720    7.000610
  H     -5.461380   14.573110    6.432160
  H      0.303370   11.812850    0.893690
  H      0.892290    9.742910   -0.029580
  H      0.504490    6.038170   -2.834210
  H      5.382470    7.311580   -6.439900
  H      8.740450    9.424740   -3.716050
  H     11.053930    9.644420   -3.211090
  H     14.576340   14.406280   -5.295110
  H     14.215920   13.201150   -0.467320
  H     15.955690   14.804060    0.059170
  H     17.584660   16.507050   -0.655210
  H     17.780070   17.119930   -3.032700
  H     16.347920   16.033650   -4.716820

 Total Charge           Charge          ....    0
 Multiplicity           Mult            ....    1
 Number of Electrons    NEL             ....  606
 Basis Dimension        Dim             .... 1290

ORBITAL ENERGIES
----------------

  NO   OCC          E(Eh)            E(eV)
   0   2.0000     -88.994635     -2421.6671
   1   2.0000     -88.991294     -2421.5762
   2   2.0000     -88.973903     -2421.1030
   3   2.0000     -88.970438     -2421.0087
   4   2.0000     -88.963158     -2420.8106
   5   2.0000     -88.959997     -2420.7246
   6   2.0000     -24.813017      -675.1965
   7   2.0000     -24.812949      -675.1947
   8   2.0000     -24.804639      -674.9685
   9   2.0000     -24.800605      -674.8588
  10   2.0000     -19.225903      -523.1634
  11   2.0000     -19.222344      -523.0666
  12   2.0000     -14.432130      -392.7182
  13   2.0000     -14.429779      -392.6542
  14   2.0000     -14.429770      -392.6540
  15   2.0000     -14.429706      -392.6523
  16   2.0000     -14.428822      -392.6282
  17   2.0000     -14.423468      -392.4825
  18   2.0000     -14.423406      -392.4808
  19   2.0000     -14.418875      -392.3575
  20   2.0000     -10.393923      -282.8330
  21   2.0000     -10.393007      -282.8081
  22   2.0000     -10.374881      -282.3149
  23   2.0000     -10.374162      -282.2953
  24   2.0000     -10.372841      -282.2594
  25   2.0000     -10.370006      -282.1822
  26   2.0000     -10.365080      -282.0482
  27   2.0000     -10.358082      -281.8577
  28   2.0000     -10.353229      -281.7257
  29   2.0000     -10.351951      -281.6909
  30   2.0000     -10.350428      -281.6495
  31   2.0000     -10.350388      -281.6484
  32   2.0000     -10.347812      -281.5783
  33   2.0000     -10.346864      -281.5525
  34   2.0000     -10.345115      -281.5049
  35   2.0000     -10.341571      -281.4085
  36   2.0000     -10.335285      -281.2374
  37   2.0000     -10.334108      -281.2054
  38   2.0000     -10.331849      -281.1439
  39   2.0000     -10.330795      -281.1152
  40   2.0000     -10.329935      -281.0918
  41   2.0000     -10.329771      -281.0873
  42   2.0000     -10.329540      -281.0811
  43   2.0000     -10.329116      -281.0695
  44   2.0000     -10.328261      -281.0463
  45   2.0000     -10.326229      -280.9910
  46   2.0000     -10.326185      -280.9898
  47   2.0000     -10.326013      -280.9851
  48   2.0000     -10.325555      -280.9726
  49   2.0000     -10.324088      -280.9327
  50   2.0000     -10.321761      -280.8694
  51   2.0000     -10.319054      -280.7957
  52   2.0000     -10.314269      -280.6655
  53   2.0000     -10.311403      -280.5875
  54   2.0000     -10.310019      -280.5499
  55   2.0000     -10.309645      -280.5397
  56   2.0000     -10.307553      -280.4828
  57   2.0000     -10.307251      -280.4746
  58   2.0000     -10.304730      -280.4059
  59   2.0000     -10.304479      -280.3991
  60   2.0000     -10.304050      -280.3874
  61   2.0000     -10.304009      -280.3863
  62   2.0000     -10.303867      -280.3825
  63   2.0000     -10.303818      -280.3811
  64   2.0000     -10.303601      -280.3752
  65   2.0000     -10.303577      -280.3746
  66   2.0000     -10.303522      -280.3731
  67   2.0000     -10.303274      -280.3664
  68   2.0000     -10.302110      -280.3347
  69   2.0000     -10.301928      -280.3297
  70   2.0000     -10.301725      -280.3242
  71   2.0000     -10.301375      -280.3147
  72   2.0000     -10.301155      -280.3087
  73   2.0000     -10.295055      -280.1427
  74   2.0000     -10.293235      -280.0932
  75   2.0000     -10.291449      -280.0446
  76   2.0000     -10.290905      -280.0298
  77   2.0000     -10.290691      -280.0239
  78   2.0000     -10.290352      -280.0147
  79   2.0000     -10.290350      -280.0146
  80   2.0000     -10.290293      -280.0131
  81   2.0000     -10.289801      -279.9997
  82   2.0000     -10.289581      -279.9937
  83   2.0000     -10.289111      -279.9809
  84   2.0000      -8.088920      -220.1107
  85   2.0000      -8.085738      -220.0241
  86   2.0000      -8.071123      -219.6264
  87   2.0000      -8.067659      -219.5322
  88   2.0000      -8.059546      -219.3114
  89   2.0000      -8.054586      -219.1764
  90   2.0000      -6.058140      -164.8504
  91   2.0000      -6.054991      -164.7647
  92   2.0000      -6.053953      -164.7364
  93   2.0000      -6.051393      -164.6668
  94   2.0000      -6.050776      -164.6500
  95   2.0000      -6.048093      -164.5770
  96   2.0000      -6.040657      -164.3746
  97   2.0000      -6.037237      -164.2816
  98   2.0000      -6.036853      -164.2711
  99   2.0000      -6.033378      -164.1766
 100   2.0000      -6.031858      -164.1352
 101   2.0000      -6.029034      -164.0584
 102   2.0000      -6.028380      -164.0406
 103   2.0000      -6.025047      -163.9499
 104   2.0000      -6.024139      -163.9251
 105   2.0000      -6.020774      -163.8336
 106   2.0000      -6.019734      -163.8053
 107   2.0000      -6.016070      -163.7056
 108   2.0000      -1.331529       -36.2327
 109   2.0000      -1.331470       -36.2311
 110   2.0000      -1.314247       -35.7625
 111   2.0000      -1.311404       -35.6851
 112   2.0000      -1.142312       -31.0839
 113   2.0000      -1.138187       -30.9716
 114   2.0000      -1.078867       -29.3575
 115   2.0000      -1.077841       -29.3295
 116   2.0000      -1.046275       -28.4706
 117   2.0000      -1.028047       -27.9746
 118   2.0000      -1.024162       -27.8689
 119   2.0000      -1.021952       -27.8087
 120   2.0000      -1.008144       -27.4330
 121   2.0000      -1.007331       -27.4109
 122   2.0000      -1.006127       -27.3781
 123   2.0000      -1.004418       -27.3316
 124   2.0000      -1.003291       -27.3009
 125   2.0000      -1.000039       -27.2125
 126   2.0000      -0.998521       -27.1711
 127   2.0000      -0.993925       -27.0461
 128   2.0000      -0.980390       -26.6778
 129   2.0000      -0.979099       -26.6426
 130   2.0000      -0.975504       -26.5448
 131   2.0000      -0.971877       -26.4461
 132   2.0000      -0.959129       -26.0992
 133   2.0000      -0.941468       -25.6187
 134   2.0000      -0.935164       -25.4471
 135   2.0000      -0.928442       -25.2642
 136   2.0000      -0.927273       -25.2324
 137   2.0000      -0.908401       -24.7189
 138   2.0000      -0.902841       -24.5676
 139   2.0000      -0.898961       -24.4620
 140   2.0000      -0.887085       -24.1388
 141   2.0000      -0.885654       -24.0999
 142   2.0000      -0.879148       -23.9228
 143   2.0000      -0.871840       -23.7240
 144   2.0000      -0.864282       -23.5183
 145   2.0000      -0.862041       -23.4573
 146   2.0000      -0.857589       -23.3362
 147   2.0000      -0.852686       -23.2028
 148   2.0000      -0.845338       -23.0028
 149   2.0000      -0.834240       -22.7008
 150   2.0000      -0.833024       -22.6677
 151   2.0000      -0.832256       -22.6468
 152   2.0000      -0.822716       -22.3872
 153   2.0000      -0.819349       -22.2956
 154   2.0000      -0.807143       -21.9635
 155   2.0000      -0.800081       -21.7713
 156   2.0000      -0.787696       -21.4343
 157   2.0000      -0.777735       -21.1633
 158   2.0000      -0.768829       -20.9209
 159   2.0000      -0.768161       -20.9027
 160   2.0000      -0.760888       -20.7048
 161   2.0000      -0.740197       -20.1418
 162   2.0000      -0.730347       -19.8738
 163   2.0000      -0.723212       -19.6796
 164   2.0000      -0.718248       -19.5445
 165   2.0000      -0.712543       -19.3893
 166   2.0000      -0.709076       -19.2949
 167   2.0000      -0.708085       -19.2680
 168   2.0000      -0.704337       -19.1660
 169   2.0000      -0.702924       -19.1275
 170   2.0000      -0.698534       -19.0081
 171   2.0000      -0.693570       -18.8730
 172   2.0000      -0.688332       -18.7305
 173   2.0000      -0.683954       -18.6113
 174   2.0000      -0.682702       -18.5773
 175   2.0000      -0.681397       -18.5417
 176   2.0000      -0.678136       -18.4530
 177   2.0000      -0.665479       -18.1086
 178   2.0000      -0.663726       -18.0609
 179   2.0000      -0.657208       -17.8835
 180   2.0000      -0.647946       -17.6315
 181   2.0000      -0.641277       -17.4500
 182   2.0000      -0.640340       -17.4245
 183   2.0000      -0.631918       -17.1954
 184   2.0000      -0.626998       -17.0615
 185   2.0000      -0.625899       -17.0316
 186   2.0000      -0.620687       -16.8897
 187   2.0000      -0.619403       -16.8548
 188   2.0000      -0.616652       -16.7799
 189   2.0000      -0.613620       -16.6974
 190   2.0000      -0.612346       -16.6628
 191   2.0000      -0.611714       -16.6456
 192   2.0000      -0.609749       -16.5921
 193   2.0000      -0.606205       -16.4957
 194   2.0000      -0.595781       -16.2120
 195   2.0000      -0.594967       -16.1899
 196   2.0000      -0.592970       -16.1355
 197   2.0000      -0.589680       -16.0460
 198   2.0000      -0.579705       -15.7746
 199   2.0000      -0.575725       -15.6663
 200   2.0000      -0.566054       -15.4031
 201   2.0000      -0.563231       -15.3263
 202   2.0000      -0.561789       -15.2870
 203   2.0000      -0.560633       -15.2556
 204   2.0000      -0.558490       -15.1973
 205   2.0000      -0.555244       -15.1089
 206   2.0000      -0.552405       -15.0317
 207   2.0000      -0.551876       -15.0173
 208   2.0000      -0.550891       -14.9905
 209   2.0000      -0.548487       -14.9251
 210   2.0000      -0.546789       -14.8789
 211   2.0000      -0.545524       -14.8445
 212   2.0000      -0.543670       -14.7940
 213   2.0000      -0.538425       -14.6513
 214   2.0000      -0.536333       -14.5944
 215   2.0000      -0.535965       -14.5843
 216   2.0000      -0.531392       -14.4599
 217   2.0000      -0.530528       -14.4364
 218   2.0000      -0.529170       -14.3994
 219   2.0000      -0.527191       -14.3456
 220   2.0000      -0.523425       -14.2431
 221   2.0000      -0.523147       -14.2356
 222   2.0000      -0.520290       -14.1578
 223   2.0000      -0.519848       -14.1458
 224   2.0000      -0.517757       -14.0889
 225   2.0000      -0.512409       -13.9434
 226   2.0000      -0.511780       -13.9263
 227   2.0000      -0.511397       -13.9158
 228   2.0000      -0.505737       -13.7618
 229   2.0000      -0.503179       -13.6922
 230   2.0000      -0.502972       -13.6866
 231   2.0000      -0.502200       -13.6655
 232   2.0000      -0.501514       -13.6469
 233   2.0000      -0.495908       -13.4943
 234   2.0000      -0.494448       -13.4546
 235   2.0000      -0.494091       -13.4449
 236   2.0000      -0.491450       -13.3730
 237   2.0000      -0.490159       -13.3379
 238   2.0000      -0.487620       -13.2688
 239   2.0000      -0.486180       -13.2296
 240   2.0000      -0.478621       -13.0240
 241   2.0000      -0.476022       -12.9532
 242   2.0000      -0.472937       -12.8693
 243   2.0000      -0.471138       -12.8203
 244   2.0000      -0.469604       -12.7786
 245   2.0000      -0.467654       -12.7255
 246   2.0000      -0.462968       -12.5980
 247   2.0000      -0.460591       -12.5333
 248   2.0000      -0.460548       -12.5322
 249   2.0000      -0.457009       -12.4359
 250   2.0000      -0.455229       -12.3874
 251   2.0000      -0.454116       -12.3571
 252   2.0000      -0.453495       -12.3402
 253   2.0000      -0.449829       -12.2405
 254   2.0000      -0.446759       -12.1569
 255   2.0000      -0.446160       -12.1406
 256   2.0000      -0.445313       -12.1176
 257   2.0000      -0.444739       -12.1020
 258   2.0000      -0.443059       -12.0562
 259   2.0000      -0.441576       -12.0159
 260   2.0000      -0.439829       -11.9683
 261   2.0000      -0.439745       -11.9661
 262   2.0000      -0.439559       -11.9610
 263   2.0000      -0.439193       -11.9510
 264   2.0000      -0.438701       -11.9377
 265   2.0000      -0.435776       -11.8581
 266   2.0000      -0.433045       -11.7838
 267   2.0000      -0.432560       -11.7706
 268   2.0000      -0.430339       -11.7101
 269   2.0000      -0.429088       -11.6761
 270   2.0000      -0.427135       -11.6229
 271   2.0000      -0.425951       -11.5907
 272   2.0000      -0.423609       -11.5270
 273   2.0000      -0.422597       -11.4994
 274   2.0000      -0.415904       -11.3173
 275   2.0000      -0.415280       -11.3003
 276   2.0000      -0.410138       -11.1604
 277   2.0000      -0.409363       -11.1393
 278   2.0000      -0.403719       -10.9857
 279   2.0000      -0.397150       -10.8070
 280   2.0000      -0.395060       -10.7501
 281   2.0000      -0.381171       -10.3722
 282   2.0000      -0.380835       -10.3630
 283   2.0000      -0.365256        -9.9391
 284   2.0000      -0.362493        -9.8639
 285   2.0000      -0.358919        -9.7667
 286   2.0000      -0.352543        -9.5932
 287   2.0000      -0.350301        -9.5322
 288   2.0000      -0.344911        -9.3855
 289   2.0000      -0.342124        -9.3097
 290   2.0000      -0.338576        -9.2131
 291   2.0000      -0.335943        -9.1415
 292   2.0000      -0.332542        -9.0489
 293   2.0000      -0.323118        -8.7925
 294   2.0000      -0.322321        -8.7708
 295   2.0000      -0.321062        -8.7365
 296   2.0000      -0.316280        -8.6064
 297   2.0000      -0.302259        -8.2249
 298   2.0000      -0.300393        -8.1741
 299   2.0000      -0.292432        -7.9575
 300   2.0000      -0.286407        -7.7935
 301   2.0000      -0.281359        -7.6562
 302   2.0000      -0.257427        -7.0049
 303   0.0000      -0.107535        -2.9262
 304   0.0000      -0.101864        -2.7719
 305   0.0000      -0.098668        -2.6849
 306   0.0000      -0.065308        -1.7771
 307   0.0000      -0.063333        -1.7234

MULLIKEN ATOMIC CHARGES
-----------------------
   0 C :    0.332458
   1 C :   -0.354158
   2 C :   -0.183095
   3 N :    0.152942
   4 C :   -0.183846
   5 N :    0.143303
   6 C :    0.046962
   7 C :   -0.011325
   8 C :   -0.073796
   9 C :    0.096750
  10 C :    0.093772
  11 C :   -0.078544
  12 C :   -0.018355
  13 C :    0.037316
  14 C :    0.035611
  15 C :   -0.013389
  16 C :    0.165765
  17 O :   -0.158650
  18 C :   -0.074238
  19 C :   -0.040594
  20 C :   -0.036255
  21 C :   -0.061541
  22 C :    0.105812
  23 C :    0.133714
  24 C :    0.027146
  25 C :   -0.163188
  26 N :   -0.009720
  27 C :   -0.136612
  28 S :    0.198140
  29 S :    0.139692
  30 C :    0.066173
  31 C :    0.223309
  32 F :   -0.171289
  33 F :   -0.145984
  34 C :   -0.202377
  35 C :    0.031199
  36 C :   -0.010135
  37 C :   -0.098852
  38 S :    0.212877
  39 C :   -0.098033
  40 C :    0.013222
  41 C :    0.304299
  42 C :   -0.295153
  43 C :   -0.189080
  44 N :    0.177384
  45 C :   -0.190173
  46 N :    0.176672
  47 C :   -0.057030
  48 C :   -0.055554
  49 S :    0.216648
  50 C :   -0.021757
  51 C :   -0.079424
  52 C :    0.091896
  53 C :    0.079198
  54 C :    0.078449
  55 C :   -0.177926
  56 N :    0.003241
  57 C :   -0.145294
  58 S :    0.149529
  59 S :    0.136975
  60 C :    0.066474
  61 C :    0.227564
  62 F :   -0.180729
  63 F :   -0.148251
  64 C :   -0.088762
  65 C :   -0.039470
  66 C :    0.282827
  67 C :   -0.336561
  68 C :   -0.182177
  69 N :    0.159251
  70 C :   -0.171939
  71 N :    0.142062
  72 C :    0.052217
  73 C :    0.008799
  74 C :    0.137843
  75 O :   -0.138640
  76 C :   -0.076862
  77 C :    0.095314
  78 C :    0.095516
  79 C :   -0.080481
  80 C :   -0.016301
  81 C :    0.036296
  82 C :    0.036765
  83 C :   -0.013515
  84 H :   -0.010154
  85 H :   -0.008669
  86 H :   -0.007822
  87 H :   -0.003585
  88 H :   -0.002734
  89 H :   -0.015528
  90 H :    0.010886
  91 H :    0.009187
  92 H :    0.012498
  93 H :    0.017438
  94 H :   -0.002366
  95 H :    0.039837
  96 H :   -0.009307
  97 H :   -0.004401
  98 H :   -0.008429
  99 H :   -0.002208
 100 H :   -0.002195
 101 H :   -0.014777
Sum of atomic charges:   -0.0000000

LOEWDIN ATOMIC CHARGES
----------------------
   0 C :    0.077867
   1 C :   -0.137696
   2 C :   -0.016864
   3 N :   -0.050745
   4 C :   -0.020269
   5 N :   -0.052621
   6 C :   -0.026325
   7 C :   -0.056709
   8 C :    0.035304
   9 C :   -0.007844
  10 C :   -0.005608
  11 C :    0.021598
  12 C :   -0.004569
  13 C :   -0.011600
  14 C :   -0.010633
  15 C :   -0.008406
  16 C :    0.084429
  17 O :   -0.151492
  18 C :   -0.094232
  19 C :    0.058472
  20 C :   -0.166405
  21 C :   -0.020677
  22 C :   -0.073863
  23 C :   -0.004148
  24 C :   -0.080810
  25 C :   -0.120472
  26 N :   -0.095107
  27 C :   -0.135088
  28 S :    0.482896
  29 S :    0.419076
  30 C :   -0.094836
  31 C :    0.000006
  32 F :   -0.045659
  33 F :   -0.036589
  34 C :   -0.175950
  35 C :   -0.011089
  36 C :   -0.070226
  37 C :   -0.176445
  38 S :    0.496054
  39 C :   -0.177356
  40 C :   -0.068230
  41 C :    0.081429
  42 C :   -0.098524
  43 C :   -0.016341
  44 N :   -0.029829
  45 C :   -0.017449
  46 N :   -0.028821
  47 C :   -0.027895
  48 C :   -0.181260
  49 S :    0.501667
  50 C :   -0.152650
  51 C :   -0.069319
  52 C :   -0.045865
  53 C :   -0.007585
  54 C :   -0.063643
  55 C :   -0.130340
  56 N :   -0.082650
  57 C :   -0.133011
  58 S :    0.428984
  59 S :    0.418978
  60 C :   -0.088136
  61 C :   -0.000320
  62 F :   -0.046973
  63 F :   -0.038428
  64 C :    0.061197
  65 C :   -0.062875
  66 C :    0.081050
  67 C :   -0.133296
  68 C :   -0.018615
  69 N :   -0.044901
  70 C :   -0.013295
  71 N :   -0.057059
  72 C :   -0.026090
  73 C :   -0.052735
  74 C :    0.078285
  75 O :   -0.130160
  76 C :    0.035114
  77 C :   -0.005718
  78 C :   -0.005410
  79 C :    0.022653
  80 C :   -0.004533
  81 C :   -0.011319
  82 C :   -0.009318
  83 C :   -0.008271
  84 H :    0.040177
  85 H :    0.039301
  86 H :    0.035244
  87 H :    0.033797
  88 H :    0.033643
  89 H :    0.032622
  90 H :    0.050813
  91 H :    0.028335
  92 H :    0.041860
  93 H :    0.038284
  94 H :    0.029274
  95 H :    0.046623
  96 H :    0.040413
  97 H :    0.039574
  98 H :    0.035080
  99 H :    0.034206
 100 H :    0.033970
 101 H :    0.032926

  Mayer bond orders larger than 0.100000
B(  0-C ,  1-C ) :   1.6305 B(  0-C ,  6-C ) :   0.9905 B(  0-C , 18-C ) :   1.0651
B(  1-C ,  2-C ) :   1.1478 B(  1-C ,  4-C ) :   1.1423 B(  2-C ,  3-N ) :   2.9626
B(  4-C ,  5-N ) :   2.9546 B(  6-C ,  7-C ) :   1.2137 B(  6-C , 11-C ) :   1.4474
B(  7-C ,  8-C ) :   1.4700 B(  7-C , 16-C ) :   0.9596 B(  8-C ,  9-C ) :   1.1809
B(  8-C , 84-H ) :   1.0158 B(  9-C , 10-C ) :   1.2538 B(  9-C , 15-C ) :   1.2433
B( 10-C , 11-C ) :   1.2095 B( 10-C , 12-C ) :   1.2400 B( 11-C , 85-H ) :   0.9888
B( 12-C , 13-C ) :   1.4914 B( 12-C , 86-H ) :   0.9969 B( 13-C , 14-C ) :   1.2581
B( 13-C , 87-H ) :   0.9890 B( 14-C , 15-C ) :   1.4891 B( 14-C , 88-H ) :   0.9894
B( 15-C , 89-H ) :   0.9978 B( 16-C , 17-O ) :   2.1712 B( 16-C , 18-C ) :   0.9452
B( 18-C , 19-C ) :   1.5562 B( 19-C , 20-C ) :   1.2075 B( 19-C , 90-H ) :   0.9411
B( 20-C , 21-C ) :   1.4572 B( 20-C , 28-S ) :   1.0726 B( 21-C , 22-C ) :   1.1840
B( 21-C , 91-H ) :   0.9956 B( 22-C , 23-C ) :   1.3136 B( 22-C , 27-C ) :   1.1639
B( 23-C , 24-C ) :   1.4184 B( 23-C , 34-C ) :   0.9854 B( 24-C , 25-C ) :   1.1519
B( 24-C , 31-C ) :   1.0729 B( 25-C , 26-N ) :   1.5769 B( 25-C , 29-S ) :   1.0824
B( 26-N , 27-C ) :   1.5200 B( 27-C , 28-S ) :   1.0737 B( 29-S , 30-C ) :   1.0732
B( 30-C , 31-C ) :   1.5171 B( 30-C , 33-F ) :   1.1463 B( 31-C , 32-F ) :   1.1343
B( 34-C , 35-C ) :   1.5121 B( 34-C , 38-S ) :   1.1099 B( 35-C , 36-C ) :   1.2918
B( 35-C , 92-H ) :   0.9876 B( 36-C , 37-C ) :   1.4488 B( 36-C , 41-C ) :   0.9906
B( 37-C , 38-S ) :   1.1309 B( 37-C , 39-C ) :   1.1761 B( 39-C , 40-C ) :   1.4492
B( 39-C , 49-S ) :   1.1339 B( 40-C , 41-C ) :   0.9958 B( 40-C , 47-C ) :   1.2919
B( 41-C , 42-C ) :   1.7163 B( 42-C , 43-C ) :   1.1351 B( 42-C , 45-C ) :   1.1331
B( 43-C , 44-N ) :   2.9908 B( 45-C , 46-N ) :   2.9935 B( 47-C , 48-C ) :   1.4645
B( 47-C , 93-H ) :   0.9896 B( 48-C , 49-S ) :   1.1134 B( 48-C , 50-C ) :   1.1598
B( 50-C , 51-C ) :   1.5432 B( 50-C , 58-S ) :   1.0867 B( 51-C , 52-C ) :   1.1917
B( 51-C , 94-H ) :   0.9799 B( 52-C , 53-C ) :   1.3266 B( 52-C , 57-C ) :   1.1937
B( 53-C , 54-C ) :   1.3646 B( 53-C , 64-C ) :   1.0393 B( 54-C , 55-C ) :   1.1840
B( 54-C , 61-C ) :   1.0905 B( 55-C , 56-N ) :   1.5555 B( 55-C , 59-S ) :   1.0685
B( 56-N , 57-C ) :   1.5481 B( 57-C , 58-S ) :   1.0764 B( 59-S , 60-C ) :   1.0900
B( 60-C , 61-C ) :   1.5060 B( 60-C , 63-F ) :   1.1463 B( 61-C , 62-F ) :   1.1098
B( 64-C , 65-C ) :   1.7466 B( 64-C , 95-H ) :   0.9275 B( 65-C , 66-C ) :   1.0292
B( 65-C , 74-C ) :   0.9044 B( 66-C , 67-C ) :   1.6641 B( 66-C , 72-C ) :   1.0072
B( 67-C , 68-C ) :   1.1340 B( 67-C , 70-C ) :   1.1480 B( 68-C , 69-N ) :   2.9822
B( 70-C , 71-N ) :   2.9526 B( 72-C , 73-C ) :   1.2106 B( 72-C , 79-C ) :   1.4407
B( 73-C , 74-C ) :   0.9353 B( 73-C , 76-C ) :   1.4737 B( 74-C , 75-O ) :   2.2392
B( 76-C , 77-C ) :   1.1859 B( 76-C , 96-H ) :   1.0157 B( 77-C , 78-C ) :   1.2516
B( 77-C , 83-C ) :   1.2452 B( 78-C , 79-C ) :   1.2139 B( 78-C , 80-C ) :   1.2375
B( 79-C , 97-H ) :   0.9918 B( 80-C , 81-C ) :   1.4918 B( 80-C , 98-H ) :   0.9974
B( 81-C , 82-C ) :   1.2585 B( 81-C , 99-H ) :   0.9887 B( 82-C , 83-C ) :   1.4894
B( 82-C ,100-H ) :   0.9891 B( 83-C ,101-H ) :   0.9979

-----------------------------------------------------------------------------
         ABSORPTION SPECTRUM VIA TRANSITION ELECTRIC DIPOLE MOMENTS
-----------------------------------------------------------------------------
State   Energy  Wavelength   fosc         T2         TX        TY        TZ
        (cm-1)    (nm)                  (au**2)     (au)      (au)      (au)
-----------------------------------------------------------------------------
   0   14281.0    700.2   0.152853416   3.52363  -1.63347  -0.21247   0.90015
   1   19512.4    512.5   0.371807879   6.27310   2.48665   0.16941  -0.24695
   2   20390.0    490.4   0.471411093   7.61130  -0.22464   2.07570   1.80341
   3   22882.3    437.0   0.161793291   2.32775   0.63497  -0.46966  -1.30537
   4   23399.2    427.4   0.017062195   0.24005   0.23294   0.24728  -0.35305
   5   24922.9    401.2   0.680184993   8.98471  -0.07217  -2.97331  -0.37273
   6   25431.0    393.2   0.033314680   0.43127  -0.18069  -0.62756  -0.06920
   7   26343.1    379.6   0.005947938   0.07433   0.15014   0.00973  -0.22737
   8   26463.0    377.9   0.059871969   0.74484  -0.70864  -0.47174   0.14185
   9   26716.3    374.3   0.344741282   4.24807  -0.70698   1.75824   0.81046
  10   27429.0    364.6   0.044456419   0.53358  -0.01987   0.72909   0.04019
  11   27512.6    363.5   0.011258579   0.13472  -0.11592  -0.34213  -0.06502
  12   27699.1    361.0   0.021722268   0.25818   0.27496   0.34141   0.25693
  13   28159.4    355.1   0.614927260   7.18913  -2.31294  -1.16393   0.69620
  14   28777.4    347.5   0.087856096   1.00507   0.66312   0.05384  -0.74996
  15   29173.5    342.8   0.509439588   5.74883   1.95302   0.71452  -1.19332
  16   29421.7    339.9   0.013162179   0.14728  -0.10471  -0.33109   0.16337
  17   29580.2    338.1   0.219641210   2.44449  -0.95468   0.02030   1.23801
  18   30235.3    330.7   0.060013194   0.65344  -0.32458  -0.70250  -0.23364
  19   30509.4    327.8   0.082421519   0.88937  -0.84781  -0.28984   0.29425
  20   31323.7    319.2   0.136358697   1.43313   0.85810   0.78813  -0.27503
  21   31728.7    315.2   0.018065787   0.18745  -0.40960  -0.04935   0.13129
  22   32013.7    312.4   0.699340624   7.19165   1.37978   1.14431   1.99460
  23   32958.6    303.4   0.802059598   8.01148   2.18663  -0.69988  -1.65538
  24   33036.1    302.7   0.135732093   1.35260  -0.76378  -0.41976   0.77010
  25   33248.7    300.8   0.097722272   0.96760   0.22514  -0.75014  -0.59514
  26   33337.8    300.0   0.089252193   0.88137  -0.77435   0.16081   0.50585
  27   33498.2    298.5   0.245028759   2.40808   1.09966   0.95779  -0.53053
  28   33629.5    297.4   0.008181996   0.08010  -0.08955  -0.17420   0.20428
  29   33666.0    297.0   0.016178336   0.15820   0.34207  -0.06870  -0.19098
  30   33894.4    295.0   0.094373570   0.91664   0.90330   0.22936  -0.21928
  31   34000.8    294.1   0.187439311   1.81488  -0.43189   0.83464   0.96526
  32   34182.4    292.5   0.076088650   0.73281  -0.82043  -0.21959   0.10715
  33   34283.2    291.7   0.308733500   2.96468   1.19900   0.93101  -0.81259
  34   34471.2    290.1   0.074384655   0.71040   0.18704  -0.03067  -0.82126
  35   34532.7    289.6   0.041274042   0.39348   0.53288   0.31822  -0.09085
  36   34868.1    286.8   0.026340892   0.24870   0.33671   0.25929  -0.26095
  37   34992.8    285.8   0.030170210   0.28384  -0.08275  -0.36357   0.38054
  38   35271.8    283.5   0.000631609   0.00590  -0.06328   0.04108  -0.01423
  39   35597.1    280.9   0.007734272   0.07153   0.07999   0.25361  -0.02849
  40   35669.9    280.3   0.316732209   2.92325  -0.95876  -1.32476  -0.49905
  41   35714.7    280.0   0.124100652   1.14394   0.53022   0.72757   0.57744
  42   36166.3    276.5   0.048359008   0.44020  -0.19791  -0.63021  -0.06216
  43   36198.5    276.3   0.140719722   1.27979  -0.53634  -0.89150  -0.44426
  44   36315.2    275.4   0.002142757   0.01942  -0.07064  -0.11946  -0.01282
  45   36953.0    270.6   0.035222156   0.31379   0.49717  -0.01595  -0.25760
  46   37038.8    270.0   0.063886256   0.56784  -0.36465   0.16708   0.63793
  47   37239.0    268.5   0.069812659   0.61718   0.60961   0.25383  -0.42560
  48   37392.3    267.4   0.131192335   1.15505   0.32707  -0.78644  -0.65543
  49   37533.0    266.4   0.082159549   0.72064   0.17022   0.81403  -0.17037
  50   37676.9    265.4   0.019499088   0.17038  -0.18665   0.31237   0.19485
  51   37915.5    263.7   0.069170739   0.60059   0.10173   0.09200  -0.76274
  52   38109.4    262.4   0.107327450   0.92716  -0.69535  -0.16555   0.64517
  53   38392.3    260.5   0.003445453   0.02954   0.02823   0.10665  -0.13181
  54   38571.9    259.3   0.014161369   0.12087  -0.08292   0.32457  -0.09298
  55   38775.9    257.9   0.027415668   0.23276  -0.04906  -0.43084   0.21151
  56   39166.3    255.3   0.345138677   2.90106   0.75789   1.43372  -0.52069
  57   39405.1    253.8   0.174641904   1.45906  -0.08746   0.44205  -1.12071
  58   39711.2    251.8   0.266245329   2.20722   0.08224   1.17272   0.90839
  59   40211.4    248.7   0.012813891   0.10491   0.28001  -0.14844  -0.06684

FINAL SINGLE POINT ENERGY     -5821.521059932134

DIPOLE MOMENT
-------------
                                X             Y             Z
Electronic contribution:      3.95321     -67.96325     -36.90340
Nuclear contribution   :     -3.05878      70.20214      39.03777
                        -----------------------------------------
Total Dipole Moment    :      0.89443       2.23889       2.13436
                        -----------------------------------------
Magnitude (a.u.)       :      3.21996
Magnitude (Debye)      :      8.18449

Rotational constants in cm-1:     0.000691     0.000254     0.000201
Rotational constants in MHz :    20.722722     7.616976     6.018330

                             ****ORCA TERMINATED NORMALLY****
TOTAL RUN TIME: 0 days 0 hours 11 minutes 24 seconds 777 msec
