                         Program Version 4.2.0 -  RELEASE  -
|  1> # ORCA input file
|  2> # SCF done       -169.826243355912          0.000400365659
|  3> ! CAM-B3LYP def2-SVP def2/J RIJCOSX Grid4 TightSCF
|  4> %maxcore 5000
|  5> %tddft
|  6>     Mode sTDDFT
|  7>     Ethresh 5.0
|  8>     maxcore 5000
|  9> end
| 10>
| 11> %pal
| 12>   nprocs 6
| 13>   end
| 14> * xyz 0 1
| 15>    C       -0.36836        11.30044        -2.12419
| 16>    N       -1.60893        11.67315        -2.07396
| 17>    C       -2.27186        10.65327        -1.43976
| 18>    C       -1.34416         9.57499        -1.09159
| 19>    C       -2.04689         8.48447        -0.40078
| 20>    O       -1.60101         7.44535         0.02778
| 21>    C       -3.44163         8.98589        -0.35707
| 22>    C       -3.52399        10.31638        -1.00802
| 23>    N       -4.79865        10.78958        -0.96359
| 24>    C       -5.48429         9.86726        -0.34460
| 25>    C       -4.69749         8.71200         0.06548
| 26>    C       -0.10240         9.98293        -1.52226
| 27>    C        1.13828         9.30765        -1.40375
| 28>    C        2.33111         9.82680        -1.79141
| 29>    C        3.58208         9.17973        -1.64690
| 30>    C        3.87769         7.91426        -1.15984
| 31>    C        5.24590         7.66256        -1.14833
| 32>    C        6.01143         8.74551        -1.62899
| 33>    S        5.03859        10.06026        -2.10522
| 34>    C        7.38209         8.40976        -1.54469
| 35>    C        7.49036         7.11055        -1.01180
| 36>    C        6.15302         6.59517        -0.75634
| 37>    C        5.82614         5.37069        -0.25470
| 38>    C        4.48780         4.97021        -0.05291
| 39>    N        3.40306         4.63798         0.11040
| 40>    C        6.80808         4.41829         0.09290
| 41>    N        7.60557         3.64527         0.37674
| 42>    C        8.80956         6.69755        -0.85840
| 43>    C        9.70526         7.67546        -1.26545
| 44>    S        8.90633         9.11963        -1.86072
| 45>    C       11.11389         7.62840        -1.20490
| 46>    C       11.98731         8.65325        -1.57889
| 47>    O       11.46586         9.78600        -2.09467
| 48>    C       12.36013        10.81883        -2.44861
| 49>    C       13.32882         8.34207        -1.34382
| 50>    C       13.50477         7.08420        -0.79793
| 51>    S       11.98464         6.26421        -0.57906
| 52>    C       14.72080         6.47893        -0.40394
| 53>    C       14.90157         5.20103         0.10249
| 54>    C       16.23208         4.95409         0.42535
| 55>    C       17.07554         6.05177         0.16903
| 56>    S       16.22579         7.38244        -0.48660
| 57>    C       18.39331         5.72294         0.55850
| 58>    C       18.38507         4.39923         1.06180
| 59>    C       17.03489         3.87300         0.98147
| 60>    C       16.60711         2.62708         1.33594
| 61>    C       15.26020         2.22876         1.20121
| 62>    N       14.16619         1.90454         1.09153
| 63>    C       17.49106         1.65455         1.84953
| 64>    N       18.21492         0.86666         2.26152
| 65>    C       19.63526         3.98169         1.49950
| 66>    C       20.59626         4.96897         1.33567
| 67>    S       19.93237         6.44511         0.63305
| 68>    C       21.96457         5.05496         1.66770
| 69>    N       22.53015         6.25649         1.53894
| 70>    C       23.79380         6.12000         1.96035
| 71>    C       24.06281         4.73323         2.38562
| 72>    C       25.45843         4.60761         2.84994
| 73>    O       26.02792         3.63095         3.28689
| 74>    C       25.98609         5.96908         2.66296
| 75>    C       24.94070         6.85967         2.12315
| 76>    N       25.42220         8.11269         1.94520
| 77>    C       26.67595         8.05368         2.33060
| 78>    C       27.09431         6.74671         2.78636
| 79>    C       22.90402         4.03203         2.18053
| 80>    C       22.63172         2.63016         2.35620
| 81>    C       23.47940         1.78392         2.94074
| 82>    H        0.36482        11.93916        -2.58562
| 83>    H       -6.53953         9.99461        -0.17471
| 84>    H       -5.07671         7.85513         0.58636
| 85>    H        1.09085         8.32656        -0.95215
| 86>    H        2.36549        10.81611        -2.22746
| 87>    H        3.12509         7.22131        -0.83168
| 88>    H        9.12926         5.74872        -0.46673
| 89>    H       11.74022        11.62573        -2.83403
| 90>    H       13.05631        10.48932        -3.22510
| 91>    H       12.92129        11.17143        -1.57860
| 92>    H       14.15714         8.99464        -1.55230
| 93>    H       14.08847         4.50799         0.22369
| 94>    H       19.82828         3.02296         1.94308
| 95>    H       27.29600         8.93263         2.29234
| 96>    H       28.07434         6.49143         3.13789
| 97>    H       21.69421         2.26487         1.96341
| 98>    H       24.42928         2.10917         3.33034
| 99>    H       23.24139         0.73848         3.03703
|100> *
|101>
|102>                          ****END OF INPUT****

CARTESIAN COORDINATES (ANGSTROEM)
---------------------------------
  C     -0.368360   11.300440   -2.124190
  N     -1.608930   11.673150   -2.073960
  C     -2.271860   10.653270   -1.439760
  C     -1.344160    9.574990   -1.091590
  C     -2.046890    8.484470   -0.400780
  O     -1.601010    7.445350    0.027780
  C     -3.441630    8.985890   -0.357070
  C     -3.523990   10.316380   -1.008020
  N     -4.798650   10.789580   -0.963590
  C     -5.484290    9.867260   -0.344600
  C     -4.697490    8.712000    0.065480
  C     -0.102400    9.982930   -1.522260
  C      1.138280    9.307650   -1.403750
  C      2.331110    9.826800   -1.791410
  C      3.582080    9.179730   -1.646900
  C      3.877690    7.914260   -1.159840
  C      5.245900    7.662560   -1.148330
  C      6.011430    8.745510   -1.628990
  S      5.038590   10.060260   -2.105220
  C      7.382090    8.409760   -1.544690
  C      7.490360    7.110550   -1.011800
  C      6.153020    6.595170   -0.756340
  C      5.826140    5.370690   -0.254700
  C      4.487800    4.970210   -0.052910
  N      3.403060    4.637980    0.110400
  C      6.808080    4.418290    0.092900
  N      7.605570    3.645270    0.376740
  C      8.809560    6.697550   -0.858400
  C      9.705260    7.675460   -1.265450
  S      8.906330    9.119630   -1.860720
  C     11.113890    7.628400   -1.204900
  C     11.987310    8.653250   -1.578890
  O     11.465860    9.786000   -2.094670
  C     12.360130   10.818830   -2.448610
  C     13.328820    8.342070   -1.343820
  C     13.504770    7.084200   -0.797930
  S     11.984640    6.264210   -0.579060
  C     14.720800    6.478930   -0.403940
  C     14.901570    5.201030    0.102490
  C     16.232080    4.954090    0.425350
  C     17.075540    6.051770    0.169030
  S     16.225790    7.382440   -0.486600
  C     18.393310    5.722940    0.558500
  C     18.385070    4.399230    1.061800
  C     17.034890    3.873000    0.981470
  C     16.607110    2.627080    1.335940
  C     15.260200    2.228760    1.201210
  N     14.166190    1.904540    1.091530
  C     17.491060    1.654550    1.849530
  N     18.214920    0.866660    2.261520
  C     19.635260    3.981690    1.499500
  C     20.596260    4.968970    1.335670
  S     19.932370    6.445110    0.633050
  C     21.964570    5.054960    1.667700
  N     22.530150    6.256490    1.538940
  C     23.793800    6.120000    1.960350
  C     24.062810    4.733230    2.385620
  C     25.458430    4.607610    2.849940
  O     26.027920    3.630950    3.286890
  C     25.986090    5.969080    2.662960
  C     24.940700    6.859670    2.123150
  N     25.422200    8.112690    1.945200
  C     26.675950    8.053680    2.330600
  C     27.094310    6.746710    2.786360
  C     22.904020    4.032030    2.180530
  C     22.631720    2.630160    2.356200
  C     23.479400    1.783920    2.940740
  H      0.364820   11.939160   -2.585620
  H     -6.539530    9.994610   -0.174710
  H     -5.076710    7.855130    0.586360
  H      1.090850    8.326560   -0.952150
  H      2.365490   10.816110   -2.227460
  H      3.125090    7.221310   -0.831680
  H      9.129260    5.748720   -0.466730
  H     11.740220   11.625730   -2.834030
  H     13.056310   10.489320   -3.225100
  H     12.921290   11.171430   -1.578600
  H     14.157140    8.994640   -1.552300
  H     14.088470    4.507990    0.223690
  H     19.828280    3.022960    1.943080
  H     27.296000    8.932630    2.292340
  H     28.074340    6.491430    3.137890
  H     21.694210    2.264870    1.963410
  H     24.429280    2.109170    3.330340
  H     23.241390    0.738480    3.037030

 Total Charge           Charge          ....    0
 Multiplicity           Mult            ....    1
 Number of Electrons    NEL             ....  484
 Basis Dimension        Dim             .... 1048

ORBITAL ENERGIES
----------------

  NO   OCC          E(Eh)            E(eV)
   0   2.0000     -89.002560     -2421.8828
   1   2.0000     -88.996120     -2421.7075
   2   2.0000     -88.989166     -2421.5183
   3   2.0000     -88.987392     -2421.4700
   4   2.0000     -88.982884     -2421.3474
   5   2.0000     -19.281690      -524.6815
   6   2.0000     -19.208771      -522.6972
   7   2.0000     -19.208414      -522.6875
   8   2.0000     -14.438949      -392.9038
   9   2.0000     -14.437179      -392.8556
  10   2.0000     -14.428533      -392.6203
  11   2.0000     -14.427678      -392.5971
  12   2.0000     -14.416865      -392.3028
  13   2.0000     -14.409740      -392.1090
  14   2.0000     -14.407787      -392.0558
  15   2.0000     -14.400174      -391.8487
  16   2.0000     -10.373988      -282.2906
  17   2.0000     -10.368993      -282.1547
  18   2.0000     -10.368756      -282.1482
  19   2.0000     -10.363137      -281.9953
  20   2.0000     -10.361359      -281.9469
  21   2.0000     -10.361063      -281.9389
  22   2.0000     -10.351456      -281.6774
  23   2.0000     -10.350916      -281.6627
  24   2.0000     -10.350214      -281.6436
  25   2.0000     -10.347407      -281.5673
  26   2.0000     -10.344720      -281.4941
  27   2.0000     -10.341102      -281.3957
  28   2.0000     -10.338920      -281.3363
  29   2.0000     -10.336999      -281.2840
  30   2.0000     -10.336950      -281.2827
  31   2.0000     -10.336468      -281.2696
  32   2.0000     -10.333106      -281.1781
  33   2.0000     -10.332060      -281.1497
  34   2.0000     -10.330676      -281.1120
  35   2.0000     -10.329954      -281.0923
  36   2.0000     -10.329215      -281.0722
  37   2.0000     -10.328767      -281.0600
  38   2.0000     -10.327723      -281.0316
  39   2.0000     -10.327673      -281.0303
  40   2.0000     -10.326217      -280.9906
  41   2.0000     -10.324262      -280.9375
  42   2.0000     -10.323922      -280.9282
  43   2.0000     -10.321837      -280.8715
  44   2.0000     -10.320677      -280.8399
  45   2.0000     -10.319630      -280.8114
  46   2.0000     -10.318100      -280.7698
  47   2.0000     -10.316862      -280.7361
  48   2.0000     -10.313170      -280.6356
  49   2.0000     -10.312702      -280.6229
  50   2.0000     -10.307670      -280.4860
  51   2.0000     -10.305402      -280.4242
  52   2.0000     -10.305326      -280.4222
  53   2.0000     -10.304524      -280.4003
  54   2.0000     -10.302472      -280.3445
  55   2.0000     -10.302427      -280.3433
  56   2.0000     -10.301362      -280.3143
  57   2.0000     -10.299557      -280.2652
  58   2.0000     -10.292402      -280.0705
  59   2.0000     -10.292145      -280.0635
  60   2.0000     -10.289862      -280.0014
  61   2.0000     -10.289196      -279.9833
  62   2.0000     -10.284661      -279.8599
  63   2.0000     -10.283828      -279.8372
  64   2.0000     -10.282838      -279.8103
  65   2.0000     -10.282080      -279.7896
  66   2.0000     -10.270366      -279.4709
  67   2.0000      -8.097116      -220.3337
  68   2.0000      -8.089870      -220.1366
  69   2.0000      -8.084110      -219.9798
  70   2.0000      -8.081037      -219.8962
  71   2.0000      -8.077854      -219.8096
  72   2.0000      -6.066393      -165.0750
  73   2.0000      -6.062280      -164.9630
  74   2.0000      -6.059348      -164.8833
  75   2.0000      -6.059164      -164.8782
  76   2.0000      -6.054661      -164.7557
  77   2.0000      -6.053250      -164.7173
  78   2.0000      -6.052437      -164.6952
  79   2.0000      -6.050463      -164.6415
  80   2.0000      -6.049156      -164.6059
  81   2.0000      -6.047307      -164.5556
  82   2.0000      -6.046580      -164.5358
  83   2.0000      -6.046010      -164.5203
  84   2.0000      -6.043350      -164.4479
  85   2.0000      -6.043308      -164.4468
  86   2.0000      -6.039516      -164.3436
  87   2.0000      -1.186583       -32.2886
  88   2.0000      -1.123383       -30.5688
  89   2.0000      -1.123113       -30.5615
  90   2.0000      -1.079968       -29.3874
  91   2.0000      -1.078697       -29.3528
  92   2.0000      -1.060697       -28.8630
  93   2.0000      -1.057223       -28.7685
  94   2.0000      -1.053599       -28.6699
  95   2.0000      -1.042669       -28.3725
  96   2.0000      -1.030391       -28.0384
  97   2.0000      -1.020582       -27.7714
  98   2.0000      -1.017576       -27.6896
  99   2.0000      -1.015352       -27.6291
 100   2.0000      -1.005920       -27.3725
 101   2.0000      -1.002555       -27.2809
 102   2.0000      -0.991213       -26.9723
 103   2.0000      -0.967628       -26.3305
 104   2.0000      -0.957873       -26.0650
 105   2.0000      -0.935147       -25.4466
 106   2.0000      -0.934981       -25.4421
 107   2.0000      -0.926457       -25.2102
 108   2.0000      -0.921366       -25.0716
 109   2.0000      -0.907642       -24.6982
 110   2.0000      -0.904895       -24.6234
 111   2.0000      -0.885217       -24.0880
 112   2.0000      -0.877900       -23.8889
 113   2.0000      -0.871915       -23.7260
 114   2.0000      -0.868115       -23.6226
 115   2.0000      -0.862925       -23.4814
 116   2.0000      -0.860953       -23.4277
 117   2.0000      -0.857730       -23.3400
 118   2.0000      -0.852611       -23.2007
 119   2.0000      -0.844873       -22.9902
 120   2.0000      -0.834241       -22.7008
 121   2.0000      -0.826724       -22.4963
 122   2.0000      -0.807268       -21.9669
 123   2.0000      -0.800567       -21.7845
 124   2.0000      -0.785274       -21.3684
 125   2.0000      -0.780475       -21.2378
 126   2.0000      -0.772127       -21.0106
 127   2.0000      -0.764519       -20.8036
 128   2.0000      -0.755780       -20.5658
 129   2.0000      -0.752457       -20.4754
 130   2.0000      -0.737751       -20.0752
 131   2.0000      -0.723128       -19.6773
 132   2.0000      -0.715840       -19.4790
 133   2.0000      -0.704516       -19.1709
 134   2.0000      -0.702519       -19.1165
 135   2.0000      -0.696420       -18.9506
 136   2.0000      -0.692784       -18.8516
 137   2.0000      -0.689189       -18.7538
 138   2.0000      -0.683683       -18.6040
 139   2.0000      -0.676513       -18.4089
 140   2.0000      -0.663823       -18.0635
 141   2.0000      -0.652139       -17.7456
 142   2.0000      -0.650585       -17.7033
 143   2.0000      -0.647212       -17.6115
 144   2.0000      -0.641425       -17.4541
 145   2.0000      -0.636859       -17.3298
 146   2.0000      -0.631480       -17.1834
 147   2.0000      -0.629695       -17.1349
 148   2.0000      -0.624328       -16.9888
 149   2.0000      -0.622149       -16.9295
 150   2.0000      -0.618742       -16.8368
 151   2.0000      -0.615465       -16.7477
 152   2.0000      -0.609284       -16.5795
 153   2.0000      -0.598514       -16.2864
 154   2.0000      -0.592038       -16.1102
 155   2.0000      -0.588207       -16.0059
 156   2.0000      -0.585816       -15.9409
 157   2.0000      -0.577098       -15.7036
 158   2.0000      -0.573576       -15.6078
 159   2.0000      -0.568028       -15.4568
 160   2.0000      -0.565281       -15.3821
 161   2.0000      -0.559038       -15.2122
 162   2.0000      -0.556566       -15.1449
 163   2.0000      -0.551031       -14.9943
 164   2.0000      -0.545777       -14.8514
 165   2.0000      -0.545571       -14.8457
 166   2.0000      -0.543536       -14.7904
 167   2.0000      -0.543000       -14.7758
 168   2.0000      -0.538565       -14.6551
 169   2.0000      -0.531093       -14.4518
 170   2.0000      -0.527049       -14.3417
 171   2.0000      -0.522611       -14.2210
 172   2.0000      -0.520732       -14.1698
 173   2.0000      -0.519466       -14.1354
 174   2.0000      -0.516783       -14.0624
 175   2.0000      -0.512790       -13.9537
 176   2.0000      -0.512412       -13.9434
 177   2.0000      -0.510849       -13.9009
 178   2.0000      -0.508114       -13.8265
 179   2.0000      -0.504862       -13.7380
 180   2.0000      -0.504094       -13.7171
 181   2.0000      -0.503206       -13.6929
 182   2.0000      -0.499827       -13.6010
 183   2.0000      -0.497984       -13.5508
 184   2.0000      -0.493086       -13.4176
 185   2.0000      -0.490872       -13.3573
 186   2.0000      -0.486979       -13.2514
 187   2.0000      -0.484969       -13.1967
 188   2.0000      -0.482848       -13.1390
 189   2.0000      -0.481874       -13.1124
 190   2.0000      -0.477325       -12.9887
 191   2.0000      -0.472200       -12.8492
 192   2.0000      -0.471297       -12.8246
 193   2.0000      -0.469694       -12.7810
 194   2.0000      -0.468782       -12.7562
 195   2.0000      -0.467506       -12.7215
 196   2.0000      -0.466843       -12.7034
 197   2.0000      -0.464910       -12.6508
 198   2.0000      -0.463303       -12.6071
 199   2.0000      -0.460449       -12.5295
 200   2.0000      -0.458985       -12.4896
 201   2.0000      -0.457056       -12.4371
 202   2.0000      -0.455063       -12.3829
 203   2.0000      -0.453231       -12.3330
 204   2.0000      -0.450238       -12.2516
 205   2.0000      -0.448013       -12.1911
 206   2.0000      -0.447139       -12.1673
 207   2.0000      -0.444463       -12.0945
 208   2.0000      -0.440958       -11.9991
 209   2.0000      -0.440005       -11.9732
 210   2.0000      -0.438386       -11.9291
 211   2.0000      -0.436014       -11.8646
 212   2.0000      -0.435450       -11.8492
 213   2.0000      -0.432918       -11.7803
 214   2.0000      -0.430504       -11.7146
 215   2.0000      -0.426461       -11.6046
 216   2.0000      -0.417997       -11.3743
 217   2.0000      -0.417555       -11.3622
 218   2.0000      -0.402626       -10.9560
 219   2.0000      -0.397090       -10.8054
 220   2.0000      -0.396200       -10.7811
 221   2.0000      -0.378268       -10.2932
 222   2.0000      -0.363403        -9.8887
 223   2.0000      -0.359374        -9.7791
 224   2.0000      -0.358144        -9.7456
 225   2.0000      -0.354892        -9.6571
 226   2.0000      -0.353578        -9.6214
 227   2.0000      -0.349722        -9.5164
 228   2.0000      -0.347464        -9.4550
 229   2.0000      -0.340982        -9.2786
 230   2.0000      -0.337181        -9.1752
 231   2.0000      -0.334659        -9.1065
 232   2.0000      -0.329604        -8.9690
 233   2.0000      -0.328766        -8.9462
 234   2.0000      -0.327857        -8.9214
 235   2.0000      -0.326498        -8.8845
 236   2.0000      -0.324147        -8.8205
 237   2.0000      -0.321343        -8.7442
 238   2.0000      -0.302321        -8.2266
 239   2.0000      -0.292560        -7.9610
 240   2.0000      -0.268939        -7.3182
 241   2.0000      -0.236655        -6.4397
 242   0.0000      -0.123447        -3.3592
 243   0.0000      -0.109494        -2.9795
 244   0.0000      -0.105179        -2.8621
 245   0.0000      -0.099322        -2.7027
 246   0.0000      -0.063788        -1.7357

MULLIKEN ATOMIC CHARGES
-----------------------
   0 C :    0.055557
   1 N :   -0.029149
   2 C :    0.052747
   3 C :   -0.111597
   4 C :    0.201169
   5 O :   -0.123373
   6 C :   -0.032519
   7 C :   -0.010863
   8 N :   -0.052730
   9 C :    0.087386
  10 C :   -0.093568
  11 C :   -0.012987
  12 C :   -0.023476
  13 C :    0.058736
  14 C :   -0.086221
  15 C :   -0.023253
  16 C :   -0.001294
  17 C :   -0.098257
  18 S :    0.181621
  19 C :   -0.100060
  20 C :    0.025627
  21 C :    0.303125
  22 C :   -0.295776
  23 C :   -0.189017
  24 N :    0.179507
  25 C :   -0.191433
  26 N :    0.175072
  27 C :   -0.078861
  28 C :   -0.047179
  29 S :    0.204534
  30 C :   -0.121679
  31 C :    0.238299
  32 O :   -0.326232
  33 C :    0.175853
  34 C :   -0.129671
  35 C :   -0.030679
  36 S :    0.167916
  37 C :   -0.027843
  38 C :   -0.070803
  39 C :    0.029912
  40 C :   -0.111861
  41 S :    0.189179
  42 C :   -0.073536
  43 C :   -0.012893
  44 C :    0.302675
  45 C :   -0.291287
  46 C :   -0.187772
  47 N :    0.182525
  48 C :   -0.188422
  49 N :    0.174369
  50 C :   -0.011054
  51 C :   -0.134428
  52 S :    0.264335
  53 C :    0.080619
  54 N :   -0.085397
  55 C :    0.062496
  56 C :   -0.167289
  57 C :    0.217805
  58 O :   -0.138376
  59 C :   -0.020025
  60 C :   -0.033609
  61 N :   -0.058337
  62 C :    0.084228
  63 C :   -0.093543
  64 C :    0.036029
  65 C :   -0.064796
  66 C :    0.017778
  67 H :    0.008214
  68 H :    0.012996
  69 H :   -0.001731
  70 H :    0.013143
  71 H :   -0.020165
  72 H :    0.015608
  73 H :    0.010029
  74 H :    0.048199
  75 H :    0.033210
  76 H :    0.032477
  77 H :   -0.012636
  78 H :    0.020817
  79 H :    0.015286
  80 H :    0.005702
  81 H :   -0.008754
  82 H :   -0.017465
  83 H :    0.046818
  84 H :    0.030298
Sum of atomic charges:   -0.0000000

LOEWDIN ATOMIC CHARGES
----------------------
   0 C :    0.087409
   1 N :   -0.079243
   2 C :    0.046651
   3 C :   -0.061690
   4 C :    0.065536
   5 O :   -0.134120
   6 C :   -0.036496
   7 C :    0.030121
   8 N :   -0.093559
   9 C :    0.077804
  10 C :   -0.030774
  11 C :   -0.038395
  12 C :   -0.015757
  13 C :   -0.028621
  14 C :   -0.171448
  15 C :   -0.015365
  16 C :   -0.071184
  17 C :   -0.175599
  18 S :    0.471563
  19 C :   -0.196857
  20 C :   -0.063332
  21 C :    0.080911
  22 C :   -0.100275
  23 C :   -0.019038
  24 N :   -0.027118
  25 C :   -0.016734
  26 N :   -0.030942
  27 C :   -0.041358
  28 C :   -0.171814
  29 S :    0.494941
  30 C :   -0.216184
  31 C :    0.015190
  32 O :   -0.102224
  33 C :    0.084230
  34 C :   -0.094653
  35 C :   -0.180351
  36 S :    0.468337
  37 C :   -0.163984
  38 C :   -0.036902
  39 C :   -0.050128
  40 C :   -0.192879
  41 S :    0.478980
  42 C :   -0.157403
  43 C :   -0.080195
  44 C :    0.078150
  45 C :   -0.097412
  46 C :   -0.019027
  47 N :   -0.023981
  48 C :   -0.015959
  49 N :   -0.028799
  50 C :    0.001676
  51 C :   -0.182867
  52 S :    0.537160
  53 C :    0.050673
  54 N :   -0.135786
  55 C :    0.044073
  56 C :   -0.038926
  57 C :    0.068819
  58 O :   -0.138737
  59 C :   -0.042639
  60 C :    0.013439
  61 N :   -0.100454
  62 C :    0.066823
  63 C :   -0.039950
  64 C :   -0.020322
  65 C :   -0.051245
  66 C :    0.014088
  67 H :    0.022603
  68 H :    0.024556
  69 H :    0.035536
  70 H :    0.041694
  71 H :    0.026672
  72 H :    0.043116
  73 H :    0.036211
  74 H :    0.034009
  75 H :    0.020473
  76 H :    0.020214
  77 H :    0.026801
  78 H :    0.039602
  79 H :    0.042200
  80 H :    0.021913
  81 H :    0.033006
  82 H :    0.027356
  83 H :    0.028289
  84 H :    0.029905

  Mayer bond orders larger than 0.100000
B(  0-C ,  1-N ) :   1.7540 B(  0-C , 11-C ) :   1.0091 B(  0-C , 67-H ) :   0.9876
B(  1-N ,  2-C ) :   1.2518 B(  2-C ,  3-C ) :   1.0598 B(  2-C ,  7-C ) :   1.5005
B(  3-C ,  4-C ) :   0.9070 B(  3-C , 11-C ) :   1.5458 B(  4-C ,  5-O ) :   2.2896
B(  4-C ,  6-C ) :   0.8922 B(  6-C ,  7-C ) :   1.0458 B(  6-C , 10-C ) :   1.6439
B(  7-C ,  8-N ) :   1.2821 B(  8-N ,  9-C ) :   1.6901 B(  9-C , 10-C ) :   1.0493
B(  9-C , 68-H ) :   0.9884 B( 10-C , 69-H ) :   1.0095 B( 11-C , 12-C ) :   1.1387
B( 12-C , 13-C ) :   1.6475 B( 12-C , 70-H ) :   0.9754 B( 13-C , 14-C ) :   1.1294
B( 13-C , 71-H ) :   0.9578 B( 14-C , 15-C ) :   1.4480 B( 14-C , 18-S ) :   1.0927
B( 15-C , 16-C ) :   1.3116 B( 15-C , 72-H ) :   0.9910 B( 16-C , 17-C ) :   1.4201
B( 16-C , 21-C ) :   0.9968 B( 17-C , 18-S ) :   1.1334 B( 17-C , 19-C ) :   1.2015
B( 19-C , 20-C ) :   1.4287 B( 19-C , 29-S ) :   1.0853 B( 20-C , 21-C ) :   0.9920
B( 20-C , 27-C ) :   1.3154 B( 21-C , 22-C ) :   1.7160 B( 22-C , 23-C ) :   1.1302
B( 22-C , 25-C ) :   1.1338 B( 23-C , 24-N ) :   2.9945 B( 25-C , 26-N ) :   2.9930
B( 27-C , 28-C ) :   1.4262 B( 27-C , 73-H ) :   0.9908 B( 28-C , 29-S ) :   1.1167
B( 28-C , 30-C ) :   1.1906 B( 30-C , 31-C ) :   1.4406 B( 30-C , 35-C ) :   0.1107
B( 30-C , 36-S ) :   1.1164 B( 31-C , 32-O ) :   1.1441 B( 31-C , 34-C ) :   1.2312
B( 32-O , 33-C ) :   0.9420 B( 33-C , 74-H ) :   0.9798 B( 33-C , 75-H ) :   0.9718
B( 33-C , 76-H ) :   0.9719 B( 34-C , 35-C ) :   1.4397 B( 34-C , 77-H ) :   0.9991
B( 35-C , 36-S ) :   1.1297 B( 35-C , 37-C ) :   1.1825 B( 37-C , 38-C ) :   1.4329
B( 37-C , 41-S ) :   1.1170 B( 38-C , 39-C ) :   1.3113 B( 38-C , 78-H ) :   0.9909
B( 39-C , 40-C ) :   1.4344 B( 39-C , 44-C ) :   0.9878 B( 40-C , 41-S ) :   1.1051
B( 40-C , 42-C ) :   1.2110 B( 42-C , 43-C ) :   1.3779 B( 42-C , 52-S ) :   1.1509
B( 43-C , 44-C ) :   1.0012 B( 43-C , 50-C ) :   1.3427 B( 44-C , 45-C ) :   1.7157
B( 45-C , 46-C ) :   1.1311 B( 45-C , 48-C ) :   1.1356 B( 46-C , 47-N ) :   2.9929
B( 48-C , 49-N ) :   2.9906 B( 50-C , 51-C ) :   1.4151 B( 50-C , 79-H ) :   0.9805
B( 51-C , 52-S ) :   1.0869 B( 51-C , 53-C ) :   1.1456 B( 53-C , 54-N ) :   1.5644
B( 53-C , 55-C ) :   0.1216 B( 53-C , 64-C ) :   1.0524 B( 54-N , 55-C ) :   1.3943
B( 55-C , 56-C ) :   1.0574 B( 55-C , 60-C ) :   1.3937 B( 56-C , 57-C ) :   0.8840
B( 56-C , 64-C ) :   1.5844 B( 57-C , 58-O ) :   2.2019 B( 57-C , 59-C ) :   0.9317
B( 59-C , 60-C ) :   1.0727 B( 59-C , 63-C ) :   1.5851 B( 60-C , 61-N ) :   1.3236
B( 61-N , 62-C ) :   1.6399 B( 62-C , 63-C ) :   1.0872 B( 62-C , 80-H ) :   0.9895
B( 63-C , 81-H ) :   1.0108 B( 64-C , 65-C ) :   1.0899 B( 65-C , 66-C ) :   1.9275
B( 65-C , 82-H ) :   0.9606 B( 66-C , 83-H ) :   0.9314 B( 66-C , 84-H ) :   0.9438

-----------------------------------------------------------------------------
         ABSORPTION SPECTRUM VIA TRANSITION ELECTRIC DIPOLE MOMENTS
-----------------------------------------------------------------------------
State   Energy  Wavelength   fosc         T2         TX        TY        TZ
        (cm-1)    (nm)                  (au**2)     (au)      (au)      (au)
-----------------------------------------------------------------------------
   0   10755.4    929.8   0.840179189  25.71704   4.97560  -0.72734   0.65680
   1   11814.2    846.4   0.037262882   1.03836  -0.90634   0.10748  -0.45316
   2   15436.7    647.8   0.657118927  14.01405   3.71808  -0.43268  -0.05243
   3   16989.5    588.6   0.693340775  13.43510   3.57821   0.07087   0.79153
   4   18983.2    526.8   0.137421881   2.38321  -1.42240  -0.33408  -0.49838
   5   20221.9    494.5   0.139848576   2.27673   1.46656   0.25871   0.24291
   6   21586.5    463.3   0.177167912   2.70196   1.49762  -0.64250   0.21516
   7   22099.5    452.5   0.000759346   0.01131   0.05194   0.06579   0.06546
   8   22527.6    443.9   0.000423482   0.00619   0.01163   0.03966   0.06694
   9   22971.6    435.3   0.454214249   6.50946  -2.29975   1.10393   0.04413
  10   23541.9    424.8   0.524453029   7.33399   2.63541   0.51453   0.35191
  11   24716.4    404.6   0.211378735   2.81547  -1.65511   0.25699  -0.10016
  12   25227.7    396.4   0.025510916   0.33291   0.54086  -0.18656   0.07465
  13   25586.2    390.8   0.007654055   0.09848   0.19684  -0.22181  -0.10264
  14   26258.7    380.8   0.001919139   0.02406  -0.14168  -0.00094  -0.06315
  15   26388.3    379.0   0.012582350   0.15697  -0.29316   0.09694   0.24826
  16   26537.4    376.8   0.024346332   0.30203   0.34751   0.35276  -0.23838
  17   27021.1    370.1   0.043873309   0.53453  -0.71105   0.02295   0.16855
  18   27100.0    369.0   0.000495216   0.00602   0.06908   0.01642   0.03122
  19   28033.5    356.7   0.002309916   0.02713  -0.04052  -0.07697  -0.13986
  20   28242.5    354.1   0.009245598   0.10777  -0.28957  -0.08702   0.12787
  21   28860.5    346.5   0.025227600   0.28777   0.41606  -0.33847   0.01036
  22   29593.7    337.9   0.027599196   0.30702  -0.00221  -0.51962   0.19238
  23   30356.6    329.4   0.006960009   0.07548  -0.25436  -0.03929  -0.09611
  24   30639.7    326.4   0.361675760   3.88607  -1.44525  -1.31012   0.28444
  25   30832.3    324.3   0.029448575   0.31444  -0.31024  -0.42463  -0.19461
  26   30982.8    322.8   0.182221888   1.93622  -0.43560   1.27603  -0.34383
  27   31305.1    319.4   0.001706362   0.01794  -0.02526  -0.12992   0.02069
  28   31509.8    317.4   0.316327164   3.30497   0.90288   1.44337  -0.63754
  29   31725.2    315.2   0.257637046   2.67349  -0.79025  -1.34524   0.48921
  30   32093.8    311.6   0.000335488   0.00344  -0.05029  -0.02928  -0.00744
  31   32283.9    309.8   0.033596968   0.34260   0.43544  -0.34446   0.18532
  32   32497.6    307.7   0.072210019   0.73151   0.79060  -0.28058   0.16653
  33   32885.9    304.1   0.121483872   1.21614  -1.06325  -0.08409   0.28032
  34   33422.9    299.2   0.170825070   1.68261   1.19661  -0.49517  -0.07444
  35   33621.0    297.4   0.048341137   0.47335  -0.58313  -0.36247   0.04387
  36   33660.4    297.1   0.443008570   4.33279  -0.65318   1.84619  -0.70549
  37   34037.3    293.8   0.055072127   0.53266   0.23777   0.56582  -0.39493
  38   34129.4    293.0   0.276770909   2.66973   1.47156   0.70064  -0.11556
  39   34429.8    290.4   0.087308350   0.83483   0.08330   0.72723  -0.54683
  40   34833.2    287.1   0.078380598   0.74078   0.08676  -0.80275   0.29808
  41   35131.5    284.6   0.199731616   1.87165  -1.17849  -0.69087  -0.07430
  42   35614.9    280.8   0.041022982   0.37920   0.05797  -0.61304   0.00451
  43   35755.7    279.7   0.102441672   0.94321   0.95534   0.15580   0.07907
  44   35880.1    278.7   0.017980941   0.16498   0.31903  -0.20325   0.14796
  45   36377.4    274.9   0.037131096   0.33603  -0.46371  -0.32899   0.11300
  46   36785.7    271.8   0.018776768   0.16804   0.03531   0.39898   0.08725
  47   37138.5    269.3   0.023536012   0.20863  -0.37636  -0.24254   0.09034
  48   37157.9    269.1   0.059849406   0.53025   0.59602   0.39386  -0.14104
  49   37318.2    268.0   0.005381040   0.04747   0.14660   0.14828  -0.06317
  50   37563.4    266.2   0.032659373   0.28623   0.16271  -0.45157   0.23630
  51   37720.0    265.1   0.080564936   0.70315   0.80748   0.14159   0.17630
  52   38153.4    262.1   0.047098597   0.40640   0.35500   0.52616   0.05936
  53   38263.1    261.3   0.055659040   0.47888   0.59073  -0.32869   0.14794
  54   38483.6    259.9   0.074018970   0.63320   0.41736   0.66665  -0.12075
  55   38921.3    256.9   0.004779637   0.04043  -0.10131   0.17275  -0.01788
  56   39187.2    255.2   0.033709121   0.28319   0.30455  -0.43109   0.06785
  57   39217.3    255.0   0.074432266   0.62483  -0.21979  -0.71037   0.26812
  58   39440.6    253.5   0.001184812   0.00989   0.01315   0.09825   0.00795
  59   39610.8    252.5   0.000001682   0.00001   0.00227  -0.00286  -0.00081
  60   39729.6    251.7   0.035636164   0.29529   0.44327  -0.31223   0.03635
  61   39829.4    251.1   0.033013167   0.27287   0.35362   0.27201  -0.27173
  62   39873.6    250.8   0.065080258   0.53733   0.34635   0.57145  -0.30134
  63   40124.9    249.2   0.038032993   0.31205   0.47433   0.25407  -0.15005

FINAL SINGLE POINT ENERGY     -4604.689977797996

DIPOLE MOMENT
-------------
                                X             Y             Z
Electronic contribution:     -3.48843      -4.80957      -1.62088
Nuclear contribution   :      4.53153       8.17980      -0.01071
                        -----------------------------------------
Total Dipole Moment    :      1.04310       3.37023      -1.63159
                        -----------------------------------------
Magnitude (a.u.)       :      3.88698
Magnitude (Debye)      :      9.87991

Rotational constants in cm-1:     0.003453     0.000197     0.000188
Rotational constants in MHz :   103.514737     5.891884     5.648846

                             ****ORCA TERMINATED NORMALLY****
TOTAL RUN TIME: 0 days 0 hours 10 minutes 18 seconds 864 msec
