                         Program Version 4.2.0 -  RELEASE  -
|  1> # ORCA input file
|  2> # SCF done       -209.506432678058          0.000567899294
|  3> ! CAM-B3LYP def2-SVP def2/J RIJCOSX Grid4 TightSCF
|  4> %maxcore 5000
|  5> %tddft
|  6>     Mode sTDDFT
|  7>     Ethresh 5.0
|  8>     maxcore 5000
|  9> end
| 10>
| 11> %pal
| 12>   nprocs 6
| 13>   end
| 14> * xyz 0 1
| 15>    C        1.75904        -3.33751         6.44380
| 16>    O        1.43362        -2.86943         5.38324
| 17>    N        1.50838        -2.66528         7.63915
| 18>    C        1.32869        -1.30146         7.73471
| 19>    N        1.05321        -0.93277         8.93825
| 20>    C        1.01210        -2.07636         9.68768
| 21>    C        1.29390        -3.15614         8.91528
| 22>    N        2.41682        -4.54719         6.58383
| 23>    C        3.32849        -4.86562         7.58132
| 24>    C        3.79803        -6.10564         7.29123
| 25>    N        3.21126        -6.58521         6.16765
| 26>    C        2.40008        -5.65473         5.72412
| 27>    C        1.60240        -5.85069         4.56621
| 28>    S        0.57941        -4.67721         3.79701
| 29>    C        0.06228        -5.79752         2.56460
| 30>    C        0.67991        -7.01686         2.74974
| 31>    C        1.54906        -7.06257         3.87347
| 32>    C        2.15336        -8.33161         4.02667
| 33>    C        1.75671        -9.20145         3.05542
| 34>    C        2.15277       -10.59840         2.86406
| 35>    O        1.75068       -11.30329         1.97150
| 36>    O        3.02054       -11.00267         3.80410
| 37>    C        3.45999       -12.34843         3.69281
| 38>    S        0.62435        -8.52652         1.90101
| 39>    C       -0.84855        -5.39436         1.55465
| 40>    C       -1.48268        -4.18721         1.45243
| 41>    C       -2.31756        -4.07886         0.31763
| 42>    C       -3.09020        -2.97238        -0.09253
| 43>    C       -3.10277        -1.71627         0.62927
| 44>    C       -4.16797        -0.88942         0.84808
| 45>    C       -3.81462         0.28397         1.54812
| 46>    C       -2.48933         0.37883         1.85953
| 47>    S       -1.64568        -1.01835         1.28554
| 48>    C       -1.77578         1.46750         2.57303
| 49>   Cl       -4.97291         1.48584         1.96871
| 50>    C       -3.83686        -3.13706        -1.25406
| 51>    C       -3.82722        -4.32346        -2.03005
| 52>    C       -3.04706        -5.42604        -1.62588
| 53>    C       -2.32473        -5.27376        -0.44647
| 54>    S       -1.27503        -6.47933         0.24968
| 55>    C       -2.96127        -6.64972        -2.39663
| 56>    C       -2.88014        -7.93036        -1.92921
| 57>    C       -2.74304        -8.88333        -2.96169
| 58>    C       -2.70358        -8.35395        -4.21856
| 59>    S       -2.85011        -6.63139        -4.13761
| 60>    C       -2.56060        -9.05192        -5.52084
| 61>   Cl       -2.63455       -10.57105        -2.64200
| 62>    C       -4.66046        -4.21339        -3.16791
| 63>    C       -5.26316        -2.99445        -3.29267
| 64>    S       -4.84575        -1.91457        -1.97872
| 65>    C       -6.13968        -2.56026        -4.32437
| 66>    C       -6.76200        -1.33400        -4.43986
| 67>    C       -7.54666        -1.25345        -5.59270
| 68>    C       -7.51572        -2.42941        -6.35715
| 69>    S       -6.52669        -3.63438        -5.65947
| 70>    C       -8.33768        -2.25229        -7.50199
| 71>    C       -8.88658        -0.95885        -7.45691
| 72>    C       -8.41086        -0.28880        -6.25648
| 73>    C       -8.70758         0.97425        -5.83811
| 74>    C       -8.18068         1.51335        -4.64501
| 75>    N       -7.75340         1.95992        -3.67921
| 76>    C       -9.55870         1.83424        -6.56450
| 77>    N      -10.24569         2.54845        -7.14083
| 78>    C       -9.71075        -0.69260        -8.54633
| 79>    C       -9.78692        -1.76966        -9.41589
| 80>    S       -8.83859        -3.13680        -8.86993
| 81>    C      -10.58163        -1.71501       -10.59884
| 82>    N      -11.37251        -0.69990       -10.83469
| 83>    C      -11.95626        -0.91476       -12.04000
| 84>    C      -11.50280        -2.07074       -12.58726
| 85>    N      -10.60630        -2.61188       -11.67473
| 86>    C       -9.95474        -3.82634       -11.79611
| 87>    O       -9.63362        -4.51050       -10.85884
| 88>    N       -9.69215        -4.21441       -13.10904
| 89>    C       -9.43293        -3.44445       -14.22564
| 90>    N       -9.09592        -4.16651       -15.23802
| 91>    C       -9.12464        -5.46698       -14.81293
| 92>    C       -9.46479        -5.52117       -13.50140
| 93>    H        1.43896        -0.65884         6.88518
| 94>    H        0.78121        -2.03852        10.73284
| 95>    H        1.31451        -4.20216         9.13979
| 96>    H        3.59665        -4.17155         8.34980
| 97>    H        4.52442        -6.68872         7.82045
| 98>    H        2.84428        -8.56975         4.81248
| 99>    H        4.16199       -12.50534         4.50740
|100>    H        3.94602       -12.51085         2.72850
|101>    H        2.61311       -13.03273         3.77736
|102>    H       -1.34792        -3.41086         2.18273
|103>    H       -5.17788        -1.11467         0.56051
|104>    H       -2.49779         2.15436         3.00765
|105>    H       -1.13610         2.02175         1.88573
|106>    H       -1.14671         1.06012         3.36268
|107>    H       -2.95013        -8.20144        -0.89253
|108>    H       -2.57474       -10.12705        -5.36106
|109>    H       -1.62090        -8.77955        -6.00130
|110>    H       -3.37240        -8.77998        -6.19418
|111>    H       -4.82086        -5.00653        -3.87487
|112>    H       -6.63892        -0.55127        -3.71309
|113>    H      -10.24281         0.22091        -8.73646
|114>    H      -12.66849        -0.21840       -12.43369
|115>    H      -11.77043        -2.57891       -13.48968
|116>    H       -9.46843        -2.37360       -14.21960
|117>    H       -8.89215        -6.26679       -15.48564
|118>    H       -9.58513        -6.33144       -12.81372
|119> *
|120>
|121>                          ****END OF INPUT****

CARTESIAN COORDINATES (ANGSTROEM)
---------------------------------
  C      1.759040   -3.337510    6.443800
  O      1.433620   -2.869430    5.383240
  N      1.508380   -2.665280    7.639150
  C      1.328690   -1.301460    7.734710
  N      1.053210   -0.932770    8.938250
  C      1.012100   -2.076360    9.687680
  C      1.293900   -3.156140    8.915280
  N      2.416820   -4.547190    6.583830
  C      3.328490   -4.865620    7.581320
  C      3.798030   -6.105640    7.291230
  N      3.211260   -6.585210    6.167650
  C      2.400080   -5.654730    5.724120
  C      1.602400   -5.850690    4.566210
  S      0.579410   -4.677210    3.797010
  C      0.062280   -5.797520    2.564600
  C      0.679910   -7.016860    2.749740
  C      1.549060   -7.062570    3.873470
  C      2.153360   -8.331610    4.026670
  C      1.756710   -9.201450    3.055420
  C      2.152770  -10.598400    2.864060
  O      1.750680  -11.303290    1.971500
  O      3.020540  -11.002670    3.804100
  C      3.459990  -12.348430    3.692810
  S      0.624350   -8.526520    1.901010
  C     -0.848550   -5.394360    1.554650
  C     -1.482680   -4.187210    1.452430
  C     -2.317560   -4.078860    0.317630
  C     -3.090200   -2.972380   -0.092530
  C     -3.102770   -1.716270    0.629270
  C     -4.167970   -0.889420    0.848080
  C     -3.814620    0.283970    1.548120
  C     -2.489330    0.378830    1.859530
  S     -1.645680   -1.018350    1.285540
  C     -1.775780    1.467500    2.573030
  Cl    -4.972910    1.485840    1.968710
  C     -3.836860   -3.137060   -1.254060
  C     -3.827220   -4.323460   -2.030050
  C     -3.047060   -5.426040   -1.625880
  C     -2.324730   -5.273760   -0.446470
  S     -1.275030   -6.479330    0.249680
  C     -2.961270   -6.649720   -2.396630
  C     -2.880140   -7.930360   -1.929210
  C     -2.743040   -8.883330   -2.961690
  C     -2.703580   -8.353950   -4.218560
  S     -2.850110   -6.631390   -4.137610
  C     -2.560600   -9.051920   -5.520840
  Cl    -2.634550  -10.571050   -2.642000
  C     -4.660460   -4.213390   -3.167910
  C     -5.263160   -2.994450   -3.292670
  S     -4.845750   -1.914570   -1.978720
  C     -6.139680   -2.560260   -4.324370
  C     -6.762000   -1.334000   -4.439860
  C     -7.546660   -1.253450   -5.592700
  C     -7.515720   -2.429410   -6.357150
  S     -6.526690   -3.634380   -5.659470
  C     -8.337680   -2.252290   -7.501990
  C     -8.886580   -0.958850   -7.456910
  C     -8.410860   -0.288800   -6.256480
  C     -8.707580    0.974250   -5.838110
  C     -8.180680    1.513350   -4.645010
  N     -7.753400    1.959920   -3.679210
  C     -9.558700    1.834240   -6.564500
  N    -10.245690    2.548450   -7.140830
  C     -9.710750   -0.692600   -8.546330
  C     -9.786920   -1.769660   -9.415890
  S     -8.838590   -3.136800   -8.869930
  C    -10.581630   -1.715010  -10.598840
  N    -11.372510   -0.699900  -10.834690
  C    -11.956260   -0.914760  -12.040000
  C    -11.502800   -2.070740  -12.587260
  N    -10.606300   -2.611880  -11.674730
  C     -9.954740   -3.826340  -11.796110
  O     -9.633620   -4.510500  -10.858840
  N     -9.692150   -4.214410  -13.109040
  C     -9.432930   -3.444450  -14.225640
  N     -9.095920   -4.166510  -15.238020
  C     -9.124640   -5.466980  -14.812930
  C     -9.464790   -5.521170  -13.501400
  H      1.438960   -0.658840    6.885180
  H      0.781210   -2.038520   10.732840
  H      1.314510   -4.202160    9.139790
  H      3.596650   -4.171550    8.349800
  H      4.524420   -6.688720    7.820450
  H      2.844280   -8.569750    4.812480
  H      4.161990  -12.505340    4.507400
  H      3.946020  -12.510850    2.728500
  H      2.613110  -13.032730    3.777360
  H     -1.347920   -3.410860    2.182730
  H     -5.177880   -1.114670    0.560510
  H     -2.497790    2.154360    3.007650
  H     -1.136100    2.021750    1.885730
  H     -1.146710    1.060120    3.362680
  H     -2.950130   -8.201440   -0.892530
  H     -2.574740  -10.127050   -5.361060
  H     -1.620900   -8.779550   -6.001300
  H     -3.372400   -8.779980   -6.194180
  H     -4.820860   -5.006530   -3.874870
  H     -6.638920   -0.551270   -3.713090
  H    -10.242810    0.220910   -8.736460
  H    -12.668490   -0.218400  -12.433690
  H    -11.770430   -2.578910  -13.489680
  H     -9.468430   -2.373600  -14.219600
  H     -8.892150   -6.266790  -15.485640
  H     -9.585130   -6.331440  -12.813720

 Total Charge           Charge          ....    0
 Multiplicity           Mult            ....    1
 Number of Electrons    NEL             ....  614
 Basis Dimension        Dim             .... 1262

ORBITAL ENERGIES
----------------

  NO   OCC          E(Eh)            E(eV)
   0   2.0000    -101.579141     -2764.1090
   1   2.0000    -101.577565     -2764.0661
   2   2.0000     -88.984328     -2421.3867
   3   2.0000     -88.983949     -2421.3764
   4   2.0000     -88.969732     -2420.9895
   5   2.0000     -88.956065     -2420.6176
   6   2.0000     -88.954070     -2420.5633
   7   2.0000     -88.953155     -2420.5384
   8   2.0000     -88.953022     -2420.5348
   9   2.0000     -88.951681     -2420.4983
  10   2.0000     -19.255966      -523.9815
  11   2.0000     -19.253062      -523.9025
  12   2.0000     -19.249998      -523.8191
  13   2.0000     -19.200381      -522.4689
  14   2.0000     -14.511286      -394.8722
  15   2.0000     -14.509820      -394.8323
  16   2.0000     -14.505767      -394.7220
  17   2.0000     -14.503608      -394.6632
  18   2.0000     -14.422823      -392.4650
  19   2.0000     -14.421524      -392.4296
  20   2.0000     -14.409706      -392.1080
  21   2.0000     -14.408759      -392.0823
  22   2.0000     -14.407296      -392.0425
  23   2.0000     -14.406875      -392.0310
  24   2.0000     -10.467842      -284.8445
  25   2.0000     -10.465278      -284.7747
  26   2.0000     -10.399483      -282.9843
  27   2.0000     -10.365425      -282.0575
  28   2.0000     -10.365007      -282.0462
  29   2.0000     -10.356798      -281.8228
  30   2.0000     -10.348039      -281.5845
  31   2.0000     -10.344351      -281.4841
  32   2.0000     -10.343506      -281.4611
  33   2.0000     -10.325553      -280.9726
  34   2.0000     -10.323170      -280.9077
  35   2.0000     -10.321594      -280.8649
  36   2.0000     -10.321506      -280.8624
  37   2.0000     -10.321261      -280.8558
  38   2.0000     -10.321107      -280.8516
  39   2.0000     -10.321070      -280.8506
  40   2.0000     -10.320401      -280.8324
  41   2.0000     -10.319113      -280.7973
  42   2.0000     -10.318814      -280.7892
  43   2.0000     -10.318457      -280.7795
  44   2.0000     -10.316591      -280.7287
  45   2.0000     -10.315287      -280.6932
  46   2.0000     -10.313383      -280.6414
  47   2.0000     -10.313247      -280.6377
  48   2.0000     -10.312756      -280.6244
  49   2.0000     -10.311567      -280.5920
  50   2.0000     -10.305870      -280.4370
  51   2.0000     -10.305361      -280.4231
  52   2.0000     -10.304858      -280.4095
  53   2.0000     -10.304796      -280.4078
  54   2.0000     -10.304544      -280.4009
  55   2.0000     -10.303862      -280.3823
  56   2.0000     -10.303169      -280.3635
  57   2.0000     -10.303008      -280.3591
  58   2.0000     -10.301235      -280.3109
  59   2.0000     -10.301154      -280.3086
  60   2.0000     -10.300908      -280.3020
  61   2.0000     -10.299224      -280.2561
  62   2.0000     -10.297400      -280.2065
  63   2.0000     -10.297064      -280.1974
  64   2.0000     -10.296430      -280.1801
  65   2.0000     -10.294971      -280.1404
  66   2.0000     -10.293821      -280.1091
  67   2.0000     -10.293360      -280.0966
  68   2.0000     -10.289331      -279.9869
  69   2.0000     -10.288599      -279.9670
  70   2.0000     -10.287796      -279.9451
  71   2.0000     -10.280563      -279.7483
  72   2.0000     -10.277871      -279.6751
  73   2.0000     -10.276092      -279.6267
  74   2.0000     -10.274720      -279.5894
  75   2.0000     -10.274614      -279.5864
  76   2.0000     -10.273843      -279.5655
  77   2.0000     -10.272215      -279.5212
  78   2.0000      -9.533913      -259.4310
  79   2.0000      -9.532303      -259.3871
  80   2.0000      -8.078432      -219.8253
  81   2.0000      -8.077499      -219.7999
  82   2.0000      -8.063084      -219.4077
  83   2.0000      -8.051621      -219.0957
  84   2.0000      -8.049622      -219.0413
  85   2.0000      -8.048216      -219.0031
  86   2.0000      -8.048025      -218.9979
  87   2.0000      -8.046723      -218.9625
  88   2.0000      -7.304178      -198.7568
  89   2.0000      -7.302563      -198.7128
  90   2.0000      -7.293972      -198.4791
  91   2.0000      -7.293881      -198.4766
  92   2.0000      -7.292373      -198.4356
  93   2.0000      -7.292286      -198.4332
  94   2.0000      -6.047704      -164.5664
  95   2.0000      -6.046873      -164.5438
  96   2.0000      -6.043535      -164.4530
  97   2.0000      -6.042338      -164.4204
  98   2.0000      -6.040759      -164.3774
  99   2.0000      -6.039965      -164.3558
 100   2.0000      -6.032588      -164.1551
 101   2.0000      -6.028077      -164.0323
 102   2.0000      -6.025236      -163.9550
 103   2.0000      -6.020941      -163.8381
 104   2.0000      -6.018929      -163.7834
 105   2.0000      -6.017962      -163.7571
 106   2.0000      -6.017754      -163.7514
 107   2.0000      -6.016781      -163.7249
 108   2.0000      -6.016602      -163.7201
 109   2.0000      -6.014767      -163.6701
 110   2.0000      -6.013753      -163.6425
 111   2.0000      -6.013700      -163.6411
 112   2.0000      -6.013535      -163.6366
 113   2.0000      -6.012225      -163.6009
 114   2.0000      -6.011703      -163.5868
 115   2.0000      -6.009443      -163.5253
 116   2.0000      -6.009307      -163.5216
 117   2.0000      -6.007799      -163.4805
 118   2.0000      -1.212153       -32.9844
 119   2.0000      -1.209694       -32.9174
 120   2.0000      -1.187602       -32.3163
 121   2.0000      -1.135336       -30.8941
 122   2.0000      -1.134731       -30.8776
 123   2.0000      -1.134331       -30.8667
 124   2.0000      -1.131594       -30.7922
 125   2.0000      -1.094074       -29.7713
 126   2.0000      -1.037445       -28.2303
 127   2.0000      -1.022724       -27.8297
 128   2.0000      -1.021261       -27.7899
 129   2.0000      -1.014812       -27.6144
 130   2.0000      -1.013354       -27.5748
 131   2.0000      -1.007815       -27.4240
 132   2.0000      -0.999752       -27.2046
 133   2.0000      -0.998459       -27.1695
 134   2.0000      -0.994931       -27.0734
 135   2.0000      -0.989554       -26.9271
 136   2.0000      -0.988089       -26.8873
 137   2.0000      -0.985556       -26.8183
 138   2.0000      -0.976325       -26.5671
 139   2.0000      -0.952202       -25.9107
 140   2.0000      -0.947955       -25.7952
 141   2.0000      -0.940623       -25.5956
 142   2.0000      -0.936280       -25.4775
 143   2.0000      -0.918686       -24.9987
 144   2.0000      -0.906239       -24.6600
 145   2.0000      -0.897377       -24.4189
 146   2.0000      -0.888751       -24.1841
 147   2.0000      -0.874846       -23.8058
 148   2.0000      -0.862201       -23.4617
 149   2.0000      -0.860901       -23.4263
 150   2.0000      -0.859588       -23.3906
 151   2.0000      -0.857138       -23.3239
 152   2.0000      -0.850026       -23.1304
 153   2.0000      -0.848745       -23.0955
 154   2.0000      -0.845520       -23.0078
 155   2.0000      -0.845030       -22.9944
 156   2.0000      -0.836678       -22.7672
 157   2.0000      -0.825479       -22.4624
 158   2.0000      -0.814922       -22.1752
 159   2.0000      -0.808083       -21.9891
 160   2.0000      -0.805360       -21.9150
 161   2.0000      -0.804306       -21.8863
 162   2.0000      -0.800591       -21.7852
 163   2.0000      -0.796267       -21.6675
 164   2.0000      -0.791204       -21.5298
 165   2.0000      -0.776653       -21.1338
 166   2.0000      -0.773026       -21.0351
 167   2.0000      -0.768730       -20.9182
 168   2.0000      -0.750386       -20.4190
 169   2.0000      -0.742768       -20.2117
 170   2.0000      -0.742042       -20.1920
 171   2.0000      -0.734051       -19.9746
 172   2.0000      -0.719459       -19.5775
 173   2.0000      -0.714579       -19.4447
 174   2.0000      -0.713029       -19.4025
 175   2.0000      -0.709427       -19.3045
 176   2.0000      -0.698763       -19.0143
 177   2.0000      -0.694933       -18.9101
 178   2.0000      -0.693722       -18.8771
 179   2.0000      -0.690557       -18.7910
 180   2.0000      -0.680020       -18.5043
 181   2.0000      -0.672466       -18.2987
 182   2.0000      -0.669999       -18.2316
 183   2.0000      -0.667258       -18.1570
 184   2.0000      -0.663865       -18.0647
 185   2.0000      -0.650395       -17.6981
 186   2.0000      -0.648312       -17.6415
 187   2.0000      -0.638064       -17.3626
 188   2.0000      -0.635206       -17.2848
 189   2.0000      -0.628520       -17.1029
 190   2.0000      -0.620045       -16.8723
 191   2.0000      -0.619903       -16.8684
 192   2.0000      -0.616456       -16.7746
 193   2.0000      -0.613279       -16.6882
 194   2.0000      -0.607997       -16.5444
 195   2.0000      -0.603350       -16.4180
 196   2.0000      -0.600857       -16.3502
 197   2.0000      -0.597301       -16.2534
 198   2.0000      -0.594983       -16.1903
 199   2.0000      -0.591500       -16.0955
 200   2.0000      -0.586741       -15.9660
 201   2.0000      -0.583073       -15.8662
 202   2.0000      -0.579724       -15.7751
 203   2.0000      -0.574876       -15.6432
 204   2.0000      -0.572521       -15.5791
 205   2.0000      -0.567290       -15.4367
 206   2.0000      -0.564427       -15.3588
 207   2.0000      -0.563249       -15.3268
 208   2.0000      -0.562673       -15.3111
 209   2.0000      -0.560054       -15.2398
 210   2.0000      -0.554518       -15.0892
 211   2.0000      -0.552696       -15.0396
 212   2.0000      -0.551759       -15.0141
 213   2.0000      -0.548390       -14.9225
 214   2.0000      -0.544703       -14.8221
 215   2.0000      -0.540126       -14.6976
 216   2.0000      -0.538581       -14.6555
 217   2.0000      -0.537812       -14.6346
 218   2.0000      -0.533391       -14.5143
 219   2.0000      -0.532946       -14.5022
 220   2.0000      -0.530167       -14.4266
 221   2.0000      -0.526027       -14.3139
 222   2.0000      -0.520653       -14.1677
 223   2.0000      -0.519056       -14.1242
 224   2.0000      -0.516209       -14.0468
 225   2.0000      -0.514629       -14.0038
 226   2.0000      -0.513291       -13.9674
 227   2.0000      -0.509835       -13.8733
 228   2.0000      -0.509522       -13.8648
 229   2.0000      -0.507568       -13.8116
 230   2.0000      -0.507109       -13.7991
 231   2.0000      -0.505656       -13.7596
 232   2.0000      -0.501050       -13.6343
 233   2.0000      -0.499203       -13.5840
 234   2.0000      -0.499063       -13.5802
 235   2.0000      -0.496565       -13.5122
 236   2.0000      -0.493429       -13.4269
 237   2.0000      -0.491741       -13.3810
 238   2.0000      -0.490779       -13.3548
 239   2.0000      -0.487854       -13.2752
 240   2.0000      -0.483915       -13.1680
 241   2.0000      -0.482123       -13.1192
 242   2.0000      -0.478695       -13.0259
 243   2.0000      -0.477726       -12.9996
 244   2.0000      -0.475155       -12.9296
 245   2.0000      -0.474246       -12.9049
 246   2.0000      -0.466044       -12.6817
 247   2.0000      -0.464573       -12.6417
 248   2.0000      -0.463448       -12.6111
 249   2.0000      -0.462049       -12.5730
 250   2.0000      -0.459774       -12.5111
 251   2.0000      -0.459079       -12.4922
 252   2.0000      -0.453641       -12.3442
 253   2.0000      -0.453414       -12.3380
 254   2.0000      -0.449027       -12.2186
 255   2.0000      -0.447878       -12.1874
 256   2.0000      -0.443186       -12.0597
 257   2.0000      -0.440047       -11.9743
 258   2.0000      -0.437900       -11.9159
 259   2.0000      -0.432406       -11.7664
 260   2.0000      -0.432019       -11.7558
 261   2.0000      -0.431431       -11.7398
 262   2.0000      -0.429463       -11.6863
 263   2.0000      -0.426904       -11.6166
 264   2.0000      -0.423161       -11.5148
 265   2.0000      -0.420137       -11.4325
 266   2.0000      -0.418635       -11.3916
 267   2.0000      -0.416269       -11.3272
 268   2.0000      -0.415918       -11.3177
 269   2.0000      -0.414059       -11.2671
 270   2.0000      -0.409855       -11.1527
 271   2.0000      -0.407047       -11.0763
 272   2.0000      -0.404852       -11.0166
 273   2.0000      -0.402002       -10.9390
 274   2.0000      -0.395254       -10.7554
 275   2.0000      -0.390647       -10.6301
 276   2.0000      -0.388069       -10.5599
 277   2.0000      -0.387026       -10.5315
 278   2.0000      -0.384622       -10.4661
 279   2.0000      -0.383334       -10.4310
 280   2.0000      -0.379048       -10.3144
 281   2.0000      -0.375447       -10.2164
 282   2.0000      -0.374492       -10.1904
 283   2.0000      -0.373691       -10.1687
 284   2.0000      -0.371282       -10.1031
 285   2.0000      -0.366950        -9.9852
 286   2.0000      -0.365558        -9.9473
 287   2.0000      -0.361893        -9.8476
 288   2.0000      -0.360296        -9.8042
 289   2.0000      -0.359025        -9.7696
 290   2.0000      -0.353888        -9.6298
 291   2.0000      -0.341851        -9.3022
 292   2.0000      -0.336583        -9.1589
 293   2.0000      -0.328341        -8.9346
 294   2.0000      -0.327659        -8.9161
 295   2.0000      -0.323635        -8.8066
 296   2.0000      -0.322888        -8.7862
 297   2.0000      -0.315029        -8.5724
 298   2.0000      -0.314160        -8.5487
 299   2.0000      -0.310941        -8.4611
 300   2.0000      -0.308321        -8.3898
 301   2.0000      -0.298295        -8.1170
 302   2.0000      -0.296548        -8.0695
 303   2.0000      -0.289768        -7.8850
 304   2.0000      -0.256976        -6.9927
 305   2.0000      -0.255474        -6.9518
 306   2.0000      -0.229812        -6.2535
 307   0.0000      -0.097355        -2.6492
 308   0.0000      -0.070223        -1.9109
 309   0.0000      -0.049363        -1.3432
 310   0.0000      -0.037526        -1.0211
 311   0.0000      -0.023068        -0.6277

MULLIKEN ATOMIC CHARGES
-----------------------
   0 C :    0.247102
   1 O :   -0.174331
   2 N :   -0.187287
   3 C :    0.113427
   4 N :   -0.107744
   5 C :    0.015566
   6 C :    0.051378
   7 N :   -0.186342
   8 C :    0.052758
   9 C :    0.044505
  10 N :   -0.104168
  11 C :    0.026392
  12 C :   -0.083734
  13 S :    0.187962
  14 C :   -0.099648
  15 C :   -0.046572
  16 C :    0.095983
  17 C :    0.008445
  18 C :   -0.125475
  19 C :    0.205125
  20 O :   -0.201830
  21 O :   -0.299507
  22 C :    0.191375
  23 S :    0.164717
  24 C :   -0.029411
  25 C :   -0.102008
  26 C :    0.100194
  27 C :    0.138525
  28 C :   -0.211422
  29 C :    0.031141
  30 C :    0.087190
  31 C :   -0.267099
  32 S :    0.138549
  33 C :    0.122847
  34 Cl:   -0.086079
  35 C :   -0.138411
  36 C :    0.090404
  37 C :    0.140998
  38 C :   -0.137584
  39 S :    0.115182
  40 C :   -0.210626
  41 C :    0.031933
  42 C :    0.088524
  43 C :   -0.266573
  44 S :    0.131131
  45 C :    0.122359
  46 Cl:   -0.084885
  47 C :   -0.100163
  48 C :   -0.009872
  49 S :    0.118571
  50 C :   -0.044569
  51 C :   -0.065480
  52 C :    0.018026
  53 C :   -0.098867
  54 S :    0.185130
  55 C :   -0.083185
  56 C :    0.041632
  57 C :    0.302588
  58 C :   -0.301740
  59 C :   -0.194921
  60 N :    0.179076
  61 C :   -0.194339
  62 N :    0.181466
  63 C :   -0.067922
  64 C :   -0.064879
  65 S :    0.214333
  66 C :    0.037706
  67 N :   -0.094472
  68 C :    0.043873
  69 C :    0.052998
  70 N :   -0.184174
  71 C :    0.250444
  72 O :   -0.179607
  73 N :   -0.190957
  74 C :    0.083646
  75 N :   -0.111078
  76 C :    0.017837
  77 C :    0.081908
  78 H :    0.036427
  79 H :    0.012282
  80 H :    0.039759
  81 H :    0.037907
  82 H :    0.004913
  83 H :    0.008304
  84 H :    0.033369
  85 H :    0.033345
  86 H :    0.033295
  87 H :   -0.005887
  88 H :   -0.005001
  89 H :    0.025478
  90 H :    0.040143
  91 H :    0.028780
  92 H :   -0.002038
  93 H :    0.026035
  94 H :    0.037659
  95 H :    0.029040
  96 H :   -0.011748
  97 H :    0.016426
  98 H :    0.025224
  99 H :    0.009138
 100 H :    0.036550
 101 H :    0.050259
 102 H :    0.013513
 103 H :    0.030844
Sum of atomic charges:   -0.0000000

LOEWDIN ATOMIC CHARGES
----------------------
   0 C :    0.117904
   1 O :   -0.148917
   2 N :    0.024304
   3 C :    0.048712
   4 N :   -0.091630
   5 C :   -0.022637
   6 C :   -0.025833
   7 N :    0.023313
   8 C :   -0.026698
   9 C :   -0.017325
  10 N :   -0.099284
  11 C :    0.031246
  12 C :   -0.205702
  13 S :    0.505987
  14 C :   -0.206925
  15 C :   -0.189875
  16 C :   -0.052703
  17 C :   -0.007727
  18 C :   -0.196136
  19 C :    0.064694
  20 O :   -0.177267
  21 O :   -0.091862
  22 C :    0.082179
  23 S :    0.423605
  24 C :   -0.168087
  25 C :   -0.071220
  26 C :   -0.038652
  27 C :   -0.055187
  28 C :   -0.173528
  29 C :   -0.075342
  30 C :   -0.176854
  31 C :   -0.198575
  32 S :    0.449389
  33 C :   -0.061071
  34 Cl:    0.131046
  35 C :   -0.140817
  36 C :   -0.041142
  37 C :   -0.054619
  38 C :   -0.142046
  39 S :    0.422752
  40 C :   -0.172096
  41 C :   -0.074937
  42 C :   -0.176268
  43 C :   -0.199148
  44 S :    0.444061
  45 C :   -0.061295
  46 Cl:    0.131972
  47 C :   -0.072578
  48 C :   -0.169247
  49 S :    0.425811
  50 C :   -0.175132
  51 C :   -0.034064
  52 C :   -0.067713
  53 C :   -0.180054
  54 S :    0.478722
  55 C :   -0.183668
  56 C :   -0.075003
  57 C :    0.081658
  58 C :   -0.101943
  59 C :   -0.017281
  60 N :   -0.032732
  61 C :   -0.018867
  62 N :   -0.029234
  63 C :    0.004494
  64 C :   -0.204638
  65 S :    0.514936
  66 C :    0.026640
  67 N :   -0.097523
  68 C :   -0.014027
  69 C :   -0.028133
  70 N :    0.023558
  71 C :    0.119189
  72 O :   -0.153905
  73 N :    0.024090
  74 C :    0.027214
  75 N :   -0.090207
  76 C :   -0.023347
  77 C :   -0.003623
  78 H :    0.027048
  79 H :    0.026086
  80 H :    0.031117
  81 H :    0.031271
  82 H :    0.027151
  83 H :    0.038464
  84 H :    0.025565
  85 H :    0.023781
  86 H :    0.023731
  87 H :    0.013375
  88 H :    0.027012
  89 H :    0.034516
  90 H :    0.040875
  91 H :    0.036844
  92 H :    0.027663
  93 H :    0.034454
  94 H :    0.040108
  95 H :    0.036893
  96 H :    0.010954
  97 H :    0.037788
  98 H :    0.046476
  99 H :    0.028907
 100 H :    0.030544
 101 H :    0.026095
 102 H :    0.026207
 103 H :    0.033924

  Mayer bond orders larger than 0.100000
B(  0-C ,  1-O ) :   2.1168 B(  0-C ,  2-N ) :   1.0123 B(  0-C ,  7-N ) :   1.0190
B(  2-N ,  3-C ) :   1.1108 B(  2-N ,  6-C ) :   1.0826 B(  3-C ,  4-N ) :   1.7543
B(  3-C , 78-H ) :   0.9818 B(  4-N ,  5-C ) :   1.3302 B(  5-C ,  6-C ) :   1.5943
B(  5-C , 79-H ) :   1.0012 B(  6-C , 80-H ) :   0.9834 B(  7-N ,  8-C ) :   1.0625
B(  7-N , 11-C ) :   1.0874 B(  8-C ,  9-C ) :   1.5670 B(  8-C , 81-H ) :   0.9790
B(  9-C , 10-N ) :   1.3327 B(  9-C , 82-H ) :   0.9984 B( 10-N , 11-C ) :   1.7524
B( 11-C , 12-C ) :   1.0964 B( 12-C , 13-S ) :   1.1296 B( 12-C , 14-C ) :   0.1141
B( 12-C , 16-C ) :   1.3869 B( 13-S , 14-C ) :   1.1209 B( 14-C , 15-C ) :   1.4748
B( 14-C , 24-C ) :   1.1667 B( 15-C , 16-C ) :   1.2525 B( 15-C , 23-S ) :   1.0476
B( 16-C , 17-C ) :   1.1501 B( 17-C , 18-C ) :   1.5670 B( 17-C , 83-H ) :   1.0029
B( 18-C , 19-C ) :   0.9635 B( 18-C , 23-S ) :   1.0616 B( 19-C , 20-O ) :   2.1383
B( 19-C , 21-O ) :   1.2456 B( 21-O , 22-C ) :   0.9230 B( 22-C , 84-H ) :   0.9811
B( 22-C , 85-H ) :   0.9759 B( 22-C , 86-H ) :   0.9763 B( 24-C , 25-C ) :   1.5584
B( 24-C , 39-S ) :   1.0625 B( 25-C , 26-C ) :   1.1879 B( 25-C , 87-H ) :   0.9720
B( 26-C , 27-C ) :   1.2907 B( 26-C , 38-C ) :   1.2626 B( 27-C , 28-C ) :   0.9865
B( 27-C , 35-C ) :   1.4212 B( 28-C , 29-C ) :   1.5491 B( 28-C , 32-S ) :   1.1313
B( 29-C , 30-C ) :   1.2251 B( 29-C , 88-H ) :   0.9945 B( 30-C , 31-C ) :   1.6019
B( 30-C , 34-Cl) :   1.0103 B( 31-C , 32-S ) :   1.1304 B( 31-C , 33-C ) :   1.0828
B( 33-C , 89-H ) :   0.9444 B( 33-C , 90-H ) :   0.9493 B( 33-C , 91-H ) :   0.9477
B( 35-C , 36-C ) :   1.2698 B( 35-C , 49-S ) :   1.0550 B( 36-C , 37-C ) :   1.2937
B( 36-C , 47-C ) :   1.1850 B( 37-C , 38-C ) :   1.4175 B( 37-C , 40-C ) :   0.9892
B( 38-C , 39-S ) :   1.0626 B( 40-C , 41-C ) :   1.5515 B( 40-C , 44-S ) :   1.1267
B( 41-C , 42-C ) :   1.2198 B( 41-C , 92-H ) :   0.9947 B( 42-C , 43-C ) :   1.6054
B( 42-C , 46-Cl) :   1.0090 B( 43-C , 44-S ) :   1.1269 B( 43-C , 45-C ) :   1.0821
B( 45-C , 93-H ) :   0.9440 B( 45-C , 94-H ) :   0.9491 B( 45-C , 95-H ) :   0.9485
B( 47-C , 48-C ) :   1.5735 B( 47-C , 96-H ) :   0.9677 B( 48-C , 49-S ) :   1.0684
B( 48-C , 50-C ) :   1.1521 B( 50-C , 51-C ) :   1.4716 B( 50-C , 54-S ) :   1.1046
B( 51-C , 52-C ) :   1.2810 B( 51-C , 97-H ) :   0.9902 B( 52-C , 53-C ) :   1.4515
B( 52-C , 57-C ) :   0.9951 B( 53-C , 54-S ) :   1.1206 B( 53-C , 55-C ) :   1.1788
B( 55-C , 56-C ) :   1.4196 B( 55-C , 65-S ) :   1.1144 B( 56-C , 57-C ) :   0.9870
B( 56-C , 63-C ) :   1.2599 B( 57-C , 58-C ) :   1.7166 B( 58-C , 59-C ) :   1.1350
B( 58-C , 61-C ) :   1.1349 B( 59-C , 60-N ) :   2.9957 B( 61-C , 62-N ) :   3.0011
B( 63-C , 64-C ) :   1.4555 B( 63-C , 98-H ) :   1.0099 B( 64-C , 65-S ) :   1.1006
B( 64-C , 66-C ) :   1.0737 B( 66-C , 67-N ) :   1.7827 B( 66-C , 70-N ) :   1.0871
B( 67-N , 68-C ) :   1.3322 B( 68-C , 69-C ) :   1.5726 B( 68-C , 99-H ) :   0.9986
B( 69-C , 70-N ) :   1.0573 B( 69-C ,100-H ) :   0.9796 B( 70-N , 71-C ) :   1.0215
B( 71-C , 72-O ) :   2.1100 B( 71-C , 73-N ) :   1.0099 B( 73-N , 74-C ) :   1.0893
B( 73-N , 77-C ) :   1.0997 B( 74-C , 75-N ) :   1.7651 B( 74-C ,101-H ) :   0.9732
B( 75-N , 76-C ) :   1.3227 B( 76-C , 77-C ) :   1.5883 B( 76-C ,102-H ) :   0.9997
B( 77-C ,103-H ) :   0.9933

-----------------------------------------------------------------------------
         ABSORPTION SPECTRUM VIA TRANSITION ELECTRIC DIPOLE MOMENTS
-----------------------------------------------------------------------------
State   Energy  Wavelength   fosc         T2         TX        TY        TZ
        (cm-1)    (nm)                  (au**2)     (au)      (au)      (au)
-----------------------------------------------------------------------------
   0   13079.3    764.6   0.168089089   4.23089   1.23502  -0.43335   1.58676
   1   19248.7    519.5   0.461770445   7.89770   1.80478  -1.06110   1.87471
   2   20308.9    492.4   0.818992344  13.27608  -2.26746   0.73084  -2.75692
   3   23915.3    418.1   0.198317379   2.72999   0.82398   0.30101   1.40016
   4   25083.2    398.7   0.644330994   8.45672   1.65690  -1.95654   1.37235
   5   25682.0    389.4   0.389917184   4.99826  -1.00297  -0.63807  -1.89346
   6   27055.1    369.6   0.190628750   2.31961  -0.09847  -1.16390  -0.97737
   7   28056.1    356.4   0.101568020   1.19181  -0.17747   0.96489   0.47885
   8   28190.6    354.7   0.109603796   1.27996   0.18288   0.72627   0.84796
   9   29468.5    339.3   0.087853428   0.98147   0.33187   0.46769   0.80784
  10   30149.4    331.7   0.262223896   2.86331  -1.09807   0.32321  -1.24623
  11   30915.1    323.5   0.161748848   1.72245   0.42965  -1.23364  -0.12639
  12   31208.7    320.4   0.042359473   0.44684  -0.01776   0.55661   0.36974
  13   31525.5    317.2   0.116457706   1.21613   0.66524  -0.31916   0.81959
  14   32032.7    312.2   0.669814879   6.88394   0.40277   1.79028   1.87526
  15   32616.2    306.6   0.136937547   1.38218  -0.29844   1.12393   0.17292
  16   32821.7    304.7   0.231622635   2.32325  -0.92662   0.38879  -1.14606
  17   33030.5    302.8   0.037134850   0.37012   0.37888  -0.33753   0.33562
  18   33558.5    298.0   0.097550831   0.95698  -0.32586   0.91305  -0.13093
  19   34383.6    290.8   0.014621293   0.13999  -0.08750   0.35924   0.05730
  20   34501.8    289.8   0.117566078   1.12180  -0.26752   1.01428   0.14653
  21   34979.0    285.9   0.099483701   0.93631  -0.21738   0.89633   0.29265
  22   35257.7    283.6   0.004071977   0.03802   0.14395   0.13007   0.01955
  23   35518.6    281.5   0.047908979   0.44405   0.12035  -0.63222  -0.17283
  24   35985.4    277.9   0.103813851   0.94974   0.45908  -0.84040   0.18086
  25   36406.7    274.7   0.053089120   0.48007   0.46437   0.04562   0.51220
  26   36813.0    271.6   0.019206737   0.17176  -0.03353  -0.27308  -0.30994
  27   37027.5    270.1   0.209236288   1.86032   0.73387  -0.11673   1.14374
  28   37201.6    268.8   0.015978938   0.14140  -0.09453   0.31286   0.18597
  29   37261.0    268.4   0.013153139   0.11621   0.06401  -0.22369  -0.24915
  30   37590.2    266.0   0.020482234   0.17938  -0.04357  -0.25782  -0.33318
  31   37694.7    265.3   0.010533077   0.09199  -0.05787   0.09468   0.28227
  32   37953.5    263.5   0.006683134   0.05797  -0.01267   0.23481   0.05172
  33   38403.3    260.4   0.085804403   0.73556   0.55218  -0.07028   0.65247
  34   38504.3    259.7   0.011268801   0.09635   0.05864  -0.26517  -0.15032
  35   38920.9    256.9   0.009539845   0.08069   0.04474  -0.20261  -0.19401
  36   38985.9    256.5   0.011334018   0.09571  -0.05322  -0.30357  -0.02689
  37   39434.6    253.6   0.033378862   0.27866  -0.05187  -0.50084  -0.15853
  38   39526.7    253.0   0.043699945   0.36397   0.03458   0.43281   0.41886
  39   39728.1    251.7   0.024549758   0.20343   0.22141   0.07328   0.38606
  40   40161.1    249.0   0.014916627   0.12228  -0.02915   0.34802  -0.01760
  41   40288.5    248.2   0.067751544   0.55362   0.09709  -0.47787  -0.56200

FINAL SINGLE POINT ENERGY     -7022.864347163159

DIPOLE MOMENT
-------------
                                X             Y             Z
Electronic contribution:    -20.60370      12.73404      -8.40071
Nuclear contribution   :     21.93060     -14.99257       8.80963
                        -----------------------------------------
Total Dipole Moment    :      1.32690      -2.25852       0.40892
                        -----------------------------------------
Magnitude (a.u.)       :      2.65119
Magnitude (Debye)      :      6.73878

Rotational constants in cm-1:     0.001082     0.000241     0.000199
Rotational constants in MHz :    32.425652     7.227413     5.976237

                             ****ORCA TERMINATED NORMALLY****
TOTAL RUN TIME: 0 days 0 hours 10 minutes 13 seconds 395 msec
