                         Program Version 4.2.0 -  RELEASE  -
|  1> # ORCA input file
|  2> # SCF done       -179.292881361749          0.000747340921
|  3> ! CAM-B3LYP def2-SVP def2/J RIJCOSX Grid4 TightSCF
|  4> %maxcore 5000
|  5> %tddft
|  6>     Mode sTDDFT
|  7>     Ethresh 5.0
|  8>     maxcore 5000
|  9> end
| 10>
| 11> %pal
| 12>   nprocs 6
| 13>   end
| 14> * xyz 0 1
| 15>    C        1.34590        -0.01724        -0.72496
| 16>    C        1.81908        -0.08701        -2.03650
| 17>    N        2.83430         0.85073        -2.41318
| 18>    O        3.41191         1.44150        -1.52245
| 19>    O        3.06283         1.01169        -3.59726
| 20>    C        1.30243        -1.04069        -2.92596
| 21>    C        1.77748        -1.20587        -4.34950
| 22>    O        1.33165        -2.39514        -4.95061
| 23>    C        0.30583        -1.87985        -2.45790
| 24>    C       -0.19391        -1.80970        -1.15526
| 25>    C        0.35576        -0.85909        -0.28262
| 26>    C       -1.25229        -2.69091        -0.73543
| 27>    C       -1.94132        -2.69780         0.45887
| 28>    C       -2.92496        -3.68999         0.50182
| 29>    C       -2.97854        -4.45046        -0.67914
| 30>    S       -1.82948        -3.94576        -1.82937
| 31>    C       -4.01074        -5.41128        -0.55167
| 32>    C       -4.61586        -5.25826         0.70533
| 33>    C       -3.94312        -4.17555         1.41441
| 34>    C       -4.21334        -3.72428         2.67344
| 35>    C       -5.23431        -4.28614         3.46782
| 36>    N       -6.06315        -4.74454         4.11415
| 37>    C       -3.48159        -2.67046         3.25956
| 38>    N       -2.88321        -1.81575         3.73489
| 39>    C       -5.66621        -6.14958         0.91647
| 40>    C       -5.86777        -6.98551        -0.16899
| 41>    S       -4.72596        -6.66091        -1.47071
| 42>    C       -6.84773        -8.00703        -0.32264
| 43>    C       -6.91820        -8.78711        -1.45282
| 44>    C       -7.85486        -9.79126        -1.67839
| 45>    C       -8.96412       -10.00133        -0.73745
| 46>    C       -9.07774        -9.36622         0.44940
| 47>    S       -7.95866        -8.20112         1.02767
| 48>    C       -9.80880       -10.96231        -1.35812
| 49>    C       -9.26660       -11.33814        -2.58883
| 50>    C      -10.06304       -12.29777        -3.25119
| 51>    C      -11.16604       -12.61523        -2.52420
| 52>    S      -11.28177       -11.77561        -1.01383
| 53>    C       -8.02285       -10.64318        -2.78944
| 54>    C       -7.17221       -10.85613        -3.90092
| 55>    C       -5.84149       -10.57655        -3.94035
| 56>    C       -4.99582       -10.76618        -5.05817
| 57>    C       -5.29313       -11.19729        -6.34450
| 58>    C       -4.16423       -11.24262        -7.15631
| 59>    C       -2.99007       -10.84215        -6.49440
| 60>    S       -3.28333       -10.40859        -4.86852
| 61>    C       -1.90803       -10.93078        -7.40117
| 62>    C       -2.39346       -11.38664        -8.64077
| 63>    C       -3.82466       -11.59196        -8.53187
| 64>    C       -4.68061       -12.01476        -9.50725
| 65>    C       -4.23715       -12.31174       -10.81280
| 66>    N       -3.87239       -12.55012       -11.87348
| 67>    C       -6.06131       -12.17635        -9.27149
| 68>    N       -7.18349       -12.30832        -9.07461
| 69>    C       -1.38611       -11.51584        -9.59996
| 70>    C       -0.14481       -11.16282        -9.11325
| 71>    S       -0.22831       -10.65616        -7.42566
| 72>    C        1.12351       -11.17070        -9.79126
| 73>    C        2.27314       -10.67110        -9.16293
| 74>    C        3.47933       -10.68666        -9.81431
| 75>    C        3.58856       -11.21136       -11.10421
| 76>    C        2.45654       -11.71898       -11.76261
| 77>    C        1.24829       -11.68140       -11.08856
| 78>    C        2.48681       -12.31304       -13.15604
| 79>    O        3.06560       -13.58962       -13.18178
| 80>    N        4.89186       -11.18224       -11.69370
| 81>    O        5.72279       -10.45454       -11.18932
| 82>    O        5.11488       -11.88821       -12.66325
| 83>    H        1.77514         0.72426        -0.06833
| 84>    H        2.87083        -1.12596        -4.39855
| 85>    H        1.37150        -0.39054        -4.95682
| 86>    H        1.79470        -3.14198        -4.55527
| 87>    H       -0.10946        -2.60097        -3.14779
| 88>    H        0.00518        -0.78152         0.73294
| 89>    H       -1.74959        -2.00919         1.26062
| 90>    H       -6.26411        -6.19834         1.80863
| 91>    H       -6.20455        -8.56337        -2.23349
| 92>    H       -9.88886        -9.55663         1.13431
| 93>    H       -9.84111       -12.72880        -4.21032
| 94>    H      -11.94352       -13.30816        -2.78009
| 95>    H       -7.63206       -11.32883        -4.75840
| 96>    H       -5.34680       -10.21788        -3.04960
| 97>    H       -6.28523       -11.46037        -6.66092
| 98>    H       -1.55826       -11.84762       -10.60697
| 99>    H        2.20835       -10.27116        -8.16223
|100>    H        4.37022       -10.30215        -9.34124
|101>    H        0.37749       -12.07416       -11.58822
|102>    H        3.01097       -11.63043       -13.83956
|103>    H        1.46070       -12.43938       -13.51011
|104>    H        4.02548       -13.47395       -13.10564
|105> *
|106>
|107>                          ****END OF INPUT****

CARTESIAN COORDINATES (ANGSTROEM)
---------------------------------
  C      1.345900   -0.017240   -0.724960
  C      1.819080   -0.087010   -2.036500
  N      2.834300    0.850730   -2.413180
  O      3.411910    1.441500   -1.522450
  O      3.062830    1.011690   -3.597260
  C      1.302430   -1.040690   -2.925960
  C      1.777480   -1.205870   -4.349500
  O      1.331650   -2.395140   -4.950610
  C      0.305830   -1.879850   -2.457900
  C     -0.193910   -1.809700   -1.155260
  C      0.355760   -0.859090   -0.282620
  C     -1.252290   -2.690910   -0.735430
  C     -1.941320   -2.697800    0.458870
  C     -2.924960   -3.689990    0.501820
  C     -2.978540   -4.450460   -0.679140
  S     -1.829480   -3.945760   -1.829370
  C     -4.010740   -5.411280   -0.551670
  C     -4.615860   -5.258260    0.705330
  C     -3.943120   -4.175550    1.414410
  C     -4.213340   -3.724280    2.673440
  C     -5.234310   -4.286140    3.467820
  N     -6.063150   -4.744540    4.114150
  C     -3.481590   -2.670460    3.259560
  N     -2.883210   -1.815750    3.734890
  C     -5.666210   -6.149580    0.916470
  C     -5.867770   -6.985510   -0.168990
  S     -4.725960   -6.660910   -1.470710
  C     -6.847730   -8.007030   -0.322640
  C     -6.918200   -8.787110   -1.452820
  C     -7.854860   -9.791260   -1.678390
  C     -8.964120  -10.001330   -0.737450
  C     -9.077740   -9.366220    0.449400
  S     -7.958660   -8.201120    1.027670
  C     -9.808800  -10.962310   -1.358120
  C     -9.266600  -11.338140   -2.588830
  C    -10.063040  -12.297770   -3.251190
  C    -11.166040  -12.615230   -2.524200
  S    -11.281770  -11.775610   -1.013830
  C     -8.022850  -10.643180   -2.789440
  C     -7.172210  -10.856130   -3.900920
  C     -5.841490  -10.576550   -3.940350
  C     -4.995820  -10.766180   -5.058170
  C     -5.293130  -11.197290   -6.344500
  C     -4.164230  -11.242620   -7.156310
  C     -2.990070  -10.842150   -6.494400
  S     -3.283330  -10.408590   -4.868520
  C     -1.908030  -10.930780   -7.401170
  C     -2.393460  -11.386640   -8.640770
  C     -3.824660  -11.591960   -8.531870
  C     -4.680610  -12.014760   -9.507250
  C     -4.237150  -12.311740  -10.812800
  N     -3.872390  -12.550120  -11.873480
  C     -6.061310  -12.176350   -9.271490
  N     -7.183490  -12.308320   -9.074610
  C     -1.386110  -11.515840   -9.599960
  C     -0.144810  -11.162820   -9.113250
  S     -0.228310  -10.656160   -7.425660
  C      1.123510  -11.170700   -9.791260
  C      2.273140  -10.671100   -9.162930
  C      3.479330  -10.686660   -9.814310
  C      3.588560  -11.211360  -11.104210
  C      2.456540  -11.718980  -11.762610
  C      1.248290  -11.681400  -11.088560
  C      2.486810  -12.313040  -13.156040
  O      3.065600  -13.589620  -13.181780
  N      4.891860  -11.182240  -11.693700
  O      5.722790  -10.454540  -11.189320
  O      5.114880  -11.888210  -12.663250
  H      1.775140    0.724260   -0.068330
  H      2.870830   -1.125960   -4.398550
  H      1.371500   -0.390540   -4.956820
  H      1.794700   -3.141980   -4.555270
  H     -0.109460   -2.600970   -3.147790
  H      0.005180   -0.781520    0.732940
  H     -1.749590   -2.009190    1.260620
  H     -6.264110   -6.198340    1.808630
  H     -6.204550   -8.563370   -2.233490
  H     -9.888860   -9.556630    1.134310
  H     -9.841110  -12.728800   -4.210320
  H    -11.943520  -13.308160   -2.780090
  H     -7.632060  -11.328830   -4.758400
  H     -5.346800  -10.217880   -3.049600
  H     -6.285230  -11.460370   -6.660920
  H     -1.558260  -11.847620  -10.606970
  H      2.208350  -10.271160   -8.162230
  H      4.370220  -10.302150   -9.341240
  H      0.377490  -12.074160  -11.588220
  H      3.010970  -11.630430  -13.839560
  H      1.460700  -12.439380  -13.510110
  H      4.025480  -13.473950  -13.105640

 Total Charge           Charge          ....    0
 Multiplicity           Mult            ....    1
 Number of Electrons    NEL             ....  508
 Basis Dimension        Dim             .... 1086

ORBITAL ENERGIES
----------------

  NO   OCC          E(Eh)            E(eV)
   0   2.0000     -89.000747     -2421.8335
   1   2.0000     -88.999273     -2421.7934
   2   2.0000     -88.994497     -2421.6634
   3   2.0000     -88.991074     -2421.5702
   4   2.0000     -88.986825     -2421.4546
   5   2.0000     -88.963575     -2420.8219
   6   2.0000     -19.250881      -523.8431
   7   2.0000     -19.248638      -523.7821
   8   2.0000     -19.245211      -523.6888
   9   2.0000     -19.242772      -523.6224
  10   2.0000     -19.226168      -523.1706
  11   2.0000     -19.192338      -522.2501
  12   2.0000     -14.655240      -398.7893
  13   2.0000     -14.650332      -398.6558
  14   2.0000     -14.439528      -392.9195
  15   2.0000     -14.439154      -392.9093
  16   2.0000     -14.434321      -392.7778
  17   2.0000     -14.434176      -392.7739
  18   2.0000     -10.374406      -282.3019
  19   2.0000     -10.368202      -282.1331
  20   2.0000     -10.361463      -281.9497
  21   2.0000     -10.355831      -281.7965
  22   2.0000     -10.343307      -281.4557
  23   2.0000     -10.340738      -281.3858
  24   2.0000     -10.339681      -281.3570
  25   2.0000     -10.339574      -281.3541
  26   2.0000     -10.339457      -281.3509
  27   2.0000     -10.339363      -281.3484
  28   2.0000     -10.339251      -281.3453
  29   2.0000     -10.337707      -281.3033
  30   2.0000     -10.334819      -281.2247
  31   2.0000     -10.334469      -281.2152
  32   2.0000     -10.333613      -281.1919
  33   2.0000     -10.332179      -281.1529
  34   2.0000     -10.331681      -281.1393
  35   2.0000     -10.330266      -281.1008
  36   2.0000     -10.328646      -281.0568
  37   2.0000     -10.326941      -281.0104
  38   2.0000     -10.325978      -280.9841
  39   2.0000     -10.320197      -280.8268
  40   2.0000     -10.318202      -280.7725
  41   2.0000     -10.315986      -280.7122
  42   2.0000     -10.314286      -280.6660
  43   2.0000     -10.314034      -280.6591
  44   2.0000     -10.311967      -280.6029
  45   2.0000     -10.311419      -280.5880
  46   2.0000     -10.311245      -280.5832
  47   2.0000     -10.309310      -280.5306
  48   2.0000     -10.308071      -280.4969
  49   2.0000     -10.308059      -280.4965
  50   2.0000     -10.307435      -280.4796
  51   2.0000     -10.307123      -280.4711
  52   2.0000     -10.304865      -280.4096
  53   2.0000     -10.303311      -280.3673
  54   2.0000     -10.302748      -280.3520
  55   2.0000     -10.302712      -280.3511
  56   2.0000     -10.300619      -280.2941
  57   2.0000     -10.297827      -280.2181
  58   2.0000     -10.297433      -280.2074
  59   2.0000     -10.296955      -280.1944
  60   2.0000     -10.295524      -280.1554
  61   2.0000     -10.294805      -280.1359
  62   2.0000     -10.294777      -280.1351
  63   2.0000     -10.294106      -280.1169
  64   2.0000     -10.294054      -280.1154
  65   2.0000     -10.286614      -279.9130
  66   2.0000     -10.281614      -279.7769
  67   2.0000     -10.281305      -279.7685
  68   2.0000      -8.095047      -220.2774
  69   2.0000      -8.093694      -220.2406
  70   2.0000      -8.088994      -220.1127
  71   2.0000      -8.085799      -220.0258
  72   2.0000      -8.082050      -219.9238
  73   2.0000      -8.058999      -219.2965
  74   2.0000      -6.064346      -165.0192
  75   2.0000      -6.062870      -164.9791
  76   2.0000      -6.060255      -164.9079
  77   2.0000      -6.058709      -164.8658
  78   2.0000      -6.058205      -164.8521
  79   2.0000      -6.057271      -164.8267
  80   2.0000      -6.056211      -164.7979
  81   2.0000      -6.054999      -164.7649
  82   2.0000      -6.054024      -164.7384
  83   2.0000      -6.051686      -164.6748
  84   2.0000      -6.051479      -164.6691
  85   2.0000      -6.050884      -164.6529
  86   2.0000      -6.048243      -164.5811
  87   2.0000      -6.047112      -164.5503
  88   2.0000      -6.043807      -164.4603
  89   2.0000      -6.028436      -164.0421
  90   2.0000      -6.024197      -163.9267
  91   2.0000      -6.021017      -163.8402
  92   2.0000      -1.328842       -36.1596
  93   2.0000      -1.324416       -36.0392
  94   2.0000      -1.147044       -31.2127
  95   2.0000      -1.142379       -31.0857
  96   2.0000      -1.116072       -30.3699
  97   2.0000      -1.085257       -29.5313
  98   2.0000      -1.054778       -28.7020
  99   2.0000      -1.047802       -28.5121
 100   2.0000      -1.031327       -28.0638
 101   2.0000      -1.025783       -27.9130
 102   2.0000      -1.018547       -27.7161
 103   2.0000      -1.016618       -27.6636
 104   2.0000      -1.011939       -27.5363
 105   2.0000      -1.009843       -27.4792
 106   2.0000      -1.004262       -27.3274
 107   2.0000      -0.993110       -27.0239
 108   2.0000      -0.987587       -26.8736
 109   2.0000      -0.980243       -26.6738
 110   2.0000      -0.965264       -26.2662
 111   2.0000      -0.962799       -26.1991
 112   2.0000      -0.939330       -25.5605
 113   2.0000      -0.930705       -25.3258
 114   2.0000      -0.926813       -25.2199
 115   2.0000      -0.913621       -24.8609
 116   2.0000      -0.907240       -24.6873
 117   2.0000      -0.895138       -24.3579
 118   2.0000      -0.885809       -24.1041
 119   2.0000      -0.880598       -23.9623
 120   2.0000      -0.876846       -23.8602
 121   2.0000      -0.875657       -23.8278
 122   2.0000      -0.868749       -23.6398
 123   2.0000      -0.863767       -23.5043
 124   2.0000      -0.857154       -23.3243
 125   2.0000      -0.851935       -23.1823
 126   2.0000      -0.837470       -22.7887
 127   2.0000      -0.826675       -22.4950
 128   2.0000      -0.817847       -22.2548
 129   2.0000      -0.805127       -21.9086
 130   2.0000      -0.792570       -21.5669
 131   2.0000      -0.784588       -21.3497
 132   2.0000      -0.782578       -21.2950
 133   2.0000      -0.776041       -21.1171
 134   2.0000      -0.764399       -20.8004
 135   2.0000      -0.758221       -20.6322
 136   2.0000      -0.743323       -20.2269
 137   2.0000      -0.732623       -19.9357
 138   2.0000      -0.717242       -19.5172
 139   2.0000      -0.714240       -19.4354
 140   2.0000      -0.710033       -19.3210
 141   2.0000      -0.707154       -19.2426
 142   2.0000      -0.705905       -19.2086
 143   2.0000      -0.695511       -18.9258
 144   2.0000      -0.688442       -18.7335
 145   2.0000      -0.686315       -18.6756
 146   2.0000      -0.679070       -18.4784
 147   2.0000      -0.668643       -18.1947
 148   2.0000      -0.663469       -18.0539
 149   2.0000      -0.652330       -17.7508
 150   2.0000      -0.650190       -17.6926
 151   2.0000      -0.647397       -17.6166
 152   2.0000      -0.642457       -17.4821
 153   2.0000      -0.638324       -17.3697
 154   2.0000      -0.635713       -17.2986
 155   2.0000      -0.634656       -17.2699
 156   2.0000      -0.633768       -17.2457
 157   2.0000      -0.629231       -17.1223
 158   2.0000      -0.625611       -17.0237
 159   2.0000      -0.620383       -16.8815
 160   2.0000      -0.616982       -16.7889
 161   2.0000      -0.606705       -16.5093
 162   2.0000      -0.602446       -16.3934
 163   2.0000      -0.601726       -16.3738
 164   2.0000      -0.598803       -16.2943
 165   2.0000      -0.594880       -16.1875
 166   2.0000      -0.587406       -15.9841
 167   2.0000      -0.585181       -15.9236
 168   2.0000      -0.577090       -15.7034
 169   2.0000      -0.571576       -15.5534
 170   2.0000      -0.563422       -15.3315
 171   2.0000      -0.562090       -15.2952
 172   2.0000      -0.558485       -15.1971
 173   2.0000      -0.557250       -15.1636
 174   2.0000      -0.550828       -14.9888
 175   2.0000      -0.549530       -14.9535
 176   2.0000      -0.544601       -14.8193
 177   2.0000      -0.539926       -14.6921
 178   2.0000      -0.539225       -14.6730
 179   2.0000      -0.537005       -14.6127
 180   2.0000      -0.530421       -14.4335
 181   2.0000      -0.527597       -14.3566
 182   2.0000      -0.524200       -14.2642
 183   2.0000      -0.523398       -14.2424
 184   2.0000      -0.519775       -14.1438
 185   2.0000      -0.516361       -14.0509
 186   2.0000      -0.514314       -13.9952
 187   2.0000      -0.513575       -13.9751
 188   2.0000      -0.511409       -13.9161
 189   2.0000      -0.509661       -13.8686
 190   2.0000      -0.504260       -13.7216
 191   2.0000      -0.502050       -13.6615
 192   2.0000      -0.501394       -13.6436
 193   2.0000      -0.498405       -13.5623
 194   2.0000      -0.495072       -13.4716
 195   2.0000      -0.491414       -13.3721
 196   2.0000      -0.487165       -13.2564
 197   2.0000      -0.482657       -13.1338
 198   2.0000      -0.481401       -13.0996
 199   2.0000      -0.479009       -13.0345
 200   2.0000      -0.473957       -12.8970
 201   2.0000      -0.472846       -12.8668
 202   2.0000      -0.470133       -12.7930
 203   2.0000      -0.469987       -12.7890
 204   2.0000      -0.466465       -12.6931
 205   2.0000      -0.465483       -12.6664
 206   2.0000      -0.464647       -12.6437
 207   2.0000      -0.463314       -12.6074
 208   2.0000      -0.461654       -12.5622
 209   2.0000      -0.458953       -12.4887
 210   2.0000      -0.457895       -12.4600
 211   2.0000      -0.452584       -12.3154
 212   2.0000      -0.449271       -12.2253
 213   2.0000      -0.448562       -12.2060
 214   2.0000      -0.447257       -12.1705
 215   2.0000      -0.444583       -12.0977
 216   2.0000      -0.443579       -12.0704
 217   2.0000      -0.442138       -12.0312
 218   2.0000      -0.440680       -11.9915
 219   2.0000      -0.438613       -11.9353
 220   2.0000      -0.435633       -11.8542
 221   2.0000      -0.434905       -11.8344
 222   2.0000      -0.429410       -11.6848
 223   2.0000      -0.429147       -11.6777
 224   2.0000      -0.427374       -11.6294
 225   2.0000      -0.419677       -11.4200
 226   2.0000      -0.418835       -11.3971
 227   2.0000      -0.416226       -11.3261
 228   2.0000      -0.408729       -11.1221
 229   2.0000      -0.405923       -11.0457
 230   2.0000      -0.397179       -10.8078
 231   2.0000      -0.394368       -10.7313
 232   2.0000      -0.391705       -10.6588
 233   2.0000      -0.388312       -10.5665
 234   2.0000      -0.385943       -10.5021
 235   2.0000      -0.382218       -10.4007
 236   2.0000      -0.377070       -10.2606
 237   2.0000      -0.374954       -10.2030
 238   2.0000      -0.371047       -10.0967
 239   2.0000      -0.363085        -9.8800
 240   2.0000      -0.359699        -9.7879
 241   2.0000      -0.353689        -9.6244
 242   2.0000      -0.348712        -9.4889
 243   2.0000      -0.347231        -9.4486
 244   2.0000      -0.345829        -9.4105
 245   2.0000      -0.339663        -9.2427
 246   2.0000      -0.334989        -9.1155
 247   2.0000      -0.330588        -8.9958
 248   2.0000      -0.329210        -8.9583
 249   2.0000      -0.322310        -8.7705
 250   2.0000      -0.295817        -8.0496
 251   2.0000      -0.284945        -7.7537
 252   2.0000      -0.266158        -7.2425
 253   2.0000      -0.230842        -6.2815
 254   0.0000      -0.116444        -3.1686
 255   0.0000      -0.109130        -2.9696
 256   0.0000      -0.079143        -2.1536
 257   0.0000      -0.068092        -1.8529
 258   0.0000      -0.061769        -1.6808

MULLIKEN ATOMIC CHARGES
-----------------------
   0 C :   -0.001627
   1 C :    0.109104
   2 N :    0.249178
   3 O :   -0.236246
   4 O :   -0.244934
   5 C :   -0.130658
   6 C :    0.315880
   7 O :   -0.300807
   8 C :   -0.151870
   9 C :    0.209146
  10 C :   -0.036799
  11 C :   -0.072081
  12 C :   -0.036053
  13 C :    0.008312
  14 C :   -0.085985
  15 S :    0.172337
  16 C :   -0.096920
  17 C :    0.019359
  18 C :    0.298305
  19 C :   -0.292660
  20 C :   -0.185999
  21 N :    0.175721
  22 C :   -0.186553
  23 N :    0.173504
  24 C :   -0.057740
  25 C :   -0.056512
  26 S :    0.163911
  27 C :   -0.023502
  28 C :   -0.102210
  29 C :    0.050398
  30 C :    0.059944
  31 C :   -0.123990
  32 S :    0.136893
  33 C :   -0.108062
  34 C :    0.054118
  35 C :    0.009339
  36 C :   -0.068917
  37 S :    0.133532
  38 C :    0.078329
  39 C :   -0.021011
  40 C :    0.023396
  41 C :   -0.074947
  42 C :   -0.040060
  43 C :    0.013501
  44 C :   -0.110980
  45 S :    0.175323
  46 C :   -0.085559
  47 C :    0.003084
  48 C :    0.303973
  49 C :   -0.299780
  50 C :   -0.182414
  51 N :    0.171358
  52 C :   -0.181256
  53 N :    0.165934
  54 C :   -0.031967
  55 C :   -0.079080
  56 S :    0.163047
  57 C :    0.199129
  58 C :   -0.054039
  59 C :   -0.001942
  60 C :    0.108702
  61 C :   -0.078160
  62 C :   -0.115333
  63 C :    0.321900
  64 O :   -0.323035
  65 N :    0.262608
  66 O :   -0.228348
  67 O :   -0.267033
  68 H :    0.012596
  69 H :    0.025164
  70 H :    0.040782
  71 H :    0.167895
  72 H :   -0.014324
  73 H :   -0.009019
  74 H :    0.008001
  75 H :    0.020989
  76 H :   -0.006692
  77 H :    0.041593
  78 H :   -0.012045
  79 H :    0.030596
  80 H :   -0.011281
  81 H :   -0.021420
  82 H :    0.005144
  83 H :    0.008597
  84 H :   -0.006134
  85 H :    0.009079
  86 H :   -0.019389
  87 H :    0.007744
  88 H :   -0.003008
  89 H :    0.170936
Sum of atomic charges:   -0.0000000

LOEWDIN ATOMIC CHARGES
----------------------
   0 C :    0.012954
   1 C :   -0.044269
   2 N :    0.284878
   3 O :   -0.204183
   4 O :   -0.201202
   5 C :   -0.013712
   6 C :    0.068318
   7 O :   -0.125007
   8 C :   -0.038797
   9 C :   -0.011485
  10 C :   -0.017491
  11 C :   -0.162131
  12 C :   -0.019485
  13 C :   -0.073952
  14 C :   -0.173673
  15 S :    0.485118
  16 C :   -0.184091
  17 C :   -0.063120
  18 C :    0.081996
  19 C :   -0.098912
  20 C :   -0.016738
  21 N :   -0.029222
  22 C :   -0.016045
  23 N :   -0.030525
  24 C :   -0.041026
  25 C :   -0.173099
  26 S :    0.474753
  27 C :   -0.185069
  28 C :   -0.032855
  29 C :   -0.019879
  30 C :   -0.046570
  31 C :   -0.137563
  32 S :    0.462384
  33 C :   -0.203412
  34 C :   -0.039089
  35 C :   -0.062744
  36 C :   -0.161216
  37 S :    0.425824
  38 C :   -0.049507
  39 C :   -0.000387
  40 C :   -0.065288
  41 C :   -0.151380
  42 C :   -0.035473
  43 C :   -0.058374
  44 C :   -0.200433
  45 S :    0.466656
  46 C :   -0.166409
  47 C :   -0.079486
  48 C :    0.083399
  49 C :   -0.102632
  50 C :   -0.016167
  51 N :   -0.032613
  52 C :   -0.014873
  53 N :   -0.035190
  54 C :   -0.016132
  55 C :   -0.168199
  56 S :    0.476397
  57 C :   -0.007870
  58 C :   -0.034986
  59 C :    0.012631
  60 C :   -0.044931
  61 C :   -0.007101
  62 C :   -0.011030
  63 C :    0.074547
  64 O :   -0.139172
  65 N :    0.292518
  66 O :   -0.194523
  67 O :   -0.207823
  68 H :    0.044027
  69 H :    0.020443
  70 H :    0.042557
  71 H :    0.077582
  72 H :    0.016383
  73 H :    0.035020
  74 H :    0.040361
  75 H :    0.036052
  76 H :    0.024532
  77 H :    0.038983
  78 H :    0.032384
  79 H :    0.025143
  80 H :    0.032674
  81 H :    0.023662
  82 H :    0.038305
  83 H :    0.040539
  84 H :    0.022901
  85 H :    0.042149
  86 H :    0.033723
  87 H :    0.014678
  88 H :    0.023474
  89 H :    0.058591

  Mayer bond orders larger than 0.100000
B(  0-C ,  1-C ) :   1.3582 B(  0-C , 10-C ) :   1.3838 B(  0-C , 68-H ) :   0.9847
B(  1-C ,  2-N ) :   0.9027 B(  1-C ,  5-C ) :   1.3769 B(  2-N ,  3-O ) :   1.5617
B(  2-N ,  4-O ) :   1.5120 B(  3-O ,  4-O ) :   0.2607 B(  5-C ,  6-C ) :   0.9917
B(  5-C ,  8-C ) :   1.4210 B(  6-C ,  7-O ) :   1.0460 B(  6-C , 69-H ) :   0.9365
B(  6-C , 70-H ) :   0.9131 B(  7-O , 71-H ) :   0.9790 B(  8-C ,  9-C ) :   1.2698
B(  8-C , 72-H ) :   0.9776 B(  9-C , 10-C ) :   1.3241 B(  9-C , 11-C ) :   1.0812
B( 10-C , 73-H ) :   0.9967 B( 11-C , 12-C ) :   1.4939 B( 11-C , 15-S ) :   1.0962
B( 12-C , 13-C ) :   1.2765 B( 12-C , 74-H ) :   0.9886 B( 13-C , 14-C ) :   1.4378
B( 13-C , 18-C ) :   1.0060 B( 14-C , 15-S ) :   1.1326 B( 14-C , 16-C ) :   1.1814
B( 16-C , 17-C ) :   1.4525 B( 16-C , 26-S ) :   1.1151 B( 17-C , 18-C ) :   0.9936
B( 17-C , 24-C ) :   1.3014 B( 18-C , 19-C ) :   1.7106 B( 19-C , 20-C ) :   1.1329
B( 19-C , 22-C ) :   1.1342 B( 20-C , 21-N ) :   2.9904 B( 22-C , 23-N ) :   2.9884
B( 24-C , 25-C ) :   1.4571 B( 24-C , 75-H ) :   0.9811 B( 25-C , 26-S ) :   1.1061
B( 25-C , 27-C ) :   1.1696 B( 27-C , 28-C ) :   1.5156 B( 27-C , 32-S ) :   1.0574
B( 28-C , 29-C ) :   1.2513 B( 28-C , 76-H ) :   0.9563 B( 29-C , 30-C ) :   1.0557
B( 29-C , 38-C ) :   1.3795 B( 30-C , 31-C ) :   1.6095 B( 30-C , 33-C ) :   1.1769
B( 31-C , 32-S ) :   1.1359 B( 31-C , 77-H ) :   0.9408 B( 33-C , 34-C ) :   1.4377
B( 33-C , 37-S ) :   1.0781 B( 34-C , 35-C ) :   1.2217 B( 34-C , 38-C ) :   1.0994
B( 35-C , 36-C ) :   1.5846 B( 35-C , 78-H ) :   0.9989 B( 36-C , 37-S ) :   1.1561
B( 36-C , 79-H ) :   0.9663 B( 38-C , 39-C ) :   1.1656 B( 39-C , 40-C ) :   1.6443
B( 39-C , 80-H ) :   0.9614 B( 40-C , 41-C ) :   1.1319 B( 40-C , 81-H ) :   0.9527
B( 41-C , 42-C ) :   1.4390 B( 41-C , 45-S ) :   1.1135 B( 42-C , 43-C ) :   1.3108
B( 42-C , 82-H ) :   0.9904 B( 43-C , 44-C ) :   1.4372 B( 43-C , 48-C ) :   0.9900
B( 44-C , 45-S ) :   1.1040 B( 44-C , 46-C ) :   1.1954 B( 46-C , 47-C ) :   1.4321
B( 46-C , 56-S ) :   1.1383 B( 47-C , 48-C ) :   1.0080 B( 47-C , 54-C ) :   1.2806
B( 48-C , 49-C ) :   1.7104 B( 49-C , 50-C ) :   1.1320 B( 49-C , 52-C ) :   1.1336
B( 50-C , 51-N ) :   2.9876 B( 52-C , 53-N ) :   2.9859 B( 54-C , 55-C ) :   1.4931
B( 54-C , 83-H ) :   0.9868 B( 55-C , 56-S ) :   1.0855 B( 55-C , 57-C ) :   1.0850
B( 57-C , 58-C ) :   1.2985 B( 57-C , 62-C ) :   1.3179 B( 58-C , 59-C ) :   1.3985
B( 58-C , 84-H ) :   0.9852 B( 59-C , 60-C ) :   1.3647 B( 59-C , 85-H ) :   0.9838
B( 60-C , 61-C ) :   1.3648 B( 60-C , 65-N ) :   0.9099 B( 61-C , 62-C ) :   1.4287
B( 61-C , 63-C ) :   1.0016 B( 62-C , 86-H ) :   0.9943 B( 63-C , 64-O ) :   1.0895
B( 63-C , 87-H ) :   0.9302 B( 63-C , 88-H ) :   0.9249 B( 64-O , 89-H ) :   0.9643
B( 65-N , 66-O ) :   1.5765 B( 65-N , 67-O ) :   1.4796 B( 66-O , 67-O ) :   0.2511

-----------------------------------------------------------------------------
         ABSORPTION SPECTRUM VIA TRANSITION ELECTRIC DIPOLE MOMENTS
-----------------------------------------------------------------------------
State   Energy  Wavelength   fosc         T2         TX        TY        TZ
        (cm-1)    (nm)                  (au**2)     (au)      (au)      (au)
-----------------------------------------------------------------------------
   0    9877.4   1012.4   0.174636394   5.82060  -0.05144   1.75086   1.65905
   1   10654.6    938.6   0.132024287   4.07938   1.68642   0.43319  -1.02358
   2   16557.5    604.0   0.084538461   1.68087  -0.71679   0.30633   1.03597
   3   17609.2    567.9   0.488582854   9.13426  -0.05668   2.13802   2.13540
   4   19468.5    513.6   0.128832361   2.17855   0.17198  -0.95010  -1.11637
   5   22450.9    445.4   0.136480882   2.00130  -0.09309   1.11673   0.86345
   6   23648.2    422.9   1.192042500  16.59473  -3.55874  -1.12952   1.62920
   7   24053.9    415.7   0.476832408   6.52612   2.26230   0.77064  -0.90235
   8   24785.1    403.5   0.020873169   0.27725   0.51004   0.10868  -0.07277
   9   25815.0    387.4   0.009285423   0.11841  -0.25713   0.14247   0.17889
  10   26353.9    379.4   0.326665707   4.08069   1.28151   0.67391  -1.40864
  11   26755.3    373.8   0.307151529   3.77936   1.63672   0.73115  -0.75228
  12   28776.5    347.5   0.116859462   1.33691  -0.48182  -0.93385  -0.48237
  13   29618.8    337.6   0.028183632   0.31326   0.16710   0.40782  -0.34499
  14   30153.1    331.6   0.052820977   0.57670   0.04628  -0.75048  -0.10648
  15   30943.9    323.2   0.155240812   1.65160   0.71110   0.26155   1.03804
  16   31097.5    321.6   0.767627240   8.12643  -0.81791   0.54026   2.67686
  17   31620.2    316.3   0.171639179   1.78701  -0.82572  -0.50082   0.92433
  18   31875.8    313.7   0.995125234  10.27760  -2.40434  -1.87178  -0.99659
  19   32135.6    311.2   0.188919593   1.93538  -1.13249   0.31321   0.74482
  20   32424.2    308.4   0.229726761   2.33248   1.52009  -0.02114  -0.14610
  21   32830.4    304.6   0.034775849   0.34872   0.03437   0.05931   0.58653
  22   33056.8    302.5   0.171029250   1.70328   0.99203  -0.05732  -0.84609
  23   33735.5    296.4   0.117090316   1.14264   0.82958   0.62066  -0.26309
  24   34024.1    293.9   0.052276506   0.50582  -0.59252  -0.32042  -0.22818
  25   34329.5    291.3   0.092918535   0.89107   0.39409  -0.08367  -0.85368
  26   34496.4    289.9   0.014044016   0.13403   0.12680   0.05438  -0.33910
  27   35187.6    284.2   0.439598591   4.11284  -1.39318  -1.29626  -0.70114
  28   35881.8    278.7   0.015499077   0.14220   0.31998  -0.01823   0.19871
  29   36236.6    276.0   0.016267404   0.14779   0.25941   0.22637   0.17104
  30   36389.0    274.8   0.016222853   0.14677   0.00148   0.20681   0.32249
  31   36729.0    272.3   0.084449910   0.75695  -0.54780  -0.23277   0.63457
  32   37043.2    270.0   0.108716460   0.96619  -0.87714  -0.44027   0.05451
  33   37406.9    267.3   0.046665180   0.41069   0.35555   0.49148   0.20671
  34   37686.4    265.3   0.048432081   0.42308  -0.32638  -0.46867  -0.31129
  35   37869.0    264.1   0.007666322   0.06665  -0.04964  -0.23031   0.10556
  36   38176.1    261.9   0.012849510   0.11081  -0.23301   0.06649   0.22824
  37   38207.6    261.7   0.024432180   0.21052   0.18842   0.24578   0.33854
  38   38413.0    260.3   0.014978467   0.12837  -0.05479  -0.20686  -0.28736
  39   38787.5    257.8   0.006082699   0.05163   0.00630  -0.09728  -0.20524
  40   38955.7    256.7   0.023276751   0.19671  -0.32911  -0.12025   0.27192
  41   39047.9    256.1   0.017242530   0.14537   0.21037   0.13089   0.28980
  42   39202.4    255.1   0.000280780   0.00236  -0.03144  -0.01121  -0.03526
  43   39336.0    254.2   0.051135044   0.42796  -0.00416  -0.21837  -0.61665
  44   40103.6    249.4   0.017453360   0.14328  -0.26068  -0.03078   0.27271
  45   40175.0    248.9   0.023003037   0.18850   0.33099   0.22471   0.16866

FINAL SINGLE POINT ENERGY     -5083.145789486970

DIPOLE MOMENT
-------------
                                X             Y             Z
Electronic contribution:    -20.06413       0.92480      25.37266
Nuclear contribution   :     18.17194      -1.68829     -23.18658
                        -----------------------------------------
Total Dipole Moment    :     -1.89219      -0.76349       2.18608
                        -----------------------------------------
Magnitude (a.u.)       :      2.99036
Magnitude (Debye)      :      7.60090

Rotational constants in cm-1:     0.000666     0.000477     0.000287
Rotational constants in MHz :    19.963163    14.297711     8.607758

                             ****ORCA TERMINATED NORMALLY****
TOTAL RUN TIME: 0 days 0 hours 8 minutes 54 seconds 491 msec
