                         Program Version 4.2.0 -  RELEASE  -
|  1> # ORCA input file
|  2> # SCF done       -191.599111048825          0.000915395743
|  3> ! CAM-B3LYP def2-SVP def2/J RIJCOSX Grid4 TightSCF
|  4> %maxcore 5000
|  5> %tddft
|  6>     Mode sTDDFT
|  7>     Ethresh 5.0
|  8>     maxcore 5000
|  9> end
| 10>
| 11> %pal
| 12>   nprocs 6
| 13>   end
| 14> * xyz 0 1
| 15>    C       -0.11730        -6.44046         0.36383
| 16>    C       -1.31202        -6.51280         1.02429
| 17>    F       -1.90139        -7.71123         1.19729
| 18>    C       -1.95725        -5.37969         1.53670
| 19>    C       -1.37152        -4.15498         1.37226
| 20>    C       -0.13856        -4.02259         0.70200
| 21>    C        0.50012        -5.18728         0.18542
| 22>    C        1.73574        -5.07916        -0.49514
| 23>    C        2.31620        -3.84889        -0.64003
| 24>    C        1.67984        -2.68943        -0.10951
| 25>    C        0.48113        -2.76245         0.53791
| 26>    C        2.53335        -1.50985        -0.36162
| 27>    O        2.29513        -0.35205        -0.10165
| 28>    C        3.78669        -2.05715        -0.94959
| 29>    C        3.55242        -3.43563        -1.29526
| 30>    C        4.24951        -4.17020        -2.22116
| 31>    C        5.25015        -3.62592        -3.05005
| 32>    N        6.04814        -3.22439        -3.77174
| 33>    C        4.04698        -5.54079        -2.45743
| 34>    N        3.98689        -6.67471        -2.63667
| 35>    C        4.91145        -1.28467        -0.94174
| 36>    C        6.28121        -1.64600        -1.05251
| 37>    C        7.24720        -0.66483        -1.31127
| 38>    C        8.59432        -0.94116        -1.43315
| 39>    C        9.13463        -2.23330        -1.32995
| 40>    C        8.18949        -3.24337        -1.01547
| 41>    C        6.80281        -2.94688        -0.84816
| 42>    N        6.19942        -4.07669        -0.45416
| 43>    N        7.15878        -4.96169        -0.40929
| 44>    N        8.34971        -4.54252        -0.72570
| 45>    C        6.90345        -6.32730        -0.06916
| 46>    C       10.53667        -2.41131        -1.44064
| 47>    C       11.25107        -3.55798        -1.67595
| 48>    C       10.83865        -4.83828        -2.12153
| 49>    C       11.85715        -5.72221        -2.29769
| 50>    C       13.13544        -5.20582        -1.97911
| 51>    S       13.00311        -3.53073        -1.50658
| 52>    C       14.33982        -5.88319        -1.97839
| 53>    C       14.57998        -7.22292        -2.36000
| 54>    C       15.87134        -7.61602        -2.19592
| 55>    C       16.72993        -6.62069        -1.65523
| 56>    S       15.82036        -5.13967        -1.42039
| 57>    C       18.04057        -6.84054        -1.31710
| 58>    C       18.96782        -5.98545        -0.67854
| 59>    C       18.79609        -4.62678        -0.38207
| 60>    C       19.72630        -3.89429         0.33225
| 61>    C       20.89908        -4.43964         0.87000
| 62>    C       21.14232        -5.79103         0.52191
| 63>    C       20.20123        -6.53647        -0.24341
| 64>    N       20.70228        -7.76799        -0.40663
| 65>    N       21.85110        -7.73499         0.20733
| 66>    N       22.17843        -6.60348         0.77496
| 67>    C       22.69675        -8.88511         0.29374
| 68>    C       21.75765        -3.63646         1.66996
| 69>    C       22.71383        -4.00275         2.57069
| 70>    C       23.75261        -3.01544         2.97019
| 71>    O       23.73941        -1.82201         2.76709
| 72>    C       24.81700        -3.81229         3.61400
| 73>    C       26.03574        -3.40707         4.07455
| 74>    C       26.90937        -4.36032         4.64580
| 75>    C       26.49922        -5.72287         4.72579
| 76>    C       27.37623        -6.66768         5.29319
| 77>    C       28.59582        -6.25896         5.75597
| 78>    C       29.01673        -4.92434         5.68813
| 79>    C       28.17819        -3.99428         5.13890
| 80>    F       29.43447        -7.16170         6.29943
| 81>    C       25.22616        -6.11259         4.24768
| 82>    C       24.39628        -5.17095         3.70284
| 83>    C       23.03538        -5.26627         3.18512
| 84>    C       22.16185        -6.29583         3.43090
| 85>    C       20.77125        -6.20125         3.22620
| 86>    N       19.62814        -6.15668         3.12631
| 87>    C       22.54146        -7.54890         3.94265
| 88>    N       22.80742        -8.61576         4.27775
| 89>    H        0.34933        -7.33429        -0.02004
| 90>    H       -2.89896        -5.49776         2.04885
| 91>    H       -1.84925        -3.26727         1.75887
| 92>    H        2.20018        -5.97588        -0.87438
| 93>    H        0.01070        -1.87123         0.92564
| 94>    H        4.72633        -0.23133        -0.74958
| 95>    H        6.91239         0.35338        -1.44669
| 96>    H        9.27132        -0.12647        -1.64552
| 97>    H        6.29930        -6.79811        -0.84797
| 98>    H        6.35590        -6.37343         0.87190
| 99>    H        7.85947        -6.83761         0.02075
|100>    H       11.11957        -1.50632        -1.31562
|101>    H        9.80633        -5.05539        -2.31524
|102>    H       11.72417        -6.73336        -2.63821
|103>    H       13.79865        -7.85486        -2.74172
|104>    H       16.24121        -8.59924        -2.42694
|105>    H       18.41290        -7.84014        -1.50483
|106>    H       17.90360        -4.12374        -0.71774
|107>    H       19.51338        -2.85529         0.53844
|108>    H       22.27481        -9.66256        -0.33837
|109>    H       22.74626        -9.23220         1.32796
|110>    H       23.70252        -8.62660        -0.03704
|111>    H       21.68042        -2.56493         1.50768
|112>    H       26.33143        -2.37076         4.00700
|113>    H       27.08409        -7.70376         5.36511
|114>    H       29.99020        -4.66033         6.06983
|115>    H       28.47999        -2.95956         5.07572
|116>    H       24.94084        -7.15041         4.31852
|117> *
|118>
|119>                          ****END OF INPUT****

CARTESIAN COORDINATES (ANGSTROEM)
---------------------------------
  C     -0.117300   -6.440460    0.363830
  C     -1.312020   -6.512800    1.024290
  F     -1.901390   -7.711230    1.197290
  C     -1.957250   -5.379690    1.536700
  C     -1.371520   -4.154980    1.372260
  C     -0.138560   -4.022590    0.702000
  C      0.500120   -5.187280    0.185420
  C      1.735740   -5.079160   -0.495140
  C      2.316200   -3.848890   -0.640030
  C      1.679840   -2.689430   -0.109510
  C      0.481130   -2.762450    0.537910
  C      2.533350   -1.509850   -0.361620
  O      2.295130   -0.352050   -0.101650
  C      3.786690   -2.057150   -0.949590
  C      3.552420   -3.435630   -1.295260
  C      4.249510   -4.170200   -2.221160
  C      5.250150   -3.625920   -3.050050
  N      6.048140   -3.224390   -3.771740
  C      4.046980   -5.540790   -2.457430
  N      3.986890   -6.674710   -2.636670
  C      4.911450   -1.284670   -0.941740
  C      6.281210   -1.646000   -1.052510
  C      7.247200   -0.664830   -1.311270
  C      8.594320   -0.941160   -1.433150
  C      9.134630   -2.233300   -1.329950
  C      8.189490   -3.243370   -1.015470
  C      6.802810   -2.946880   -0.848160
  N      6.199420   -4.076690   -0.454160
  N      7.158780   -4.961690   -0.409290
  N      8.349710   -4.542520   -0.725700
  C      6.903450   -6.327300   -0.069160
  C     10.536670   -2.411310   -1.440640
  C     11.251070   -3.557980   -1.675950
  C     10.838650   -4.838280   -2.121530
  C     11.857150   -5.722210   -2.297690
  C     13.135440   -5.205820   -1.979110
  S     13.003110   -3.530730   -1.506580
  C     14.339820   -5.883190   -1.978390
  C     14.579980   -7.222920   -2.360000
  C     15.871340   -7.616020   -2.195920
  C     16.729930   -6.620690   -1.655230
  S     15.820360   -5.139670   -1.420390
  C     18.040570   -6.840540   -1.317100
  C     18.967820   -5.985450   -0.678540
  C     18.796090   -4.626780   -0.382070
  C     19.726300   -3.894290    0.332250
  C     20.899080   -4.439640    0.870000
  C     21.142320   -5.791030    0.521910
  C     20.201230   -6.536470   -0.243410
  N     20.702280   -7.767990   -0.406630
  N     21.851100   -7.734990    0.207330
  N     22.178430   -6.603480    0.774960
  C     22.696750   -8.885110    0.293740
  C     21.757650   -3.636460    1.669960
  C     22.713830   -4.002750    2.570690
  C     23.752610   -3.015440    2.970190
  O     23.739410   -1.822010    2.767090
  C     24.817000   -3.812290    3.614000
  C     26.035740   -3.407070    4.074550
  C     26.909370   -4.360320    4.645800
  C     26.499220   -5.722870    4.725790
  C     27.376230   -6.667680    5.293190
  C     28.595820   -6.258960    5.755970
  C     29.016730   -4.924340    5.688130
  C     28.178190   -3.994280    5.138900
  F     29.434470   -7.161700    6.299430
  C     25.226160   -6.112590    4.247680
  C     24.396280   -5.170950    3.702840
  C     23.035380   -5.266270    3.185120
  C     22.161850   -6.295830    3.430900
  C     20.771250   -6.201250    3.226200
  N     19.628140   -6.156680    3.126310
  C     22.541460   -7.548900    3.942650
  N     22.807420   -8.615760    4.277750
  H      0.349330   -7.334290   -0.020040
  H     -2.898960   -5.497760    2.048850
  H     -1.849250   -3.267270    1.758870
  H      2.200180   -5.975880   -0.874380
  H      0.010700   -1.871230    0.925640
  H      4.726330   -0.231330   -0.749580
  H      6.912390    0.353380   -1.446690
  H      9.271320   -0.126470   -1.645520
  H      6.299300   -6.798110   -0.847970
  H      6.355900   -6.373430    0.871900
  H      7.859470   -6.837610    0.020750
  H     11.119570   -1.506320   -1.315620
  H      9.806330   -5.055390   -2.315240
  H     11.724170   -6.733360   -2.638210
  H     13.798650   -7.854860   -2.741720
  H     16.241210   -8.599240   -2.426940
  H     18.412900   -7.840140   -1.504830
  H     17.903600   -4.123740   -0.717740
  H     19.513380   -2.855290    0.538440
  H     22.274810   -9.662560   -0.338370
  H     22.746260   -9.232200    1.327960
  H     23.702520   -8.626600   -0.037040
  H     21.680420   -2.564930    1.507680
  H     26.331430   -2.370760    4.007000
  H     27.084090   -7.703760    5.365110
  H     29.990200   -4.660330    6.069830
  H     28.479990   -2.959560    5.075720
  H     24.940840   -7.150410    4.318520

 Total Charge           Charge          ....    0
 Multiplicity           Mult            ....    1
 Number of Electrons    NEL             ....  512
 Basis Dimension        Dim             .... 1184

ORBITAL ENERGIES
----------------

  NO   OCC          E(Eh)            E(eV)
   0   2.0000     -88.958913     -2420.6951
   1   2.0000     -88.955445     -2420.6007
   2   2.0000     -24.782598      -674.3688
   3   2.0000     -24.780624      -674.3151
   4   2.0000     -19.207669      -522.6672
   5   2.0000     -19.204737      -522.5875
   6   2.0000     -14.550997      -395.9528
   7   2.0000     -14.543492      -395.7485
   8   2.0000     -14.454023      -393.3140
   9   2.0000     -14.447350      -393.1324
  10   2.0000     -14.446884      -393.1197
  11   2.0000     -14.440670      -392.9506
  12   2.0000     -14.414692      -392.2437
  13   2.0000     -14.410780      -392.1373
  14   2.0000     -14.406781      -392.0284
  15   2.0000     -14.402748      -391.9187
  16   2.0000     -10.365663      -282.0640
  17   2.0000     -10.363453      -282.0039
  18   2.0000     -10.358606      -281.8720
  19   2.0000     -10.355534      -281.7884
  20   2.0000     -10.332500      -281.1616
  21   2.0000     -10.329327      -281.0753
  22   2.0000     -10.328362      -281.0490
  23   2.0000     -10.325848      -280.9806
  24   2.0000     -10.325538      -280.9722
  25   2.0000     -10.324399      -280.9412
  26   2.0000     -10.323521      -280.9173
  27   2.0000     -10.322886      -280.9000
  28   2.0000     -10.321618      -280.8655
  29   2.0000     -10.320038      -280.8225
  30   2.0000     -10.317954      -280.7658
  31   2.0000     -10.313972      -280.6574
  32   2.0000     -10.311677      -280.5950
  33   2.0000     -10.311042      -280.5777
  34   2.0000     -10.310327      -280.5583
  35   2.0000     -10.309065      -280.5239
  36   2.0000     -10.308837      -280.5177
  37   2.0000     -10.305609      -280.4299
  38   2.0000     -10.305033      -280.4142
  39   2.0000     -10.304094      -280.3886
  40   2.0000     -10.302398      -280.3425
  41   2.0000     -10.301958      -280.3305
  42   2.0000     -10.301478      -280.3175
  43   2.0000     -10.299394      -280.2608
  44   2.0000     -10.299017      -280.2505
  45   2.0000     -10.298476      -280.2358
  46   2.0000     -10.297854      -280.2189
  47   2.0000     -10.297161      -280.2000
  48   2.0000     -10.296755      -280.1889
  49   2.0000     -10.296092      -280.1709
  50   2.0000     -10.295340      -280.1505
  51   2.0000     -10.294739      -280.1341
  52   2.0000     -10.294694      -280.1329
  53   2.0000     -10.293779      -280.1080
  54   2.0000     -10.293709      -280.1061
  55   2.0000     -10.292720      -280.0791
  56   2.0000     -10.292703      -280.0787
  57   2.0000     -10.292049      -280.0609
  58   2.0000     -10.291863      -280.0558
  59   2.0000     -10.291656      -280.0502
  60   2.0000     -10.291619      -280.0492
  61   2.0000     -10.290274      -280.0126
  62   2.0000     -10.289279      -279.9855
  63   2.0000     -10.288951      -279.9766
  64   2.0000     -10.288413      -279.9619
  65   2.0000     -10.288326      -279.9596
  66   2.0000     -10.286362      -279.9062
  67   2.0000     -10.286013      -279.8966
  68   2.0000     -10.285228      -279.8753
  69   2.0000     -10.284829      -279.8644
  70   2.0000     -10.283800      -279.8364
  71   2.0000     -10.282854      -279.8107
  72   2.0000     -10.281132      -279.7638
  73   2.0000     -10.281044      -279.7614
  74   2.0000      -8.054741      -219.1807
  75   2.0000      -8.052059      -219.1077
  76   2.0000      -6.024478      -163.9344
  77   2.0000      -6.021819      -163.8620
  78   2.0000      -6.020370      -163.8226
  79   2.0000      -6.017716      -163.7504
  80   2.0000      -6.015766      -163.6973
  81   2.0000      -6.012910      -163.6196
  82   2.0000      -1.297028       -35.2939
  83   2.0000      -1.295044       -35.2399
  84   2.0000      -1.228690       -33.4344
  85   2.0000      -1.220635       -33.2152
  86   2.0000      -1.122348       -30.5406
  87   2.0000      -1.119343       -30.4589
  88   2.0000      -1.014917       -27.6173
  89   2.0000      -1.010833       -27.5062
  90   2.0000      -1.007555       -27.4170
  91   2.0000      -1.000728       -27.2312
  92   2.0000      -0.995801       -27.0971
  93   2.0000      -0.994133       -27.0517
  94   2.0000      -0.993009       -27.0212
  95   2.0000      -0.992572       -27.0093
  96   2.0000      -0.988570       -26.9004
  97   2.0000      -0.985971       -26.8296
  98   2.0000      -0.982442       -26.7336
  99   2.0000      -0.978530       -26.6272
 100   2.0000      -0.969721       -26.3875
 101   2.0000      -0.966803       -26.3080
 102   2.0000      -0.933988       -25.4151
 103   2.0000      -0.928034       -25.2531
 104   2.0000      -0.922749       -25.1093
 105   2.0000      -0.919428       -25.0189
 106   2.0000      -0.911979       -24.8162
 107   2.0000      -0.905088       -24.6287
 108   2.0000      -0.891265       -24.2525
 109   2.0000      -0.886561       -24.1246
 110   2.0000      -0.881406       -23.9843
 111   2.0000      -0.878330       -23.9006
 112   2.0000      -0.874033       -23.7836
 113   2.0000      -0.860398       -23.4126
 114   2.0000      -0.855375       -23.2759
 115   2.0000      -0.843077       -22.9413
 116   2.0000      -0.836807       -22.7707
 117   2.0000      -0.829704       -22.5774
 118   2.0000      -0.827334       -22.5129
 119   2.0000      -0.823233       -22.4013
 120   2.0000      -0.820040       -22.3144
 121   2.0000      -0.815902       -22.2018
 122   2.0000      -0.800540       -21.7838
 123   2.0000      -0.787118       -21.4186
 124   2.0000      -0.773384       -21.0449
 125   2.0000      -0.755923       -20.5697
 126   2.0000      -0.752461       -20.4755
 127   2.0000      -0.746402       -20.3106
 128   2.0000      -0.740331       -20.1454
 129   2.0000      -0.734616       -19.9899
 130   2.0000      -0.726690       -19.7742
 131   2.0000      -0.716893       -19.5077
 132   2.0000      -0.715151       -19.4603
 133   2.0000      -0.712652       -19.3922
 134   2.0000      -0.703848       -19.1527
 135   2.0000      -0.701322       -19.0839
 136   2.0000      -0.699042       -19.0219
 137   2.0000      -0.695749       -18.9323
 138   2.0000      -0.684595       -18.6288
 139   2.0000      -0.673397       -18.3241
 140   2.0000      -0.670720       -18.2512
 141   2.0000      -0.668808       -18.1992
 142   2.0000      -0.658767       -17.9260
 143   2.0000      -0.643558       -17.5121
 144   2.0000      -0.635405       -17.2902
 145   2.0000      -0.632999       -17.2248
 146   2.0000      -0.630325       -17.1520
 147   2.0000      -0.629239       -17.1225
 148   2.0000      -0.627761       -17.0822
 149   2.0000      -0.625817       -17.0293
 150   2.0000      -0.624057       -16.9814
 151   2.0000      -0.623061       -16.9543
 152   2.0000      -0.620761       -16.8918
 153   2.0000      -0.615574       -16.7506
 154   2.0000      -0.613527       -16.6949
 155   2.0000      -0.606356       -16.4998
 156   2.0000      -0.600904       -16.3514
 157   2.0000      -0.594180       -16.1685
 158   2.0000      -0.593662       -16.1544
 159   2.0000      -0.589526       -16.0418
 160   2.0000      -0.585734       -15.9386
 161   2.0000      -0.577251       -15.7078
 162   2.0000      -0.573640       -15.6095
 163   2.0000      -0.568314       -15.4646
 164   2.0000      -0.560898       -15.2628
 165   2.0000      -0.557607       -15.1733
 166   2.0000      -0.556912       -15.1544
 167   2.0000      -0.554866       -15.0987
 168   2.0000      -0.553049       -15.0492
 169   2.0000      -0.552762       -15.0414
 170   2.0000      -0.547531       -14.8991
 171   2.0000      -0.542823       -14.7710
 172   2.0000      -0.542265       -14.7558
 173   2.0000      -0.540603       -14.7106
 174   2.0000      -0.535868       -14.5817
 175   2.0000      -0.527676       -14.3588
 176   2.0000      -0.526827       -14.3357
 177   2.0000      -0.523249       -14.2383
 178   2.0000      -0.522813       -14.2265
 179   2.0000      -0.519940       -14.1483
 180   2.0000      -0.519267       -14.1300
 181   2.0000      -0.517008       -14.0685
 182   2.0000      -0.516940       -14.0667
 183   2.0000      -0.513154       -13.9636
 184   2.0000      -0.512131       -13.9358
 185   2.0000      -0.510185       -13.8828
 186   2.0000      -0.508033       -13.8243
 187   2.0000      -0.507230       -13.8024
 188   2.0000      -0.505102       -13.7445
 189   2.0000      -0.504115       -13.7177
 190   2.0000      -0.499760       -13.5992
 191   2.0000      -0.494786       -13.4638
 192   2.0000      -0.492790       -13.4095
 193   2.0000      -0.492275       -13.3955
 194   2.0000      -0.489711       -13.3257
 195   2.0000      -0.488970       -13.3056
 196   2.0000      -0.481655       -13.1065
 197   2.0000      -0.480543       -13.0762
 198   2.0000      -0.479315       -13.0428
 199   2.0000      -0.477862       -13.0033
 200   2.0000      -0.476545       -12.9674
 201   2.0000      -0.476522       -12.9668
 202   2.0000      -0.475078       -12.9275
 203   2.0000      -0.471793       -12.8381
 204   2.0000      -0.462637       -12.5890
 205   2.0000      -0.459171       -12.4947
 206   2.0000      -0.457433       -12.4474
 207   2.0000      -0.453878       -12.3507
 208   2.0000      -0.453500       -12.3404
 209   2.0000      -0.451488       -12.2856
 210   2.0000      -0.450376       -12.2554
 211   2.0000      -0.448670       -12.2089
 212   2.0000      -0.447746       -12.1838
 213   2.0000      -0.444849       -12.1050
 214   2.0000      -0.438244       -11.9252
 215   2.0000      -0.437535       -11.9059
 216   2.0000      -0.435519       -11.8511
 217   2.0000      -0.434650       -11.8274
 218   2.0000      -0.433316       -11.7911
 219   2.0000      -0.433134       -11.7862
 220   2.0000      -0.430711       -11.7202
 221   2.0000      -0.426765       -11.6129
 222   2.0000      -0.422961       -11.5094
 223   2.0000      -0.420825       -11.4512
 224   2.0000      -0.419850       -11.4247
 225   2.0000      -0.417846       -11.3702
 226   2.0000      -0.413227       -11.2445
 227   2.0000      -0.410854       -11.1799
 228   2.0000      -0.409250       -11.1363
 229   2.0000      -0.403501       -10.9798
 230   2.0000      -0.402761       -10.9597
 231   2.0000      -0.397837       -10.8257
 232   2.0000      -0.395805       -10.7704
 233   2.0000      -0.388940       -10.5836
 234   2.0000      -0.386515       -10.5176
 235   2.0000      -0.382595       -10.4109
 236   2.0000      -0.378269       -10.2932
 237   2.0000      -0.375556       -10.2194
 238   2.0000      -0.372120       -10.1259
 239   2.0000      -0.367982       -10.0133
 240   2.0000      -0.350375        -9.5342
 241   2.0000      -0.346750        -9.4355
 242   2.0000      -0.342402        -9.3172
 243   2.0000      -0.337396        -9.1810
 244   2.0000      -0.333339        -9.0706
 245   2.0000      -0.331477        -9.0199
 246   2.0000      -0.328382        -8.9357
 247   2.0000      -0.325615        -8.8604
 248   2.0000      -0.324405        -8.8275
 249   2.0000      -0.304006        -8.2724
 250   2.0000      -0.301585        -8.2066
 251   2.0000      -0.299461        -8.1487
 252   2.0000      -0.290107        -7.8942
 253   2.0000      -0.287479        -7.8227
 254   2.0000      -0.271961        -7.4004
 255   2.0000      -0.222193        -6.0462
 256   0.0000      -0.112129        -3.0512
 257   0.0000      -0.087656        -2.3852
 258   0.0000      -0.065483        -1.7819
 259   0.0000      -0.049466        -1.3460
 260   0.0000      -0.043829        -1.1927

MULLIKEN ATOMIC CHARGES
-----------------------
   0 C :   -0.101806
   1 C :    0.303406
   2 F :   -0.193293
   3 C :   -0.030810
   4 C :   -0.009995
   5 C :    0.099807
   6 C :    0.107234
   7 C :   -0.100072
   8 C :    0.051199
   9 C :    0.010297
  10 C :   -0.082843
  11 C :    0.135056
  12 O :   -0.146317
  13 C :   -0.122288
  14 C :    0.310303
  15 C :   -0.310896
  16 C :   -0.225910
  17 N :    0.165422
  18 C :   -0.169007
  19 N :    0.116898
  20 C :   -0.007228
  21 C :    0.077447
  22 C :   -0.002274
  23 C :   -0.032352
  24 C :    0.075420
  25 C :    0.023349
  26 C :   -0.034975
  27 N :   -0.066869
  28 N :   -0.064316
  29 N :   -0.067400
  30 C :    0.138478
  31 C :   -0.018468
  32 C :   -0.057353
  33 C :    0.077657
  34 C :    0.011838
  35 C :   -0.042619
  36 S :    0.100965
  37 C :   -0.034352
  38 C :    0.036070
  39 C :    0.038414
  40 C :    0.002779
  41 S :    0.077167
  42 C :   -0.062748
  43 C :    0.080053
  44 C :   -0.053510
  45 C :    0.004407
  46 C :    0.062450
  47 C :   -0.028614
  48 C :   -0.002998
  49 N :   -0.044454
  50 N :   -0.068459
  51 N :   -0.064521
  52 C :    0.140059
  53 C :   -0.004712
  54 C :   -0.124324
  55 C :    0.134115
  56 O :   -0.146965
  57 C :    0.009166
  58 C :   -0.085934
  59 C :    0.101395
  60 C :    0.108575
  61 C :   -0.103350
  62 C :    0.304646
  63 C :   -0.029853
  64 C :   -0.012116
  65 F :   -0.193346
  66 C :   -0.104129
  67 C :    0.052854
  68 C :    0.311758
  69 C :   -0.318046
  70 C :   -0.224378
  71 N :    0.167833
  72 C :   -0.162651
  73 N :    0.116046
  74 H :   -0.006314
  75 H :    0.001623
  76 H :   -0.010974
  77 H :   -0.013055
  78 H :   -0.014196
  79 H :    0.013695
  80 H :   -0.010053
  81 H :   -0.017241
  82 H :    0.067822
  83 H :    0.053199
  84 H :    0.050999
  85 H :   -0.009002
  86 H :    0.002808
  87 H :   -0.009697
  88 H :   -0.006745
  89 H :   -0.004327
  90 H :   -0.001214
  91 H :   -0.009848
  92 H :   -0.012982
  93 H :    0.049589
  94 H :    0.066648
  95 H :    0.050833
  96 H :    0.014925
  97 H :   -0.014321
  98 H :   -0.005916
  99 H :   -0.000201
 100 H :   -0.010982
 101 H :   -0.011089
Sum of atomic charges:    0.0000000

LOEWDIN ATOMIC CHARGES
----------------------
   0 C :   -0.044718
   1 C :    0.092289
   2 F :   -0.067539
   3 C :   -0.040141
   4 C :    0.004593
   5 C :   -0.020653
   6 C :    0.003341
   7 C :    0.003461
   8 C :   -0.011274
   9 C :   -0.058844
  10 C :    0.033063
  11 C :    0.084105
  12 O :   -0.147125
  13 C :   -0.089883
  14 C :    0.072525
  15 C :   -0.138388
  16 C :   -0.022739
  17 N :   -0.058728
  18 C :   -0.012418
  19 N :   -0.072902
  20 C :    0.069122
  21 C :   -0.051089
  22 C :    0.023856
  23 C :   -0.024944
  24 C :    0.004515
  25 C :   -0.045633
  26 C :   -0.035941
  27 N :   -0.083860
  28 N :    0.160492
  29 N :   -0.071432
  30 C :    0.031788
  31 C :   -0.055291
  32 C :   -0.120560
  33 C :   -0.017432
  34 C :   -0.024850
  35 C :   -0.170212
  36 S :    0.385434
  37 C :   -0.175267
  38 C :   -0.027630
  39 C :   -0.024408
  40 C :   -0.127713
  41 S :    0.397997
  42 C :   -0.047227
  43 C :   -0.001037
  44 C :   -0.036486
  45 C :    0.027701
  46 C :   -0.052132
  47 C :   -0.042046
  48 C :   -0.044557
  49 N :   -0.079444
  50 N :    0.159121
  51 N :   -0.089157
  52 C :    0.031984
  53 C :    0.071638
  54 C :   -0.091193
  55 C :    0.083418
  56 O :   -0.148444
  57 C :   -0.058759
  58 C :    0.032169
  59 C :   -0.020765
  60 C :    0.003331
  61 C :   -0.044757
  62 C :    0.091848
  63 C :   -0.040492
  64 C :    0.004003
  65 F :   -0.067838
  66 C :    0.003475
  67 C :   -0.010918
  68 C :    0.073029
  69 C :   -0.137341
  70 C :   -0.022092
  71 N :   -0.055816
  72 C :   -0.012272
  73 N :   -0.072246
  74 H :    0.041432
  75 H :    0.041077
  76 H :    0.035086
  77 H :    0.036537
  78 H :    0.038724
  79 H :    0.045467
  80 H :    0.037029
  81 H :    0.032955
  82 H :    0.044430
  83 H :    0.042549
  84 H :    0.042003
  85 H :    0.033802
  86 H :    0.033075
  87 H :    0.034025
  88 H :    0.034632
  89 H :    0.037100
  90 H :    0.040895
  91 H :    0.016210
  92 H :    0.036387
  93 H :    0.041632
  94 H :    0.044433
  95 H :    0.040844
  96 H :    0.045383
  97 H :    0.038529
  98 H :    0.041605
  99 H :    0.040526
 100 H :    0.034948
 101 H :    0.037020

  Mayer bond orders larger than 0.100000
B(  0-C ,  1-C ) :   1.4398 B(  0-C ,  6-C ) :   1.2021 B(  0-C , 74-H ) :   1.0071
B(  1-C ,  2-F ) :   1.0851 B(  1-C ,  3-C ) :   1.2565 B(  3-C ,  4-C ) :   1.4590
B(  3-C , 75-H ) :   0.9925 B(  4-C ,  5-C ) :   1.2346 B(  4-C , 76-H ) :   0.9973
B(  5-C ,  6-C ) :   1.2601 B(  5-C , 10-C ) :   1.1882 B(  6-C ,  7-C ) :   1.1952
B(  7-C ,  8-C ) :   1.4633 B(  7-C , 77-H ) :   0.9958 B(  8-C ,  9-C ) :   1.2122
B(  8-C , 14-C ) :   1.0071 B(  9-C , 10-C ) :   1.4724 B(  9-C , 11-C ) :   0.9183
B( 10-C , 78-H ) :   1.0154 B( 11-C , 12-O ) :   2.2652 B( 11-C , 13-C ) :   0.9414
B( 13-C , 14-C ) :   1.0620 B( 13-C , 20-C ) :   1.6121 B( 14-C , 15-C ) :   1.6261
B( 15-C , 16-C ) :   1.1564 B( 15-C , 18-C ) :   1.1582 B( 16-C , 17-N ) :   3.0109
B( 18-C , 19-N ) :   2.9079 B( 20-C , 21-C ) :   1.1308 B( 20-C , 79-H ) :   0.9449
B( 21-C , 22-C ) :   1.3456 B( 21-C , 26-C ) :   1.1678 B( 22-C , 23-C ) :   1.3181
B( 22-C , 80-H ) :   0.9942 B( 23-C , 24-C ) :   1.3509 B( 23-C , 81-H ) :   0.9945
B( 24-C , 25-C ) :   1.1584 B( 24-C , 31-C ) :   1.1912 B( 25-C , 26-C ) :   1.2345
B( 25-C , 29-N ) :   1.4419 B( 26-C , 27-N ) :   1.4719 B( 27-N , 28-N ) :   1.2034
B( 27-N , 29-N ) :   0.1496 B( 28-N , 29-N ) :   1.2539 B( 28-N , 30-C ) :   0.9510
B( 30-C , 82-H ) :   0.9618 B( 30-C , 83-H ) :   0.9678 B( 30-C , 84-H ) :   0.9650
B( 31-C , 32-C ) :   1.5426 B( 31-C , 85-H ) :   0.9477 B( 32-C , 33-C ) :   1.1708
B( 32-C , 36-S ) :   1.0491 B( 33-C , 34-C ) :   1.6002 B( 33-C , 86-H ) :   0.9743
B( 34-C , 35-C ) :   1.1834 B( 34-C , 87-H ) :   0.9938 B( 35-C , 36-S ) :   1.0566
B( 35-C , 37-C ) :   1.4969 B( 37-C , 38-C ) :   1.1872 B( 37-C , 41-S ) :   1.0432
B( 38-C , 39-C ) :   1.5881 B( 38-C , 88-H ) :   0.9923 B( 39-C , 40-C ) :   1.1461
B( 39-C , 89-H ) :   1.0003 B( 40-C , 41-S ) :   1.0500 B( 40-C , 42-C ) :   1.5271
B( 42-C , 43-C ) :   1.1837 B( 42-C , 90-H ) :   0.9712 B( 43-C , 44-C ) :   1.3364
B( 43-C , 48-C ) :   1.1713 B( 44-C , 45-C ) :   1.3359 B( 44-C , 91-H ) :   0.9758
B( 45-C , 46-C ) :   1.3605 B( 45-C , 92-H ) :   0.9916 B( 46-C , 47-C ) :   1.1624
B( 46-C , 53-C ) :   1.1176 B( 47-C , 48-C ) :   1.2332 B( 47-C , 51-N ) :   1.4763
B( 48-C , 49-N ) :   1.4863 B( 49-N , 50-N ) :   1.2505 B( 49-N , 51-N ) :   0.1510
B( 50-N , 51-N ) :   1.1998 B( 50-N , 52-C ) :   0.9521 B( 52-C , 93-H ) :   0.9654
B( 52-C , 94-H ) :   0.9633 B( 52-C , 95-H ) :   0.9684 B( 53-C , 54-C ) :   1.6211
B( 53-C , 96-H ) :   0.9449 B( 54-C , 55-C ) :   0.9419 B( 54-C , 68-C ) :   1.0614
B( 55-C , 56-O ) :   2.2657 B( 55-C , 57-C ) :   0.9197 B( 57-C , 58-C ) :   1.4714
B( 57-C , 67-C ) :   1.2152 B( 58-C , 59-C ) :   1.1866 B( 58-C , 97-H ) :   1.0158
B( 59-C , 60-C ) :   1.2614 B( 59-C , 64-C ) :   1.2347 B( 60-C , 61-C ) :   1.2012
B( 60-C , 66-C ) :   1.1962 B( 61-C , 62-C ) :   1.4401 B( 61-C , 98-H ) :   1.0071
B( 62-C , 63-C ) :   1.2575 B( 62-C , 65-F ) :   1.0858 B( 63-C , 64-C ) :   1.4586
B( 63-C , 99-H ) :   0.9923 B( 64-C ,100-H ) :   0.9972 B( 66-C , 67-C ) :   1.4604
B( 66-C ,101-H ) :   0.9947 B( 67-C , 68-C ) :   1.0100 B( 68-C , 69-C ) :   1.6242
B( 69-C , 70-C ) :   1.1582 B( 69-C , 72-C ) :   1.1555 B( 70-C , 71-N ) :   3.0118
B( 72-C , 73-N ) :   2.9126

-----------------------------------------------------------------------------
         ABSORPTION SPECTRUM VIA TRANSITION ELECTRIC DIPOLE MOMENTS
-----------------------------------------------------------------------------
State   Energy  Wavelength   fosc         T2         TX        TY        TZ
        (cm-1)    (nm)                  (au**2)     (au)      (au)      (au)
-----------------------------------------------------------------------------
   0   10823.2    923.9   2.036448271  61.94288   7.66794  -1.22685   1.28077
   1   16462.8    607.4   0.113563571   2.27096   0.00461  -0.10824  -1.50307
   2   21312.3    469.2   0.103265196   1.59514   0.31883  -0.18892  -1.20739
   3   21932.6    455.9   0.161338121   2.42171   0.93009  -1.05513  -0.66583
   4   24543.6    407.4   0.028791563   0.38619   0.31076  -0.13018  -0.52218
   5   24843.6    402.5   0.067111576   0.88932  -0.45197   0.41237   0.71763
   6   25778.4    387.9   0.220827832   2.82015  -1.35006  -0.58093  -0.81242
   7   26068.0    383.6   0.126600221   1.59883   0.03358  -0.93089  -0.85507
   8   27330.7    365.9   0.119013856   1.43358  -1.06064  -0.46809  -0.29920
   9   27433.5    364.5   0.118802293   1.42567   0.53231   0.88111   0.60494
  10   27641.3    361.8   0.002754945   0.03281  -0.04700   0.13121  -0.11570
  11   28735.5    348.0   0.038445109   0.44045  -0.55929  -0.34911   0.07590
  12   29099.0    343.7   0.000255486   0.00289  -0.02943   0.03956  -0.02144
  13   29224.1    342.2   0.011167071   0.12580   0.23592   0.21778  -0.15070
  14   29316.5    341.1   0.004050374   0.04548  -0.16558   0.12609   0.04658
  15   29620.5    337.6   0.055130991   0.61274  -0.72849  -0.21616  -0.18794
  16   30712.5    325.6   0.011469321   0.12294  -0.03684  -0.06264   0.34302
  17   30880.5    323.8   0.029753138   0.31719  -0.27265   0.37433   0.32052
  18   31440.0    318.1   0.108806959   1.13933   0.37205  -0.99908   0.05243
  19   31584.9    316.6   0.193246599   2.01423   0.64134   1.21903   0.34187
  20   32526.3    307.4   0.332790231   3.36831  -1.73073  -0.36168   0.49201
  21   32644.3    306.3   0.140042913   1.41231  -1.11992  -0.39750   0.00959
  22   32819.4    304.7   0.202265978   2.02893   1.26568   0.24423   0.60609
  23   33143.3    301.7   0.267094069   2.65304   1.29557   0.51544  -0.84194
  24   33550.0    298.1   0.013266711   0.13018  -0.21463   0.28882   0.02637
  25   33931.0    294.7   0.050608282   0.49102   0.27262  -0.59381  -0.25315
  26   34207.4    292.3   0.031889648   0.30691   0.03848   0.53834  -0.12496
  27   34294.7    291.6   0.021755268   0.20884  -0.10155  -0.43164  -0.11052
  28   34736.6    287.9   0.044298588   0.41984  -0.32957   0.18223  -0.52727
  29   34971.5    285.9   0.273883532   2.57826   1.46563   0.59248  -0.28138
  30   35504.6    281.7   0.063155196   0.58560  -0.38144   0.25982  -0.61040
  31   35875.6    278.7   0.203830186   1.87045  -1.32382  -0.19370   0.28359
  32   36052.9    277.4   0.089248964   0.81496  -0.39781   0.78645  -0.19548
  33   36402.2    274.7   0.224853054   2.03351   1.11872   0.57700   0.67010
  34   36552.9    273.6   0.173458086   1.56224  -1.11803  -0.49768   0.25411
  35   36658.0    272.8   0.147309631   1.32293   0.95427  -0.26322  -0.58567
  36   36935.9    270.7   0.108994114   0.97147   0.49461  -0.48002  -0.70457
  37   37256.3    268.4   0.023299012   0.20588   0.42505   0.02440  -0.15689
  38   37572.3    266.2   0.038608720   0.33829   0.20895  -0.39554   0.37173
  39   37946.9    263.5   0.000730734   0.00634  -0.02805  -0.00598  -0.07428
  40   38041.7    262.9   0.070246993   0.60792  -0.69562  -0.34343  -0.07804
  41   38158.6    262.1   0.020951088   0.18075   0.30912  -0.20177  -0.21092
  42   38591.2    259.1   0.024808656   0.21164   0.39679   0.20145   0.11667
  43   38764.4    258.0   0.015590543   0.13240  -0.05870   0.05320   0.35515
  44   38898.0    257.1   0.087978382   0.74460  -0.17255  -0.83616  -0.12514
  45   39384.9    253.9   0.036119003   0.30191  -0.13694  -0.45082  -0.28270
  46   39561.6    252.8   0.057171837   0.47576   0.62378  -0.28946   0.05360
  47   39655.8    252.2   0.036904125   0.30637  -0.13883   0.53309  -0.05394
  48   40154.6    249.0   0.074791997   0.61319  -0.32482   0.68246  -0.20476
  49   40250.6    248.4   0.001802962   0.01475  -0.05678   0.09092  -0.05706

FINAL SINGLE POINT ENERGY     -3916.768903362246

DIPOLE MOMENT
-------------
                                X             Y             Z
Electronic contribution:     -1.81436       2.93657       6.30397
Nuclear contribution   :      2.11733      -3.32826      -6.55647
                        -----------------------------------------
Total Dipole Moment    :      0.30297      -0.39169      -0.25250
                        -----------------------------------------
Magnitude (a.u.)       :      0.55584
Magnitude (Debye)      :      1.41284

Rotational constants in cm-1:     0.002401     0.000177     0.000176
Rotational constants in MHz :    71.991178     5.295990     5.290215

                             ****ORCA TERMINATED NORMALLY****
TOTAL RUN TIME: 0 days 0 hours 16 minutes 34 seconds 454 msec
