                         Program Version 4.2.0 -  RELEASE  -
|  1> # ORCA input file
|  2> # SCF done       -186.045157176930          0.000817047749
|  3> ! CAM-B3LYP def2-SVP def2/J RIJCOSX Grid4 TightSCF
|  4> %maxcore 5000
|  5> %tddft
|  6>     Mode sTDDFT
|  7>     Ethresh 5.0
|  8>     maxcore 5000
|  9> end
| 10>
| 11> %pal
| 12>   nprocs 6
| 13>   end
| 14> * xyz 0 1
| 15>    C        0.08092        -2.12583         3.16202
| 16>    O        0.09871        -3.33273         3.07945
| 17>    C       -1.05781        -1.27587         3.49308
| 18>    C       -0.72943         0.07161         3.42324
| 19>    C       -1.82143         0.91058         3.71999
| 20>    C       -2.93601         0.17661         3.99990
| 21>    S       -2.69392        -1.52857         3.91340
| 22>    C        0.66688         0.19620         3.06073
| 23>    C        1.33967         1.38572         2.97031
| 24>    C        0.68786         2.61889         3.18937
| 25>    N        0.17812         3.63254         3.35897
| 26>    C        2.70939         1.55490         2.68350
| 27>    N        3.81489         1.78203         2.47192
| 28>    C        1.18678        -1.15555         2.87880
| 29>    C        2.43434        -1.43764         2.40617
| 30>    C        3.11223        -2.67438         2.26467
| 31>    C        4.22311        -2.82422         1.45999
| 32>    C        4.67643        -4.17764         1.53486
| 33>    C        3.77575        -4.82383         2.48873
| 34>    C        2.85056        -3.95650         2.92721
| 35>    F        3.90207        -6.10412         2.85898
| 36>    C        5.71493        -4.76775         0.85358
| 37>    C        6.15771        -6.11678         0.91980
| 38>    C        7.21732        -6.29232         0.05159
| 39>    C        7.48342        -5.00805        -0.61064
| 40>    C        6.59992        -4.12379        -0.12818
| 41>    F        6.50154        -2.83721        -0.47199
| 42>    C        7.91393        -7.50064        -0.14754
| 43>    C        8.94308        -7.68433        -1.02318
| 44>    C        9.63079        -8.90398        -1.18526
| 45>    S        9.24349       -10.31027        -0.23916
| 46>    C       10.49126       -11.24710        -1.01139
| 47>    C       11.15095       -10.48867        -1.98187
| 48>    C       10.67676        -9.17957        -2.07001
| 49>    C       11.21906        -8.17131        -3.03525
| 50>    C       12.53893        -8.64905        -3.65743
| 51>    C       12.87045        -7.79934        -4.78023
| 52>    N       13.09168        -7.12161        -5.67221
| 53>    C       12.39599       -10.11657        -4.11014
| 54>    C       13.56348       -10.53099        -4.85729
| 55>    N       14.49735       -10.86370        -5.42374
| 56>    C       12.22518       -11.01705        -2.87801
| 57>    C       10.70612       -12.57932        -0.59070
| 58>    C       11.77442       -13.41711        -0.83458
| 59>    C       11.56018       -14.65090        -0.15549
| 60>    C       10.25942       -14.50928         0.50487
| 61>    C        9.75264       -13.29131         0.26766
| 62>    F        9.69082       -15.47731         1.22807
| 63>    C       12.40119       -15.73695        -0.08676
| 64>    C       12.21473       -16.95496         0.62986
| 65>    C       13.32185       -17.75652         0.45475
| 66>    C       14.26794       -17.05087        -0.41648
| 67>    C       13.71446       -15.86938        -0.72466
| 68>    F       14.24884       -14.91969        -1.50218
| 69>    C       13.51451       -19.02140         1.05728
| 70>    C       14.59269       -19.82772         0.86544
| 71>    C       14.76079       -21.10708         1.45536
| 72>    C       14.25918       -21.61449         2.61350
| 73>    C       14.26348       -23.10532         2.79508
| 74>    O       14.84425       -23.91007         2.10546
| 75>    C       13.38540       -23.31814         3.93810
| 76>    C       12.98022       -22.10842         4.49231
| 77>    C       13.60908       -21.01838         3.76840
| 78>    C       13.72668       -19.74171         4.25114
| 79>    C       13.08745       -19.33832         5.44249
| 80>    N       12.55587       -18.99215         6.39836
| 81>    C       14.53053       -18.73362         3.68517
| 82>    N       15.19507       -17.88470         3.29199
| 83>    C       12.13433       -22.27799         5.60434
| 84>    C       11.91887       -23.60174         5.85368
| 85>    S       12.73691       -24.66308         4.76954
| 86>    H       -1.79691         1.98425         3.72580
| 87>    H       -3.90821         0.54860         4.25833
| 88>    H        3.01885        -0.59263         2.05836
| 89>    H        4.66275        -2.06023         0.84817
| 90>    H        2.06369        -4.14809         3.62661
| 91>    H        5.72985        -6.87449         1.54618
| 92>    H        8.24650        -4.82042        -1.33961
| 93>    H        7.59040        -8.34224         0.45300
| 94>    H        9.26880        -6.86130        -1.64261
| 95>    H       11.38342        -7.21554        -2.53147
| 96>    H       10.48420        -7.99954        -3.83051
| 97>    H       13.34984        -8.58075        -2.92169
| 98>    H       11.52005       -10.20611        -4.76511
| 99>    H       13.17354       -11.06551        -2.33174
|100>    H       11.97667       -12.03179        -3.19738
|101>    H       12.66213       -13.19173        -1.38710
|102>    H        8.81961       -12.88980         0.61227
|103>    H       11.35222       -17.19404         1.22074
|104>    H       15.22585       -17.41420        -0.72969
|105>    H       12.70599       -19.36416         1.69170
|106>    H       15.34583       -19.53543         0.14768
|107>    H       15.33478       -21.82464         0.87460
|108>    H       11.70298       -21.48251         6.18299
|109>    H       11.31632       -24.02296         6.63463
|110> *
|111>
|112>                          ****END OF INPUT****

CARTESIAN COORDINATES (ANGSTROEM)
---------------------------------
  C      0.080920   -2.125830    3.162020
  O      0.098710   -3.332730    3.079450
  C     -1.057810   -1.275870    3.493080
  C     -0.729430    0.071610    3.423240
  C     -1.821430    0.910580    3.719990
  C     -2.936010    0.176610    3.999900
  S     -2.693920   -1.528570    3.913400
  C      0.666880    0.196200    3.060730
  C      1.339670    1.385720    2.970310
  C      0.687860    2.618890    3.189370
  N      0.178120    3.632540    3.358970
  C      2.709390    1.554900    2.683500
  N      3.814890    1.782030    2.471920
  C      1.186780   -1.155550    2.878800
  C      2.434340   -1.437640    2.406170
  C      3.112230   -2.674380    2.264670
  C      4.223110   -2.824220    1.459990
  C      4.676430   -4.177640    1.534860
  C      3.775750   -4.823830    2.488730
  C      2.850560   -3.956500    2.927210
  F      3.902070   -6.104120    2.858980
  C      5.714930   -4.767750    0.853580
  C      6.157710   -6.116780    0.919800
  C      7.217320   -6.292320    0.051590
  C      7.483420   -5.008050   -0.610640
  C      6.599920   -4.123790   -0.128180
  F      6.501540   -2.837210   -0.471990
  C      7.913930   -7.500640   -0.147540
  C      8.943080   -7.684330   -1.023180
  C      9.630790   -8.903980   -1.185260
  S      9.243490  -10.310270   -0.239160
  C     10.491260  -11.247100   -1.011390
  C     11.150950  -10.488670   -1.981870
  C     10.676760   -9.179570   -2.070010
  C     11.219060   -8.171310   -3.035250
  C     12.538930   -8.649050   -3.657430
  C     12.870450   -7.799340   -4.780230
  N     13.091680   -7.121610   -5.672210
  C     12.395990  -10.116570   -4.110140
  C     13.563480  -10.530990   -4.857290
  N     14.497350  -10.863700   -5.423740
  C     12.225180  -11.017050   -2.878010
  C     10.706120  -12.579320   -0.590700
  C     11.774420  -13.417110   -0.834580
  C     11.560180  -14.650900   -0.155490
  C     10.259420  -14.509280    0.504870
  C      9.752640  -13.291310    0.267660
  F      9.690820  -15.477310    1.228070
  C     12.401190  -15.736950   -0.086760
  C     12.214730  -16.954960    0.629860
  C     13.321850  -17.756520    0.454750
  C     14.267940  -17.050870   -0.416480
  C     13.714460  -15.869380   -0.724660
  F     14.248840  -14.919690   -1.502180
  C     13.514510  -19.021400    1.057280
  C     14.592690  -19.827720    0.865440
  C     14.760790  -21.107080    1.455360
  C     14.259180  -21.614490    2.613500
  C     14.263480  -23.105320    2.795080
  O     14.844250  -23.910070    2.105460
  C     13.385400  -23.318140    3.938100
  C     12.980220  -22.108420    4.492310
  C     13.609080  -21.018380    3.768400
  C     13.726680  -19.741710    4.251140
  C     13.087450  -19.338320    5.442490
  N     12.555870  -18.992150    6.398360
  C     14.530530  -18.733620    3.685170
  N     15.195070  -17.884700    3.291990
  C     12.134330  -22.277990    5.604340
  C     11.918870  -23.601740    5.853680
  S     12.736910  -24.663080    4.769540
  H     -1.796910    1.984250    3.725800
  H     -3.908210    0.548600    4.258330
  H      3.018850   -0.592630    2.058360
  H      4.662750   -2.060230    0.848170
  H      2.063690   -4.148090    3.626610
  H      5.729850   -6.874490    1.546180
  H      8.246500   -4.820420   -1.339610
  H      7.590400   -8.342240    0.453000
  H      9.268800   -6.861300   -1.642610
  H     11.383420   -7.215540   -2.531470
  H     10.484200   -7.999540   -3.830510
  H     13.349840   -8.580750   -2.921690
  H     11.520050  -10.206110   -4.765110
  H     13.173540  -11.065510   -2.331740
  H     11.976670  -12.031790   -3.197380
  H     12.662130  -13.191730   -1.387100
  H      8.819610  -12.889800    0.612270
  H     11.352220  -17.194040    1.220740
  H     15.225850  -17.414200   -0.729690
  H     12.705990  -19.364160    1.691700
  H     15.345830  -19.535430    0.147680
  H     15.334780  -21.824640    0.874600
  H     11.702980  -21.482510    6.182990
  H     11.316320  -24.022960    6.634630

 Total Charge           Charge          ....    0
 Multiplicity           Mult            ....    1
 Number of Electrons    NEL             ....  502
 Basis Dimension        Dim             .... 1126

ORBITAL ENERGIES
----------------

  NO   OCC          E(Eh)            E(eV)
   0   2.0000     -88.992471     -2421.6083
   1   2.0000     -88.990993     -2421.5680
   2   2.0000     -88.980900     -2421.2934
   3   2.0000     -24.804843      -674.9741
   4   2.0000     -24.804063      -674.9529
   5   2.0000     -24.799666      -674.8332
   6   2.0000     -24.790435      -674.5820
   7   2.0000     -19.222725      -523.0769
   8   2.0000     -19.221675      -523.0484
   9   2.0000     -14.421318      -392.4240
  10   2.0000     -14.421212      -392.4211
  11   2.0000     -14.421002      -392.4154
  12   2.0000     -14.418288      -392.3416
  13   2.0000     -14.417483      -392.3197
  14   2.0000     -14.415991      -392.2791
  15   2.0000     -10.382538      -282.5232
  16   2.0000     -10.379396      -282.4377
  17   2.0000     -10.372429      -282.2482
  18   2.0000     -10.372286      -282.2443
  19   2.0000     -10.365636      -282.0633
  20   2.0000     -10.354911      -281.7715
  21   2.0000     -10.352070      -281.6941
  22   2.0000     -10.351094      -281.6676
  23   2.0000     -10.349832      -281.6332
  24   2.0000     -10.349050      -281.6120
  25   2.0000     -10.348408      -281.5945
  26   2.0000     -10.348243      -281.5900
  27   2.0000     -10.330554      -281.1087
  28   2.0000     -10.328918      -281.0641
  29   2.0000     -10.326588      -281.0008
  30   2.0000     -10.324759      -280.9510
  31   2.0000     -10.323650      -280.9208
  32   2.0000     -10.323214      -280.9089
  33   2.0000     -10.322728      -280.8957
  34   2.0000     -10.322148      -280.8799
  35   2.0000     -10.320869      -280.8451
  36   2.0000     -10.320735      -280.8415
  37   2.0000     -10.320222      -280.8275
  38   2.0000     -10.319294      -280.8023
  39   2.0000     -10.319032      -280.7951
  40   2.0000     -10.318527      -280.7814
  41   2.0000     -10.318379      -280.7774
  42   2.0000     -10.317847      -280.7629
  43   2.0000     -10.316811      -280.7347
  44   2.0000     -10.315441      -280.6974
  45   2.0000     -10.315379      -280.6957
  46   2.0000     -10.314972      -280.6846
  47   2.0000     -10.314883      -280.6822
  48   2.0000     -10.314230      -280.6645
  49   2.0000     -10.313927      -280.6562
  50   2.0000     -10.313889      -280.6552
  51   2.0000     -10.312223      -280.6099
  52   2.0000     -10.311587      -280.5925
  53   2.0000     -10.308682      -280.5135
  54   2.0000     -10.307880      -280.4917
  55   2.0000     -10.307687      -280.4864
  56   2.0000     -10.306133      -280.4441
  57   2.0000     -10.304328      -280.3950
  58   2.0000     -10.303274      -280.3663
  59   2.0000     -10.301926      -280.3297
  60   2.0000     -10.301325      -280.3133
  61   2.0000     -10.301139      -280.3083
  62   2.0000     -10.298923      -280.2479
  63   2.0000     -10.290570      -280.0206
  64   2.0000     -10.290170      -280.0098
  65   2.0000     -10.290070      -280.0070
  66   2.0000     -10.284537      -279.8565
  67   2.0000     -10.283432      -279.8264
  68   2.0000     -10.283022      -279.8153
  69   2.0000     -10.278996      -279.7057
  70   2.0000     -10.274254      -279.5767
  71   2.0000      -8.087503      -220.0721
  72   2.0000      -8.086016      -220.0317
  73   2.0000      -8.076195      -219.7644
  74   2.0000      -6.056660      -164.8101
  75   2.0000      -6.055134      -164.7686
  76   2.0000      -6.052211      -164.6890
  77   2.0000      -6.050757      -164.6495
  78   2.0000      -6.050254      -164.6358
  79   2.0000      -6.048773      -164.5955
  80   2.0000      -6.045314      -164.5014
  81   2.0000      -6.041397      -164.3948
  82   2.0000      -6.038413      -164.3136
  83   2.0000      -1.318147       -35.8686
  84   2.0000      -1.317509       -35.8512
  85   2.0000      -1.312002       -35.7014
  86   2.0000      -1.303024       -35.4571
  87   2.0000      -1.140671       -31.0392
  88   2.0000      -1.138580       -30.9823
  89   2.0000      -1.032314       -28.0907
  90   2.0000      -1.030628       -28.0448
  91   2.0000      -1.028482       -27.9864
  92   2.0000      -1.013757       -27.5857
  93   2.0000      -1.012817       -27.5602
  94   2.0000      -1.012522       -27.5521
  95   2.0000      -1.002663       -27.2838
  96   2.0000      -1.001200       -27.2440
  97   2.0000      -0.999729       -27.2040
  98   2.0000      -0.999464       -27.1968
  99   2.0000      -0.997935       -27.1552
 100   2.0000      -0.984385       -26.7865
 101   2.0000      -0.982911       -26.7464
 102   2.0000      -0.969697       -26.3868
 103   2.0000      -0.966344       -26.2956
 104   2.0000      -0.965243       -26.2656
 105   2.0000      -0.929118       -25.2826
 106   2.0000      -0.924771       -25.1643
 107   2.0000      -0.908208       -24.7136
 108   2.0000      -0.905591       -24.6424
 109   2.0000      -0.900013       -24.4906
 110   2.0000      -0.888592       -24.1798
 111   2.0000      -0.883590       -24.0437
 112   2.0000      -0.873393       -23.7662
 113   2.0000      -0.863635       -23.5007
 114   2.0000      -0.859741       -23.3947
 115   2.0000      -0.857252       -23.3270
 116   2.0000      -0.850511       -23.1436
 117   2.0000      -0.842870       -22.9357
 118   2.0000      -0.824605       -22.4386
 119   2.0000      -0.815434       -22.1891
 120   2.0000      -0.814084       -22.1524
 121   2.0000      -0.803296       -21.8588
 122   2.0000      -0.790721       -21.5166
 123   2.0000      -0.781246       -21.2588
 124   2.0000      -0.775053       -21.0903
 125   2.0000      -0.771502       -20.9936
 126   2.0000      -0.769382       -20.9359
 127   2.0000      -0.758950       -20.6521
 128   2.0000      -0.752614       -20.4797
 129   2.0000      -0.739403       -20.1202
 130   2.0000      -0.728647       -19.8275
 131   2.0000      -0.714439       -19.4409
 132   2.0000      -0.698512       -19.0075
 133   2.0000      -0.695085       -18.9142
 134   2.0000      -0.688785       -18.7428
 135   2.0000      -0.687053       -18.6957
 136   2.0000      -0.684702       -18.6317
 137   2.0000      -0.677567       -18.4375
 138   2.0000      -0.677280       -18.4297
 139   2.0000      -0.671679       -18.2773
 140   2.0000      -0.670882       -18.2556
 141   2.0000      -0.669196       -18.2097
 142   2.0000      -0.664769       -18.0893
 143   2.0000      -0.656408       -17.8618
 144   2.0000      -0.647207       -17.6114
 145   2.0000      -0.642924       -17.4949
 146   2.0000      -0.639057       -17.3896
 147   2.0000      -0.638228       -17.3671
 148   2.0000      -0.635930       -17.3045
 149   2.0000      -0.633493       -17.2382
 150   2.0000      -0.621519       -16.9124
 151   2.0000      -0.617254       -16.7963
 152   2.0000      -0.614013       -16.7081
 153   2.0000      -0.609506       -16.5855
 154   2.0000      -0.599095       -16.3022
 155   2.0000      -0.596625       -16.2350
 156   2.0000      -0.591196       -16.0873
 157   2.0000      -0.582455       -15.8494
 158   2.0000      -0.580490       -15.7959
 159   2.0000      -0.574509       -15.6332
 160   2.0000      -0.573639       -15.6095
 161   2.0000      -0.572860       -15.5883
 162   2.0000      -0.570595       -15.5267
 163   2.0000      -0.567590       -15.4449
 164   2.0000      -0.565184       -15.3794
 165   2.0000      -0.563980       -15.3467
 166   2.0000      -0.560062       -15.2401
 167   2.0000      -0.558497       -15.1975
 168   2.0000      -0.557552       -15.1718
 169   2.0000      -0.554420       -15.0865
 170   2.0000      -0.552718       -15.0402
 171   2.0000      -0.546723       -14.8771
 172   2.0000      -0.545941       -14.8558
 173   2.0000      -0.543504       -14.7895
 174   2.0000      -0.542395       -14.7593
 175   2.0000      -0.541098       -14.7240
 176   2.0000      -0.537977       -14.6391
 177   2.0000      -0.530060       -14.4237
 178   2.0000      -0.528463       -14.3802
 179   2.0000      -0.526551       -14.3282
 180   2.0000      -0.524774       -14.2798
 181   2.0000      -0.520356       -14.1596
 182   2.0000      -0.517527       -14.0826
 183   2.0000      -0.516771       -14.0620
 184   2.0000      -0.508415       -13.8347
 185   2.0000      -0.505323       -13.7505
 186   2.0000      -0.502190       -13.6653
 187   2.0000      -0.501045       -13.6341
 188   2.0000      -0.500135       -13.6094
 189   2.0000      -0.496449       -13.5091
 190   2.0000      -0.493230       -13.4215
 191   2.0000      -0.490355       -13.3432
 192   2.0000      -0.488625       -13.2962
 193   2.0000      -0.487740       -13.2721
 194   2.0000      -0.487077       -13.2540
 195   2.0000      -0.485425       -13.2091
 196   2.0000      -0.482344       -13.1252
 197   2.0000      -0.480661       -13.0795
 198   2.0000      -0.479020       -13.0348
 199   2.0000      -0.477058       -12.9814
 200   2.0000      -0.475139       -12.9292
 201   2.0000      -0.473060       -12.8726
 202   2.0000      -0.470390       -12.8000
 203   2.0000      -0.469535       -12.7767
 204   2.0000      -0.465719       -12.6729
 205   2.0000      -0.463245       -12.6055
 206   2.0000      -0.461739       -12.5646
 207   2.0000      -0.456978       -12.4350
 208   2.0000      -0.456116       -12.4116
 209   2.0000      -0.455186       -12.3862
 210   2.0000      -0.454192       -12.3592
 211   2.0000      -0.453699       -12.3458
 212   2.0000      -0.452171       -12.3042
 213   2.0000      -0.449410       -12.2291
 214   2.0000      -0.446305       -12.1446
 215   2.0000      -0.445430       -12.1208
 216   2.0000      -0.444740       -12.1020
 217   2.0000      -0.441864       -12.0237
 218   2.0000      -0.438862       -11.9420
 219   2.0000      -0.434202       -11.8152
 220   2.0000      -0.433183       -11.7875
 221   2.0000      -0.431506       -11.7419
 222   2.0000      -0.430302       -11.7091
 223   2.0000      -0.428505       -11.6602
 224   2.0000      -0.427376       -11.6295
 225   2.0000      -0.426879       -11.6160
 226   2.0000      -0.426198       -11.5974
 227   2.0000      -0.421769       -11.4769
 228   2.0000      -0.417264       -11.3543
 229   2.0000      -0.413990       -11.2652
 230   2.0000      -0.413806       -11.2602
 231   2.0000      -0.412297       -11.2192
 232   2.0000      -0.407299       -11.0832
 233   2.0000      -0.405753       -11.0411
 234   2.0000      -0.389341       -10.5945
 235   2.0000      -0.372194       -10.1279
 236   2.0000      -0.357200        -9.7199
 237   2.0000      -0.349382        -9.5072
 238   2.0000      -0.348776        -9.4907
 239   2.0000      -0.344484        -9.3739
 240   2.0000      -0.342668        -9.3245
 241   2.0000      -0.340693        -9.2707
 242   2.0000      -0.333221        -9.0674
 243   2.0000      -0.320730        -8.7275
 244   2.0000      -0.319067        -8.6823
 245   2.0000      -0.315596        -8.5878
 246   2.0000      -0.313643        -8.5347
 247   2.0000      -0.301736        -8.2107
 248   2.0000      -0.287372        -7.8198
 249   2.0000      -0.279064        -7.5937
 250   2.0000      -0.252377        -6.8675
 251   0.0000      -0.132046        -3.5932
 252   0.0000      -0.113517        -3.0890
 253   0.0000      -0.083010        -2.2588
 254   0.0000      -0.079280        -2.1573
 255   0.0000      -0.063919        -1.7393

MULLIKEN ATOMIC CHARGES
-----------------------
   0 C :    0.132032
   1 O :   -0.141259
   2 C :   -0.173692
   3 C :    0.007451
   4 C :    0.023343
   5 C :   -0.056528
   6 S :    0.211934
   7 C :    0.301941
   8 C :   -0.335907
   9 C :   -0.193418
  10 N :    0.155430
  11 C :   -0.184924
  12 N :    0.162315
  13 C :   -0.084652
  14 C :   -0.038616
  15 C :    0.075152
  16 C :   -0.056046
  17 C :    0.009255
  18 C :    0.238845
  19 C :   -0.033939
  20 F :   -0.179747
  21 C :    0.020077
  22 C :   -0.084713
  23 C :    0.118886
  24 C :   -0.079534
  25 C :    0.262277
  26 F :   -0.168105
  27 C :   -0.002243
  28 C :   -0.017173
  29 C :   -0.072691
  30 S :    0.128674
  31 C :   -0.092861
  32 C :   -0.064854
  33 C :   -0.078997
  34 C :    0.197946
  35 C :   -0.109117
  36 C :   -0.253311
  37 N :    0.164226
  38 C :   -0.089105
  39 C :   -0.257793
  40 N :    0.169544
  41 C :    0.177703
  42 C :    0.085672
  43 C :   -0.124752
  44 C :    0.026416
  45 C :    0.264031
  46 C :   -0.093921
  47 F :   -0.170083
  48 C :    0.002285
  49 C :   -0.068490
  50 C :    0.093387
  51 C :   -0.054924
  52 C :    0.255423
  53 F :   -0.174144
  54 C :    0.027761
  55 C :    0.012161
  56 C :    0.041540
  57 C :   -0.133886
  58 C :    0.114607
  59 O :   -0.137378
  60 C :   -0.154187
  61 C :   -0.016617
  62 C :    0.276167
  63 C :   -0.327390
  64 C :   -0.183396
  65 N :    0.156502
  66 C :   -0.194126
  67 N :    0.177264
  68 C :    0.030068
  69 C :   -0.061633
  70 S :    0.212983
  71 H :    0.020459
  72 H :    0.043710
  73 H :    0.015526
  74 H :    0.006207
  75 H :    0.000124
  76 H :   -0.007622
  77 H :   -0.012728
  78 H :   -0.003686
  79 H :   -0.005048
  80 H :    0.044823
  81 H :    0.037430
  82 H :    0.052604
  83 H :    0.051427
  84 H :    0.044081
  85 H :    0.049125
  86 H :   -0.011274
  87 H :   -0.002442
  88 H :   -0.007852
  89 H :   -0.010243
  90 H :    0.004203
  91 H :    0.007094
  92 H :    0.031627
  93 H :    0.018193
  94 H :    0.045114
Sum of atomic charges:   -0.0000000

LOEWDIN ATOMIC CHARGES
----------------------
   0 C :    0.067405
   1 O :   -0.133267
   2 C :   -0.208645
   3 C :   -0.039357
   4 C :   -0.044421
   5 C :   -0.147911
   6 S :    0.504203
   7 C :    0.074617
   8 C :   -0.133813
   9 C :   -0.016286
  10 N :   -0.050376
  11 C :   -0.025014
  12 N :   -0.043428
  13 C :   -0.083582
  14 C :    0.064807
  15 C :   -0.019244
  16 C :   -0.000431
  17 C :   -0.007987
  18 C :    0.064634
  19 C :   -0.035978
  20 F :   -0.055165
  21 C :    0.016848
  22 C :   -0.052505
  23 C :    0.008519
  24 C :   -0.056485
  25 C :    0.086550
  26 F :   -0.044613
  27 C :   -0.015195
  28 C :   -0.025167
  29 C :   -0.166438
  30 S :    0.462046
  31 C :   -0.155778
  32 C :   -0.049502
  33 C :   -0.054130
  34 C :   -0.006352
  35 C :   -0.031929
  36 C :   -0.038796
  37 N :   -0.041250
  38 C :   -0.031545
  39 C :   -0.039014
  40 N :   -0.039690
  41 C :   -0.005881
  42 C :   -0.016310
  43 C :   -0.062044
  44 C :    0.006480
  45 C :    0.085673
  46 C :   -0.064659
  47 F :   -0.045413
  48 C :    0.002099
  49 C :   -0.030544
  50 C :   -0.002503
  51 C :   -0.044387
  52 C :    0.080626
  53 F :   -0.051024
  54 C :    0.032119
  55 C :   -0.029239
  56 C :    0.058226
  57 C :   -0.082579
  58 C :    0.066163
  59 O :   -0.138154
  60 C :   -0.211742
  61 C :   -0.037146
  62 C :    0.064600
  63 C :   -0.135876
  64 C :   -0.018843
  65 N :   -0.049943
  66 C :   -0.018934
  67 N :   -0.036184
  68 C :   -0.046190
  69 C :   -0.148143
  70 S :    0.504754
  71 H :    0.044137
  72 H :    0.031590
  73 H :    0.049721
  74 H :    0.030706
  75 H :    0.032928
  76 H :    0.026882
  77 H :    0.030470
  78 H :    0.029090
  79 H :    0.033873
  80 H :    0.044622
  81 H :    0.045934
  82 H :    0.059841
  83 H :    0.059633
  84 H :    0.045569
  85 H :    0.047648
  86 H :    0.021909
  87 H :    0.027523
  88 H :    0.026569
  89 H :    0.033085
  90 H :    0.036304
  91 H :    0.036159
  92 H :    0.049022
  93 H :    0.043613
  94 H :    0.031839

  Mayer bond orders larger than 0.100000
B(  0-C ,  1-O ) :   2.2022 B(  0-C ,  2-C ) :   1.0555 B(  0-C , 13-C ) :   0.9225
B(  2-C ,  3-C ) :   1.4539 B(  2-C ,  6-S ) :   1.1302 B(  3-C ,  4-C ) :   1.2664
B(  3-C ,  7-C ) :   1.0036 B(  4-C ,  5-C ) :   1.5436 B(  4-C , 71-H ) :   0.9960
B(  5-C ,  6-S ) :   1.1856 B(  5-C , 72-H ) :   0.9622 B(  7-C ,  8-C ) :   1.6534
B(  7-C , 13-C ) :   1.0581 B(  8-C ,  9-C ) :   1.1487 B(  8-C , 11-C ) :   1.1316
B(  9-C , 10-N ) :   2.9876 B( 11-C , 12-N ) :   2.9794 B( 13-C , 14-C ) :   1.6018
B( 14-C , 15-C ) :   1.1447 B( 14-C , 73-H ) :   0.9452 B( 15-C , 16-C ) :   1.4956
B( 15-C , 19-C ) :   1.0365 B( 16-C , 17-C ) :   1.0953 B( 16-C , 74-H ) :   1.0204
B( 17-C , 18-C ) :   1.0361 B( 17-C , 21-C ) :   1.4600 B( 18-C , 19-C ) :   1.6498
B( 18-C , 20-F ) :   1.1181 B( 19-C , 75-H ) :   1.0095 B( 21-C , 22-C ) :   1.1318
B( 21-C , 25-C ) :   1.0077 B( 22-C , 23-C ) :   1.4882 B( 22-C , 76-H ) :   1.0244
B( 23-C , 24-C ) :   1.0055 B( 23-C , 27-C ) :   1.1696 B( 24-C , 25-C ) :   1.6817
B( 24-C , 77-H ) :   1.0128 B( 25-C , 26-F ) :   1.1345 B( 27-C , 28-C ) :   1.5715
B( 27-C , 78-H ) :   0.9778 B( 28-C , 29-C ) :   1.1904 B( 28-C , 79-H ) :   0.9698
B( 29-C , 30-S ) :   1.1120 B( 29-C , 31-C ) :   0.1046 B( 29-C , 33-C ) :   1.4339
B( 30-S , 31-C ) :   1.1275 B( 31-C , 32-C ) :   1.4675 B( 31-C , 42-C ) :   1.1465
B( 32-C , 33-C ) :   1.3559 B( 32-C , 41-C ) :   1.0646 B( 33-C , 34-C ) :   1.0495
B( 34-C , 35-C ) :   1.0940 B( 34-C , 80-H ) :   0.9070 B( 34-C , 81-H ) :   0.8891
B( 35-C , 36-C ) :   1.0833 B( 35-C , 38-C ) :   1.0637 B( 35-C , 82-H ) :   0.8562
B( 36-C , 37-N ) :   3.1246 B( 38-C , 39-C ) :   1.0898 B( 38-C , 41-C ) :   1.0845
B( 38-C , 83-H ) :   0.8558 B( 39-C , 40-N ) :   3.1255 B( 41-C , 84-H ) :   0.8812
B( 41-C , 85-H ) :   0.9085 B( 42-C , 43-C ) :   1.5247 B( 42-C , 46-C ) :   1.0078
B( 43-C , 44-C ) :   1.1237 B( 43-C , 86-H ) :   1.0114 B( 44-C , 45-C ) :   1.0197
B( 44-C , 48-C ) :   1.4565 B( 45-C , 46-C ) :   1.6709 B( 45-C , 47-F ) :   1.1330
B( 46-C , 87-H ) :   1.0079 B( 48-C , 49-C ) :   1.1131 B( 48-C , 52-C ) :   1.0274
B( 49-C , 50-C ) :   1.5124 B( 49-C , 88-H ) :   1.0203 B( 50-C , 51-C ) :   1.0238
B( 50-C , 54-C ) :   1.1677 B( 51-C , 52-C ) :   1.6697 B( 51-C , 89-H ) :   1.0120
B( 52-C , 53-F ) :   1.1198 B( 54-C , 55-C ) :   1.6167 B( 54-C , 90-H ) :   0.9681
B( 55-C , 56-C ) :   1.1385 B( 55-C , 91-H ) :   0.9583 B( 56-C , 57-C ) :   1.7057
B( 56-C , 92-H ) :   0.9248 B( 57-C , 58-C ) :   0.9411 B( 57-C , 62-C ) :   1.0238
B( 58-C , 59-O ) :   2.2409 B( 58-C , 60-C ) :   1.0292 B( 60-C , 61-C ) :   1.4512
B( 60-C , 70-S ) :   1.1301 B( 61-C , 62-C ) :   1.0183 B( 61-C , 68-C ) :   1.2747
B( 62-C , 63-C ) :   1.6608 B( 63-C , 64-C ) :   1.1291 B( 63-C , 66-C ) :   1.1608
B( 64-C , 65-N ) :   2.9974 B( 66-C , 67-N ) :   2.9974 B( 68-C , 69-C ) :   1.5383
B( 68-C , 93-H ) :   0.9958 B( 69-C , 70-S ) :   1.1910 B( 69-C , 94-H ) :   0.9623

-----------------------------------------------------------------------------
         ABSORPTION SPECTRUM VIA TRANSITION ELECTRIC DIPOLE MOMENTS
-----------------------------------------------------------------------------
State   Energy  Wavelength   fosc         T2         TX        TY        TZ
        (cm-1)    (nm)                  (au**2)     (au)      (au)      (au)
-----------------------------------------------------------------------------
   0   12196.6    819.9   1.712321049  46.21901   3.96578  -5.49854  -0.50758
   1   15589.5    641.5   0.168894648   3.56664  -0.59051  -0.78160   1.61463
   2   16665.8    600.0   0.004040717   0.07982   0.15823  -0.20963   0.10410
   3   17080.6    585.5   0.008135372   0.15680   0.22987  -0.19480   0.25694
   4   20761.4    481.7   0.061237105   0.97103   0.61926  -0.55431  -0.52942
   5   22001.6    454.5   0.728375803  10.89878  -1.70660   2.81331  -0.26755
   6   22478.0    444.9   0.250422129   3.66767   0.97735  -1.25426  -1.06738
   7   24701.4    404.8   0.109284731   1.45651  -0.44710   0.25572   1.09143
   8   24971.6    400.5   0.115895308   1.52790   0.39759   0.62301  -0.99080
   9   25839.5    387.0   0.103972582   1.32468  -0.70440   0.86912  -0.27042
  10   26638.7    375.4   0.083177107   1.02794  -0.85846   0.53613   0.05962
  11   27325.2    366.0   0.181622909   2.18818   0.10948   1.38102  -0.51864
  12   27696.9    361.1   0.098329924   1.16877  -0.84508   0.07729   0.66981
  13   28083.9    356.1   0.057643038   0.67572  -0.62044  -0.18042   0.50815
  14   28128.9    355.5   0.060012524   0.70237   0.02285  -0.54555   0.63578
  15   28499.7    350.9   0.011337487   0.13096   0.22763   0.17360  -0.22138
  16   29040.1    344.4   0.043242187   0.49021  -0.24733   0.52992  -0.38501
  17   29259.7    341.8   0.015383100   0.17308  -0.35792   0.02543   0.21054
  18   29660.3    337.2   0.200783008   2.22858  -1.09767   0.91756   0.42637
  19   30559.8    327.2   0.116542470   1.25548  -0.99257   0.49708   0.15229
  20   30666.0    326.1   0.086787210   0.93170   0.31508  -0.91237   0.00091
  21   30772.3    325.0   0.031919519   0.34149  -0.26724  -0.06730   0.51531
  22   31421.8    318.3   0.017454511   0.18287   0.01291   0.42579   0.03749
  23   31622.6    316.2   0.238958382   2.48771  -0.88402   1.21968   0.46754
  24   31915.1    313.3   0.092760512   0.95685  -0.62880   0.65313   0.36727
  25   32570.1    307.0   0.017778570   0.17970  -0.26178   0.33323  -0.01122
  26   33100.3    302.1   0.020042756   0.19934  -0.00019   0.44196  -0.06336
  27   33185.2    301.3   0.006478803   0.06427  -0.07052   0.21005  -0.12319
  28   33408.1    299.3   0.013009041   0.12819  -0.15859  -0.19623   0.25404
  29   33910.2    294.9   0.040221048   0.39048   0.08858   0.58329   0.20592
  30   34122.5    293.1   0.113822524   1.09815  -0.04474  -1.04600  -0.04521
  31   34517.3    289.7   0.319786204   3.04999  -0.14652   1.73427   0.14428
  32   34804.0    287.3   0.101639273   0.96141  -0.20876   0.92394   0.25331
  33   35225.7    283.9   0.003143686   0.02938  -0.06898   0.07815  -0.13607
  34   35402.4    282.5   0.009107424   0.08469  -0.15163  -0.22317   0.10905
  35   35620.1    280.7   0.471742300   4.35999   1.64498   1.17428  -0.52449
  36   35853.8    278.9   0.281542320   2.58514   1.17269   1.06669  -0.26855
  37   36213.6    276.1   0.492290063   4.47533   0.04132   2.08466   0.35753
  38   36509.1    273.9   0.009713669   0.08759   0.19870   0.20003  -0.08998
  39   36673.9    272.7   0.033393006   0.29976  -0.31062   0.42493   0.15069
  40   37273.6    268.3   0.016580640   0.14645   0.08086  -0.37181   0.04077
  41   37595.8    266.0   0.033180879   0.29055   0.27955   0.43583   0.14985
  42   38023.4    263.0   0.012676346   0.10975  -0.04421   0.32605   0.03857
  43   38443.6    260.1   0.008201352   0.07023   0.08379  -0.22107  -0.11975
  44   38733.0    258.2   0.069470349   0.59046  -0.48193  -0.41455   0.43170
  45   38752.9    258.0   0.006212018   0.05277   0.14617   0.08526  -0.15536
  46   39000.9    256.4   0.116937195   0.98708   0.62669   0.33126  -0.69614
  47   39335.7    254.2   0.015523482   0.12992  -0.03108   0.30511  -0.18938
  48   39872.7    250.8   0.009040494   0.07464  -0.14267   0.23292   0.00591
  49   39957.6    250.3   0.147680078   1.21674  -1.03221   0.07110   0.38241

FINAL SINGLE POINT ENERGY     -4216.870945828942

DIPOLE MOMENT
-------------
                                X             Y             Z
Electronic contribution:    -18.30069       3.52995      17.08929
Nuclear contribution   :     15.78703      -6.31585     -16.28155
                        -----------------------------------------
Total Dipole Moment    :     -2.51367      -2.78590       0.80774
                        -----------------------------------------
Magnitude (a.u.)       :      3.83826
Magnitude (Debye)      :      9.75608

Rotational constants in cm-1:     0.001266     0.000190     0.000168
Rotational constants in MHz :    37.960881     5.687137     5.038873

                             ****ORCA TERMINATED NORMALLY****
TOTAL RUN TIME: 0 days 0 hours 9 minutes 48 seconds 796 msec
