                         Program Version 4.2.0 -  RELEASE  -
|  1> # ORCA input file
|  2> # SCF done       -205.276260696485          0.000443727417
|  3> ! CAM-B3LYP def2-SVP def2/J RIJCOSX Grid4 TightSCF
|  4> %maxcore 5000
|  5> %tddft
|  6>     Mode sTDDFT
|  7>     Ethresh 5.0
|  8>     maxcore 5000
|  9> end
| 10>
| 11> %pal
| 12>   nprocs 6
| 13>   end
| 14> * xyz 0 1
| 15>    C        4.13206        -2.54951         0.25276
| 16>    C        3.35543        -1.70658        -0.52962
| 17>    F        3.49525        -0.38365        -0.38795
| 18>    C        2.43722        -2.20177        -1.45488
| 19>    F        1.70973        -1.35265        -2.19108
| 20>    C        2.27150        -3.56742        -1.61927
| 21>    C        3.04455        -4.40353        -0.83889
| 22>    C        3.97239        -3.91684         0.09316
| 23>    C        4.62185        -5.05910         0.73837
| 24>    C        5.64393        -4.94949         1.64780
| 25>    C        6.16227        -3.71916         2.10594
| 26>    N        6.63248        -2.76064         2.52783
| 27>    C        6.36123        -6.00425         2.25157
| 28>    N        7.01457        -6.78359         2.78688
| 29>    C        4.02670        -6.27200         0.20458
| 30>    C        3.05148        -5.88131        -0.82519
| 31>    O        2.35635        -6.57489        -1.54700
| 32>    C        4.34274        -7.52333         0.69647
| 33>    C        3.96141        -8.82790         0.34242
| 34>    C        3.16125        -9.21464        -0.71961
| 35>    C        2.83927       -10.52011        -1.03378
| 36>    C        3.32655       -11.65612        -0.24431
| 37>    C        4.12358       -11.53225         0.84174
| 38>    S        4.67609       -10.02995         1.44320
| 39>    C        2.78320       -12.80370        -0.87319
| 40>    C        2.00258       -12.42886        -1.97888
| 41>    C        1.47212       -13.56550        -2.63827
| 42>    C        1.84265       -14.72230        -2.03425
| 43>    S        2.85130       -14.50175        -0.64284
| 44>    C        2.02177       -10.99971        -2.09164
| 45>    C        1.39044       -10.15811        -3.04100
| 46>    C        0.49836       -10.57088        -3.97433
| 47>    C       -0.14660        -9.76238        -4.95294
| 48>    N       -0.87119       -10.33343        -5.96423
| 49>    C       -1.03411       -11.72681        -6.28117
| 50>    C        0.23149       -12.32078        -6.89707
| 51>    N       -1.38897        -9.42794        -6.77453
| 52>    C       -1.03687        -8.23618        -6.30269
| 53>    C       -0.25473        -8.37396        -5.14605
| 54>    C        0.32893        -7.26108        -4.34504
| 55>    C        1.74597        -6.92170        -4.81580
| 56>    C       -1.48420        -6.99793        -7.00209
| 57>    C       -2.99458        -6.77131        -6.81190
| 58>    C       -3.49234        -5.70229        -7.71558
| 59>    C       -4.16216        -4.61375        -7.32549
| 60>    C       -4.65972        -3.58554        -8.20378
| 61>    C       -5.44463        -2.56106        -7.73730
| 62>    C       -5.97088        -1.53598        -8.52667
| 63>    C       -5.59691        -1.40016        -9.93558
| 64>    C       -4.84876        -2.30624       -10.60583
| 65>    S       -4.21896        -3.72769        -9.89233
| 66>    C       -6.16745        -0.17073       -10.37062
| 67>    C       -6.85211         0.42526        -9.31461
| 68>    C       -7.44454         1.65055        -9.68654
| 69>    C       -7.19480         1.94857       -10.98958
| 70>    S       -6.24393         0.76129       -11.81307
| 71>    C       -6.77248        -0.43458        -8.15751
| 72>    C       -7.39747        -0.15614        -6.93084
| 73>    C       -7.76428        -1.05810        -5.96644
| 74>    C       -8.38209        -0.69983        -4.75727
| 75>    C       -8.34528         0.51214        -4.10785
| 76>    C       -9.41783         0.86575        -3.15521
| 77>    O      -10.27413         0.13683        -2.70499
| 78>    C       -9.25282         2.32007        -2.90780
| 79>    C       -8.09502         2.77353        -3.56306
| 80>    C       -7.74494         4.11211        -3.50975
| 81>    C       -8.56837         4.97045        -2.79519
| 82>    C       -9.70860         4.51148        -2.13772
| 83>    C      -10.06447         3.17248        -2.18733
| 84>    F      -10.47240         5.37520        -1.45430
| 85>    F       -8.25883         6.27253        -2.74366
| 86>    C       -7.44140         1.62921        -4.20421
| 87>    C       -6.11749         1.59198        -4.57396
| 88>    C       -5.44497         0.40945        -4.93444
| 89>    N       -4.83997        -0.53430        -5.18572
| 90>    C       -5.26573         2.71241        -4.56417
| 91>    N       -4.54051         3.60220        -4.60043
| 92>    H        4.82410        -2.11183         0.95263
| 93>    H        1.56062        -3.95644        -2.33077
| 94>    H        5.02390        -7.51066         1.53972
| 95>    H        2.76669        -8.41705        -1.33195
| 96>    H        4.46741       -12.38360         1.40845
| 97>    H        0.85649       -13.55403        -3.51875
| 98>    H        1.58420       -15.72255        -2.32251
| 99>    H        1.66081        -9.11631        -2.99063
|100>    H        0.23310       -11.61685        -3.99503
|101>    H       -1.85486       -11.77806        -6.99961
|102>    H       -1.32353       -12.27844        -5.38120
|103>    H        0.48411       -11.78677        -7.80949
|104>    H        0.06952       -13.36768        -7.13935
|105>    H        1.07215       -12.24428        -6.21090
|106>    H        0.34884        -7.52545        -3.28704
|107>    H       -0.30317        -6.37655        -4.44982
|108>    H        2.37118        -7.81194        -4.82585
|109>    H        2.19613        -6.19448        -4.14570
|110>    H        1.72521        -6.51033        -5.82274
|111>    H       -1.27965        -7.11274        -8.06877
|112>    H       -0.93101        -6.13370        -6.63472
|113>    H       -3.20959        -6.52986        -5.76961
|114>    H       -3.49973        -7.70935        -7.06082
|115>    H       -3.27863        -5.85335        -8.76664
|116>    H       -4.38240        -4.46173        -6.27705
|117>    H       -5.62775        -2.52688        -6.67319
|118>    H       -4.60108        -2.19635       -11.64982
|119>    H       -8.02116         2.28228        -9.03538
|120>    H       -7.51614         2.81219       -11.53825
|121>    H       -7.69525         0.87691        -6.78717
|122>    H       -7.69711        -2.11402        -6.18537
|123>    H       -9.03309        -1.43695        -4.29818
|124>    H       -6.87404         4.51228        -4.00294
|125>    H      -10.94664         2.81664        -1.67961
|126> *
|127>
|128>                          ****END OF INPUT****

CARTESIAN COORDINATES (ANGSTROEM)
---------------------------------
  C      4.132060   -2.549510    0.252760
  C      3.355430   -1.706580   -0.529620
  F      3.495250   -0.383650   -0.387950
  C      2.437220   -2.201770   -1.454880
  F      1.709730   -1.352650   -2.191080
  C      2.271500   -3.567420   -1.619270
  C      3.044550   -4.403530   -0.838890
  C      3.972390   -3.916840    0.093160
  C      4.621850   -5.059100    0.738370
  C      5.643930   -4.949490    1.647800
  C      6.162270   -3.719160    2.105940
  N      6.632480   -2.760640    2.527830
  C      6.361230   -6.004250    2.251570
  N      7.014570   -6.783590    2.786880
  C      4.026700   -6.272000    0.204580
  C      3.051480   -5.881310   -0.825190
  O      2.356350   -6.574890   -1.547000
  C      4.342740   -7.523330    0.696470
  C      3.961410   -8.827900    0.342420
  C      3.161250   -9.214640   -0.719610
  C      2.839270  -10.520110   -1.033780
  C      3.326550  -11.656120   -0.244310
  C      4.123580  -11.532250    0.841740
  S      4.676090  -10.029950    1.443200
  C      2.783200  -12.803700   -0.873190
  C      2.002580  -12.428860   -1.978880
  C      1.472120  -13.565500   -2.638270
  C      1.842650  -14.722300   -2.034250
  S      2.851300  -14.501750   -0.642840
  C      2.021770  -10.999710   -2.091640
  C      1.390440  -10.158110   -3.041000
  C      0.498360  -10.570880   -3.974330
  C     -0.146600   -9.762380   -4.952940
  N     -0.871190  -10.333430   -5.964230
  C     -1.034110  -11.726810   -6.281170
  C      0.231490  -12.320780   -6.897070
  N     -1.388970   -9.427940   -6.774530
  C     -1.036870   -8.236180   -6.302690
  C     -0.254730   -8.373960   -5.146050
  C      0.328930   -7.261080   -4.345040
  C      1.745970   -6.921700   -4.815800
  C     -1.484200   -6.997930   -7.002090
  C     -2.994580   -6.771310   -6.811900
  C     -3.492340   -5.702290   -7.715580
  C     -4.162160   -4.613750   -7.325490
  C     -4.659720   -3.585540   -8.203780
  C     -5.444630   -2.561060   -7.737300
  C     -5.970880   -1.535980   -8.526670
  C     -5.596910   -1.400160   -9.935580
  C     -4.848760   -2.306240  -10.605830
  S     -4.218960   -3.727690   -9.892330
  C     -6.167450   -0.170730  -10.370620
  C     -6.852110    0.425260   -9.314610
  C     -7.444540    1.650550   -9.686540
  C     -7.194800    1.948570  -10.989580
  S     -6.243930    0.761290  -11.813070
  C     -6.772480   -0.434580   -8.157510
  C     -7.397470   -0.156140   -6.930840
  C     -7.764280   -1.058100   -5.966440
  C     -8.382090   -0.699830   -4.757270
  C     -8.345280    0.512140   -4.107850
  C     -9.417830    0.865750   -3.155210
  O    -10.274130    0.136830   -2.704990
  C     -9.252820    2.320070   -2.907800
  C     -8.095020    2.773530   -3.563060
  C     -7.744940    4.112110   -3.509750
  C     -8.568370    4.970450   -2.795190
  C     -9.708600    4.511480   -2.137720
  C    -10.064470    3.172480   -2.187330
  F    -10.472400    5.375200   -1.454300
  F     -8.258830    6.272530   -2.743660
  C     -7.441400    1.629210   -4.204210
  C     -6.117490    1.591980   -4.573960
  C     -5.444970    0.409450   -4.934440
  N     -4.839970   -0.534300   -5.185720
  C     -5.265730    2.712410   -4.564170
  N     -4.540510    3.602200   -4.600430
  H      4.824100   -2.111830    0.952630
  H      1.560620   -3.956440   -2.330770
  H      5.023900   -7.510660    1.539720
  H      2.766690   -8.417050   -1.331950
  H      4.467410  -12.383600    1.408450
  H      0.856490  -13.554030   -3.518750
  H      1.584200  -15.722550   -2.322510
  H      1.660810   -9.116310   -2.990630
  H      0.233100  -11.616850   -3.995030
  H     -1.854860  -11.778060   -6.999610
  H     -1.323530  -12.278440   -5.381200
  H      0.484110  -11.786770   -7.809490
  H      0.069520  -13.367680   -7.139350
  H      1.072150  -12.244280   -6.210900
  H      0.348840   -7.525450   -3.287040
  H     -0.303170   -6.376550   -4.449820
  H      2.371180   -7.811940   -4.825850
  H      2.196130   -6.194480   -4.145700
  H      1.725210   -6.510330   -5.822740
  H     -1.279650   -7.112740   -8.068770
  H     -0.931010   -6.133700   -6.634720
  H     -3.209590   -6.529860   -5.769610
  H     -3.499730   -7.709350   -7.060820
  H     -3.278630   -5.853350   -8.766640
  H     -4.382400   -4.461730   -6.277050
  H     -5.627750   -2.526880   -6.673190
  H     -4.601080   -2.196350  -11.649820
  H     -8.021160    2.282280   -9.035380
  H     -7.516140    2.812190  -11.538250
  H     -7.695250    0.876910   -6.787170
  H     -7.697110   -2.114020   -6.185370
  H     -9.033090   -1.436950   -4.298180
  H     -6.874040    4.512280   -4.002940
  H    -10.946640    2.816640   -1.679610

 Total Charge           Charge          ....    0
 Multiplicity           Mult            ....    1
 Number of Electrons    NEL             ....  558
 Basis Dimension        Dim             .... 1264

ORBITAL ENERGIES
----------------

  NO   OCC          E(Eh)            E(eV)
   0   2.0000     -88.984061     -2421.3794
   1   2.0000     -88.978396     -2421.2252
   2   2.0000     -88.971638     -2421.0414
   3   2.0000     -88.958630     -2420.6874
   4   2.0000     -24.800273      -674.8497
   5   2.0000     -24.798976      -674.8145
   6   2.0000     -24.792645      -674.6422
   7   2.0000     -24.791968      -674.6238
   8   2.0000     -19.229039      -523.2487
   9   2.0000     -19.204711      -522.5868
  10   2.0000     -14.482999      -394.1024
  11   2.0000     -14.418950      -392.3596
  12   2.0000     -14.415403      -392.2631
  13   2.0000     -14.415114      -392.2552
  14   2.0000     -14.407817      -392.0566
  15   2.0000     -14.404621      -391.9697
  16   2.0000     -10.386087      -282.6198
  17   2.0000     -10.385523      -282.6045
  18   2.0000     -10.379194      -282.4322
  19   2.0000     -10.377028      -282.3733
  20   2.0000     -10.376547      -282.3602
  21   2.0000     -10.356845      -281.8241
  22   2.0000     -10.345685      -281.5204
  23   2.0000     -10.344509      -281.4884
  24   2.0000     -10.338966      -281.3376
  25   2.0000     -10.334457      -281.2149
  26   2.0000     -10.333616      -281.1920
  27   2.0000     -10.329675      -281.0847
  28   2.0000     -10.329317      -281.0750
  29   2.0000     -10.327703      -281.0311
  30   2.0000     -10.327265      -281.0192
  31   2.0000     -10.321754      -280.8692
  32   2.0000     -10.318238      -280.7735
  33   2.0000     -10.317940      -280.7654
  34   2.0000     -10.316530      -280.7271
  35   2.0000     -10.311514      -280.5906
  36   2.0000     -10.311077      -280.5787
  37   2.0000     -10.309427      -280.5338
  38   2.0000     -10.308454      -280.5073
  39   2.0000     -10.307794      -280.4893
  40   2.0000     -10.307780      -280.4890
  41   2.0000     -10.306665      -280.4586
  42   2.0000     -10.306003      -280.4406
  43   2.0000     -10.305287      -280.4211
  44   2.0000     -10.305061      -280.4150
  45   2.0000     -10.303856      -280.3822
  46   2.0000     -10.303639      -280.3763
  47   2.0000     -10.303135      -280.3625
  48   2.0000     -10.302673      -280.3500
  49   2.0000     -10.299693      -280.2689
  50   2.0000     -10.299393      -280.2607
  51   2.0000     -10.299146      -280.2540
  52   2.0000     -10.298602      -280.2392
  53   2.0000     -10.298423      -280.2343
  54   2.0000     -10.298217      -280.2287
  55   2.0000     -10.294657      -280.1319
  56   2.0000     -10.292956      -280.0856
  57   2.0000     -10.292913      -280.0844
  58   2.0000     -10.292053      -280.0610
  59   2.0000     -10.291584      -280.0482
  60   2.0000     -10.291032      -280.0332
  61   2.0000     -10.288176      -279.9555
  62   2.0000     -10.286255      -279.9032
  63   2.0000     -10.285546      -279.8839
  64   2.0000     -10.284713      -279.8613
  65   2.0000     -10.279919      -279.7308
  66   2.0000     -10.279803      -279.7277
  67   2.0000     -10.277498      -279.6649
  68   2.0000     -10.276726      -279.6439
  69   2.0000     -10.276051      -279.6256
  70   2.0000     -10.275229      -279.6032
  71   2.0000     -10.273175      -279.5473
  72   2.0000     -10.273028      -279.5433
  73   2.0000     -10.271952      -279.5140
  74   2.0000     -10.265907      -279.3495
  75   2.0000     -10.262384      -279.2537
  76   2.0000     -10.252056      -278.9726
  77   2.0000      -8.079384      -219.8512
  78   2.0000      -8.073729      -219.6973
  79   2.0000      -8.067280      -219.5219
  80   2.0000      -8.053987      -219.1601
  81   2.0000      -6.048669      -164.5927
  82   2.0000      -6.044213      -164.4714
  83   2.0000      -6.043237      -164.4448
  84   2.0000      -6.041753      -164.4045
  85   2.0000      -6.038814      -164.3245
  86   2.0000      -6.036697      -164.2669
  87   2.0000      -6.035568      -164.2362
  88   2.0000      -6.032423      -164.1506
  89   2.0000      -6.029296      -164.0655
  90   2.0000      -6.023440      -163.9061
  91   2.0000      -6.019194      -163.7906
  92   2.0000      -6.016012      -163.7040
  93   2.0000      -1.323204       -36.0062
  94   2.0000      -1.315458       -35.7954
  95   2.0000      -1.308033       -35.5934
  96   2.0000      -1.300289       -35.3827
  97   2.0000      -1.144535       -31.1444
  98   2.0000      -1.142498       -31.0890
  99   2.0000      -1.119523       -30.4638
 100   2.0000      -1.023459       -27.8497
 101   2.0000      -1.019115       -27.7315
 102   2.0000      -1.011889       -27.5349
 103   2.0000      -1.010247       -27.4902
 104   2.0000      -1.004842       -27.3432
 105   2.0000      -0.995337       -27.0845
 106   2.0000      -0.992997       -27.0208
 107   2.0000      -0.984974       -26.8025
 108   2.0000      -0.983250       -26.7556
 109   2.0000      -0.978384       -26.6232
 110   2.0000      -0.959003       -26.0958
 111   2.0000      -0.949397       -25.8344
 112   2.0000      -0.948955       -25.8224
 113   2.0000      -0.941571       -25.6214
 114   2.0000      -0.935795       -25.4643
 115   2.0000      -0.920144       -25.0384
 116   2.0000      -0.916765       -24.9464
 117   2.0000      -0.908639       -24.7253
 118   2.0000      -0.901906       -24.5421
 119   2.0000      -0.901826       -24.5399
 120   2.0000      -0.890679       -24.2366
 121   2.0000      -0.886311       -24.1177
 122   2.0000      -0.875385       -23.8204
 123   2.0000      -0.873471       -23.7683
 124   2.0000      -0.865247       -23.5446
 125   2.0000      -0.864844       -23.5336
 126   2.0000      -0.859082       -23.3768
 127   2.0000      -0.856720       -23.3125
 128   2.0000      -0.847841       -23.0709
 129   2.0000      -0.836454       -22.7611
 130   2.0000      -0.831724       -22.6324
 131   2.0000      -0.825845       -22.4724
 132   2.0000      -0.815687       -22.1960
 133   2.0000      -0.801970       -21.8227
 134   2.0000      -0.796923       -21.6854
 135   2.0000      -0.793317       -21.5873
 136   2.0000      -0.778136       -21.1742
 137   2.0000      -0.776028       -21.1168
 138   2.0000      -0.770604       -20.9692
 139   2.0000      -0.761228       -20.7141
 140   2.0000      -0.747032       -20.3278
 141   2.0000      -0.742671       -20.2091
 142   2.0000      -0.740226       -20.1426
 143   2.0000      -0.736597       -20.0438
 144   2.0000      -0.725925       -19.7534
 145   2.0000      -0.713118       -19.4049
 146   2.0000      -0.709154       -19.2971
 147   2.0000      -0.705163       -19.1885
 148   2.0000      -0.702473       -19.1153
 149   2.0000      -0.692398       -18.8411
 150   2.0000      -0.685564       -18.6551
 151   2.0000      -0.682887       -18.5823
 152   2.0000      -0.679961       -18.5027
 153   2.0000      -0.674478       -18.3535
 154   2.0000      -0.668417       -18.1886
 155   2.0000      -0.667635       -18.1673
 156   2.0000      -0.658067       -17.9069
 157   2.0000      -0.652758       -17.7624
 158   2.0000      -0.649474       -17.6731
 159   2.0000      -0.644108       -17.5271
 160   2.0000      -0.641926       -17.4677
 161   2.0000      -0.636609       -17.3230
 162   2.0000      -0.634308       -17.2604
 163   2.0000      -0.632182       -17.2025
 164   2.0000      -0.630964       -17.1694
 165   2.0000      -0.630289       -17.1510
 166   2.0000      -0.621687       -16.9170
 167   2.0000      -0.611668       -16.6443
 168   2.0000      -0.605967       -16.4892
 169   2.0000      -0.599613       -16.3163
 170   2.0000      -0.598324       -16.2812
 171   2.0000      -0.597070       -16.2471
 172   2.0000      -0.596210       -16.2237
 173   2.0000      -0.588548       -16.0152
 174   2.0000      -0.581522       -15.8240
 175   2.0000      -0.580777       -15.8037
 176   2.0000      -0.580133       -15.7862
 177   2.0000      -0.579207       -15.7610
 178   2.0000      -0.578600       -15.7445
 179   2.0000      -0.576391       -15.6844
 180   2.0000      -0.567840       -15.4517
 181   2.0000      -0.561271       -15.2730
 182   2.0000      -0.555563       -15.1176
 183   2.0000      -0.554699       -15.0941
 184   2.0000      -0.552514       -15.0347
 185   2.0000      -0.548115       -14.9150
 186   2.0000      -0.548055       -14.9133
 187   2.0000      -0.547011       -14.8849
 188   2.0000      -0.543214       -14.7816
 189   2.0000      -0.541849       -14.7445
 190   2.0000      -0.540913       -14.7190
 191   2.0000      -0.539903       -14.6915
 192   2.0000      -0.539067       -14.6688
 193   2.0000      -0.529534       -14.4093
 194   2.0000      -0.526910       -14.3380
 195   2.0000      -0.524423       -14.2703
 196   2.0000      -0.524068       -14.2606
 197   2.0000      -0.523216       -14.2374
 198   2.0000      -0.522241       -14.2109
 199   2.0000      -0.518752       -14.1159
 200   2.0000      -0.517475       -14.0812
 201   2.0000      -0.515769       -14.0348
 202   2.0000      -0.515073       -14.0158
 203   2.0000      -0.514185       -13.9917
 204   2.0000      -0.511757       -13.9256
 205   2.0000      -0.511088       -13.9074
 206   2.0000      -0.507884       -13.8202
 207   2.0000      -0.501413       -13.6441
 208   2.0000      -0.498447       -13.5634
 209   2.0000      -0.496237       -13.5033
 210   2.0000      -0.490746       -13.3539
 211   2.0000      -0.489844       -13.3293
 212   2.0000      -0.489106       -13.3092
 213   2.0000      -0.486211       -13.2305
 214   2.0000      -0.485182       -13.2025
 215   2.0000      -0.479469       -13.0470
 216   2.0000      -0.477799       -13.0016
 217   2.0000      -0.474916       -12.9231
 218   2.0000      -0.473114       -12.8741
 219   2.0000      -0.471036       -12.8175
 220   2.0000      -0.467688       -12.7264
 221   2.0000      -0.466785       -12.7019
 222   2.0000      -0.464805       -12.6480
 223   2.0000      -0.458263       -12.4700
 224   2.0000      -0.457716       -12.4551
 225   2.0000      -0.456941       -12.4340
 226   2.0000      -0.455995       -12.4083
 227   2.0000      -0.450945       -12.2708
 228   2.0000      -0.450643       -12.2626
 229   2.0000      -0.448609       -12.2073
 230   2.0000      -0.446941       -12.1619
 231   2.0000      -0.444827       -12.1044
 232   2.0000      -0.444631       -12.0990
 233   2.0000      -0.444073       -12.0838
 234   2.0000      -0.443460       -12.0672
 235   2.0000      -0.442874       -12.0512
 236   2.0000      -0.442186       -12.0325
 237   2.0000      -0.440609       -11.9896
 238   2.0000      -0.437892       -11.9157
 239   2.0000      -0.435545       -11.8518
 240   2.0000      -0.434303       -11.8180
 241   2.0000      -0.432857       -11.7786
 242   2.0000      -0.430701       -11.7200
 243   2.0000      -0.430435       -11.7127
 244   2.0000      -0.428121       -11.6498
 245   2.0000      -0.426230       -11.5983
 246   2.0000      -0.423879       -11.5343
 247   2.0000      -0.421018       -11.4565
 248   2.0000      -0.420296       -11.4368
 249   2.0000      -0.420093       -11.4313
 250   2.0000      -0.417841       -11.3700
 251   2.0000      -0.414448       -11.2777
 252   2.0000      -0.410378       -11.1670
 253   2.0000      -0.408982       -11.1290
 254   2.0000      -0.408438       -11.1142
 255   2.0000      -0.407586       -11.0910
 256   2.0000      -0.402554       -10.9541
 257   2.0000      -0.398613       -10.8468
 258   2.0000      -0.396668       -10.7939
 259   2.0000      -0.382911       -10.4195
 260   2.0000      -0.369828       -10.0635
 261   2.0000      -0.356628        -9.7043
 262   2.0000      -0.354565        -9.6482
 263   2.0000      -0.349496        -9.5103
 264   2.0000      -0.348872        -9.4933
 265   2.0000      -0.344432        -9.3725
 266   2.0000      -0.340102        -9.2546
 267   2.0000      -0.335205        -9.1214
 268   2.0000      -0.329826        -8.9750
 269   2.0000      -0.328502        -8.9390
 270   2.0000      -0.314741        -8.5645
 271   2.0000      -0.312520        -8.5041
 272   2.0000      -0.306568        -8.3421
 273   2.0000      -0.302214        -8.2237
 274   2.0000      -0.299340        -8.1454
 275   2.0000      -0.285823        -7.7776
 276   2.0000      -0.278838        -7.5876
 277   2.0000      -0.237585        -6.4650
 278   2.0000      -0.237375        -6.4593
 279   0.0000      -0.103431        -2.8145
 280   0.0000      -0.091777        -2.4974
 281   0.0000      -0.070919        -1.9298
 282   0.0000      -0.056965        -1.5501
 283   0.0000      -0.049176        -1.3381

MULLIKEN ATOMIC CHARGES
-----------------------
   0 C :   -0.088508
   1 C :    0.234941
   2 F :   -0.163890
   3 C :    0.235357
   4 F :   -0.166228
   5 C :   -0.109699
   6 C :    0.011673
   7 C :    0.042563
   8 C :    0.301856
   9 C :   -0.357436
  10 C :   -0.193829
  11 N :    0.159609
  12 C :   -0.195304
  13 N :    0.156463
  14 C :   -0.076670
  15 C :    0.161264
  16 O :   -0.173648
  17 C :    0.043182
  18 C :   -0.121877
  19 C :   -0.007882
  20 C :    0.032183
  21 C :    0.061044
  22 C :   -0.114735
  23 S :    0.144112
  24 C :   -0.101534
  25 C :    0.044206
  26 C :    0.004328
  27 C :   -0.063768
  28 S :    0.141396
  29 C :    0.102143
  30 C :   -0.033818
  31 C :   -0.000795
  32 C :    0.150087
  33 N :   -0.156482
  34 C :    0.110649
  35 C :   -0.004354
  36 N :   -0.092008
  37 C :   -0.162260
  38 C :   -0.163900
  39 C :    0.074500
  40 C :    0.036765
  41 C :    0.130898
  42 C :    0.088046
  43 C :   -0.053559
  44 C :    0.005614
  45 C :   -0.039994
  46 C :   -0.036489
  47 C :    0.071225
  48 C :    0.054872
  49 C :   -0.119263
  50 S :    0.135675
  51 C :   -0.111132
  52 C :    0.064808
  53 C :    0.002156
  54 C :   -0.067499
  55 S :    0.130356
  56 C :    0.063695
  57 C :    0.004875
  58 C :   -0.030070
  59 C :    0.052646
  60 C :   -0.142525
  61 C :    0.133091
  62 O :   -0.149592
  63 C :    0.012393
  64 C :    0.022932
  65 C :   -0.091391
  66 C :    0.232380
  67 C :    0.232359
  68 C :   -0.108801
  69 F :   -0.173375
  70 F :   -0.170419
  71 C :    0.252367
  72 C :   -0.347710
  73 C :   -0.179248
  74 N :    0.151880
  75 C :   -0.183265
  76 N :    0.147701
  77 H :    0.017064
  78 H :    0.007787
  79 H :    0.009242
  80 H :   -0.003830
  81 H :    0.040068
  82 H :   -0.013810
  83 H :    0.029600
  84 H :   -0.026056
  85 H :   -0.058990
  86 H :    0.034770
  87 H :    0.026292
  88 H :    0.032304
  89 H :    0.022730
  90 H :    0.022504
  91 H :    0.014062
  92 H :   -0.006117
  93 H :    0.009579
  94 H :    0.014337
  95 H :    0.000396
  96 H :    0.007376
  97 H :   -0.006003
  98 H :    0.003089
  99 H :    0.027455
 100 H :    0.012021
 101 H :   -0.000208
 102 H :    0.000931
 103 H :    0.039818
 104 H :   -0.015705
 105 H :    0.028683
 106 H :    0.005310
 107 H :   -0.002128
 108 H :    0.019488
 109 H :    0.014588
 110 H :    0.008023
Sum of atomic charges:   -0.0000000

LOEWDIN ATOMIC CHARGES
----------------------
   0 C :   -0.017661
   1 C :    0.074361
   2 F :   -0.042752
   3 C :    0.071218
   4 F :   -0.044108
   5 C :   -0.008143
   6 C :   -0.044248
   7 C :   -0.014585
   8 C :    0.076244
   9 C :   -0.142108
  10 C :   -0.019731
  11 N :   -0.050305
  12 C :   -0.026533
  13 N :   -0.048616
  14 C :   -0.110919
  15 C :    0.091793
  16 O :   -0.150408
  17 C :    0.045043
  18 C :   -0.191764
  19 C :    0.037479
  20 C :   -0.038080
  21 C :   -0.064823
  22 C :   -0.128672
  23 S :    0.457981
  24 C :   -0.177713
  25 C :   -0.045353
  26 C :   -0.065282
  27 C :   -0.159448
  28 S :    0.433243
  29 C :   -0.004991
  30 C :   -0.024209
  31 C :   -0.020395
  32 C :   -0.022006
  33 N :    0.094751
  34 C :    0.033041
  35 C :   -0.061811
  36 N :   -0.099918
  37 C :   -0.054972
  38 C :   -0.069668
  39 C :   -0.032600
  40 C :   -0.052122
  41 C :   -0.025057
  42 C :   -0.022903
  43 C :   -0.007622
  44 C :   -0.057781
  45 C :   -0.143382
  46 C :   -0.018417
  47 C :    0.016578
  48 C :   -0.045285
  49 C :   -0.139108
  50 S :    0.482049
  51 C :   -0.210046
  52 C :   -0.035891
  53 C :   -0.064000
  54 C :   -0.162609
  55 S :    0.423523
  56 C :   -0.067428
  57 C :    0.052161
  58 C :   -0.067416
  59 C :    0.070098
  60 C :   -0.120222
  61 C :    0.079991
  62 O :   -0.150924
  63 C :   -0.045411
  64 C :   -0.013462
  65 C :   -0.022617
  66 C :    0.070952
  67 C :    0.067031
  68 C :   -0.008341
  69 F :   -0.050061
  70 F :   -0.047917
  71 C :    0.065606
  72 C :   -0.156001
  73 C :   -0.004285
  74 N :   -0.061728
  75 C :   -0.023783
  76 N :   -0.061690
  77 H :    0.051691
  78 H :    0.050093
  79 H :    0.040358
  80 H :    0.036229
  81 H :    0.038782
  82 H :    0.028142
  83 H :    0.025748
  84 H :    0.034780
  85 H :    0.025308
  86 H :    0.037635
  87 H :    0.023069
  88 H :    0.033278
  89 H :    0.029865
  90 H :    0.024443
  91 H :    0.028207
  92 H :    0.026344
  93 H :    0.021221
  94 H :    0.019967
  95 H :    0.020803
  96 H :    0.033680
  97 H :    0.027705
  98 H :    0.028035
  99 H :    0.038560
 100 H :    0.016351
 101 H :    0.038388
 102 H :    0.041254
 103 H :    0.038043
 104 H :    0.030775
 105 H :    0.024447
 106 H :    0.034803
 107 H :    0.031125
 108 H :    0.044213
 109 H :    0.050289
 110 H :    0.050554

  Mayer bond orders larger than 0.100000
B(  0-C ,  1-C ) :   1.3329 B(  0-C ,  5-C ) :   0.1038 B(  0-C ,  7-C ) :   1.3167
B(  0-C , 77-H ) :   0.9912 B(  1-C ,  2-F ) :   1.1488 B(  1-C ,  3-C ) :   1.2898
B(  3-C ,  4-F ) :   1.1366 B(  3-C ,  5-C ) :   1.3143 B(  5-C ,  6-C ) :   1.3189
B(  5-C , 78-H ) :   1.0217 B(  6-C ,  7-C ) :   1.3427 B(  6-C , 15-C ) :   0.9738
B(  7-C ,  8-C ) :   0.9935 B(  8-C ,  9-C ) :   1.6106 B(  8-C , 14-C ) :   1.1105
B(  9-C , 10-C ) :   1.1494 B(  9-C , 12-C ) :   1.1400 B( 10-C , 11-N ) :   2.9749
B( 12-C , 13-N ) :   2.9700 B( 14-C , 15-C ) :   0.9724 B( 14-C , 17-C ) :   1.5162
B( 15-C , 16-O ) :   2.0724 B( 16-O , 80-H ) :   0.1300 B( 17-C , 18-C ) :   1.2801
B( 17-C , 79-H ) :   0.9063 B( 18-C , 19-C ) :   1.4271 B( 18-C , 23-S ) :   1.0271
B( 19-C , 20-C ) :   1.3288 B( 19-C , 80-H ) :   0.9307 B( 20-C , 21-C ) :   1.0240
B( 20-C , 29-C ) :   1.3076 B( 21-C , 22-C ) :   1.5820 B( 21-C , 24-C ) :   1.2066
B( 22-C , 23-S ) :   1.1698 B( 22-C , 81-H ) :   0.9427 B( 24-C , 25-C ) :   1.4091
B( 24-C , 28-S ) :   1.0923 B( 25-C , 26-C ) :   1.1920 B( 25-C , 29-C ) :   1.1215
B( 26-C , 27-C ) :   1.6077 B( 26-C , 82-H ) :   0.9958 B( 27-C , 28-S ) :   1.1410
B( 27-C , 83-H ) :   0.9644 B( 29-C , 30-C ) :   1.1865 B( 30-C , 31-C ) :   1.6172
B( 30-C , 84-H ) :   0.9651 B( 31-C , 32-C ) :   1.0946 B( 31-C , 85-H ) :   0.9532
B( 32-C , 33-N ) :   1.1580 B( 32-C , 38-C ) :   1.3891 B( 33-N , 34-C ) :   0.9569
B( 33-N , 36-N ) :   1.1763 B( 34-C , 35-C ) :   1.1152 B( 34-C , 86-H ) :   0.9398
B( 34-C , 87-H ) :   0.9461 B( 35-C , 88-H ) :   0.9633 B( 35-C , 89-H ) :   0.9661
B( 35-C , 90-H ) :   0.9660 B( 36-N , 37-C ) :   1.5488 B( 37-C , 38-C ) :   1.3726
B( 37-C , 41-C ) :   1.0660 B( 38-C , 39-C ) :   1.0789 B( 39-C , 40-C ) :   1.1106
B( 39-C , 91-H ) :   0.9136 B( 39-C , 92-H ) :   0.9152 B( 40-C , 93-H ) :   0.9655
B( 40-C , 94-H ) :   0.9639 B( 40-C , 95-H ) :   0.9615 B( 41-C , 42-C ) :   1.0844
B( 41-C , 96-H ) :   0.9116 B( 41-C , 97-H ) :   0.9120 B( 42-C , 43-C ) :   1.0491
B( 42-C , 98-H ) :   0.9479 B( 42-C , 99-H ) :   0.9119 B( 43-C , 44-C ) :   1.8026
B( 43-C ,100-H ) :   0.9486 B( 44-C , 45-C ) :   1.1106 B( 44-C ,101-H ) :   0.9847
B( 45-C , 46-C ) :   1.5124 B( 45-C , 50-S ) :   1.0781 B( 46-C , 47-C ) :   1.2327
B( 46-C ,102-H ) :   0.9683 B( 47-C , 48-C ) :   1.0831 B( 47-C , 56-C ) :   1.3405
B( 48-C , 49-C ) :   1.5807 B( 48-C , 51-C ) :   1.1704 B( 49-C , 50-S ) :   1.1610
B( 49-C ,103-H ) :   0.9418 B( 51-C , 52-C ) :   1.4523 B( 51-C , 55-S ) :   1.0733
B( 52-C , 53-C ) :   1.2292 B( 52-C , 56-C ) :   1.0819 B( 53-C , 54-C ) :   1.5790
B( 53-C ,104-H ) :   0.9993 B( 54-C , 55-S ) :   1.1617 B( 54-C ,105-H ) :   0.9665
B( 56-C , 57-C ) :   1.2552 B( 57-C , 58-C ) :   1.5045 B( 57-C ,106-H ) :   0.9516
B( 58-C , 59-C ) :   1.2415 B( 58-C ,107-H ) :   0.9648 B( 59-C , 60-C ) :   1.5376
B( 59-C ,108-H ) :   0.9401 B( 60-C , 61-C ) :   0.9710 B( 60-C , 71-C ) :   1.0855
B( 61-C , 62-O ) :   2.2650 B( 61-C , 63-C ) :   0.9218 B( 63-C , 64-C ) :   1.3458
B( 63-C , 68-C ) :   1.3251 B( 64-C , 65-C ) :   1.3246 B( 64-C , 71-C ) :   1.0073
B( 65-C , 66-C ) :   1.3289 B( 65-C , 68-C ) :   0.1054 B( 65-C ,109-H ) :   0.9955
B( 66-C , 67-C ) :   1.2995 B( 66-C , 70-F ) :   1.1363 B( 67-C , 68-C ) :   1.3144
B( 67-C , 69-F ) :   1.1257 B( 68-C ,110-H ) :   1.0206 B( 71-C , 72-C ) :   1.6166
B( 72-C , 73-C ) :   1.1716 B( 72-C , 75-C ) :   1.1328 B( 73-C , 74-N ) :   2.9826
B( 75-C , 76-N ) :   2.9895

-----------------------------------------------------------------------------
         ABSORPTION SPECTRUM VIA TRANSITION ELECTRIC DIPOLE MOMENTS
-----------------------------------------------------------------------------
State   Energy  Wavelength   fosc         T2         TX        TY        TZ
        (cm-1)    (nm)                  (au**2)     (au)      (au)      (au)
-----------------------------------------------------------------------------
   0   14094.8    709.5   0.446467514  10.42816  -2.18522  -1.77743  -1.57914
   1   14909.3    670.7   0.769300257  16.98691  -0.64646   2.97747   2.77555
   2   20340.0    491.6   0.001087144   0.01760  -0.07398  -0.04874   0.09873
   3   21240.0    470.8   0.000697398   0.01081  -0.02483   0.10052  -0.00939
   4   22010.6    454.3   0.103259776   1.54446  -1.05393   0.56852  -0.33240
   5   22254.4    449.3   0.068868790   1.01878  -0.56143  -0.08956  -0.83400
   6   23212.9    430.8   0.480035284   6.80801   0.21720   2.59944  -0.06120
   7   23257.7    430.0   0.047950796   0.67874   0.04427   0.81770  -0.09023
   8   23619.3    423.4   0.123236887   1.71771  -0.04470   0.22837   1.28979
   9   24712.9    404.6   0.164233518   2.18783   0.62025  -0.34716  -1.29715
  10   27750.1    360.4   0.073022754   0.86630  -0.50481   0.65824  -0.42213
  11   27918.2    358.2   0.167626695   1.97666  -1.15728   0.35682   0.71417
  12   28096.3    355.9   0.000861720   0.01010   0.03542  -0.03638   0.08671
  13   29005.0    344.8   0.070445096   0.79956   0.55432  -0.41958   0.56235
  14   29136.9    343.2   0.025978580   0.29353   0.04681   0.51126   0.17304
  15   29590.3    337.9   0.036411697   0.40510  -0.37500   0.35496  -0.37213
  16   30294.4    330.1   0.076973639   0.83648  -0.31944   0.82920  -0.21650
  17   30669.7    326.1   0.097277272   1.04419  -0.79570   0.26852  -0.58218
  18   30998.4    322.6   0.018079692   0.19201   0.37931  -0.19215  -0.10588
  19   31001.2    322.6   0.100922131   1.07172   0.40089  -0.92118  -0.24988
  20   31070.4    321.8   0.033333033   0.35319  -0.22800  -0.54443   0.06926
  21   31452.2    317.9   0.646216655   6.76398  -1.28028   1.50660  -1.68968
  22   31827.5    314.2   0.004426467   0.04579   0.10272  -0.16292   0.09322
  23   31898.0    313.5   0.075762879   0.78193  -0.54022   0.25356   0.65253
  24   32976.7    303.2   0.260756205   2.60317   1.14350  -0.73572  -0.86850
  25   33363.5    299.7   0.061244098   0.60432  -0.40878  -0.46740  -0.46771
  26   33474.9    298.7   0.181019534   1.78025   0.78654   0.58122   0.90763
  27   33647.2    297.2   0.127839481   1.25081   0.32834  -1.05156  -0.19294
  28   33678.1    296.9   0.003039785   0.02971  -0.12564  -0.08673  -0.08004
  29   34525.9    289.6   0.002552258   0.02434  -0.10914   0.09854   0.05211
  30   34824.3    287.2   0.069001718   0.65231  -0.27871  -0.50343  -0.56673
  31   35231.0    283.8   0.046560117   0.43508  -0.25102  -0.40894   0.45259
  32   35450.8    282.1   0.966744982   8.97764  -2.10031   0.74110  -2.00427
  33   35564.3    281.2   0.000095443   0.00088  -0.00782   0.00590  -0.02806
  34   35913.9    278.4   0.059023197   0.54105   0.35646  -0.64340   0.00403
  35   35953.3    278.1   0.004225132   0.03869  -0.11240   0.15691   0.03783
  36   36334.0    275.2   0.062940531   0.57029   0.66361  -0.33682  -0.12830
  37   36382.8    274.9   0.117072516   1.05934   0.95326  -0.38810  -0.00296
  38   36396.1    274.8   0.406547587   3.67732  -1.25207   0.37336   1.40366
  39   36580.1    273.4   0.063799623   0.57418   0.28829  -0.30795   0.62947
  40   36869.0    271.2   0.062561782   0.55863  -0.04181  -0.72983   0.15564
  41   37296.6    268.1   0.083890126   0.74049   0.18594   0.73535  -0.40642
  42   37414.5    267.3   0.192745575   1.69598   0.22864  -1.19821   0.45606
  43   37653.2    265.6   0.045283451   0.39593   0.12036  -0.57037   0.23690
  44   38199.2    261.8   0.035542223   0.30631  -0.14896  -0.15252   0.51075
  45   38278.4    261.2   0.032456827   0.27914   0.14973   0.08584  -0.49936
  46   38612.4    259.0   0.072415672   0.61742   0.13624  -0.76408   0.12264
  47   38638.7    258.8   0.014535641   0.12385   0.26644   0.20933  -0.09507
  48   38768.3    257.9   0.021823629   0.18532   0.41569  -0.07102   0.08647
  49   38822.9    257.6   0.006368935   0.05401  -0.22055   0.00526   0.07306
  50   38997.1    256.4   0.000008125   0.00007  -0.00624   0.00467   0.00281
  51   39154.2    255.4   0.167818599   1.41103   0.05266   1.18670   0.00016
  52   39858.1    250.9   0.042913317   0.35445  -0.36404  -0.29351  -0.36847
  53   40061.8    249.6   0.034576206   0.28413  -0.19974  -0.41981  -0.26075
  54   40141.3    249.1   0.222702287   1.82645   0.49049  -1.07296   0.65926

FINAL SINGLE POINT ENERGY     -4811.372980373251

DIPOLE MOMENT
-------------
                                X             Y             Z
Electronic contribution:     -7.35769      85.85427      45.96964
Nuclear contribution   :      6.32810     -90.82686     -49.05946
                        -----------------------------------------
Total Dipole Moment    :     -1.02959      -4.97259      -3.08981
                        -----------------------------------------
Magnitude (a.u.)       :      5.94422
Magnitude (Debye)      :     15.10899

Rotational constants in cm-1:     0.000846     0.000274     0.000231
Rotational constants in MHz :    25.359008     8.219272     6.935366

                             ****ORCA TERMINATED NORMALLY****
TOTAL RUN TIME: 0 days 0 hours 15 minutes 12 seconds 752 msec
