                         Program Version 4.2.0 -  RELEASE  -
|  1> # ORCA input file
|  2> # SCF done       -178.326860580222          0.000455608824
|  3> ! CAM-B3LYP def2-SVP def2/J RIJCOSX Grid4 TightSCF
|  4> %maxcore 5000
|  5> %tddft
|  6>     Mode sTDDFT
|  7>     Ethresh 5.0
|  8>     maxcore 5000
|  9> end
| 10>
| 11> %pal
| 12>   nprocs 6
| 13>   end
| 14> * xyz 0 1
| 15>    C        7.62430        -9.96587        -8.01129
| 16>    C        8.01864       -10.00146        -9.34023
| 17>    F        9.21985       -10.49944        -9.64778
| 18>    C        7.19328        -9.52831       -10.36242
| 19>    F        7.61128        -9.59026       -11.63184
| 20>    C        5.94874        -8.99210       -10.07630
| 21>    C        5.55901        -8.94557        -8.75132
| 22>    C        6.37879        -9.43349        -7.71846
| 23>    C        5.67754        -9.27781        -6.44522
| 24>    C        5.95688        -9.97030        -5.30102
| 25>    C        7.06768       -10.82810        -5.14871
| 26>    N        7.95448       -11.53434        -4.97524
| 27>    C        5.11868        -9.96449        -4.16747
| 28>    N        4.44661        -9.99494        -3.23827
| 29>    C        4.50825        -8.45343        -6.69862
| 30>    C        4.31235        -8.39621        -8.17550
| 31>    O        3.35608        -7.96664        -8.77774
| 32>    C        3.69980        -7.71339        -5.90221
| 33>    C        3.83869        -7.29520        -4.53927
| 34>    C        5.00606        -7.08997        -3.84808
| 35>    F        6.23669        -7.31243        -4.30815
| 36>    S        4.81765        -6.36484        -2.29881
| 37>    C        3.09811        -6.34311        -2.56785
| 38>    F        2.31022        -5.87536        -1.60302
| 39>    C        2.70539        -6.84514        -3.76525
| 40>    C        1.34236        -6.96438        -4.25720
| 41>    C        0.40236        -6.04065        -4.08717
| 42>    C       -0.97004        -6.04628        -4.67156
| 43>    S       -1.17633        -4.49369        -5.67880
| 44>    C       -1.76102        -5.36438        -7.16071
| 45>    C       -1.21491        -6.79591        -7.08408
| 46>    C       -1.35160        -7.19728        -5.59655
| 47>    C        0.24371        -6.73802        -7.59629
| 48>    O        1.15168        -6.39507        -6.87138
| 49>    N        0.42198        -7.05427        -8.88174
| 50>    N       -2.02555        -7.63920        -7.94467
| 51>    C       -1.75166        -8.96588        -8.20141
| 52>    C       -0.70529        -9.72012        -7.75671
| 53>    F        0.30658        -9.34819        -6.96117
| 54>    S       -0.69302       -11.36886        -8.31509
| 55>    C       -2.15535       -11.05265        -9.14394
| 56>    F       -2.73048       -12.01511        -9.85728
| 57>    C       -2.61381        -9.75554        -9.05921
| 58>    C       -3.72696        -9.33560        -9.85226
| 59>    C       -4.09754        -8.06622       -10.15398
| 60>    C       -5.11930        -7.80153       -11.09427
| 61>    C       -5.44322        -6.61449       -11.68226
| 62>    C       -6.72542        -6.52779       -12.43523
| 63>    O       -7.44214        -7.44830       -12.74594
| 64>    C       -6.94278        -5.08521       -12.67237
| 65>    C       -5.83943        -4.36159       -12.18622
| 66>    C       -5.83507        -2.97719       -12.26382
| 67>    C       -6.93212        -2.35273       -12.83824
| 68>    C       -8.01575        -3.08117       -13.33328
| 69>    C       -8.03209        -4.46426       -13.25103
| 70>    F       -9.04743        -2.43736       -13.88610
| 71>    F       -6.94916        -1.01968       -12.91510
| 72>    C       -4.83431        -5.30119       -11.68025
| 73>    C       -3.52452        -4.96922       -11.44519
| 74>    C       -2.46609        -5.85420       -11.17070
| 75>    N       -1.53006        -6.48707       -10.95996
| 76>    C       -3.01883        -3.65050       -11.52072
| 77>    N       -2.54050        -2.60843       -11.54284
| 78>    H        8.29651       -10.33662        -7.25474
| 79>    H        5.31342        -8.62244       -10.86531
| 80>    H        2.83215        -7.28137        -6.39832
| 81>    H        1.17217        -7.85220        -4.84527
| 82>    H        0.62047        -5.14747        -3.51758
| 83>    H       -1.69284        -5.95459        -3.85440
| 84>    H       -1.40821        -4.82630        -8.03927
| 85>    H       -2.85491        -5.36550        -7.15205
| 86>    H       -0.75912        -8.07715        -5.36440
| 87>    H       -2.40427        -7.44918        -5.43343
| 88>    H       -0.32773        -7.13678        -9.55379
| 89>    H        1.37684        -7.04145        -9.21270
| 90>    H       -3.01662        -7.46579        -7.83836
| 91>    H       -4.25101       -10.14578       -10.34553
| 92>    H       -3.57779        -7.22712        -9.72616
| 93>    H       -5.76087        -8.63141       -11.37432
| 94>    H       -5.02852        -2.36636       -11.89299
| 95>    H       -8.86838        -5.03107       -13.62814
| 96> *
| 97>
| 98>                          ****END OF INPUT****

CARTESIAN COORDINATES (ANGSTROEM)
---------------------------------
  C      7.624300   -9.965870   -8.011290
  C      8.018640  -10.001460   -9.340230
  F      9.219850  -10.499440   -9.647780
  C      7.193280   -9.528310  -10.362420
  F      7.611280   -9.590260  -11.631840
  C      5.948740   -8.992100  -10.076300
  C      5.559010   -8.945570   -8.751320
  C      6.378790   -9.433490   -7.718460
  C      5.677540   -9.277810   -6.445220
  C      5.956880   -9.970300   -5.301020
  C      7.067680  -10.828100   -5.148710
  N      7.954480  -11.534340   -4.975240
  C      5.118680   -9.964490   -4.167470
  N      4.446610   -9.994940   -3.238270
  C      4.508250   -8.453430   -6.698620
  C      4.312350   -8.396210   -8.175500
  O      3.356080   -7.966640   -8.777740
  C      3.699800   -7.713390   -5.902210
  C      3.838690   -7.295200   -4.539270
  C      5.006060   -7.089970   -3.848080
  F      6.236690   -7.312430   -4.308150
  S      4.817650   -6.364840   -2.298810
  C      3.098110   -6.343110   -2.567850
  F      2.310220   -5.875360   -1.603020
  C      2.705390   -6.845140   -3.765250
  C      1.342360   -6.964380   -4.257200
  C      0.402360   -6.040650   -4.087170
  C     -0.970040   -6.046280   -4.671560
  S     -1.176330   -4.493690   -5.678800
  C     -1.761020   -5.364380   -7.160710
  C     -1.214910   -6.795910   -7.084080
  C     -1.351600   -7.197280   -5.596550
  C      0.243710   -6.738020   -7.596290
  O      1.151680   -6.395070   -6.871380
  N      0.421980   -7.054270   -8.881740
  N     -2.025550   -7.639200   -7.944670
  C     -1.751660   -8.965880   -8.201410
  C     -0.705290   -9.720120   -7.756710
  F      0.306580   -9.348190   -6.961170
  S     -0.693020  -11.368860   -8.315090
  C     -2.155350  -11.052650   -9.143940
  F     -2.730480  -12.015110   -9.857280
  C     -2.613810   -9.755540   -9.059210
  C     -3.726960   -9.335600   -9.852260
  C     -4.097540   -8.066220  -10.153980
  C     -5.119300   -7.801530  -11.094270
  C     -5.443220   -6.614490  -11.682260
  C     -6.725420   -6.527790  -12.435230
  O     -7.442140   -7.448300  -12.745940
  C     -6.942780   -5.085210  -12.672370
  C     -5.839430   -4.361590  -12.186220
  C     -5.835070   -2.977190  -12.263820
  C     -6.932120   -2.352730  -12.838240
  C     -8.015750   -3.081170  -13.333280
  C     -8.032090   -4.464260  -13.251030
  F     -9.047430   -2.437360  -13.886100
  F     -6.949160   -1.019680  -12.915100
  C     -4.834310   -5.301190  -11.680250
  C     -3.524520   -4.969220  -11.445190
  C     -2.466090   -5.854200  -11.170700
  N     -1.530060   -6.487070  -10.959960
  C     -3.018830   -3.650500  -11.520720
  N     -2.540500   -2.608430  -11.542840
  H      8.296510  -10.336620   -7.254740
  H      5.313420   -8.622440  -10.865310
  H      2.832150   -7.281370   -6.398320
  H      1.172170   -7.852200   -4.845270
  H      0.620470   -5.147470   -3.517580
  H     -1.692840   -5.954590   -3.854400
  H     -1.408210   -4.826300   -8.039270
  H     -2.854910   -5.365500   -7.152050
  H     -0.759120   -8.077150   -5.364400
  H     -2.404270   -7.449180   -5.433430
  H     -0.327730   -7.136780   -9.553790
  H      1.376840   -7.041450   -9.212700
  H     -3.016620   -7.465790   -7.838360
  H     -4.251010  -10.145780  -10.345530
  H     -3.577790   -7.227120   -9.726160
  H     -5.760870   -8.631410  -11.374320
  H     -5.028520   -2.366360  -11.892990
  H     -8.868380   -5.031070  -13.628140

 Total Charge           Charge          ....    0
 Multiplicity           Mult            ....    1
 Number of Electrons    NEL             ....  462
 Basis Dimension        Dim             ....  984

ORBITAL ENERGIES
----------------

  NO   OCC          E(Eh)            E(eV)
   0   2.0000     -88.996382     -2421.7147
   1   2.0000     -88.978528     -2421.2288
   2   2.0000     -88.906834     -2419.2779
   3   2.0000     -24.833095      -675.7429
   4   2.0000     -24.819900      -675.3838
   5   2.0000     -24.816837      -675.3005
   6   2.0000     -24.812787      -675.1903
   7   2.0000     -24.811812      -675.1637
   8   2.0000     -24.802088      -674.8991
   9   2.0000     -24.801699      -674.8885
  10   2.0000     -24.799622      -674.8320
  11   2.0000     -19.232254      -523.3362
  12   2.0000     -19.223648      -523.1020
  13   2.0000     -19.172116      -521.6998
  14   2.0000     -14.449019      -393.1778
  15   2.0000     -14.443022      -393.0146
  16   2.0000     -14.432830      -392.7373
  17   2.0000     -14.417140      -392.3103
  18   2.0000     -14.415695      -392.2710
  19   2.0000     -14.407849      -392.0575
  20   2.0000     -10.413182      -283.3571
  21   2.0000     -10.398981      -282.9707
  22   2.0000     -10.398596      -282.9602
  23   2.0000     -10.394572      -282.8507
  24   2.0000     -10.387887      -282.6688
  25   2.0000     -10.386668      -282.6356
  26   2.0000     -10.386643      -282.6349
  27   2.0000     -10.382867      -282.5322
  28   2.0000     -10.376591      -282.3614
  29   2.0000     -10.374160      -282.2953
  30   2.0000     -10.366463      -282.0858
  31   2.0000     -10.365274      -282.0534
  32   2.0000     -10.364622      -282.0357
  33   2.0000     -10.348392      -281.5941
  34   2.0000     -10.346648      -281.5466
  35   2.0000     -10.345473      -281.5146
  36   2.0000     -10.342036      -281.4211
  37   2.0000     -10.335149      -281.2337
  38   2.0000     -10.335129      -281.2332
  39   2.0000     -10.332027      -281.1488
  40   2.0000     -10.331300      -281.1290
  41   2.0000     -10.331254      -281.1277
  42   2.0000     -10.321439      -280.8606
  43   2.0000     -10.321276      -280.8562
  44   2.0000     -10.319339      -280.8035
  45   2.0000     -10.318691      -280.7859
  46   2.0000     -10.317702      -280.7589
  47   2.0000     -10.316329      -280.7216
  48   2.0000     -10.315920      -280.7105
  49   2.0000     -10.311961      -280.6027
  50   2.0000     -10.310604      -280.5658
  51   2.0000     -10.309048      -280.5235
  52   2.0000     -10.307340      -280.4770
  53   2.0000     -10.306308      -280.4489
  54   2.0000     -10.305307      -280.4216
  55   2.0000     -10.303387      -280.3694
  56   2.0000     -10.301442      -280.3165
  57   2.0000     -10.296881      -280.1924
  58   2.0000     -10.296090      -280.1709
  59   2.0000     -10.287401      -279.9344
  60   2.0000     -10.281380      -279.7706
  61   2.0000     -10.266153      -279.3562
  62   2.0000     -10.265337      -279.3340
  63   2.0000      -8.093432      -220.2335
  64   2.0000      -8.075735      -219.7519
  65   2.0000      -8.002802      -217.7673
  66   2.0000      -6.062633      -164.9726
  67   2.0000      -6.059047      -164.8751
  68   2.0000      -6.054731      -164.7576
  69   2.0000      -6.044946      -164.4913
  70   2.0000      -6.041265      -164.3912
  71   2.0000      -6.037083      -164.2774
  72   2.0000      -5.973690      -162.5524
  73   2.0000      -5.969506      -162.4385
  74   2.0000      -5.961534      -162.2216
  75   2.0000      -1.349636       -36.7255
  76   2.0000      -1.336853       -36.3776
  77   2.0000      -1.334185       -36.3050
  78   2.0000      -1.329744       -36.1842
  79   2.0000      -1.325991       -36.0820
  80   2.0000      -1.321559       -35.9615
  81   2.0000      -1.315374       -35.7931
  82   2.0000      -1.310736       -35.6669
  83   2.0000      -1.148421       -31.2501
  84   2.0000      -1.138390       -30.9772
  85   2.0000      -1.118386       -30.4328
  86   2.0000      -1.063456       -28.9381
  87   2.0000      -1.041429       -28.3387
  88   2.0000      -1.022477       -27.8230
  89   2.0000      -1.021778       -27.8040
  90   2.0000      -1.014100       -27.5951
  91   2.0000      -1.008114       -27.4322
  92   2.0000      -1.003143       -27.2969
  93   2.0000      -1.000353       -27.2210
  94   2.0000      -0.993857       -27.0442
  95   2.0000      -0.974124       -26.5073
  96   2.0000      -0.971033       -26.4232
  97   2.0000      -0.956902       -26.0386
  98   2.0000      -0.946264       -25.7491
  99   2.0000      -0.940328       -25.5876
 100   2.0000      -0.920140       -25.0383
 101   2.0000      -0.907552       -24.6957
 102   2.0000      -0.899039       -24.4641
 103   2.0000      -0.893640       -24.3172
 104   2.0000      -0.888253       -24.1706
 105   2.0000      -0.883041       -24.0288
 106   2.0000      -0.875719       -23.8295
 107   2.0000      -0.857783       -23.3414
 108   2.0000      -0.845352       -23.0032
 109   2.0000      -0.834004       -22.6944
 110   2.0000      -0.826328       -22.4855
 111   2.0000      -0.812411       -22.1068
 112   2.0000      -0.801583       -21.8122
 113   2.0000      -0.788792       -21.4641
 114   2.0000      -0.787737       -21.4354
 115   2.0000      -0.784206       -21.3393
 116   2.0000      -0.771511       -20.9939
 117   2.0000      -0.747055       -20.3284
 118   2.0000      -0.734699       -19.9922
 119   2.0000      -0.731302       -19.8998
 120   2.0000      -0.729675       -19.8555
 121   2.0000      -0.713176       -19.4065
 122   2.0000      -0.712064       -19.3763
 123   2.0000      -0.708982       -19.2924
 124   2.0000      -0.703428       -19.1412
 125   2.0000      -0.700947       -19.0737
 126   2.0000      -0.694566       -18.9001
 127   2.0000      -0.685020       -18.6403
 128   2.0000      -0.682844       -18.5811
 129   2.0000      -0.670661       -18.2496
 130   2.0000      -0.666607       -18.1393
 131   2.0000      -0.661978       -18.0133
 132   2.0000      -0.656650       -17.8683
 133   2.0000      -0.655960       -17.8496
 134   2.0000      -0.646123       -17.5819
 135   2.0000      -0.644909       -17.5489
 136   2.0000      -0.641918       -17.4675
 137   2.0000      -0.635265       -17.2864
 138   2.0000      -0.625364       -17.0170
 139   2.0000      -0.622117       -16.9287
 140   2.0000      -0.618507       -16.8304
 141   2.0000      -0.618105       -16.8195
 142   2.0000      -0.608819       -16.5668
 143   2.0000      -0.608286       -16.5523
 144   2.0000      -0.603650       -16.4261
 145   2.0000      -0.602530       -16.3957
 146   2.0000      -0.601451       -16.3663
 147   2.0000      -0.600615       -16.3436
 148   2.0000      -0.595847       -16.2138
 149   2.0000      -0.590768       -16.0756
 150   2.0000      -0.589262       -16.0346
 151   2.0000      -0.588686       -16.0189
 152   2.0000      -0.583576       -15.8799
 153   2.0000      -0.579710       -15.7747
 154   2.0000      -0.579381       -15.7657
 155   2.0000      -0.572834       -15.5876
 156   2.0000      -0.567804       -15.4507
 157   2.0000      -0.564817       -15.3695
 158   2.0000      -0.564685       -15.3659
 159   2.0000      -0.561096       -15.2682
 160   2.0000      -0.557308       -15.1651
 161   2.0000      -0.553938       -15.0734
 162   2.0000      -0.552327       -15.0296
 163   2.0000      -0.551981       -15.0202
 164   2.0000      -0.550746       -14.9866
 165   2.0000      -0.543975       -14.8023
 166   2.0000      -0.541635       -14.7386
 167   2.0000      -0.539109       -14.6699
 168   2.0000      -0.535616       -14.5748
 169   2.0000      -0.532475       -14.4894
 170   2.0000      -0.531447       -14.4614
 171   2.0000      -0.527563       -14.3557
 172   2.0000      -0.521904       -14.2017
 173   2.0000      -0.517094       -14.0708
 174   2.0000      -0.513439       -13.9714
 175   2.0000      -0.508490       -13.8367
 176   2.0000      -0.506964       -13.7952
 177   2.0000      -0.505188       -13.7469
 178   2.0000      -0.500830       -13.6283
 179   2.0000      -0.497919       -13.5491
 180   2.0000      -0.497271       -13.5314
 181   2.0000      -0.495039       -13.4707
 182   2.0000      -0.492399       -13.3988
 183   2.0000      -0.485286       -13.2053
 184   2.0000      -0.482482       -13.1290
 185   2.0000      -0.481636       -13.1060
 186   2.0000      -0.474757       -12.9188
 187   2.0000      -0.474377       -12.9085
 188   2.0000      -0.469486       -12.7754
 189   2.0000      -0.467117       -12.7109
 190   2.0000      -0.466424       -12.6920
 191   2.0000      -0.465125       -12.6567
 192   2.0000      -0.461496       -12.5579
 193   2.0000      -0.461112       -12.5475
 194   2.0000      -0.459348       -12.4995
 195   2.0000      -0.458537       -12.4774
 196   2.0000      -0.455011       -12.3815
 197   2.0000      -0.453868       -12.3504
 198   2.0000      -0.451452       -12.2846
 199   2.0000      -0.449804       -12.2398
 200   2.0000      -0.449633       -12.2351
 201   2.0000      -0.446223       -12.1423
 202   2.0000      -0.444477       -12.0948
 203   2.0000      -0.440783       -11.9943
 204   2.0000      -0.436643       -11.8817
 205   2.0000      -0.430399       -11.7118
 206   2.0000      -0.428195       -11.6518
 207   2.0000      -0.427627       -11.6363
 208   2.0000      -0.426293       -11.6000
 209   2.0000      -0.416318       -11.3286
 210   2.0000      -0.414202       -11.2710
 211   2.0000      -0.411988       -11.2108
 212   2.0000      -0.407225       -11.0811
 213   2.0000      -0.396077       -10.7778
 214   2.0000      -0.381437       -10.3794
 215   2.0000      -0.369934       -10.0664
 216   2.0000      -0.368011       -10.0141
 217   2.0000      -0.360290        -9.8040
 218   2.0000      -0.355196        -9.6654
 219   2.0000      -0.353596        -9.6218
 220   2.0000      -0.350119        -9.5272
 221   2.0000      -0.344640        -9.3781
 222   2.0000      -0.336003        -9.1431
 223   2.0000      -0.329894        -8.9769
 224   2.0000      -0.322216        -8.7679
 225   2.0000      -0.313377        -8.5274
 226   2.0000      -0.298034        -8.1099
 227   2.0000      -0.295777        -8.0485
 228   2.0000      -0.288206        -7.8425
 229   2.0000      -0.281859        -7.6698
 230   2.0000      -0.277203        -7.5431
 231   0.0000      -0.107989        -2.9385
 232   0.0000      -0.079300        -2.1579
 233   0.0000      -0.076420        -2.0795
 234   0.0000      -0.059566        -1.6209
 235   0.0000      -0.023361        -0.6357

MULLIKEN ATOMIC CHARGES
-----------------------
   0 C :   -0.085946
   1 C :    0.235716
   2 F :   -0.163790
   3 C :    0.232780
   4 F :   -0.170037
   5 C :   -0.100398
   6 C :    0.008281
   7 C :    0.027981
   8 C :    0.256151
   9 C :   -0.321989
  10 C :   -0.183458
  11 N :    0.160974
  12 C :   -0.212502
  13 N :    0.177680
  14 C :   -0.101353
  15 C :    0.145979
  16 O :   -0.153654
  17 C :    0.005919
  18 C :    0.065008
  19 C :    0.071084
  20 F :   -0.149926
  21 S :    0.116721
  22 C :    0.039029
  23 F :   -0.157563
  24 C :    0.070298
  25 C :    0.056021
  26 C :    0.042787
  27 C :   -0.111838
  28 S :   -0.059246
  29 C :    0.039692
  30 C :   -0.237006
  31 C :    0.195355
  32 C :    0.069998
  33 O :   -0.222378
  34 N :   -0.039669
  35 N :   -0.119525
  36 C :    0.141544
  37 C :   -0.018468
  38 F :   -0.161624
  39 S :    0.139690
  40 C :    0.088621
  41 F :   -0.148292
  42 C :    0.034140
  43 C :    0.010715
  44 C :   -0.017333
  45 C :    0.020127
  46 C :   -0.114133
  47 C :    0.138154
  48 O :   -0.134255
  49 C :    0.004536
  50 C :    0.022705
  51 C :   -0.084632
  52 C :    0.235862
  53 C :    0.235738
  54 C :   -0.097887
  55 F :   -0.164129
  56 F :   -0.160441
  57 C :    0.308472
  58 C :   -0.351619
  59 C :   -0.159921
  60 N :    0.154248
  61 C :   -0.194488
  62 N :    0.164837
  63 H :    0.018987
  64 H :    0.009582
  65 H :    0.037520
  66 H :   -0.009289
  67 H :    0.001807
  68 H :    0.048061
  69 H :    0.061505
  70 H :    0.030957
  71 H :    0.025305
  72 H :   -0.011594
  73 H :    0.120461
  74 H :    0.138203
  75 H :    0.135623
  76 H :    0.012933
  77 H :    0.003452
  78 H :    0.021478
  79 H :    0.020026
  80 H :    0.015642
Sum of atomic charges:    0.0000000

LOEWDIN ATOMIC CHARGES
----------------------
   0 C :   -0.020130
   1 C :    0.074892
   2 F :   -0.041959
   3 C :    0.067932
   4 F :   -0.046272
   5 C :   -0.005560
   6 C :   -0.049603
   7 C :   -0.009592
   8 C :    0.065712
   9 C :   -0.132164
  10 C :   -0.020578
  11 N :   -0.046756
  12 C :   -0.020670
  13 N :   -0.042401
  14 C :   -0.096893
  15 C :    0.097511
  16 O :   -0.141367
  17 C :    0.082618
  18 C :   -0.096819
  19 C :   -0.058804
  20 F :   -0.035305
  21 S :    0.437106
  22 C :   -0.079737
  23 F :   -0.048493
  24 C :   -0.068668
  25 C :   -0.026755
  26 C :   -0.020164
  27 C :   -0.109579
  28 S :    0.227252
  29 C :   -0.119808
  30 C :   -0.033535
  31 C :   -0.030421
  32 C :    0.058607
  33 O :   -0.201952
  34 N :    0.019265
  35 N :   -0.026204
  36 C :   -0.035431
  37 C :   -0.134537
  38 F :   -0.045074
  39 S :    0.448941
  40 C :   -0.060290
  41 F :   -0.038677
  42 C :   -0.114532
  43 C :    0.047119
  44 C :   -0.056300
  45 C :    0.077286
  46 C :   -0.104513
  47 C :    0.083019
  48 O :   -0.134222
  49 C :   -0.045732
  50 C :   -0.014790
  51 C :   -0.018576
  52 C :    0.075314
  53 C :    0.072766
  54 C :   -0.003026
  55 F :   -0.040777
  56 F :   -0.039151
  57 C :    0.077699
  58 C :   -0.142320
  59 C :    0.009095
  60 N :   -0.043869
  61 C :   -0.023818
  62 N :   -0.039343
  63 H :    0.051816
  64 H :    0.050940
  65 H :    0.049360
  66 H :    0.023049
  67 H :    0.024064
  68 H :    0.029581
  69 H :    0.030422
  70 H :    0.012464
  71 H :    0.028467
  72 H :    0.026540
  73 H :    0.050447
  74 H :    0.077591
  75 H :    0.070094
  76 H :    0.041940
  77 H :    0.023378
  78 H :    0.046876
  79 H :    0.052094
  80 H :    0.053913

  Mayer bond orders larger than 0.100000
B(  0-C ,  1-C ) :   1.3376 B(  0-C ,  5-C ) :   0.1047 B(  0-C ,  7-C ) :   1.3182
B(  0-C , 63-H ) :   0.9937 B(  1-C ,  2-F ) :   1.1429 B(  1-C ,  3-C ) :   1.2892
B(  3-C ,  4-F ) :   1.1294 B(  3-C ,  5-C ) :   1.3242 B(  5-C ,  6-C ) :   1.3185
B(  5-C , 64-H ) :   1.0187 B(  6-C ,  7-C ) :   1.3412 B(  6-C , 15-C ) :   0.9396
B(  7-C ,  8-C ) :   1.0144 B(  8-C ,  9-C ) :   1.6772 B(  8-C , 14-C ) :   1.0205
B(  9-C , 10-C ) :   1.1226 B(  9-C , 12-C ) :   1.1686 B( 10-C , 11-N ) :   3.0001
B( 12-C , 13-N ) :   3.0164 B( 14-C , 15-C ) :   0.9530 B( 14-C , 17-C ) :   1.6929
B( 15-C , 16-O ) :   2.1937 B( 17-C , 18-C ) :   1.0786 B( 17-C , 65-H ) :   0.8998
B( 18-C , 19-C ) :   1.4140 B( 18-C , 24-C ) :   1.1647 B( 19-C , 20-F ) :   1.1179
B( 19-C , 21-S ) :   1.1550 B( 21-S , 22-C ) :   1.0834 B( 22-C , 23-F ) :   1.1336
B( 22-C , 24-C ) :   1.5116 B( 24-C , 25-C ) :   1.0622 B( 25-C , 26-C ) :   1.9060
B( 25-C , 66-H ) :   0.9162 B( 26-C , 27-C ) :   0.9775 B( 26-C , 67-H ) :   0.9645
B( 27-C , 28-S ) :   0.9836 B( 27-C , 31-C ) :   1.0450 B( 27-C , 68-H ) :   0.9156
B( 28-S , 29-C ) :   1.0191 B( 29-C , 30-C ) :   1.0186 B( 29-C , 69-H ) :   0.9358
B( 29-C , 70-H ) :   0.9395 B( 30-C , 31-C ) :   1.0347 B( 30-C , 32-C ) :   0.8411
B( 30-C , 35-N ) :   0.9980 B( 31-C , 71-H ) :   0.9223 B( 31-C , 72-H ) :   0.9095
B( 32-C , 33-O ) :   1.9997 B( 32-C , 34-N ) :   1.3712 B( 33-O , 65-H ) :   0.1334
B( 34-N , 73-H ) :   0.8945 B( 34-N , 74-H ) :   0.9194 B( 35-N , 36-C ) :   1.1442
B( 35-N , 75-H ) :   0.8876 B( 36-C , 37-C ) :   1.4747 B( 36-C , 42-C ) :   1.1516
B( 37-C , 38-F ) :   1.0690 B( 37-C , 39-S ) :   1.0748 B( 39-S , 40-C ) :   1.1812
B( 40-C , 41-F ) :   1.1375 B( 40-C , 42-C ) :   1.3927 B( 42-C , 43-C ) :   1.1181
B( 43-C , 44-C ) :   1.6257 B( 43-C , 76-H ) :   0.9756 B( 44-C , 45-C ) :   1.1485
B( 44-C , 77-H ) :   0.9432 B( 45-C , 46-C ) :   1.5959 B( 45-C , 78-H ) :   0.9534
B( 46-C , 47-C ) :   0.9434 B( 46-C , 57-C ) :   1.0450 B( 47-C , 48-O ) :   2.2680
B( 47-C , 49-C ) :   0.9340 B( 49-C , 50-C ) :   1.3403 B( 49-C , 54-C ) :   1.3235
B( 50-C , 51-C ) :   1.3139 B( 50-C , 57-C ) :   1.0171 B( 51-C , 52-C ) :   1.3408
B( 51-C , 54-C ) :   0.1037 B( 51-C , 79-H ) :   0.9901 B( 52-C , 53-C ) :   1.2884
B( 52-C , 56-F ) :   1.1491 B( 53-C , 54-C ) :   1.3193 B( 53-C , 55-F ) :   1.1350
B( 54-C , 80-H ) :   1.0197 B( 57-C , 58-C ) :   1.6204 B( 58-C , 59-C ) :   1.1867
B( 58-C , 61-C ) :   1.1197 B( 59-C , 60-N ) :   2.8972 B( 60-N , 73-H ) :   0.1180
B( 61-C , 62-N ) :   2.9918

-----------------------------------------------------------------------------
         ABSORPTION SPECTRUM VIA TRANSITION ELECTRIC DIPOLE MOMENTS
-----------------------------------------------------------------------------
State   Energy  Wavelength   fosc         T2         TX        TY        TZ
        (cm-1)    (nm)                  (au**2)     (au)      (au)      (au)
-----------------------------------------------------------------------------
   0   21427.3    466.7   0.015583111   0.23942  -0.31768  -0.18211  -0.32456
   1   23097.6    432.9   0.140779280   2.00653   0.41995  -1.18638   0.65013
   2   23414.6    427.1   0.494701821   6.95557   0.68373  -2.27912   1.13742
   3   24800.6    403.2   0.032175713   0.42711  -0.08751   0.49146   0.42180
   4   25973.1    385.0   0.000843751   0.01069   0.05374  -0.05606   0.06829
   5   27310.7    366.2   0.243386579   2.93386  -0.92174   1.22389   0.76573
   6   29401.0    340.1   0.072653990   0.81353  -0.14484   0.76907  -0.44843
   7   30000.5    333.3   0.009533164   0.10461   0.01620  -0.27122  -0.17547
   8   30480.6    328.1   0.039173782   0.42311   0.04686  -0.49550  -0.41879
   9   30598.8    326.8   0.040081466   0.43124   0.51144  -0.28407   0.29827
  10   30845.1    324.2   0.050261896   0.53645  -0.54549   0.28589  -0.39644
  11   30905.0    323.6   0.114458533   1.21926   0.65708  -0.77111   0.43919
  12   31475.9    317.7   0.006134158   0.06416  -0.10006  -0.23147  -0.02380
  13   31553.8    316.9   0.272372201   2.84175   1.36645  -0.70124   0.69485
  14   31593.5    316.5   0.020274200   0.21126   0.19536  -0.39754   0.12271
  15   31729.5    315.2   0.013939001   0.14463   0.32172  -0.08447   0.18436
  16   31774.5    314.7   0.004089995   0.04238  -0.14664  -0.14371  -0.01478
  17   32048.2    312.0   0.284336837   2.92082  -1.32718   0.48659  -0.96055
  18   32114.7    311.4   0.184151419   1.88776  -0.86884   1.04252   0.21452
  19   33141.1    301.7   0.163909852   1.62822  -0.15371  -0.03185   1.26633
  20   33657.5    297.1   0.000682850   0.00668   0.07027  -0.00995  -0.04052
  21   33876.1    295.2   0.057186667   0.55575   0.44009  -0.21739  -0.56108
  22   34235.4    292.1   0.000319263   0.00307  -0.05375   0.01322   0.00254
  23   34300.5    291.5   0.168000221   1.61244   0.32716  -0.01096  -1.22690
  24   34770.5    287.6   0.008919286   0.08445   0.00277   0.07257  -0.28138
  25   35609.3    280.8   0.029161895   0.26960  -0.23525   0.21114   0.41192
  26   35772.0    279.5   0.120820362   1.11192   0.96297  -0.21323   0.37302
  27   35853.4    278.9   0.193094394   1.77302  -1.18343   0.35065  -0.49956
  28   36727.3    272.3   0.512580300   4.59460  -0.11770   0.41084  -2.10047
  29   36850.4    271.4   0.189728243   1.69498   0.02534  -0.15052   1.29294
  30   37054.9    269.9   0.294091907   2.61284   1.58602   0.15083   0.27318
  31   38244.3    261.5   0.005962338   0.05132  -0.12389   0.14782  -0.11884
  32   38871.2    257.3   0.000261958   0.00222  -0.02121   0.03623  -0.02136
  33   38893.8    257.1   0.009102773   0.07705  -0.24497   0.05146  -0.11996
  34   39148.9    255.4   0.016438210   0.13823   0.32147  -0.08822   0.16464
  35   39692.4    251.9   0.102406256   0.84936   0.44408   0.80591  -0.05168
  36   39937.1    250.4   0.000050255   0.00041   0.01305   0.00031  -0.01562
  37   40032.7    249.8   0.003823004   0.03144   0.11504   0.13408   0.01509

FINAL SINGLE POINT ENERGY     -4192.794719075478

DIPOLE MOMENT
-------------
                                X             Y             Z
Electronic contribution:     25.43635      -5.34410      -6.84200
Nuclear contribution   :    -28.31958       5.05341       5.69999
                        -----------------------------------------
Total Dipole Moment    :     -2.88323      -0.29069      -1.14201
                        -----------------------------------------
Magnitude (a.u.)       :      3.11475
Magnitude (Debye)      :      7.91707

Rotational constants in cm-1:     0.001870     0.000520     0.000481
Rotational constants in MHz :    56.067057    15.604128    14.416783

                             ****ORCA TERMINATED NORMALLY****
TOTAL RUN TIME: 0 days 0 hours 11 minutes 21 seconds 344 msec
