                         Program Version 4.2.0 -  RELEASE  -
|  1> # ORCA input file
|  2> # SCF done       -135.033199060629          0.000543184617
|  3> ! CAM-B3LYP def2-SVP def2/J RIJCOSX Grid4 TightSCF
|  4> %maxcore 5000
|  5> %tddft
|  6>     Mode sTDDFT
|  7>     Ethresh 5.0
|  8>     maxcore 5000
|  9> end
| 10>
| 11> %pal
| 12>   nprocs 6
| 13>   end
| 14> * xyz 0 1
| 15>    C        4.10299        -1.25056         1.77023
| 16>    C        4.33440         0.05438         1.60921
| 17>    C        5.05569         0.60045         0.49970
| 18>    C        5.28581         1.92328         0.32582
| 19>    C        5.99544         2.45821        -0.77875
| 20>    C        6.21389         3.78845        -0.96045
| 21>    C        6.91047         4.35950        -2.05258
| 22>    C        7.51430         3.73225        -3.12520
| 23>    C        8.08506         4.71057        -3.97920
| 24>    C        7.78516         5.99620        -3.34548
| 25>    C        7.09643         5.80351        -2.21063
| 26>    F        8.16170         7.18073        -3.85294
| 27>    C        8.77817         4.52037        -5.15969
| 28>    C        9.34150         5.49309        -6.02141
| 29>    C        9.94905         4.86330        -7.09431
| 30>    C        9.77507         3.41938        -6.92466
| 31>    C        9.08656         3.23437        -5.78807
| 32>    F        8.72146         2.04824        -5.27700
| 33>    C       10.61293         5.51013        -8.15524
| 34>    C       11.21810         4.88094        -9.20381
| 35>    C       11.88193         5.52954       -10.26520
| 36>    N       12.47826         4.80130       -11.27825
| 37>    C       13.04148         5.66309       -12.16383
| 38>    C       13.76337         5.74532       -13.34289
| 39>    C       13.94937         7.11796       -13.59349
| 40>    N       13.35034         7.84577       -12.58220
| 41>    C       12.78964         6.98432       -11.69510
| 42>    C       12.06989         6.90147       -10.51416
| 43>    C       14.60845         7.76524       -14.65754
| 44>    C       15.24695         7.13465       -15.68609
| 45>    C       15.89924         7.78781       -16.75166
| 46>    C       16.01776         9.14391       -17.01049
| 47>    C       16.76511         9.33047       -18.19739
| 48>    C       17.10283         7.98123       -18.65582
| 49>    C       16.59634         7.06561       -17.81637
| 50>    F       17.81482         7.72753       -19.76498
| 51>    C       17.11512        10.51821       -18.81552
| 52>    C       17.88289        10.70525       -19.99044
| 53>    C       17.99521        12.05957       -20.25310
| 54>    C       17.26530        12.78198       -19.20973
| 55>    C       16.75723        11.86665       -18.37110
| 56>    F       16.01929        12.11849       -17.27701
| 57>    C       18.67776        12.70964       -21.30452
| 58>    C       19.39312        12.08440       -22.28329
| 59>    C       20.07464        12.77014       -23.31177
| 60>    C       20.80364        12.14793       -24.27798
| 61>    C       21.49874        12.82989       -25.30841
| 62>    C       22.23145        12.20783       -26.26157
| 63>    C       22.93648        12.89569       -27.30077
| 64>    C       23.66146        12.27942       -28.23695
| 65>    H        3.55753        -1.63388         2.61470
| 66>    H        4.45757        -1.97574         1.05636
| 67>    H        3.96749         0.76180         2.34221
| 68>    H        5.42826        -0.10270        -0.23392
| 69>    H        4.91077         2.62525         1.06078
| 70>    H        6.37240         1.75546        -1.50826
| 71>    H        5.82730         4.48123        -0.22254
| 72>    H        7.55506         2.67620        -3.30123
| 73>    H        6.73544         6.54916        -1.52895
| 74>    H        9.30109         6.55291        -5.86404
| 75>    H       10.13181         2.65679        -7.58833
| 76>    H       10.63275         6.59028        -8.11251
| 77>    H       11.20272         3.80009        -9.24581
| 78>    H       12.48363         3.79721       -11.32847
| 79>    H       14.11675         4.94377       -13.95855
| 80>    H       13.34602         8.85002       -12.53317
| 81>    H       11.71542         7.70234        -9.89834
| 82>    H       14.59893         8.84666       -14.63904
| 83>    H       15.26733         6.05368       -15.70008
| 84>    H       15.61421         9.94028       -16.41807
| 85>    H       16.67489         5.99793       -17.88723
| 86>    H       18.30613         9.91081       -20.57130
| 87>    H       17.17190        13.84903       -19.14969
| 88>    H       18.62530        13.79183       -21.31690
| 89>    H       19.45657        11.00526       -22.28189
| 90>    H       20.00994        13.85140       -23.31846
| 91>    H       20.86878        11.06730       -24.26963
| 92>    H       21.43069        13.91082       -25.31768
| 93>    H       22.30270        11.12775       -26.25554
| 94>    H       22.86043        13.97578       -27.30183
| 95>    H       23.75592        11.20624       -28.25837
| 96>    H       24.18255        12.82329       -29.00527
| 97> *
| 98>
| 99>                          ****END OF INPUT****

CARTESIAN COORDINATES (ANGSTROEM)
---------------------------------
  C      4.102990   -1.250560    1.770230
  C      4.334400    0.054380    1.609210
  C      5.055690    0.600450    0.499700
  C      5.285810    1.923280    0.325820
  C      5.995440    2.458210   -0.778750
  C      6.213890    3.788450   -0.960450
  C      6.910470    4.359500   -2.052580
  C      7.514300    3.732250   -3.125200
  C      8.085060    4.710570   -3.979200
  C      7.785160    5.996200   -3.345480
  C      7.096430    5.803510   -2.210630
  F      8.161700    7.180730   -3.852940
  C      8.778170    4.520370   -5.159690
  C      9.341500    5.493090   -6.021410
  C      9.949050    4.863300   -7.094310
  C      9.775070    3.419380   -6.924660
  C      9.086560    3.234370   -5.788070
  F      8.721460    2.048240   -5.277000
  C     10.612930    5.510130   -8.155240
  C     11.218100    4.880940   -9.203810
  C     11.881930    5.529540  -10.265200
  N     12.478260    4.801300  -11.278250
  C     13.041480    5.663090  -12.163830
  C     13.763370    5.745320  -13.342890
  C     13.949370    7.117960  -13.593490
  N     13.350340    7.845770  -12.582200
  C     12.789640    6.984320  -11.695100
  C     12.069890    6.901470  -10.514160
  C     14.608450    7.765240  -14.657540
  C     15.246950    7.134650  -15.686090
  C     15.899240    7.787810  -16.751660
  C     16.017760    9.143910  -17.010490
  C     16.765110    9.330470  -18.197390
  C     17.102830    7.981230  -18.655820
  C     16.596340    7.065610  -17.816370
  F     17.814820    7.727530  -19.764980
  C     17.115120   10.518210  -18.815520
  C     17.882890   10.705250  -19.990440
  C     17.995210   12.059570  -20.253100
  C     17.265300   12.781980  -19.209730
  C     16.757230   11.866650  -18.371100
  F     16.019290   12.118490  -17.277010
  C     18.677760   12.709640  -21.304520
  C     19.393120   12.084400  -22.283290
  C     20.074640   12.770140  -23.311770
  C     20.803640   12.147930  -24.277980
  C     21.498740   12.829890  -25.308410
  C     22.231450   12.207830  -26.261570
  C     22.936480   12.895690  -27.300770
  C     23.661460   12.279420  -28.236950
  H      3.557530   -1.633880    2.614700
  H      4.457570   -1.975740    1.056360
  H      3.967490    0.761800    2.342210
  H      5.428260   -0.102700   -0.233920
  H      4.910770    2.625250    1.060780
  H      6.372400    1.755460   -1.508260
  H      5.827300    4.481230   -0.222540
  H      7.555060    2.676200   -3.301230
  H      6.735440    6.549160   -1.528950
  H      9.301090    6.552910   -5.864040
  H     10.131810    2.656790   -7.588330
  H     10.632750    6.590280   -8.112510
  H     11.202720    3.800090   -9.245810
  H     12.483630    3.797210  -11.328470
  H     14.116750    4.943770  -13.958550
  H     13.346020    8.850020  -12.533170
  H     11.715420    7.702340   -9.898340
  H     14.598930    8.846660  -14.639040
  H     15.267330    6.053680  -15.700080
  H     15.614210    9.940280  -16.418070
  H     16.674890    5.997930  -17.887230
  H     18.306130    9.910810  -20.571300
  H     17.171900   13.849030  -19.149690
  H     18.625300   13.791830  -21.316900
  H     19.456570   11.005260  -22.281890
  H     20.009940   13.851400  -23.318460
  H     20.868780   11.067300  -24.269630
  H     21.430690   13.910820  -25.317680
  H     22.302700   11.127750  -26.255540
  H     22.860430   13.975780  -27.301830
  H     23.755920   11.206240  -28.258370
  H     24.182550   12.823290  -29.005270

 Total Charge           Charge          ....    0
 Multiplicity           Mult            ....    1
 Number of Electrons    NEL             ....  346
 Basis Dimension        Dim             ....  860

ORBITAL ENERGIES
----------------

  NO   OCC          E(Eh)            E(eV)
   0   2.0000     -24.780212      -674.3039
   1   2.0000     -24.776539      -674.2039
   2   2.0000     -24.775377      -674.1723
   3   2.0000     -24.774794      -674.1564
   4   2.0000     -14.460934      -393.5020
   5   2.0000     -14.460526      -393.4909
   6   2.0000     -10.345642      -281.5192
   7   2.0000     -10.341043      -281.3941
   8   2.0000     -10.339456      -281.3509
   9   2.0000     -10.337982      -281.3108
  10   2.0000     -10.310070      -280.5513
  11   2.0000     -10.309320      -280.5309
  12   2.0000     -10.298653      -280.2406
  13   2.0000     -10.298216      -280.2287
  14   2.0000     -10.290206      -280.0107
  15   2.0000     -10.287677      -279.9419
  16   2.0000     -10.287269      -279.9308
  17   2.0000     -10.285705      -279.8883
  18   2.0000     -10.284974      -279.8684
  19   2.0000     -10.284236      -279.8483
  20   2.0000     -10.278491      -279.6919
  21   2.0000     -10.275479      -279.6100
  22   2.0000     -10.274912      -279.5946
  23   2.0000     -10.272940      -279.5409
  24   2.0000     -10.272160      -279.5197
  25   2.0000     -10.272091      -279.5178
  26   2.0000     -10.271137      -279.4918
  27   2.0000     -10.271080      -279.4903
  28   2.0000     -10.271044      -279.4893
  29   2.0000     -10.270718      -279.4805
  30   2.0000     -10.269533      -279.4482
  31   2.0000     -10.269327      -279.4426
  32   2.0000     -10.269225      -279.4398
  33   2.0000     -10.269085      -279.4360
  34   2.0000     -10.268930      -279.4318
  35   2.0000     -10.268550      -279.4215
  36   2.0000     -10.268217      -279.4124
  37   2.0000     -10.267926      -279.4045
  38   2.0000     -10.267802      -279.4011
  39   2.0000     -10.267437      -279.3912
  40   2.0000     -10.263664      -279.2885
  41   2.0000     -10.262303      -279.2515
  42   2.0000     -10.260950      -279.2146
  43   2.0000     -10.258710      -279.1537
  44   2.0000     -10.257749      -279.1275
  45   2.0000     -10.256243      -279.0866
  46   2.0000     -10.249283      -278.8972
  47   2.0000     -10.246168      -278.8124
  48   2.0000     -10.244128      -278.7569
  49   2.0000     -10.244097      -278.7560
  50   2.0000      -1.291348       -35.1394
  51   2.0000      -1.287585       -35.0370
  52   2.0000      -1.286341       -35.0031
  53   2.0000      -1.285439       -34.9786
  54   2.0000      -1.092723       -29.7345
  55   2.0000      -1.056165       -28.7397
  56   2.0000      -0.974721       -26.5235
  57   2.0000      -0.971718       -26.4418
  58   2.0000      -0.956294       -26.0221
  59   2.0000      -0.953739       -25.9526
  60   2.0000      -0.914006       -24.8714
  61   2.0000      -0.909617       -24.7519
  62   2.0000      -0.900694       -24.5091
  63   2.0000      -0.896655       -24.3992
  64   2.0000      -0.889841       -24.2138
  65   2.0000      -0.874670       -23.8010
  66   2.0000      -0.867440       -23.6042
  67   2.0000      -0.863947       -23.5092
  68   2.0000      -0.856084       -23.2952
  69   2.0000      -0.840141       -22.8614
  70   2.0000      -0.832763       -22.6606
  71   2.0000      -0.816413       -22.2157
  72   2.0000      -0.809801       -22.0358
  73   2.0000      -0.804986       -21.9048
  74   2.0000      -0.792126       -21.5548
  75   2.0000      -0.779019       -21.1982
  76   2.0000      -0.775926       -21.1140
  77   2.0000      -0.761914       -20.7327
  78   2.0000      -0.757677       -20.6174
  79   2.0000      -0.739647       -20.1268
  80   2.0000      -0.724963       -19.7272
  81   2.0000      -0.707113       -19.2415
  82   2.0000      -0.701154       -19.0794
  83   2.0000      -0.697129       -18.9698
  84   2.0000      -0.685435       -18.6516
  85   2.0000      -0.681237       -18.5374
  86   2.0000      -0.667709       -18.1693
  87   2.0000      -0.663517       -18.0552
  88   2.0000      -0.655322       -17.8322
  89   2.0000      -0.652145       -17.7458
  90   2.0000      -0.647612       -17.6224
  91   2.0000      -0.645533       -17.5659
  92   2.0000      -0.641856       -17.4658
  93   2.0000      -0.641431       -17.4542
  94   2.0000      -0.636720       -17.3260
  95   2.0000      -0.625842       -17.0300
  96   2.0000      -0.622377       -16.9357
  97   2.0000      -0.620484       -16.8842
  98   2.0000      -0.612688       -16.6721
  99   2.0000      -0.611764       -16.6469
 100   2.0000      -0.608842       -16.5674
 101   2.0000      -0.600483       -16.3400
 102   2.0000      -0.592204       -16.1147
 103   2.0000      -0.570597       -15.5267
 104   2.0000      -0.568790       -15.4776
 105   2.0000      -0.563331       -15.3290
 106   2.0000      -0.558710       -15.2033
 107   2.0000      -0.555564       -15.1177
 108   2.0000      -0.548540       -14.9265
 109   2.0000      -0.547536       -14.8992
 110   2.0000      -0.545667       -14.8484
 111   2.0000      -0.541015       -14.7218
 112   2.0000      -0.540271       -14.7015
 113   2.0000      -0.540157       -14.6984
 114   2.0000      -0.538735       -14.6597
 115   2.0000      -0.537490       -14.6258
 116   2.0000      -0.536456       -14.5977
 117   2.0000      -0.535527       -14.5724
 118   2.0000      -0.532012       -14.4768
 119   2.0000      -0.525532       -14.3004
 120   2.0000      -0.522858       -14.2277
 121   2.0000      -0.518143       -14.0994
 122   2.0000      -0.508149       -13.8274
 123   2.0000      -0.506862       -13.7924
 124   2.0000      -0.504266       -13.7218
 125   2.0000      -0.499945       -13.6042
 126   2.0000      -0.495148       -13.4737
 127   2.0000      -0.492770       -13.4089
 128   2.0000      -0.484347       -13.1797
 129   2.0000      -0.481262       -13.0958
 130   2.0000      -0.478270       -13.0144
 131   2.0000      -0.474136       -12.9019
 132   2.0000      -0.466145       -12.6845
 133   2.0000      -0.464731       -12.6460
 134   2.0000      -0.462292       -12.5796
 135   2.0000      -0.460855       -12.5405
 136   2.0000      -0.458632       -12.4800
 137   2.0000      -0.458150       -12.4669
 138   2.0000      -0.455879       -12.4051
 139   2.0000      -0.451047       -12.2736
 140   2.0000      -0.447235       -12.1699
 141   2.0000      -0.446407       -12.1474
 142   2.0000      -0.443705       -12.0738
 143   2.0000      -0.441682       -12.0188
 144   2.0000      -0.441349       -12.0097
 145   2.0000      -0.439369       -11.9558
 146   2.0000      -0.434213       -11.8155
 147   2.0000      -0.429759       -11.6943
 148   2.0000      -0.427064       -11.6210
 149   2.0000      -0.425103       -11.5676
 150   2.0000      -0.424989       -11.5645
 151   2.0000      -0.421284       -11.4637
 152   2.0000      -0.420007       -11.4290
 153   2.0000      -0.419048       -11.4029
 154   2.0000      -0.418000       -11.3743
 155   2.0000      -0.401961       -10.9379
 156   2.0000      -0.399233       -10.8637
 157   2.0000      -0.395082       -10.7507
 158   2.0000      -0.387655       -10.5486
 159   2.0000      -0.380612       -10.3570
 160   2.0000      -0.365383        -9.9426
 161   2.0000      -0.347371        -9.4524
 162   2.0000      -0.334127        -9.0921
 163   2.0000      -0.311657        -8.4806
 164   2.0000      -0.300700        -8.1825
 165   2.0000      -0.293980        -7.9996
 166   2.0000      -0.288379        -7.8472
 167   2.0000      -0.282439        -7.6855
 168   2.0000      -0.278913        -7.5896
 169   2.0000      -0.262703        -7.1485
 170   2.0000      -0.243543        -6.6271
 171   2.0000      -0.229547        -6.2463
 172   2.0000      -0.202442        -5.5087
 173   0.0000      -0.102803        -2.7974
 174   0.0000      -0.086587        -2.3562
 175   0.0000      -0.029157        -0.7934
 176   0.0000      -0.016501        -0.4490
 177   0.0000      -0.003897        -0.1060

MULLIKEN ATOMIC CHARGES
-----------------------
   0 C :   -0.015188
   1 C :    0.004810
   2 C :    0.010608
   3 C :    0.019849
   4 C :    0.036640
   5 C :   -0.009307
   6 C :    0.111932
   7 C :   -0.098863
   8 C :    0.010725
   9 C :    0.250743
  10 C :   -0.083951
  11 F :   -0.184425
  12 C :    0.018056
  13 C :   -0.103169
  14 C :    0.124110
  15 C :   -0.085989
  16 C :    0.252667
  17 F :   -0.180632
  18 C :   -0.016466
  19 C :    0.007031
  20 C :    0.109399
  21 N :   -0.036753
  22 C :    0.124994
  23 C :   -0.171690
  24 C :    0.109175
  25 N :   -0.035227
  26 C :    0.125425
  27 C :   -0.171142
  28 C :    0.023350
  29 C :   -0.025338
  30 C :    0.120530
  31 C :   -0.107097
  32 C :    0.015190
  33 C :    0.255021
  34 C :   -0.088548
  35 F :   -0.181895
  36 C :    0.008370
  37 C :   -0.094593
  38 C :    0.110936
  39 C :   -0.086573
  40 C :    0.252047
  41 F :   -0.186091
  42 C :   -0.013614
  43 C :    0.036065
  44 C :    0.017803
  45 C :    0.018365
  46 C :    0.017155
  47 C :    0.009998
  48 C :    0.002761
  49 C :   -0.016806
  50 H :    0.023134
  51 H :    0.015355
  52 H :   -0.008007
  53 H :   -0.012773
  54 H :   -0.014498
  55 H :   -0.007457
  56 H :   -0.026453
  57 H :   -0.023751
  58 H :   -0.025012
  59 H :   -0.021819
  60 H :   -0.027275
  61 H :   -0.020934
  62 H :   -0.032416
  63 H :    0.121931
  64 H :   -0.031975
  65 H :    0.123764
  66 H :   -0.030238
  67 H :   -0.025294
  68 H :   -0.027523
  69 H :   -0.029072
  70 H :   -0.025017
  71 H :   -0.025179
  72 H :   -0.025097
  73 H :   -0.025873
  74 H :   -0.006468
  75 H :   -0.014207
  76 H :   -0.011329
  77 H :   -0.013859
  78 H :   -0.013124
  79 H :   -0.007607
  80 H :    0.015273
  81 H :    0.022401
Sum of atomic charges:   -0.0000000

LOEWDIN ATOMIC CHARGES
----------------------
   0 C :   -0.039906
   1 C :   -0.027999
   2 C :   -0.015826
   3 C :   -0.026037
   4 C :    0.002804
   5 C :   -0.027729
   6 C :   -0.006701
   7 C :   -0.066932
   8 C :   -0.006103
   9 C :    0.077153
  10 C :   -0.062648
  11 F :   -0.059755
  12 C :   -0.004085
  13 C :   -0.068361
  14 C :   -0.002229
  15 C :   -0.065913
  16 C :    0.084972
  17 F :   -0.057360
  18 C :   -0.018699
  19 C :   -0.026362
  20 C :    0.003109
  21 N :    0.069028
  22 C :   -0.013471
  23 C :   -0.086589
  24 C :    0.002243
  25 N :    0.070687
  26 C :   -0.012329
  27 C :   -0.086977
  28 C :   -0.008652
  29 C :   -0.030278
  30 C :   -0.002293
  31 C :   -0.078598
  32 C :   -0.001872
  33 C :    0.081071
  34 C :   -0.064117
  35 F :   -0.058210
  36 C :   -0.008155
  37 C :   -0.066701
  38 C :   -0.008145
  39 C :   -0.063804
  40 C :    0.077071
  41 F :   -0.062025
  42 C :   -0.027583
  43 C :    0.001299
  44 C :   -0.026231
  45 C :   -0.016426
  46 C :   -0.027468
  47 C :   -0.018166
  48 C :   -0.028058
  49 C :   -0.042394
  50 H :    0.024624
  51 H :    0.022143
  52 H :    0.028698
  53 H :    0.027470
  54 H :    0.027525
  55 H :    0.030164
  56 H :    0.026992
  57 H :    0.017601
  58 H :    0.027173
  59 H :    0.021004
  60 H :    0.024618
  61 H :    0.031623
  62 H :    0.026212
  63 H :    0.089510
  64 H :    0.024722
  65 H :    0.090700
  66 H :    0.025493
  67 H :    0.030532
  68 H :    0.026828
  69 H :    0.015240
  70 H :    0.026877
  71 H :    0.017336
  72 H :    0.026826
  73 H :    0.026912
  74 H :    0.030383
  75 H :    0.027326
  76 H :    0.028215
  77 H :    0.027325
  78 H :    0.027024
  79 H :    0.028532
  80 H :    0.021830
  81 H :    0.024295

  Mayer bond orders larger than 0.100000
B(  0-C ,  1-C ) :   1.8938 B(  0-C , 50-H ) :   0.9526 B(  0-C , 51-H ) :   0.9590
B(  1-C ,  2-C ) :   1.1105 B(  1-C , 52-H ) :   0.9739 B(  2-C ,  3-C ) :   1.6596
B(  2-C , 53-H ) :   0.9789 B(  3-C ,  4-C ) :   1.1381 B(  3-C , 54-H ) :   0.9865
B(  4-C ,  5-C ) :   1.6287 B(  4-C , 55-H ) :   0.9811 B(  5-C ,  6-C ) :   1.1165
B(  5-C , 56-H ) :   0.9809 B(  6-C ,  7-C ) :   1.5217 B(  6-C , 10-C ) :   1.0149
B(  7-C ,  8-C ) :   1.1565 B(  7-C , 57-H ) :   1.0103 B(  8-C ,  9-C ) :   1.0220
B(  8-C , 12-C ) :   1.4167 B(  9-C , 10-C ) :   1.6521 B(  9-C , 11-F ) :   1.1155
B( 10-C , 58-H ) :   1.0205 B( 12-C , 13-C ) :   1.1506 B( 12-C , 16-C ) :   1.0217
B( 13-C , 14-C ) :   1.4663 B( 13-C , 59-H ) :   1.0251 B( 14-C , 15-C ) :   1.0145
B( 14-C , 18-C ) :   1.1732 B( 15-C , 16-C ) :   1.6700 B( 15-C , 60-H ) :   1.0111
B( 16-C , 17-F ) :   1.1187 B( 18-C , 19-C ) :   1.5808 B( 18-C , 61-H ) :   0.9826
B( 19-C , 20-C ) :   1.1328 B( 19-C , 62-H ) :   0.9659 B( 20-C , 21-N ) :   1.1651
B( 20-C , 27-C ) :   1.3736 B( 21-N , 22-C ) :   1.1675 B( 21-N , 63-H ) :   0.9369
B( 22-C , 23-C ) :   1.2835 B( 22-C , 26-C ) :   1.2805 B( 23-C , 24-C ) :   1.3640
B( 23-C , 64-H ) :   1.0330 B( 24-C , 25-N ) :   1.1645 B( 24-C , 28-C ) :   1.1425
B( 25-N , 26-C ) :   1.1704 B( 25-N , 65-H ) :   0.9364 B( 26-C , 27-C ) :   1.2793
B( 27-C , 66-H ) :   1.0331 B( 28-C , 29-C ) :   1.5936 B( 28-C , 67-H ) :   0.9680
B( 29-C , 30-C ) :   1.1580 B( 29-C , 68-H ) :   0.9791 B( 30-C , 31-C ) :   1.4853
B( 30-C , 34-C ) :   1.0106 B( 31-C , 32-C ) :   1.1800 B( 31-C , 69-H ) :   1.0093
B( 32-C , 33-C ) :   1.0169 B( 32-C , 36-C ) :   1.4014 B( 33-C , 34-C ) :   1.6546
B( 33-C , 35-F ) :   1.1158 B( 34-C , 70-H ) :   1.0217 B( 36-C , 37-C ) :   1.1688
B( 36-C , 40-C ) :   1.0229 B( 37-C , 38-C ) :   1.5070 B( 37-C , 71-H ) :   1.0096
B( 38-C , 39-C ) :   1.0164 B( 38-C , 42-C ) :   1.1263 B( 39-C , 40-C ) :   1.6506
B( 39-C , 72-H ) :   1.0210 B( 40-C , 41-F ) :   1.1100 B( 42-C , 43-C ) :   1.6039
B( 42-C , 73-H ) :   0.9814 B( 43-C , 44-C ) :   1.1529 B( 43-C , 74-H ) :   0.9827
B( 44-C , 45-C ) :   1.6099 B( 44-C , 75-H ) :   0.9887 B( 45-C , 46-C ) :   1.1274
B( 45-C , 76-H ) :   0.9851 B( 46-C , 47-C ) :   1.6733 B( 46-C , 77-H ) :   0.9833
B( 47-C , 48-C ) :   1.1099 B( 47-C , 78-H ) :   0.9792 B( 48-C , 49-C ) :   1.8960
B( 48-C , 79-H ) :   0.9738 B( 49-C , 80-H ) :   0.9587 B( 49-C , 81-H ) :   0.9524

-----------------------------------------------------------------------------
         ABSORPTION SPECTRUM VIA TRANSITION ELECTRIC DIPOLE MOMENTS
-----------------------------------------------------------------------------
State   Energy  Wavelength   fosc         T2         TX        TY        TZ
        (cm-1)    (nm)                  (au**2)     (au)      (au)      (au)
-----------------------------------------------------------------------------
   0    9303.0   1074.9   2.433952378  86.13247   4.59850   3.27789  -7.36489
   1   13006.0    768.9   0.071376830   1.80671   0.65188  -0.38482  -1.11071
   2   14825.0    674.5   0.011099162   0.24647  -0.29189  -0.11177   0.38573
   3   15701.3    636.9   0.015960828   0.33465   0.28106   0.34434  -0.37025
   4   18896.7    529.2   0.072176622   1.25744  -0.59130  -0.11490   0.94583
   5   20337.6    491.7   0.516304138   8.35761   1.44539   0.97307  -2.30686
   6   22988.9    435.0   0.183023937   2.62099  -0.88501  -0.47540   1.26954
   7   23978.5    417.0   0.229197316   3.14676  -0.89565  -0.66350   1.37998
   8   24625.9    406.1   0.258035768   3.44956  -0.95273  -0.59448   1.47934
   9   26183.0    381.9   0.063413440   0.79733   0.38551   0.52759  -0.60857
  10   27062.9    369.5   0.188413838   2.29200  -0.90830  -0.28763   1.17655
  11   27788.6    359.9   0.240176564   2.84538   0.85872   0.28213  -1.42421
  12   28155.8    355.2   0.030860626   0.36084   0.21217   0.49587  -0.26445
  13   29192.2    342.6   0.031858761   0.35928  -0.28569  -0.14178   0.50751
  14   29722.9    336.4   0.646845985   7.16448   1.48917  -0.05277  -2.22353
  15   30761.0    325.1   0.179788591   1.92415   0.68156   0.64178  -1.02359
  16   31392.6    318.5   0.339253434   3.55773  -0.34565  -1.78252   0.51075
  17   32994.8    303.1   0.002713535   0.02707   0.08291  -0.09485  -0.10585
  18   33211.0    301.1   0.164269107   1.62835   0.72166  -0.44657  -0.95296
  19   33832.1    295.6   0.029956139   0.29150  -0.00872  -0.53837  -0.03968
  20   34532.7    289.6   0.027431308   0.26151  -0.33062  -0.06475   0.38472
  21   34695.1    288.2   0.016443302   0.15603   0.01328  -0.36452  -0.15158
  22   35458.5    282.0   0.115878506   1.07587  -0.51078  -0.60448   0.67050
  23   35764.0    279.6   0.002563225   0.02359   0.07405   0.07684  -0.11048
  24   37014.7    270.2   0.074756134   0.66489  -0.19683  -0.75676   0.23122
  25   37582.9    266.1   0.018904341   0.16559  -0.24934   0.00546   0.32155
  26   37820.8    264.4   0.028368271   0.24693   0.02615   0.49488   0.03657
  27   38387.4    260.5   0.012320707   0.10566   0.02825   0.32375  -0.00691
  28   39505.4    253.1   0.052859162   0.44049   0.03726  -0.65976  -0.06186
  29   39765.5    251.5   0.021173237   0.17529  -0.01798   0.41280   0.06752

FINAL SINGLE POINT ENERGY     -2201.788195530625

DIPOLE MOMENT
-------------
                                X             Y             Z
Electronic contribution:    -12.02912       1.40697      17.88418
Nuclear contribution   :     12.08811      -1.87368     -17.94724
                        -----------------------------------------
Total Dipole Moment    :      0.05899      -0.46671      -0.06306
                        -----------------------------------------
Magnitude (a.u.)       :      0.47463
Magnitude (Debye)      :      1.20641

Rotational constants in cm-1:     0.010742     0.000228     0.000223
Rotational constants in MHz :   322.043203     6.829897     6.690200

                             ****ORCA TERMINATED NORMALLY****
TOTAL RUN TIME: 0 days 0 hours 5 minutes 41 seconds 652 msec
