                         Program Version 4.2.0 -  RELEASE  -
|  1> # ORCA input file
|  2> # SCF done       -182.165089105289          0.000952294192
|  3> ! CAM-B3LYP def2-SVP def2/J RIJCOSX Grid4 TightSCF
|  4> %maxcore 5000
|  5> %tddft
|  6>     Mode sTDDFT
|  7>     Ethresh 5.0
|  8>     maxcore 5000
|  9> end
| 10>
| 11> %pal
| 12>   nprocs 6
| 13>   end
| 14> * xyz 0 1
| 15>    C       -2.47304        -3.87397         1.64926
| 16>    C       -2.05123        -5.06612         1.08002
| 17>    C       -2.39657        -5.40190        -0.22168
| 18>    C       -3.16495        -4.54733        -0.99723
| 19>    C       -3.58811        -3.35186        -0.44012
| 20>    C       -3.25127        -3.01314         0.89061
| 21>    C       -3.84838        -1.72455         1.21856
| 22>    C       -3.66255        -1.02798         2.38179
| 23>    C       -2.83569        -1.46120         3.44063
| 24>    N       -2.18262        -1.75039         4.33911
| 25>    C       -4.23081         0.22658         2.68981
| 26>    N       -4.64936         1.24509         3.01560
| 27>    C       -4.68502        -1.34912         0.08192
| 28>    C       -4.34697        -2.25246        -1.01082
| 29>    C       -4.47352        -1.97190        -2.34606
| 30>    C       -4.89926        -0.71824        -2.83146
| 31>    N       -5.16379         0.30860        -3.27130
| 32>    C       -4.09379        -2.85740        -3.37479
| 33>    N       -3.81211        -3.55219        -4.24403
| 34>    C       -5.65483        -0.38967         0.10967
| 35>    C       -6.76198        -0.21247        -0.76392
| 36>    S       -7.31233         1.42711        -1.02864
| 37>    C       -8.59929         0.87316        -2.00132
| 38>    C       -8.65503        -0.48893        -2.08778
| 39>    C       -7.60517        -1.12279        -1.38516
| 40>    C       -7.58694        -2.60410        -1.17138
| 41>    C       -8.51146        -3.38136        -2.12122
| 42>    C       -9.85567        -2.65258        -2.26626
| 43>    C       -9.67878        -1.25780        -2.85825
| 44>    C       -7.85703        -3.65450        -3.46210
| 45>    C       -7.13997        -2.73555        -4.11300
| 46>    C       -8.03113        -4.97964        -4.02158
| 47>    N       -9.10586        -5.78644        -3.70498
| 48>    C       -8.98841        -6.95201        -4.39976
| 49>    C       -9.59785        -8.18007        -4.64733
| 50>    C       -8.75903        -8.85331        -5.54078
| 51>    N       -7.66794        -8.05693        -5.82642
| 52>    C       -7.79064        -6.88864        -5.14538
| 53>    C       -7.19442        -5.64662        -4.90897
| 54>    C       -8.89863       -10.13282        -6.14062
| 55>    C       -9.94500       -10.96966        -5.96131
| 56>    C      -10.07323       -12.24071        -6.58357
| 57>    S       -8.85340       -12.84779        -7.67820
| 58>    C       -9.74878       -14.28510        -7.93997
| 59>    C      -10.92880       -14.30312        -7.25021
| 60>    C      -11.11197       -13.14232        -6.46707
| 61>    C      -12.32489       -12.98132        -5.60771
| 62>    C      -12.81486       -14.36275        -5.16282
| 63>    C      -13.13957       -15.18234        -6.41863
| 64>    C      -11.91709       -15.42616        -7.30965
| 65>    C      -11.82436       -15.05388        -4.24350
| 66>    C      -11.09710       -14.43699        -3.32128
| 67>    C      -11.86488       -16.51655        -4.22780
| 68>    C      -10.95602       -17.42342        -4.63253
| 69>    C      -11.22119       -18.86691        -4.52252
| 70>    C      -12.00490       -19.46244        -3.57519
| 71>    C      -12.64682       -18.77848        -2.51906
| 72>    N      -13.16939       -18.29134        -1.62048
| 73>    C      -12.22491       -20.85453        -3.49534
| 74>    N      -12.44336       -21.97526        -3.38183
| 75>    C      -10.44772       -19.52190        -5.55283
| 76>    C       -9.59438       -18.56619        -6.15247
| 77>    C       -8.78129       -18.94072        -7.21377
| 78>    C       -8.80812       -20.25642        -7.64589
| 79>    C       -9.63092       -21.19700        -7.03898
| 80>    C      -10.46040       -20.83893        -5.99064
| 81>    C       -9.76542       -17.27750        -5.49020
| 82>    C       -8.90436       -16.22695        -5.64240
| 83>    C       -7.76460       -16.27301        -6.48309
| 84>    N       -6.81757       -16.22585        -7.12957
| 85>    C       -8.86507       -14.97286        -5.00079
| 86>    N       -8.66264       -13.92635        -4.57332
| 87>    H       -2.19802        -3.63427         2.66301
| 88>    H       -1.44693        -5.74374         1.66349
| 89>    H       -2.06336        -6.33997        -0.63839
| 90>    H       -3.43404        -4.81815        -2.00554
| 91>    H       -5.61757         0.32703         0.92067
| 92>    H       -9.25545         1.58116        -2.46835
| 93>    H       -7.91749        -2.78388        -0.14103
| 94>    H       -6.57979        -3.01284        -1.25481
| 95>    H       -8.69834        -4.34936        -1.64165
| 96>    H      -10.31413        -2.57002        -1.27746
| 97>    H      -10.52940        -3.22768        -2.90488
| 98>    H      -10.62928        -0.72130        -2.85672
| 99>    H       -9.34909        -1.34637        -3.89794
|100>    H       -6.96995        -1.75029        -3.71984
|101>    H       -6.70311        -2.94525        -5.07258
|102>    H       -9.88625        -5.51423        -3.13396
|103>    H      -10.51847        -8.55234        -4.24601
|104>    H       -6.91801        -8.32075        -6.44188
|105>    H       -6.26552        -5.27539        -5.29143
|106>    H       -8.09621       -10.44365        -6.79878
|107>    H      -10.75571       -10.67471        -5.31173
|108>    H       -9.36712       -15.02672        -8.61467
|109>    H      -13.12108       -12.49367        -6.18064
|110>    H      -12.10876       -12.34837        -4.74895
|111>    H      -13.74728       -14.23882        -4.59542
|112>    H      -13.89081       -14.62914        -6.98696
|113>    H      -13.58275       -16.14197        -6.14284
|114>    H      -12.24323       -15.56584        -8.34439
|115>    H      -11.41553       -16.35528        -7.02082
|116>    H      -11.08301       -13.36991        -3.20161
|117>    H      -10.47819       -14.99231        -2.63738
|118>    H      -12.79064       -16.90556        -3.81477
|119>    H       -8.14314       -18.23006        -7.71083
|120>    H       -8.17894       -20.55185        -8.47161
|121>    H       -9.63208       -22.21601        -7.39402
|122>    H      -11.11002       -21.56882        -5.53581
|123> *
|124>
|125>                          ****END OF INPUT****

CARTESIAN COORDINATES (ANGSTROEM)
---------------------------------
  C     -2.473040   -3.873970    1.649260
  C     -2.051230   -5.066120    1.080020
  C     -2.396570   -5.401900   -0.221680
  C     -3.164950   -4.547330   -0.997230
  C     -3.588110   -3.351860   -0.440120
  C     -3.251270   -3.013140    0.890610
  C     -3.848380   -1.724550    1.218560
  C     -3.662550   -1.027980    2.381790
  C     -2.835690   -1.461200    3.440630
  N     -2.182620   -1.750390    4.339110
  C     -4.230810    0.226580    2.689810
  N     -4.649360    1.245090    3.015600
  C     -4.685020   -1.349120    0.081920
  C     -4.346970   -2.252460   -1.010820
  C     -4.473520   -1.971900   -2.346060
  C     -4.899260   -0.718240   -2.831460
  N     -5.163790    0.308600   -3.271300
  C     -4.093790   -2.857400   -3.374790
  N     -3.812110   -3.552190   -4.244030
  C     -5.654830   -0.389670    0.109670
  C     -6.761980   -0.212470   -0.763920
  S     -7.312330    1.427110   -1.028640
  C     -8.599290    0.873160   -2.001320
  C     -8.655030   -0.488930   -2.087780
  C     -7.605170   -1.122790   -1.385160
  C     -7.586940   -2.604100   -1.171380
  C     -8.511460   -3.381360   -2.121220
  C     -9.855670   -2.652580   -2.266260
  C     -9.678780   -1.257800   -2.858250
  C     -7.857030   -3.654500   -3.462100
  C     -7.139970   -2.735550   -4.113000
  C     -8.031130   -4.979640   -4.021580
  N     -9.105860   -5.786440   -3.704980
  C     -8.988410   -6.952010   -4.399760
  C     -9.597850   -8.180070   -4.647330
  C     -8.759030   -8.853310   -5.540780
  N     -7.667940   -8.056930   -5.826420
  C     -7.790640   -6.888640   -5.145380
  C     -7.194420   -5.646620   -4.908970
  C     -8.898630  -10.132820   -6.140620
  C     -9.945000  -10.969660   -5.961310
  C    -10.073230  -12.240710   -6.583570
  S     -8.853400  -12.847790   -7.678200
  C     -9.748780  -14.285100   -7.939970
  C    -10.928800  -14.303120   -7.250210
  C    -11.111970  -13.142320   -6.467070
  C    -12.324890  -12.981320   -5.607710
  C    -12.814860  -14.362750   -5.162820
  C    -13.139570  -15.182340   -6.418630
  C    -11.917090  -15.426160   -7.309650
  C    -11.824360  -15.053880   -4.243500
  C    -11.097100  -14.436990   -3.321280
  C    -11.864880  -16.516550   -4.227800
  C    -10.956020  -17.423420   -4.632530
  C    -11.221190  -18.866910   -4.522520
  C    -12.004900  -19.462440   -3.575190
  C    -12.646820  -18.778480   -2.519060
  N    -13.169390  -18.291340   -1.620480
  C    -12.224910  -20.854530   -3.495340
  N    -12.443360  -21.975260   -3.381830
  C    -10.447720  -19.521900   -5.552830
  C     -9.594380  -18.566190   -6.152470
  C     -8.781290  -18.940720   -7.213770
  C     -8.808120  -20.256420   -7.645890
  C     -9.630920  -21.197000   -7.038980
  C    -10.460400  -20.838930   -5.990640
  C     -9.765420  -17.277500   -5.490200
  C     -8.904360  -16.226950   -5.642400
  C     -7.764600  -16.273010   -6.483090
  N     -6.817570  -16.225850   -7.129570
  C     -8.865070  -14.972860   -5.000790
  N     -8.662640  -13.926350   -4.573320
  H     -2.198020   -3.634270    2.663010
  H     -1.446930   -5.743740    1.663490
  H     -2.063360   -6.339970   -0.638390
  H     -3.434040   -4.818150   -2.005540
  H     -5.617570    0.327030    0.920670
  H     -9.255450    1.581160   -2.468350
  H     -7.917490   -2.783880   -0.141030
  H     -6.579790   -3.012840   -1.254810
  H     -8.698340   -4.349360   -1.641650
  H    -10.314130   -2.570020   -1.277460
  H    -10.529400   -3.227680   -2.904880
  H    -10.629280   -0.721300   -2.856720
  H     -9.349090   -1.346370   -3.897940
  H     -6.969950   -1.750290   -3.719840
  H     -6.703110   -2.945250   -5.072580
  H     -9.886250   -5.514230   -3.133960
  H    -10.518470   -8.552340   -4.246010
  H     -6.918010   -8.320750   -6.441880
  H     -6.265520   -5.275390   -5.291430
  H     -8.096210  -10.443650   -6.798780
  H    -10.755710  -10.674710   -5.311730
  H     -9.367120  -15.026720   -8.614670
  H    -13.121080  -12.493670   -6.180640
  H    -12.108760  -12.348370   -4.748950
  H    -13.747280  -14.238820   -4.595420
  H    -13.890810  -14.629140   -6.986960
  H    -13.582750  -16.141970   -6.142840
  H    -12.243230  -15.565840   -8.344390
  H    -11.415530  -16.355280   -7.020820
  H    -11.083010  -13.369910   -3.201610
  H    -10.478190  -14.992310   -2.637380
  H    -12.790640  -16.905560   -3.814770
  H     -8.143140  -18.230060   -7.710830
  H     -8.178940  -20.551850   -8.471610
  H     -9.632080  -22.216010   -7.394020
  H    -11.110020  -21.568820   -5.535810

 Total Charge           Charge          ....    0
 Multiplicity           Mult            ....    1
 Number of Electrons    NEL             ....  498
 Basis Dimension        Dim             .... 1196

ORBITAL ENERGIES
----------------

  NO   OCC          E(Eh)            E(eV)
   0   2.0000     -88.965111     -2420.8637
   1   2.0000     -88.942059     -2420.2365
   2   2.0000     -14.447471      -393.1357
   3   2.0000     -14.445169      -393.0730
   4   2.0000     -14.424999      -392.5242
   5   2.0000     -14.424081      -392.4992
   6   2.0000     -14.424058      -392.4986
   7   2.0000     -14.423545      -392.4846
   8   2.0000     -14.422959      -392.4687
   9   2.0000     -14.420727      -392.4079
  10   2.0000     -14.419135      -392.3646
  11   2.0000     -14.414606      -392.2414
  12   2.0000     -10.358822      -281.8779
  13   2.0000     -10.355564      -281.7892
  14   2.0000     -10.352360      -281.7020
  15   2.0000     -10.351467      -281.6777
  16   2.0000     -10.350988      -281.6647
  17   2.0000     -10.350646      -281.6554
  18   2.0000     -10.349858      -281.6339
  19   2.0000     -10.347570      -281.5717
  20   2.0000     -10.329993      -281.0934
  21   2.0000     -10.327043      -281.0131
  22   2.0000     -10.327025      -281.0126
  23   2.0000     -10.326592      -281.0009
  24   2.0000     -10.325721      -280.9771
  25   2.0000     -10.325517      -280.9716
  26   2.0000     -10.325507      -280.9713
  27   2.0000     -10.324862      -280.9538
  28   2.0000     -10.323357      -280.9128
  29   2.0000     -10.320984      -280.8483
  30   2.0000     -10.319175      -280.7990
  31   2.0000     -10.318797      -280.7887
  32   2.0000     -10.318366      -280.7770
  33   2.0000     -10.316451      -280.7249
  34   2.0000     -10.314660      -280.6762
  35   2.0000     -10.314341      -280.6675
  36   2.0000     -10.313122      -280.6343
  37   2.0000     -10.305742      -280.4335
  38   2.0000     -10.305104      -280.4161
  39   2.0000     -10.304761      -280.4068
  40   2.0000     -10.304051      -280.3875
  41   2.0000     -10.303365      -280.3688
  42   2.0000     -10.302339      -280.3409
  43   2.0000     -10.302148      -280.3357
  44   2.0000     -10.301311      -280.3129
  45   2.0000     -10.300499      -280.2908
  46   2.0000     -10.298657      -280.2407
  47   2.0000     -10.290989      -280.0320
  48   2.0000     -10.290935      -280.0306
  49   2.0000     -10.290370      -280.0152
  50   2.0000     -10.288773      -279.9717
  51   2.0000     -10.287550      -279.9385
  52   2.0000     -10.287085      -279.9258
  53   2.0000     -10.285291      -279.8770
  54   2.0000     -10.284791      -279.8634
  55   2.0000     -10.282093      -279.7900
  56   2.0000     -10.280066      -279.7348
  57   2.0000     -10.278261      -279.6857
  58   2.0000     -10.277542      -279.6661
  59   2.0000     -10.276598      -279.6404
  60   2.0000     -10.276541      -279.6389
  61   2.0000     -10.276151      -279.6283
  62   2.0000     -10.276066      -279.6260
  63   2.0000     -10.275623      -279.6139
  64   2.0000     -10.275356      -279.6067
  65   2.0000     -10.270965      -279.4872
  66   2.0000     -10.270321      -279.4696
  67   2.0000     -10.266646      -279.3696
  68   2.0000     -10.265006      -279.3250
  69   2.0000     -10.252032      -278.9720
  70   2.0000     -10.251000      -278.9439
  71   2.0000     -10.248237      -278.8687
  72   2.0000      -8.060827      -219.3462
  73   2.0000      -8.037487      -218.7111
  74   2.0000      -6.030082      -164.0869
  75   2.0000      -6.025797      -163.9703
  76   2.0000      -6.023086      -163.8965
  77   2.0000      -6.006708      -163.4508
  78   2.0000      -6.002632      -163.3399
  79   2.0000      -5.999732      -163.2610
  80   2.0000      -1.076688       -29.2982
  81   2.0000      -1.041128       -28.3305
  82   2.0000      -1.039253       -28.2795
  83   2.0000      -1.037841       -28.2411
  84   2.0000      -1.021458       -27.7953
  85   2.0000      -1.019156       -27.7326
  86   2.0000      -1.010914       -27.5084
  87   2.0000      -1.008395       -27.4398
  88   2.0000      -1.003352       -27.3026
  89   2.0000      -1.002814       -27.2880
  90   2.0000      -1.000104       -27.2142
  91   2.0000      -0.997644       -27.1473
  92   2.0000      -0.996295       -27.1106
  93   2.0000      -0.979927       -26.6652
  94   2.0000      -0.964608       -26.2483
  95   2.0000      -0.960043       -26.1241
  96   2.0000      -0.944114       -25.6907
  97   2.0000      -0.941972       -25.6324
  98   2.0000      -0.941622       -25.6228
  99   2.0000      -0.939715       -25.5710
 100   2.0000      -0.903513       -24.5858
 101   2.0000      -0.903311       -24.5803
 102   2.0000      -0.895765       -24.3750
 103   2.0000      -0.894368       -24.3370
 104   2.0000      -0.887825       -24.1589
 105   2.0000      -0.879603       -23.9352
 106   2.0000      -0.870663       -23.6920
 107   2.0000      -0.867772       -23.6133
 108   2.0000      -0.863753       -23.5039
 109   2.0000      -0.858258       -23.3544
 110   2.0000      -0.852601       -23.2005
 111   2.0000      -0.848399       -23.0861
 112   2.0000      -0.841667       -22.9029
 113   2.0000      -0.827638       -22.5212
 114   2.0000      -0.817723       -22.2514
 115   2.0000      -0.814690       -22.1688
 116   2.0000      -0.798382       -21.7251
 117   2.0000      -0.796166       -21.6648
 118   2.0000      -0.792429       -21.5631
 119   2.0000      -0.785535       -21.3755
 120   2.0000      -0.771659       -20.9979
 121   2.0000      -0.756403       -20.5828
 122   2.0000      -0.737383       -20.0652
 123   2.0000      -0.732512       -19.9327
 124   2.0000      -0.722151       -19.6507
 125   2.0000      -0.719888       -19.5891
 126   2.0000      -0.717934       -19.5360
 127   2.0000      -0.716086       -19.4857
 128   2.0000      -0.715915       -19.4810
 129   2.0000      -0.706784       -19.2326
 130   2.0000      -0.701970       -19.1016
 131   2.0000      -0.688091       -18.7239
 132   2.0000      -0.684289       -18.6205
 133   2.0000      -0.677206       -18.4277
 134   2.0000      -0.672771       -18.3070
 135   2.0000      -0.672164       -18.2905
 136   2.0000      -0.670593       -18.2478
 137   2.0000      -0.666828       -18.1453
 138   2.0000      -0.664316       -18.0770
 139   2.0000      -0.660842       -17.9824
 140   2.0000      -0.653827       -17.7915
 141   2.0000      -0.645397       -17.5622
 142   2.0000      -0.638360       -17.3707
 143   2.0000      -0.628027       -17.0895
 144   2.0000      -0.619599       -16.8602
 145   2.0000      -0.615426       -16.7466
 146   2.0000      -0.608136       -16.5482
 147   2.0000      -0.599276       -16.3071
 148   2.0000      -0.595857       -16.2141
 149   2.0000      -0.592404       -16.1201
 150   2.0000      -0.590204       -16.0603
 151   2.0000      -0.587659       -15.9910
 152   2.0000      -0.585499       -15.9322
 153   2.0000      -0.579804       -15.7773
 154   2.0000      -0.572017       -15.5654
 155   2.0000      -0.566077       -15.4037
 156   2.0000      -0.564199       -15.3526
 157   2.0000      -0.554898       -15.0995
 158   2.0000      -0.549233       -14.9454
 159   2.0000      -0.548685       -14.9305
 160   2.0000      -0.547177       -14.8895
 161   2.0000      -0.545091       -14.8327
 162   2.0000      -0.543108       -14.7787
 163   2.0000      -0.542200       -14.7540
 164   2.0000      -0.540247       -14.7009
 165   2.0000      -0.537451       -14.6248
 166   2.0000      -0.531950       -14.4751
 167   2.0000      -0.528756       -14.3882
 168   2.0000      -0.527331       -14.3494
 169   2.0000      -0.519846       -14.1457
 170   2.0000      -0.519067       -14.1245
 171   2.0000      -0.515804       -14.0357
 172   2.0000      -0.515088       -14.0163
 173   2.0000      -0.514694       -14.0055
 174   2.0000      -0.511739       -13.9251
 175   2.0000      -0.506210       -13.7747
 176   2.0000      -0.506014       -13.7693
 177   2.0000      -0.503924       -13.7125
 178   2.0000      -0.502520       -13.6743
 179   2.0000      -0.497095       -13.5267
 180   2.0000      -0.495437       -13.4815
 181   2.0000      -0.492603       -13.4044
 182   2.0000      -0.487396       -13.2627
 183   2.0000      -0.486718       -13.2443
 184   2.0000      -0.485312       -13.2060
 185   2.0000      -0.484179       -13.1752
 186   2.0000      -0.479314       -13.0428
 187   2.0000      -0.478738       -13.0271
 188   2.0000      -0.474147       -12.9022
 189   2.0000      -0.472186       -12.8488
 190   2.0000      -0.471516       -12.8306
 191   2.0000      -0.467125       -12.7111
 192   2.0000      -0.466141       -12.6843
 193   2.0000      -0.462109       -12.5746
 194   2.0000      -0.460472       -12.5301
 195   2.0000      -0.460241       -12.5238
 196   2.0000      -0.456770       -12.4294
 197   2.0000      -0.456475       -12.4213
 198   2.0000      -0.455091       -12.3837
 199   2.0000      -0.454035       -12.3549
 200   2.0000      -0.453746       -12.3471
 201   2.0000      -0.451111       -12.2754
 202   2.0000      -0.450239       -12.2516
 203   2.0000      -0.448357       -12.2004
 204   2.0000      -0.447947       -12.1892
 205   2.0000      -0.446152       -12.1404
 206   2.0000      -0.443405       -12.0657
 207   2.0000      -0.440373       -11.9832
 208   2.0000      -0.438193       -11.9238
 209   2.0000      -0.436926       -11.8894
 210   2.0000      -0.436293       -11.8721
 211   2.0000      -0.434208       -11.8154
 212   2.0000      -0.432821       -11.7776
 213   2.0000      -0.430702       -11.7200
 214   2.0000      -0.429586       -11.6896
 215   2.0000      -0.429333       -11.6827
 216   2.0000      -0.427015       -11.6197
 217   2.0000      -0.424300       -11.5458
 218   2.0000      -0.421835       -11.4787
 219   2.0000      -0.418850       -11.3975
 220   2.0000      -0.417956       -11.3731
 221   2.0000      -0.416033       -11.3208
 222   2.0000      -0.414984       -11.2923
 223   2.0000      -0.414681       -11.2840
 224   2.0000      -0.413334       -11.2474
 225   2.0000      -0.410582       -11.1725
 226   2.0000      -0.407229       -11.0813
 227   2.0000      -0.405384       -11.0311
 228   2.0000      -0.400486       -10.8978
 229   2.0000      -0.399377       -10.8676
 230   2.0000      -0.391498       -10.6532
 231   2.0000      -0.387192       -10.5360
 232   2.0000      -0.384466       -10.4619
 233   2.0000      -0.375100       -10.2070
 234   2.0000      -0.365339        -9.9414
 235   2.0000      -0.358428        -9.7533
 236   2.0000      -0.356892        -9.7115
 237   2.0000      -0.338801        -9.2192
 238   2.0000      -0.335334        -9.1249
 239   2.0000      -0.327099        -8.9008
 240   2.0000      -0.324588        -8.8325
 241   2.0000      -0.317821        -8.6483
 242   2.0000      -0.315876        -8.5954
 243   2.0000      -0.308888        -8.4053
 244   2.0000      -0.298831        -8.1316
 245   2.0000      -0.285452        -7.7675
 246   2.0000      -0.279492        -7.6054
 247   2.0000      -0.272215        -7.4073
 248   2.0000      -0.210666        -5.7325
 249   0.0000      -0.094615        -2.5746
 250   0.0000      -0.089654        -2.4396
 251   0.0000      -0.088988        -2.4215
 252   0.0000      -0.084511        -2.2997
 253   0.0000      -0.025214        -0.6861

MULLIKEN ATOMIC CHARGES
-----------------------
   0 C :   -0.035049
   1 C :    0.045328
   2 C :    0.049193
   3 C :   -0.030464
   4 C :    0.008416
   5 C :    0.015463
   6 C :    0.305959
   7 C :   -0.349964
   8 C :   -0.188083
   9 N :    0.156894
  10 C :   -0.181809
  11 N :    0.161367
  12 C :   -0.066353
  13 C :    0.197330
  14 C :   -0.331197
  15 C :   -0.185446
  16 N :    0.176903
  17 C :   -0.165497
  18 N :    0.162920
  19 C :    0.055365
  20 C :   -0.245216
  21 S :    0.178067
  22 C :   -0.089705
  23 C :   -0.083875
  24 C :   -0.014811
  25 C :    0.180939
  26 C :   -0.069227
  27 C :    0.071416
  28 C :    0.144105
  29 C :   -0.049244
  30 C :   -0.063317
  31 C :    0.072736
  32 N :   -0.043971
  33 C :    0.103713
  34 C :   -0.177112
  35 C :    0.098680
  36 N :   -0.033107
  37 C :    0.102279
  38 C :   -0.172999
  39 C :    0.009116
  40 C :   -0.019154
  41 C :   -0.090769
  42 S :    0.109838
  43 C :   -0.146629
  44 C :   -0.056375
  45 C :   -0.068388
  46 C :    0.191705
  47 C :   -0.059017
  48 C :    0.064945
  49 C :    0.132569
  50 C :   -0.110903
  51 C :    0.068872
  52 C :   -0.035776
  53 C :   -0.030644
  54 C :    0.266873
  55 C :   -0.333460
  56 C :   -0.206086
  57 N :    0.176088
  58 C :   -0.191366
  59 N :    0.162229
  60 C :    0.010091
  61 C :    0.015079
  62 C :   -0.039823
  63 C :    0.049055
  64 C :    0.045685
  65 C :   -0.029128
  66 C :    0.255862
  67 C :   -0.328324
  68 C :   -0.233965
  69 N :    0.178434
  70 C :   -0.152218
  71 N :    0.184573
  72 H :    0.006054
  73 H :    0.006135
  74 H :    0.005463
  75 H :    0.007943
  76 H :    0.029055
  77 H :    0.021921
  78 H :    0.022148
  79 H :    0.026407
  80 H :   -0.016698
  81 H :    0.010636
  82 H :   -0.012091
  83 H :    0.002158
  84 H :    0.034152
  85 H :    0.039815
  86 H :    0.021384
  87 H :    0.119939
  88 H :   -0.046992
  89 H :    0.119055
  90 H :   -0.033710
  91 H :   -0.027769
  92 H :   -0.027670
  93 H :    0.009143
  94 H :    0.011911
  95 H :   -0.001033
  96 H :    0.017615
  97 H :    0.006695
  98 H :   -0.001609
  99 H :    0.016481
 100 H :    0.003807
 101 H :    0.027060
 102 H :    0.027317
 103 H :    0.054444
 104 H :    0.004200
 105 H :    0.005561
 106 H :    0.004725
 107 H :    0.006732
Sum of atomic charges:   -0.0000000

LOEWDIN ATOMIC CHARGES
----------------------
   0 C :    0.005385
   1 C :    0.001985
   2 C :    0.005806
   3 C :    0.002048
   4 C :   -0.011243
   5 C :   -0.013438
   6 C :    0.079188
   7 C :   -0.132560
   8 C :   -0.018618
   9 N :   -0.046263
  10 C :   -0.022400
  11 N :   -0.041903
  12 C :   -0.062149
  13 C :    0.064268
  14 C :   -0.123572
  15 C :   -0.020220
  16 N :   -0.043614
  17 C :   -0.012017
  18 N :   -0.049269
  19 C :    0.047683
  20 C :   -0.195163
  21 S :    0.480517
  22 C :   -0.159134
  23 C :   -0.063718
  24 C :   -0.031102
  25 C :   -0.016239
  26 C :   -0.026044
  27 C :   -0.017816
  28 C :   -0.024380
  29 C :   -0.028021
  30 C :   -0.057081
  31 C :   -0.005634
  32 N :    0.062395
  33 C :   -0.028905
  34 C :   -0.098937
  35 C :   -0.008407
  36 N :    0.071646
  37 C :   -0.028566
  38 C :   -0.092297
  39 C :   -0.031808
  40 C :   -0.047348
  41 C :   -0.157073
  42 S :    0.438330
  43 C :   -0.196804
  44 C :   -0.069897
  45 C :   -0.070326
  46 C :   -0.011557
  47 C :   -0.018978
  48 C :   -0.025376
  49 C :   -0.028749
  50 C :   -0.053826
  51 C :    0.008009
  52 C :    0.078996
  53 C :   -0.047304
  54 C :    0.078609
  55 C :   -0.130230
  56 C :   -0.028395
  57 N :   -0.041558
  58 C :   -0.019189
  59 N :   -0.042843
  60 C :   -0.018076
  61 C :   -0.007448
  62 C :   -0.001793
  63 C :    0.006772
  64 C :    0.000999
  65 C :    0.006168
  66 C :    0.050173
  67 C :   -0.102513
  68 C :   -0.013759
  69 N :   -0.046990
  70 C :   -0.013368
  71 N :   -0.031804
  72 H :    0.041699
  73 H :    0.038199
  74 H :    0.038205
  75 H :    0.041842
  76 H :    0.046649
  77 H :    0.027630
  78 H :    0.041640
  79 H :    0.032747
  80 H :    0.023301
  81 H :    0.024687
  82 H :    0.019805
  83 H :    0.032032
  84 H :    0.038443
  85 H :    0.020401
  86 H :    0.026738
  87 H :    0.081064
  88 H :    0.018596
  89 H :    0.088145
  90 H :    0.025811
  91 H :    0.019783
  92 H :    0.026865
  93 H :    0.018351
  94 H :    0.033678
  95 H :    0.025039
  96 H :    0.036908
  97 H :    0.027568
  98 H :    0.022477
  99 H :    0.037665
 100 H :    0.026986
 101 H :    0.027903
 102 H :    0.028482
 103 H :    0.049265
 104 H :    0.040045
 105 H :    0.038326
 106 H :    0.038020
 107 H :    0.041750

  Mayer bond orders larger than 0.100000
B(  0-C ,  1-C ) :   1.3730 B(  0-C ,  5-C ) :   1.3763 B(  0-C , 72-H ) :   0.9839
B(  1-C ,  2-C ) :   1.3754 B(  1-C , 73-H ) :   0.9859 B(  2-C ,  3-C ) :   1.3648
B(  2-C , 74-H ) :   0.9866 B(  3-C ,  4-C ) :   1.3814 B(  3-C , 75-H ) :   0.9885
B(  4-C ,  5-C ) :   1.3125 B(  4-C , 13-C ) :   1.0102 B(  5-C ,  6-C ) :   1.0003
B(  6-C ,  7-C ) :   1.6384 B(  6-C , 12-C ) :   1.0527 B(  7-C ,  8-C ) :   1.1474
B(  7-C , 10-C ) :   1.1378 B(  8-C ,  9-N ) :   2.9745 B( 10-C , 11-N ) :   2.9686
B( 12-C , 13-C ) :   1.0141 B( 12-C , 19-C ) :   1.6444 B( 13-C , 14-C ) :   1.6618
B( 14-C , 15-C ) :   1.1676 B( 14-C , 17-C ) :   1.1387 B( 15-C , 16-N ) :   2.9724
B( 17-C , 18-N ) :   2.9593 B( 19-C , 20-C ) :   1.1366 B( 19-C , 76-H ) :   0.9139
B( 20-C , 21-S ) :   1.1437 B( 20-C , 24-C ) :   1.4471 B( 21-S , 22-C ) :   1.1911
B( 22-C , 23-C ) :   1.5436 B( 22-C , 77-H ) :   0.9699 B( 23-C , 24-C ) :   1.3077
B( 23-C , 28-C ) :   1.0342 B( 24-C , 25-C ) :   1.0554 B( 25-C , 26-C ) :   1.0720
B( 25-C , 78-H ) :   0.9029 B( 25-C , 79-H ) :   0.9020 B( 26-C , 27-C ) :   1.0452
B( 26-C , 29-C ) :   0.9710 B( 26-C , 80-H ) :   0.8998 B( 27-C , 28-C ) :   1.0915
B( 27-C , 81-H ) :   0.9448 B( 27-C , 82-H ) :   0.9231 B( 28-C , 83-H ) :   0.9171
B( 28-C , 84-H ) :   0.9045 B( 29-C , 30-C ) :   1.9578 B( 29-C , 31-C ) :   1.0296
B( 30-C , 85-H ) :   0.9183 B( 30-C , 86-H ) :   0.9350 B( 31-C , 32-N ) :   1.1904
B( 31-C , 38-C ) :   1.4662 B( 32-N , 33-C ) :   1.1509 B( 32-N , 87-H ) :   0.9314
B( 33-C , 34-C ) :   1.2497 B( 33-C , 37-C ) :   1.3386 B( 34-C , 35-C ) :   1.4150
B( 34-C , 88-H ) :   1.0306 B( 35-C , 36-N ) :   1.1784 B( 35-C , 39-C ) :   1.1039
B( 36-N , 37-C ) :   1.1650 B( 36-N , 89-H ) :   0.9371 B( 37-C , 38-C ) :   1.2183
B( 38-C , 90-H ) :   1.0365 B( 39-C , 40-C ) :   1.6793 B( 39-C , 91-H ) :   0.9631
B( 40-C , 41-C ) :   1.1491 B( 40-C , 92-H ) :   0.9705 B( 41-C , 42-S ) :   1.1150
B( 41-C , 45-C ) :   1.5038 B( 42-S , 43-C ) :   1.1580 B( 43-C , 44-C ) :   1.5261
B( 43-C , 93-H ) :   0.9712 B( 44-C , 45-C ) :   1.3014 B( 44-C , 49-C ) :   1.0393
B( 45-C , 46-C ) :   1.0581 B( 46-C , 47-C ) :   1.0712 B( 46-C , 94-H ) :   0.9041
B( 46-C , 95-H ) :   0.9040 B( 47-C , 48-C ) :   1.0808 B( 47-C , 50-C ) :   0.9375
B( 47-C , 96-H ) :   0.9011 B( 48-C , 49-C ) :   1.0904 B( 48-C , 97-H ) :   0.9324
B( 48-C , 98-H ) :   0.9125 B( 49-C , 99-H ) :   0.9131 B( 49-C ,100-H ) :   0.9074
B( 50-C , 51-C ) :   1.9991 B( 50-C , 52-C ) :   0.9874 B( 51-C ,101-H ) :   0.9457
B( 51-C ,102-H ) :   0.9345 B( 52-C , 53-C ) :   1.8121 B( 52-C ,103-H ) :   0.9232
B( 53-C , 54-C ) :   0.9922 B( 53-C , 66-C ) :   0.9727 B( 54-C , 55-C ) :   1.6703
B( 54-C , 60-C ) :   1.0198 B( 55-C , 56-C ) :   1.1316 B( 55-C , 58-C ) :   1.1374
B( 56-C , 57-N ) :   3.0143 B( 58-C , 59-N ) :   2.9883 B( 60-C , 61-C ) :   1.3070
B( 60-C , 65-C ) :   1.3658 B( 61-C , 62-C ) :   1.3652 B( 61-C , 66-C ) :   1.0060
B( 62-C , 63-C ) :   1.3837 B( 62-C ,104-H ) :   0.9844 B( 63-C , 64-C ) :   1.3626
B( 63-C ,105-H ) :   0.9873 B( 64-C , 65-C ) :   1.3784 B( 64-C ,106-H ) :   0.9869
B( 65-C ,107-H ) :   0.9860 B( 66-C , 67-C ) :   1.6698 B( 67-C , 68-C ) :   1.1396
B( 67-C , 70-C ) :   1.1573 B( 68-C , 69-N ) :   2.9823 B( 70-C , 71-N ) :   2.9040

-----------------------------------------------------------------------------
         ABSORPTION SPECTRUM VIA TRANSITION ELECTRIC DIPOLE MOMENTS
-----------------------------------------------------------------------------
State   Energy  Wavelength   fosc         T2         TX        TY        TZ
        (cm-1)    (nm)                  (au**2)     (au)      (au)      (au)
-----------------------------------------------------------------------------
   0   12244.4    816.7   0.046125191   1.24016  -0.38772  -0.96282  -0.40350
   1   13462.6    742.8   0.153299196   3.74875   0.17027   1.92186  -0.16190
   2   15017.9    665.9   0.014173818   0.31071  -0.32197  -0.28070  -0.35812
   3   15747.1    635.0   0.004641122   0.09703  -0.08154  -0.28034   0.10858
   4   22267.8    449.1   0.236135681   3.49108  -1.70759   0.75652  -0.05380
   5   24441.8    409.1   0.757082277  10.19731  -1.64652  -1.92643  -1.94297
   6   24864.1    402.2   0.870808121  11.52991   0.41362   3.37009  -0.03654
   7   25681.0    389.4   0.156675329   2.00846   0.28709   0.98438   0.97829
   8   25792.4    387.7   0.106111261   1.35439   0.09814   0.96546   0.64237
   9   27034.4    369.9   0.005649688   0.06880  -0.09015  -0.24538   0.02140
  10   27285.7    366.5   0.059199721   0.71427  -0.25755  -0.50735   0.62492
  11   27928.9    358.1   0.019521653   0.23011   0.21457  -0.42039  -0.08568
  12   28454.4    351.4   0.096886802   1.12096   0.64800  -0.73930   0.39306
  13   28521.0    350.6   0.035711027   0.41220   0.30757  -0.53022   0.19100
  14   28660.7    348.9   0.013751613   0.15796  -0.37006   0.05749  -0.13307
  15   29401.4    340.1   0.055129799   0.61730  -0.72779   0.13795   0.26188
  16   30557.4    327.3   0.043115687   0.46451   0.33553   0.48594  -0.34028
  17   30567.1    327.1   0.002841240   0.03060   0.15206  -0.07717   0.03902
  18   30858.8    324.1   0.006952566   0.07417   0.23038   0.12624   0.07183
  19   30896.2    323.7   0.021168594   0.22556  -0.03643   0.38839   0.27090
  20   31295.2    319.5   0.276273751   2.90628   0.39021   0.17717   1.65004
  21   31399.7    318.5   0.159240180   1.66956   0.62123   1.05434  -0.41474
  22   31966.4    312.8   0.007040018   0.07250   0.03500   0.11902   0.23898
  23   32090.4    311.6   0.043375001   0.44498  -0.29335  -0.22230  -0.55634
  24   32637.5    306.4   0.187484411   1.89114   1.00676   0.64393  -0.68038
  25   32866.7    304.3   0.079357027   0.79489  -0.63215  -0.44845   0.44065
  26   33694.7    296.8   0.225443898   2.20269   0.50159   0.74666   1.18051
  27   33982.2    294.3   0.238715742   2.31263   0.09518  -0.44091   1.45230
  28   34975.4    285.9   0.355740695   3.34847   0.73424  -1.67135  -0.12636
  29   35460.9    282.0   0.139189744   1.29221   0.19545   1.08151  -0.29042
  30   35781.7    279.5   0.009961169   0.09165  -0.14310   0.20386   0.17208
  31   35876.3    278.7   0.323055456   2.96446  -0.65031   0.64411   1.45831
  32   36240.3    275.9   0.251143999   2.28143  -0.74850  -1.31065  -0.05810
  33   36586.9    273.3   0.046527072   0.41865   0.61213   0.08581  -0.19127
  34   36620.1    273.1   0.005708206   0.05132  -0.10908   0.11720   0.16026
  35   37227.3    268.6   0.011238872   0.09939  -0.17281  -0.04003   0.26062
  36   37314.5    268.0   0.000669969   0.00591   0.04531  -0.04046  -0.04712
  37   37396.9    267.4   0.023486925   0.20676  -0.24598  -0.37445  -0.07772
  38   37748.6    264.9   0.001502150   0.01310  -0.05160  -0.07260  -0.07189
  39   38133.8    262.2   0.001091022   0.00942   0.07451   0.06216  -0.00170
  40   38429.4    260.2   0.000449639   0.00385   0.02286  -0.04031   0.04129
  41   39085.4    255.8   0.027365357   0.23050  -0.38624  -0.21331   0.18924
  42   39099.4    255.8   0.007660569   0.06450  -0.18558  -0.06534   0.16059
  43   39539.3    252.9   0.023754696   0.19779   0.02026   0.00978  -0.44416
  44   40129.2    249.2   0.000513511   0.00421  -0.01354   0.02727   0.05732

FINAL SINGLE POINT ENERGY     -3647.769921926826

DIPOLE MOMENT
-------------
                                X             Y             Z
Electronic contribution:     30.23992      10.07637      19.18150
Nuclear contribution   :    -32.08910     -11.51885     -21.21739
                        -----------------------------------------
Total Dipole Moment    :     -1.84919      -1.44248      -2.03589
                        -----------------------------------------
Magnitude (a.u.)       :      3.10565
Magnitude (Debye)      :      7.89395

Rotational constants in cm-1:     0.002072     0.000263     0.000255
Rotational constants in MHz :    62.107622     7.893026     7.646998

                             ****ORCA TERMINATED NORMALLY****
TOTAL RUN TIME: 0 days 0 hours 11 minutes 25 seconds 771 msec
