                         Program Version 4.2.0 -  RELEASE  -
|  1> # ORCA input file
|  2> # SCF done       -171.645927086406          0.000726460493
|  3> ! CAM-B3LYP def2-SVP def2/J RIJCOSX Grid4 TightSCF
|  4> %maxcore 5000
|  5> %tddft
|  6>     Mode sTDDFT
|  7>     Ethresh 5.0
|  8>     maxcore 5000
|  9> end
| 10>
| 11> %pal
| 12>   nprocs 6
| 13>   end
| 14> * xyz 0 1
| 15>    C       -6.33491         3.12886         4.56828
| 16>    C       -7.49398         3.55281         5.20202
| 17>    C       -8.45140         2.64339         5.62542
| 18>    C       -8.27115         1.28108         5.43752
| 19>    C       -7.11603         0.84624         4.80960
| 20>    C       -6.14598         1.77149         4.36450
| 21>    C       -5.06407         1.04191         3.71355
| 22>    C       -3.93615         1.60759         3.17438
| 23>    C       -3.63792         2.98518         3.22927
| 24>    N       -3.32679         4.09042         3.23469
| 25>    C       -2.90261         0.92399         2.50205
| 26>    N       -2.02228         0.45040         1.93522
| 27>    C       -5.44383        -0.36123         3.70274
| 28>    C       -6.63908        -0.49719         4.51394
| 29>    C       -7.10504        -1.64354         5.11180
| 30>    C       -6.47106        -2.90028         5.07869
| 31>    N       -5.99885        -3.94413         5.16424
| 32>    C       -8.26126        -1.70199         5.91491
| 33>    N       -9.21026        -1.83549         6.54767
| 34>    C       -4.76024        -1.34116         3.01974
| 35>    C       -5.19560        -2.61224         2.60506
| 36>    S       -3.97670        -3.86102         2.50201
| 37>    C       -5.15366        -5.05127         2.03731
| 38>    C       -6.40686        -4.46703         1.86484
| 39>    C       -6.43138        -3.10522         2.18454
| 40>    C       -7.64135        -2.26445         1.91948
| 41>    C       -8.90336        -3.12109         1.93273
| 42>    C       -8.73700        -4.27518         0.95351
| 43>    C       -7.62598        -5.21327         1.42128
| 44>    C       -4.74992        -6.40658         1.92781
| 45>    N       -3.41208        -6.74306         1.99329
| 46>    C       -3.29549        -8.09241         1.92031
| 47>    C       -2.39022        -9.14690         1.92947
| 48>    C       -3.15568       -10.31647         1.82068
| 49>    N       -4.49364        -9.97887         1.74253
| 50>    C       -4.60463        -8.62777         1.80214
| 51>    C       -5.51395        -7.57639         1.80474
| 52>    C       -2.76282       -11.67747         1.81196
| 53>    C       -1.47536       -12.10949         1.84704
| 54>    C       -1.02462       -13.45195         1.86944
| 55>    S        0.66289       -13.71697         1.53161
| 56>    C        0.48878       -15.44354         1.72339
| 57>    C       -0.83032       -15.76533         2.05325
| 58>    C       -1.67562       -14.65695         2.13496
| 59>    C       -3.11134       -14.79133         2.53640
| 60>    C       -3.36880       -16.14736         3.19118
| 61>    C       -2.80896       -17.25967         2.31395
| 62>    C       -1.28583       -17.17085         2.27300
| 63>    C        1.56373       -16.34570         1.70388
| 64>    C        2.82140       -16.16830         1.17988
| 65>    C        4.01054       -16.87168         1.62859
| 66>    C        4.07026       -17.98057         2.43516
| 67>    C        2.95878       -18.67670         2.95031
| 68>    N        2.10015       -19.29055         3.40541
| 69>    C        5.26920       -18.60187         2.84078
| 70>    N        6.20264       -19.15971         3.20966
| 71>    C        5.15586       -16.14946         1.08583
| 72>    C        4.68778       -15.12150         0.23639
| 73>    C        5.57383       -14.26500        -0.39365
| 74>    C        6.93219       -14.43894        -0.17247
| 75>    C        7.39536       -15.45361         0.65216
| 76>    C        6.51614       -16.31836         1.28781
| 77>    C        3.23752       -15.21098         0.17018
| 78>    C        2.45340       -14.72879        -0.84703
| 79>    C        2.91590       -13.86109        -1.85484
| 80>    N        3.23367       -13.14012        -2.69010
| 81>    C        1.12012       -15.13639        -1.05536
| 82>    N        0.05439       -15.49517        -1.28883
| 83>    H       -5.60465         3.85166         4.24484
| 84>    H       -7.65073         4.60833         5.36353
| 85>    H       -9.34965         2.99649         6.10843
| 86>    H       -9.02523         0.58503         5.76689
| 87>    H       -3.73363        -1.11942         2.75530
| 88>    H       -7.52329        -1.81431         0.92679
| 89>    H       -7.73041        -1.44491         2.62967
| 90>    H       -9.76340        -2.50866         1.65778
| 91>    H       -9.07285        -3.51173         2.93869
| 92>    H       -8.49052        -3.87593        -0.03272
| 93>    H       -9.66831        -4.83612         0.86452
| 94>    H       -7.36145        -5.90362         0.61779
| 95>    H       -7.98710        -5.80380         2.26963
| 96>    H       -2.66740        -6.07543         2.10114
| 97>    H       -1.32391        -9.09890         2.00985
| 98>    H       -5.24459       -10.64144         1.65465
| 99>    H       -6.57955        -7.64210         1.76161
|100>    H       -3.56932       -12.39170         1.74931
|101>    H       -0.68844       -11.36785         1.82258
|102>    H       -3.74260       -14.69770         1.64660
|103>    H       -3.37486       -13.98775         3.22858
|104>    H       -4.44162       -16.28055         3.33889
|105>    H       -2.88665       -16.17943         4.17049
|106>    H       -3.20776       -17.15768         1.30274
|107>    H       -3.10587       -18.23620         2.69778
|108>    H       -0.89472       -17.81296         1.48154
|109>    H       -0.86800       -17.53124         3.21963
|110>    H        1.38456       -17.25603         2.26036
|111>    H        5.22238       -13.47097        -1.03265
|112>    H        7.63609       -13.77425        -0.64963
|113>    H        8.45682       -15.57384         0.80669
|114>    H        6.89568       -17.09924         1.92596
|115> *
|116>
|117>                          ****END OF INPUT****

CARTESIAN COORDINATES (ANGSTROEM)
---------------------------------
  C     -6.334910    3.128860    4.568280
  C     -7.493980    3.552810    5.202020
  C     -8.451400    2.643390    5.625420
  C     -8.271150    1.281080    5.437520
  C     -7.116030    0.846240    4.809600
  C     -6.145980    1.771490    4.364500
  C     -5.064070    1.041910    3.713550
  C     -3.936150    1.607590    3.174380
  C     -3.637920    2.985180    3.229270
  N     -3.326790    4.090420    3.234690
  C     -2.902610    0.923990    2.502050
  N     -2.022280    0.450400    1.935220
  C     -5.443830   -0.361230    3.702740
  C     -6.639080   -0.497190    4.513940
  C     -7.105040   -1.643540    5.111800
  C     -6.471060   -2.900280    5.078690
  N     -5.998850   -3.944130    5.164240
  C     -8.261260   -1.701990    5.914910
  N     -9.210260   -1.835490    6.547670
  C     -4.760240   -1.341160    3.019740
  C     -5.195600   -2.612240    2.605060
  S     -3.976700   -3.861020    2.502010
  C     -5.153660   -5.051270    2.037310
  C     -6.406860   -4.467030    1.864840
  C     -6.431380   -3.105220    2.184540
  C     -7.641350   -2.264450    1.919480
  C     -8.903360   -3.121090    1.932730
  C     -8.737000   -4.275180    0.953510
  C     -7.625980   -5.213270    1.421280
  C     -4.749920   -6.406580    1.927810
  N     -3.412080   -6.743060    1.993290
  C     -3.295490   -8.092410    1.920310
  C     -2.390220   -9.146900    1.929470
  C     -3.155680  -10.316470    1.820680
  N     -4.493640   -9.978870    1.742530
  C     -4.604630   -8.627770    1.802140
  C     -5.513950   -7.576390    1.804740
  C     -2.762820  -11.677470    1.811960
  C     -1.475360  -12.109490    1.847040
  C     -1.024620  -13.451950    1.869440
  S      0.662890  -13.716970    1.531610
  C      0.488780  -15.443540    1.723390
  C     -0.830320  -15.765330    2.053250
  C     -1.675620  -14.656950    2.134960
  C     -3.111340  -14.791330    2.536400
  C     -3.368800  -16.147360    3.191180
  C     -2.808960  -17.259670    2.313950
  C     -1.285830  -17.170850    2.273000
  C      1.563730  -16.345700    1.703880
  C      2.821400  -16.168300    1.179880
  C      4.010540  -16.871680    1.628590
  C      4.070260  -17.980570    2.435160
  C      2.958780  -18.676700    2.950310
  N      2.100150  -19.290550    3.405410
  C      5.269200  -18.601870    2.840780
  N      6.202640  -19.159710    3.209660
  C      5.155860  -16.149460    1.085830
  C      4.687780  -15.121500    0.236390
  C      5.573830  -14.265000   -0.393650
  C      6.932190  -14.438940   -0.172470
  C      7.395360  -15.453610    0.652160
  C      6.516140  -16.318360    1.287810
  C      3.237520  -15.210980    0.170180
  C      2.453400  -14.728790   -0.847030
  C      2.915900  -13.861090   -1.854840
  N      3.233670  -13.140120   -2.690100
  C      1.120120  -15.136390   -1.055360
  N      0.054390  -15.495170   -1.288830
  H     -5.604650    3.851660    4.244840
  H     -7.650730    4.608330    5.363530
  H     -9.349650    2.996490    6.108430
  H     -9.025230    0.585030    5.766890
  H     -3.733630   -1.119420    2.755300
  H     -7.523290   -1.814310    0.926790
  H     -7.730410   -1.444910    2.629670
  H     -9.763400   -2.508660    1.657780
  H     -9.072850   -3.511730    2.938690
  H     -8.490520   -3.875930   -0.032720
  H     -9.668310   -4.836120    0.864520
  H     -7.361450   -5.903620    0.617790
  H     -7.987100   -5.803800    2.269630
  H     -2.667400   -6.075430    2.101140
  H     -1.323910   -9.098900    2.009850
  H     -5.244590  -10.641440    1.654650
  H     -6.579550   -7.642100    1.761610
  H     -3.569320  -12.391700    1.749310
  H     -0.688440  -11.367850    1.822580
  H     -3.742600  -14.697700    1.646600
  H     -3.374860  -13.987750    3.228580
  H     -4.441620  -16.280550    3.338890
  H     -2.886650  -16.179430    4.170490
  H     -3.207760  -17.157680    1.302740
  H     -3.105870  -18.236200    2.697780
  H     -0.894720  -17.812960    1.481540
  H     -0.868000  -17.531240    3.219630
  H      1.384560  -17.256030    2.260360
  H      5.222380  -13.470970   -1.032650
  H      7.636090  -13.774250   -0.649630
  H      8.456820  -15.573840    0.806690
  H      6.895680  -17.099240    1.925960

 Total Charge           Charge          ....    0
 Multiplicity           Mult            ....    1
 Number of Electrons    NEL             ....  470
 Basis Dimension        Dim             .... 1120

ORBITAL ENERGIES
----------------

  NO   OCC          E(Eh)            E(eV)
   0   2.0000     -88.970653     -2421.0145
   1   2.0000     -88.965979     -2420.8874
   2   2.0000     -14.475346      -393.8942
   3   2.0000     -14.473991      -393.8573
   4   2.0000     -14.420346      -392.3976
   5   2.0000     -14.419608      -392.3775
   6   2.0000     -14.418473      -392.3466
   7   2.0000     -14.418318      -392.3424
   8   2.0000     -14.416372      -392.2894
   9   2.0000     -14.415063      -392.2538
  10   2.0000     -14.412810      -392.1925
  11   2.0000     -14.412765      -392.1913
  12   2.0000     -10.347240      -281.5627
  13   2.0000     -10.345820      -281.5241
  14   2.0000     -10.345042      -281.5029
  15   2.0000     -10.344785      -281.4959
  16   2.0000     -10.342820      -281.4424
  17   2.0000     -10.341828      -281.4155
  18   2.0000     -10.341219      -281.3989
  19   2.0000     -10.339140      -281.3423
  20   2.0000     -10.330520      -281.1077
  21   2.0000     -10.329228      -281.0726
  22   2.0000     -10.328743      -281.0594
  23   2.0000     -10.325244      -280.9642
  24   2.0000     -10.324408      -280.9414
  25   2.0000     -10.323151      -280.9072
  26   2.0000     -10.322681      -280.8944
  27   2.0000     -10.321484      -280.8618
  28   2.0000     -10.321304      -280.8570
  29   2.0000     -10.321230      -280.8549
  30   2.0000     -10.319588      -280.8103
  31   2.0000     -10.318173      -280.7718
  32   2.0000     -10.317675      -280.7582
  33   2.0000     -10.316189      -280.7178
  34   2.0000     -10.315392      -280.6961
  35   2.0000     -10.312692      -280.6226
  36   2.0000     -10.312342      -280.6131
  37   2.0000     -10.310766      -280.5702
  38   2.0000     -10.310593      -280.5655
  39   2.0000     -10.310555      -280.5645
  40   2.0000     -10.310176      -280.5542
  41   2.0000     -10.307127      -280.4712
  42   2.0000     -10.306334      -280.4496
  43   2.0000     -10.306003      -280.4406
  44   2.0000     -10.305832      -280.4359
  45   2.0000     -10.305644      -280.4308
  46   2.0000     -10.301410      -280.3156
  47   2.0000     -10.299213      -280.2558
  48   2.0000     -10.298554      -280.2379
  49   2.0000     -10.298385      -280.2333
  50   2.0000     -10.298243      -280.2294
  51   2.0000     -10.297453      -280.2079
  52   2.0000     -10.295203      -280.1467
  53   2.0000     -10.294919      -280.1390
  54   2.0000     -10.294480      -280.1271
  55   2.0000     -10.293302      -280.0950
  56   2.0000     -10.292926      -280.0848
  57   2.0000     -10.290278      -280.0127
  58   2.0000     -10.285735      -279.8891
  59   2.0000     -10.284851      -279.8650
  60   2.0000     -10.284213      -279.8477
  61   2.0000     -10.283354      -279.8243
  62   2.0000     -10.281576      -279.7759
  63   2.0000     -10.279503      -279.7195
  64   2.0000     -10.275891      -279.6212
  65   2.0000     -10.275449      -279.6092
  66   2.0000     -10.273307      -279.5509
  67   2.0000     -10.271270      -279.4955
  68   2.0000      -8.066485      -219.5002
  69   2.0000      -8.061157      -219.3552
  70   2.0000      -6.035824      -164.2431
  71   2.0000      -6.031857      -164.1352
  72   2.0000      -6.030468      -164.0974
  73   2.0000      -6.028255      -164.0372
  74   2.0000      -6.026482      -163.9889
  75   2.0000      -6.023049      -163.8955
  76   2.0000      -1.108453       -30.1625
  77   2.0000      -1.072654       -29.1884
  78   2.0000      -1.034252       -28.1434
  79   2.0000      -1.030323       -28.0365
  80   2.0000      -1.017072       -27.6759
  81   2.0000      -1.012689       -27.5567
  82   2.0000      -1.007238       -27.4084
  83   2.0000      -1.005860       -27.3708
  84   2.0000      -1.004549       -27.3352
  85   2.0000      -1.001379       -27.2489
  86   2.0000      -0.996584       -27.1184
  87   2.0000      -0.995654       -27.0931
  88   2.0000      -0.993556       -27.0360
  89   2.0000      -0.991435       -26.9783
  90   2.0000      -0.957219       -26.0473
  91   2.0000      -0.953511       -25.9464
  92   2.0000      -0.937690       -25.5158
  93   2.0000      -0.933418       -25.3996
  94   2.0000      -0.930609       -25.3231
  95   2.0000      -0.929141       -25.2832
  96   2.0000      -0.922142       -25.0927
  97   2.0000      -0.911916       -24.8145
  98   2.0000      -0.898066       -24.4376
  99   2.0000      -0.892219       -24.2785
 100   2.0000      -0.887700       -24.1556
 101   2.0000      -0.882232       -24.0068
 102   2.0000      -0.878869       -23.9152
 103   2.0000      -0.864556       -23.5258
 104   2.0000      -0.862014       -23.4566
 105   2.0000      -0.860415       -23.4131
 106   2.0000      -0.855236       -23.2721
 107   2.0000      -0.840639       -22.8750
 108   2.0000      -0.837673       -22.7943
 109   2.0000      -0.832023       -22.6405
 110   2.0000      -0.819009       -22.2864
 111   2.0000      -0.805142       -21.9090
 112   2.0000      -0.790402       -21.5079
 113   2.0000      -0.786642       -21.4056
 114   2.0000      -0.784668       -21.3519
 115   2.0000      -0.756797       -20.5935
 116   2.0000      -0.740821       -20.1588
 117   2.0000      -0.731138       -19.8953
 118   2.0000      -0.727905       -19.8073
 119   2.0000      -0.717418       -19.5219
 120   2.0000      -0.712838       -19.3973
 121   2.0000      -0.712141       -19.3783
 122   2.0000      -0.710991       -19.3471
 123   2.0000      -0.709370       -19.3029
 124   2.0000      -0.708166       -19.2702
 125   2.0000      -0.702974       -19.1289
 126   2.0000      -0.695625       -18.9289
 127   2.0000      -0.690794       -18.7975
 128   2.0000      -0.670224       -18.2377
 129   2.0000      -0.668002       -18.1773
 130   2.0000      -0.664775       -18.0894
 131   2.0000      -0.663570       -18.0567
 132   2.0000      -0.660131       -17.9631
 133   2.0000      -0.658212       -17.9108
 134   2.0000      -0.652204       -17.7474
 135   2.0000      -0.648722       -17.6526
 136   2.0000      -0.636938       -17.3320
 137   2.0000      -0.630456       -17.1556
 138   2.0000      -0.618238       -16.8231
 139   2.0000      -0.614149       -16.7118
 140   2.0000      -0.604724       -16.4554
 141   2.0000      -0.594249       -16.1703
 142   2.0000      -0.591261       -16.0890
 143   2.0000      -0.583721       -15.8838
 144   2.0000      -0.579443       -15.7675
 145   2.0000      -0.578099       -15.7309
 146   2.0000      -0.574894       -15.6437
 147   2.0000      -0.571636       -15.5550
 148   2.0000      -0.563475       -15.3329
 149   2.0000      -0.557959       -15.1828
 150   2.0000      -0.553618       -15.0647
 151   2.0000      -0.551607       -15.0100
 152   2.0000      -0.542734       -14.7686
 153   2.0000      -0.541690       -14.7401
 154   2.0000      -0.540358       -14.7039
 155   2.0000      -0.538935       -14.6652
 156   2.0000      -0.536293       -14.5933
 157   2.0000      -0.535619       -14.5749
 158   2.0000      -0.532578       -14.4922
 159   2.0000      -0.531040       -14.4503
 160   2.0000      -0.528669       -14.3858
 161   2.0000      -0.526397       -14.3240
 162   2.0000      -0.524085       -14.2611
 163   2.0000      -0.522125       -14.2077
 164   2.0000      -0.517074       -14.0703
 165   2.0000      -0.516066       -14.0429
 166   2.0000      -0.513471       -13.9723
 167   2.0000      -0.508897       -13.8478
 168   2.0000      -0.508416       -13.8347
 169   2.0000      -0.506407       -13.7800
 170   2.0000      -0.502482       -13.6732
 171   2.0000      -0.499630       -13.5956
 172   2.0000      -0.494859       -13.4658
 173   2.0000      -0.494192       -13.4477
 174   2.0000      -0.492326       -13.3969
 175   2.0000      -0.489463       -13.3190
 176   2.0000      -0.486648       -13.2424
 177   2.0000      -0.481336       -13.0978
 178   2.0000      -0.478910       -13.0318
 179   2.0000      -0.477097       -12.9825
 180   2.0000      -0.471692       -12.8354
 181   2.0000      -0.467222       -12.7138
 182   2.0000      -0.466012       -12.6808
 183   2.0000      -0.461558       -12.5596
 184   2.0000      -0.459700       -12.5091
 185   2.0000      -0.458107       -12.4657
 186   2.0000      -0.454314       -12.3625
 187   2.0000      -0.453455       -12.3391
 188   2.0000      -0.453415       -12.3380
 189   2.0000      -0.452646       -12.3171
 190   2.0000      -0.451511       -12.2862
 191   2.0000      -0.449130       -12.2214
 192   2.0000      -0.447356       -12.1732
 193   2.0000      -0.446323       -12.1451
 194   2.0000      -0.445349       -12.1186
 195   2.0000      -0.442903       -12.0520
 196   2.0000      -0.441401       -12.0111
 197   2.0000      -0.438645       -11.9361
 198   2.0000      -0.436256       -11.8711
 199   2.0000      -0.430796       -11.7226
 200   2.0000      -0.429324       -11.6825
 201   2.0000      -0.428425       -11.6580
 202   2.0000      -0.428151       -11.6506
 203   2.0000      -0.427183       -11.6242
 204   2.0000      -0.426529       -11.6065
 205   2.0000      -0.425296       -11.5729
 206   2.0000      -0.424352       -11.5472
 207   2.0000      -0.423776       -11.5315
 208   2.0000      -0.418370       -11.3844
 209   2.0000      -0.417744       -11.3674
 210   2.0000      -0.416639       -11.3373
 211   2.0000      -0.411404       -11.1949
 212   2.0000      -0.410189       -11.1618
 213   2.0000      -0.409188       -11.1346
 214   2.0000      -0.408548       -11.1172
 215   2.0000      -0.407191       -11.0802
 216   2.0000      -0.404920       -11.0184
 217   2.0000      -0.404186       -10.9985
 218   2.0000      -0.401796       -10.9334
 219   2.0000      -0.396818       -10.7980
 220   2.0000      -0.383656       -10.4398
 221   2.0000      -0.379200       -10.3186
 222   2.0000      -0.378151       -10.2900
 223   2.0000      -0.367051        -9.9880
 224   2.0000      -0.348349        -9.4791
 225   2.0000      -0.333058        -9.0630
 226   2.0000      -0.328727        -8.9451
 227   2.0000      -0.324676        -8.8349
 228   2.0000      -0.322073        -8.7640
 229   2.0000      -0.321289        -8.7427
 230   2.0000      -0.310369        -8.4456
 231   2.0000      -0.306054        -8.3281
 232   2.0000      -0.293820        -7.9952
 233   2.0000      -0.271921        -7.3994
 234   2.0000      -0.232208        -6.3187
 235   0.0000      -0.107280        -2.9192
 236   0.0000      -0.092716        -2.5229
 237   0.0000      -0.087658        -2.3853
 238   0.0000      -0.082317        -2.2400
 239   0.0000      -0.040130        -1.0920

MULLIKEN ATOMIC CHARGES
-----------------------
   0 C :   -0.037160
   1 C :    0.046113
   2 C :    0.047205
   3 C :   -0.033819
   4 C :   -0.003531
   5 C :    0.013160
   6 C :    0.315895
   7 C :   -0.363447
   8 C :   -0.188473
   9 N :    0.153274
  10 C :   -0.184893
  11 N :    0.154795
  12 C :   -0.079816
  13 C :    0.241649
  14 C :   -0.358698
  15 C :   -0.198344
  16 N :    0.182738
  17 C :   -0.190421
  18 N :    0.158359
  19 C :    0.052018
  20 C :   -0.191096
  21 S :    0.127052
  22 C :   -0.046686
  23 C :   -0.118821
  24 C :   -0.043229
  25 C :    0.134664
  26 C :   -0.001512
  27 C :    0.041937
  28 C :    0.108131
  29 C :    0.078680
  30 N :   -0.050110
  31 C :    0.123099
  32 C :   -0.164116
  33 C :    0.097150
  34 N :   -0.031128
  35 C :    0.123202
  36 C :   -0.176929
  37 C :    0.015510
  38 C :    0.020945
  39 C :   -0.086101
  40 S :    0.142001
  41 C :   -0.152243
  42 C :   -0.041416
  43 C :   -0.087515
  44 C :    0.095119
  45 C :    0.024270
  46 C :    0.031111
  47 C :    0.109828
  48 C :   -0.005470
  49 C :   -0.059710
  50 C :    0.303854
  51 C :   -0.353318
  52 C :   -0.179054
  53 N :    0.140178
  54 C :   -0.188919
  55 N :    0.154123
  56 C :    0.010555
  57 C :    0.002323
  58 C :   -0.033272
  59 C :    0.047238
  60 C :    0.044649
  61 C :   -0.034071
  62 C :    0.215454
  63 C :   -0.325974
  64 C :   -0.180701
  65 N :    0.153106
  66 C :   -0.199769
  67 N :    0.171567
  68 H :    0.004891
  69 H :    0.003173
  70 H :    0.002056
  71 H :    0.003107
  72 H :    0.026075
  73 H :    0.026721
  74 H :    0.015254
  75 H :    0.008306
  76 H :    0.016275
  77 H :    0.003481
  78 H :    0.004140
  79 H :    0.017745
  80 H :    0.028563
  81 H :    0.133270
  82 H :   -0.023202
  83 H :    0.125140
  84 H :   -0.030285
  85 H :   -0.029240
  86 H :   -0.011771
  87 H :    0.025494
  88 H :    0.017781
  89 H :    0.003554
  90 H :    0.009888
  91 H :    0.012175
  92 H :    0.008730
  93 H :    0.034681
  94 H :    0.039846
  95 H :    0.020303
  96 H :    0.003988
  97 H :    0.002375
  98 H :    0.002328
  99 H :    0.003971
Sum of atomic charges:   -0.0000000

LOEWDIN ATOMIC CHARGES
----------------------
   0 C :    0.003753
   1 C :    0.000339
   2 C :    0.001755
   3 C :   -0.000775
   4 C :   -0.012610
   5 C :   -0.013069
   6 C :    0.077331
   7 C :   -0.140306
   8 C :   -0.018922
   9 N :   -0.052275
  10 C :   -0.022894
  11 N :   -0.050917
  12 C :   -0.079256
  13 C :    0.063759
  14 C :   -0.139400
  15 C :   -0.019336
  16 N :   -0.048521
  17 C :   -0.021324
  18 N :   -0.053878
  19 C :    0.041318
  20 C :   -0.189669
  21 S :    0.442988
  22 C :   -0.133737
  23 C :   -0.054522
  24 C :   -0.011351
  25 C :   -0.025730
  26 C :   -0.026373
  27 C :   -0.026868
  28 C :   -0.027912
  29 C :   -0.011090
  30 N :    0.068693
  31 C :   -0.007136
  32 C :   -0.082461
  33 C :    0.001717
  34 N :    0.073870
  35 C :   -0.017864
  36 C :   -0.078533
  37 C :   -0.012368
  38 C :   -0.050542
  39 C :   -0.125652
  40 S :    0.457935
  41 C :   -0.194741
  42 C :    0.005211
  43 C :   -0.063160
  44 C :   -0.030190
  45 C :   -0.027513
  46 C :   -0.025610
  47 C :   -0.026864
  48 C :    0.045417
  49 C :   -0.077675
  50 C :    0.080419
  51 C :   -0.143852
  52 C :   -0.018621
  53 N :   -0.057437
  54 C :   -0.019727
  55 N :   -0.053995
  56 C :   -0.013984
  57 C :   -0.009467
  58 C :   -0.000764
  59 C :    0.002190
  60 C :   -0.001685
  61 C :    0.004018
  62 C :    0.059973
  63 C :   -0.141964
  64 C :   -0.019970
  65 N :   -0.052264
  66 C :   -0.030873
  67 N :   -0.053140
  68 H :    0.041352
  69 H :    0.037152
  70 H :    0.036772
  71 H :    0.040287
  72 H :    0.045168
  73 H :    0.042293
  74 H :    0.030338
  75 H :    0.027343
  76 H :    0.025713
  77 H :    0.022858
  78 H :    0.026720
  79 H :    0.031971
  80 H :    0.035658
  81 H :    0.083111
  82 H :    0.027597
  83 H :    0.090845
  84 H :    0.027462
  85 H :    0.030142
  86 H :    0.030218
  87 H :    0.031376
  88 H :    0.031094
  89 H :    0.025434
  90 H :    0.024235
  91 H :    0.025774
  92 H :    0.028435
  93 H :    0.042150
  94 H :    0.043926
  95 H :    0.048192
  96 H :    0.040200
  97 H :    0.036594
  98 H :    0.036658
  99 H :    0.041031

  Mayer bond orders larger than 0.100000
B(  0-C ,  1-C ) :   1.3666 B(  0-C ,  5-C ) :   1.3819 B(  0-C , 68-H ) :   0.9827
B(  1-C ,  2-C ) :   1.3805 B(  1-C , 69-H ) :   0.9863 B(  2-C ,  3-C ) :   1.3605
B(  2-C , 70-H ) :   0.9858 B(  3-C ,  4-C ) :   1.3843 B(  3-C , 71-H ) :   0.9860
B(  4-C ,  5-C ) :   1.3154 B(  4-C , 13-C ) :   1.0038 B(  5-C ,  6-C ) :   0.9861
B(  6-C ,  7-C ) :   1.6085 B(  6-C , 12-C ) :   1.0910 B(  7-C ,  8-C ) :   1.1539
B(  7-C , 10-C ) :   1.1418 B(  8-C ,  9-N ) :   2.9703 B( 10-C , 11-N ) :   2.9618
B( 12-C , 13-C ) :   1.0525 B( 12-C , 19-C ) :   1.5398 B( 13-C , 14-C ) :   1.6114
B( 14-C , 15-C ) :   1.1743 B( 14-C , 17-C ) :   1.1417 B( 15-C , 16-N ) :   2.9967
B( 17-C , 18-N ) :   2.9810 B( 19-C , 20-C ) :   1.2171 B( 19-C , 72-H ) :   0.9064
B( 20-C , 21-S ) :   1.0926 B( 20-C , 22-C ) :   0.1037 B( 20-C , 24-C ) :   1.4031
B( 21-S , 22-C ) :   1.1251 B( 22-C , 23-C ) :   1.4836 B( 22-C , 29-C ) :   1.1099
B( 23-C , 24-C ) :   1.3734 B( 23-C , 28-C ) :   1.0653 B( 24-C , 25-C ) :   1.0570
B( 25-C , 26-C ) :   1.0911 B( 25-C , 73-H ) :   0.9058 B( 25-C , 74-H ) :   0.9056
B( 26-C , 27-C ) :   1.0685 B( 26-C , 75-H ) :   0.9354 B( 26-C , 76-H ) :   0.9492
B( 27-C , 28-C ) :   1.0823 B( 27-C , 77-H ) :   0.9425 B( 27-C , 78-H ) :   0.9324
B( 28-C , 79-H ) :   0.9081 B( 28-C , 80-H ) :   0.9037 B( 29-C , 30-N ) :   1.1927
B( 29-C , 36-C ) :   1.3865 B( 30-N , 31-C ) :   1.1724 B( 30-N , 81-H ) :   0.9269
B( 31-C , 32-C ) :   1.2753 B( 31-C , 35-C ) :   1.2972 B( 32-C , 33-C ) :   1.3851
B( 32-C , 82-H ) :   1.0313 B( 33-C , 34-N ) :   1.1696 B( 33-C , 37-C ) :   1.1314
B( 34-N , 35-C ) :   1.1717 B( 34-N , 83-H ) :   0.9348 B( 35-C , 36-C ) :   1.2458
B( 36-C , 84-H ) :   1.0343 B( 37-C , 38-C ) :   1.6446 B( 37-C , 85-H ) :   0.9562
B( 38-C , 39-C ) :   1.1585 B( 38-C , 86-H ) :   0.9502 B( 39-C , 40-S ) :   1.1418
B( 39-C , 43-C ) :   1.4263 B( 40-S , 41-C ) :   1.0837 B( 41-C , 42-C ) :   1.3743
B( 41-C , 48-C ) :   1.2549 B( 42-C , 43-C ) :   1.3910 B( 42-C , 47-C ) :   1.0622
B( 43-C , 44-C ) :   1.0511 B( 44-C , 45-C ) :   1.0876 B( 44-C , 87-H ) :   0.8994
B( 44-C , 88-H ) :   0.9163 B( 45-C , 46-C ) :   1.0699 B( 45-C , 89-H ) :   0.9343
B( 45-C , 90-H ) :   0.9459 B( 46-C , 47-C ) :   1.0888 B( 46-C , 91-H ) :   0.9450
B( 46-C , 92-H ) :   0.9342 B( 47-C , 93-H ) :   0.9137 B( 47-C , 94-H ) :   0.8954
B( 48-C , 49-C ) :   1.5078 B( 48-C , 95-H ) :   0.9229 B( 49-C , 50-C ) :   1.0882
B( 49-C , 62-C ) :   1.0433 B( 50-C , 51-C ) :   1.6136 B( 50-C , 56-C ) :   0.9932
B( 51-C , 52-C ) :   1.1447 B( 51-C , 54-C ) :   1.1499 B( 52-C , 53-N ) :   2.9589
B( 54-C , 55-N ) :   2.9731 B( 56-C , 57-C ) :   1.3153 B( 56-C , 61-C ) :   1.3863
B( 57-C , 58-C ) :   1.3878 B( 57-C , 62-C ) :   1.0101 B( 58-C , 59-C ) :   1.3604
B( 58-C , 96-H ) :   0.9868 B( 59-C , 60-C ) :   1.3820 B( 59-C , 97-H ) :   0.9864
B( 60-C , 61-C ) :   1.3662 B( 60-C , 98-H ) :   0.9860 B( 61-C , 99-H ) :   0.9836
B( 62-C , 63-C ) :   1.6320 B( 63-C , 64-C ) :   1.1438 B( 63-C , 66-C ) :   1.1553
B( 64-C , 65-N ) :   2.9904 B( 66-C , 67-N ) :   3.0194

-----------------------------------------------------------------------------
         ABSORPTION SPECTRUM VIA TRANSITION ELECTRIC DIPOLE MOMENTS
-----------------------------------------------------------------------------
State   Energy  Wavelength   fosc         T2         TX        TY        TZ
        (cm-1)    (nm)                  (au**2)     (au)      (au)      (au)
-----------------------------------------------------------------------------
   0   12722.4    786.0   1.873102417  48.46926  -3.25855   5.98961   1.40559
   1   16548.5    604.3   0.122043562   2.42790  -1.50784   0.19929  -0.33852
   2   18550.1    539.1   0.239252855   4.24606  -1.01676  -1.76505   0.31122
   3   19677.1    508.2   0.142289659   2.38061  -0.92809   0.92864  -0.81049
   4   22470.3    445.0   0.030122823   0.44133  -0.48769  -0.43339   0.12515
   5   24651.6    405.7   0.107031299   1.42936   0.27023  -0.81152   0.83532
   6   27229.7    367.2   0.195068397   2.35841   0.02847  -1.16210   1.00356
   7   27332.5    365.9   0.067159312   0.80891   0.77806   0.22745  -0.38962
   8   27888.4    358.6   0.206184964   2.43394  -1.23596  -0.94748  -0.09285
   9   28084.4    356.1   0.198328393   2.32486  -1.03509   1.11661  -0.08129
  10   28262.3    353.8   0.067776260   0.78949   0.67182  -0.55191   0.18314
  11   28798.5    347.2   0.308656150   3.52842  -0.58936   1.78017  -0.10979
  12   29315.6    341.1   0.057246990   0.64288   0.73711   0.08931  -0.30262
  13   29699.5    336.7   0.044911621   0.49783  -0.62985  -0.31458  -0.04644
  14   30948.0    323.1   0.120657593   1.28351  -0.38123  -0.76996   0.73847
  15   31217.8    320.3   0.090489160   0.95427   0.94677   0.14887   0.18905
  16   31418.7    318.3   0.115668215   1.21200   0.39228   0.90997  -0.47966
  17   31926.0    313.2   0.017107188   0.17640  -0.41159   0.03310  -0.07682
  18   32899.9    304.0   0.416262571   4.16533  -0.90898   1.24016  -1.34204
  19   33227.1    301.0   0.329414821   3.26382  -0.69773  -1.50586   0.71371
  20   33689.2    296.8   0.049500417   0.48372   0.36025   0.52742  -0.27527
  21   33928.5    294.7   0.112986035   1.09632   0.94479   0.13177  -0.43166
  22   34016.5    294.0   0.018925861   0.18316  -0.06884   0.29938  -0.29799
  23   34404.2    290.7   0.251625850   2.40779  -0.65008  -1.39279   0.21289
  24   34578.7    289.2   0.077007709   0.73316  -0.69529   0.07302  -0.49437
  25   34673.6    288.4   0.381646673   3.62358  -1.62358   0.29104   0.95020
  26   35108.6    284.8   0.060201965   0.56451  -0.70977   0.03659   0.24372
  27   36581.4    273.4   0.002656555   0.02391  -0.10169  -0.02102   0.11456
  28   36885.8    271.1   0.021285657   0.18998  -0.21992  -0.33562  -0.17023
  29   37121.5    269.4   0.012946658   0.11482   0.26073   0.10865   0.18717
  30   37863.1    264.1   0.032186750   0.27986  -0.36859  -0.36981  -0.08506
  31   38449.5    260.1   0.078976350   0.67621   0.04412   0.82083   0.02225
  32   39037.1    256.2   0.013144353   0.11085  -0.31312  -0.10308  -0.04670
  33   39159.3    255.4   0.003953921   0.03324   0.14516  -0.02614  -0.10717
  34   39394.0    253.8   0.054881344   0.45864   0.50458  -0.35836  -0.27498
  35   39849.1    250.9   0.033415417   0.27606  -0.28291  -0.29853   0.32696

FINAL SINGLE POINT ENERGY     -3493.228651861594

DIPOLE MOMENT
-------------
                                X             Y             Z
Electronic contribution:     39.36533      13.31637       1.51045
Nuclear contribution   :    -42.44679     -12.45327      -1.65797
                        -----------------------------------------
Total Dipole Moment    :     -3.08145       0.86310      -0.14752
                        -----------------------------------------
Magnitude (a.u.)       :      3.20345
Magnitude (Debye)      :      8.14251

Rotational constants in cm-1:     0.002306     0.000265     0.000250
Rotational constants in MHz :    69.142624     7.948430     7.497821

                             ****ORCA TERMINATED NORMALLY****
TOTAL RUN TIME: 0 days 0 hours 10 minutes 32 seconds 675 msec
