                         Program Version 4.2.0 -  RELEASE  -
|  1> # ORCA input file
|  2> # SCF done       -183.026456432245          0.000951270694
|  3> ! CAM-B3LYP def2-SVP def2/J RIJCOSX Grid4 TightSCF
|  4> %maxcore 5000
|  5> %tddft
|  6>     Mode sTDDFT
|  7>     Ethresh 5.0
|  8>     maxcore 5000
|  9> end
| 10>
| 11> %pal
| 12>   nprocs 6
| 13>   end
| 14> * xyz 0 1
| 15>    C       -0.83467         2.15980        -2.10421
| 16>    C       -0.88478         1.41225        -1.00079
| 17>    C        0.26098         0.69326        -0.51868
| 18>    C        1.49353         0.87494        -1.04389
| 19>    C        1.69992         1.88847        -2.15513
| 20>    C        0.41392         2.22747        -2.94168
| 21>    N        0.44563         3.52035        -3.58423
| 22>    C        1.19936         4.41220        -3.12006
| 23>    C        2.10281         4.17729        -1.97723
| 24>    N        2.33315         3.02867        -1.52431
| 25>    F        2.66845         5.23349        -1.40242
| 26>    F        1.20641         5.61755        -3.67930
| 27>    C        2.67108         0.25028        -0.52430
| 28>    C        2.77495        -0.64497         0.52323
| 29>    C        4.09438        -1.02864         0.76778
| 30>    C        5.01234        -0.41525        -0.10599
| 31>    S        4.24538         0.62383        -1.21836
| 32>    C        6.31719        -0.84803         0.23249
| 33>    C        6.22395        -1.73165         1.32088
| 34>    C        4.82253        -1.87546         1.69071
| 35>    C        4.31611        -2.64153         2.70258
| 36>    C        5.14316        -3.40866         3.54722
| 37>    N        5.81453        -4.02915         4.24099
| 38>    C        2.93416        -2.71189         2.97117
| 39>    N        1.81000        -2.77484         3.19032
| 40>    C        7.45860        -2.20542         1.75067
| 41>    C        8.50661        -1.69355         0.99936
| 42>    S        7.93750        -0.60870        -0.26214
| 43>    C        9.89927        -1.93327         1.17956
| 44>    C       10.37577        -2.79018         2.14430
| 45>    C       11.72116        -3.03363         2.40704
| 46>    C       12.76873        -2.48179         1.53621
| 47>    C       12.53220        -1.61819         0.52572
| 48>    S       10.97051        -1.03730         0.10957
| 49>    C       13.98469        -3.05549         2.00031
| 50>    C       13.72439        -3.89174         3.08714
| 51>    C       14.90116        -4.48009         3.60067
| 52>    C       15.99904        -4.08674         2.90399
| 53>    S       15.65598        -2.98999         1.60767
| 54>    C       12.31503        -3.86595         3.37707
| 55>    C       11.71539        -4.55560         4.46002
| 56>    C       10.51768        -4.24328         5.02310
| 57>    C        9.87516        -4.96307         6.05802
| 58>    C       10.26154        -6.12305         6.71611
| 59>    C        9.32185        -6.52523         7.66002
| 60>    C        8.20391        -5.67302         7.72333
| 61>    S        8.31724        -4.37429         6.62608
| 62>    C        7.31192        -6.17418         8.70214
| 63>    C        7.86222        -7.34030         9.26184
| 64>    C        9.13768        -7.60461         8.62284
| 65>    C        9.98498        -8.64848         8.85693
| 66>    C        9.69370        -9.66588         9.78959
| 67>    N        9.46445       -10.50780        10.53366
| 68>    C       11.20575        -8.78744         8.16523
| 69>    N       12.20402        -8.90240         7.61159
| 70>    C        7.05291        -7.90314        10.25215
| 71>    C        5.89058        -7.18555        10.44750
| 72>    S        5.79656        -5.78517         9.37806
| 73>    C        4.80871        -7.45371        11.34823
| 74>    C        3.58259        -6.91122        11.18711
| 75>    C        2.48497        -7.21065        12.06136
| 76>    C        2.65847        -7.91094        13.18309
| 77>    C        4.02971        -8.33748        13.63171
| 78>    C        5.05372        -8.44845        12.47646
| 79>    N        6.42138        -8.30824        12.92427
| 80>    C        6.65885        -7.61923        13.94824
| 81>    C        5.59214        -7.04425        14.78671
| 82>    N        4.39037        -7.38817        14.66687
| 83>    F        5.93309        -6.15043        15.71046
| 84>    F        7.91847        -7.44663        14.33578
| 85>    H       -1.67944         2.71668        -2.47539
| 86>    H       -1.79907         1.33590        -0.43251
| 87>    H        0.11439         0.01552         0.30672
| 88>    H        2.44725         1.49045        -2.85739
| 89>    H        0.29323         1.50167        -3.75946
| 90>    H        1.93119        -1.00135         1.08400
| 91>    H        7.58640        -2.88314         2.57362
| 92>    H        9.64183        -3.33393         2.71677
| 93>    H       13.31855        -1.21452        -0.09221
| 94>    H       14.93935        -5.15665         4.43486
| 95>    H       17.01923        -4.37381         3.06829
| 96>    H       12.29481        -5.36759         4.87859
| 97>    H        9.99357        -3.35734         4.69570
| 98>    H       11.18114        -6.63818         6.50935
| 99>    H        7.29156        -8.79175        10.80462
|100>    H        3.40303        -6.23718        10.36214
|101>    H        1.50719        -6.85065        11.78029
|102>    H        1.85570        -8.10143        13.87527
|103>    H        3.95854        -9.30870        14.14068
|104>    H        4.98946        -9.45350        12.03655
|105> *
|106>
|107>                          ****END OF INPUT****

CARTESIAN COORDINATES (ANGSTROEM)
---------------------------------
  C     -0.834670    2.159800   -2.104210
  C     -0.884780    1.412250   -1.000790
  C      0.260980    0.693260   -0.518680
  C      1.493530    0.874940   -1.043890
  C      1.699920    1.888470   -2.155130
  C      0.413920    2.227470   -2.941680
  N      0.445630    3.520350   -3.584230
  C      1.199360    4.412200   -3.120060
  C      2.102810    4.177290   -1.977230
  N      2.333150    3.028670   -1.524310
  F      2.668450    5.233490   -1.402420
  F      1.206410    5.617550   -3.679300
  C      2.671080    0.250280   -0.524300
  C      2.774950   -0.644970    0.523230
  C      4.094380   -1.028640    0.767780
  C      5.012340   -0.415250   -0.105990
  S      4.245380    0.623830   -1.218360
  C      6.317190   -0.848030    0.232490
  C      6.223950   -1.731650    1.320880
  C      4.822530   -1.875460    1.690710
  C      4.316110   -2.641530    2.702580
  C      5.143160   -3.408660    3.547220
  N      5.814530   -4.029150    4.240990
  C      2.934160   -2.711890    2.971170
  N      1.810000   -2.774840    3.190320
  C      7.458600   -2.205420    1.750670
  C      8.506610   -1.693550    0.999360
  S      7.937500   -0.608700   -0.262140
  C      9.899270   -1.933270    1.179560
  C     10.375770   -2.790180    2.144300
  C     11.721160   -3.033630    2.407040
  C     12.768730   -2.481790    1.536210
  C     12.532200   -1.618190    0.525720
  S     10.970510   -1.037300    0.109570
  C     13.984690   -3.055490    2.000310
  C     13.724390   -3.891740    3.087140
  C     14.901160   -4.480090    3.600670
  C     15.999040   -4.086740    2.903990
  S     15.655980   -2.989990    1.607670
  C     12.315030   -3.865950    3.377070
  C     11.715390   -4.555600    4.460020
  C     10.517680   -4.243280    5.023100
  C      9.875160   -4.963070    6.058020
  C     10.261540   -6.123050    6.716110
  C      9.321850   -6.525230    7.660020
  C      8.203910   -5.673020    7.723330
  S      8.317240   -4.374290    6.626080
  C      7.311920   -6.174180    8.702140
  C      7.862220   -7.340300    9.261840
  C      9.137680   -7.604610    8.622840
  C      9.984980   -8.648480    8.856930
  C      9.693700   -9.665880    9.789590
  N      9.464450  -10.507800   10.533660
  C     11.205750   -8.787440    8.165230
  N     12.204020   -8.902400    7.611590
  C      7.052910   -7.903140   10.252150
  C      5.890580   -7.185550   10.447500
  S      5.796560   -5.785170    9.378060
  C      4.808710   -7.453710   11.348230
  C      3.582590   -6.911220   11.187110
  C      2.484970   -7.210650   12.061360
  C      2.658470   -7.910940   13.183090
  C      4.029710   -8.337480   13.631710
  C      5.053720   -8.448450   12.476460
  N      6.421380   -8.308240   12.924270
  C      6.658850   -7.619230   13.948240
  C      5.592140   -7.044250   14.786710
  N      4.390370   -7.388170   14.666870
  F      5.933090   -6.150430   15.710460
  F      7.918470   -7.446630   14.335780
  H     -1.679440    2.716680   -2.475390
  H     -1.799070    1.335900   -0.432510
  H      0.114390    0.015520    0.306720
  H      2.447250    1.490450   -2.857390
  H      0.293230    1.501670   -3.759460
  H      1.931190   -1.001350    1.084000
  H      7.586400   -2.883140    2.573620
  H      9.641830   -3.333930    2.716770
  H     13.318550   -1.214520   -0.092210
  H     14.939350   -5.156650    4.434860
  H     17.019230   -4.373810    3.068290
  H     12.294810   -5.367590    4.878590
  H      9.993570   -3.357340    4.695700
  H     11.181140   -6.638180    6.509350
  H      7.291560   -8.791750   10.804620
  H      3.403030   -6.237180   10.362140
  H      1.507190   -6.850650   11.780290
  H      1.855700   -8.101430   13.875270
  H      3.958540   -9.308700   14.140680
  H      4.989460   -9.453500   12.036550

 Total Charge           Charge          ....    0
 Multiplicity           Mult            ....    1
 Number of Electrons    NEL             ....  520
 Basis Dimension        Dim             .... 1104

ORBITAL ENERGIES
----------------

  NO   OCC          E(Eh)            E(eV)
   0   2.0000     -88.990919     -2421.5660
   1   2.0000     -88.987986     -2421.4862
   2   2.0000     -88.977795     -2421.2089
   3   2.0000     -88.973478     -2421.0914
   4   2.0000     -88.972583     -2421.0671
   5   2.0000     -88.955969     -2420.6150
   6   2.0000     -24.808819      -675.0823
   7   2.0000     -24.807973      -675.0593
   8   2.0000     -24.799226      -674.8213
   9   2.0000     -24.797931      -674.7860
  10   2.0000     -14.438043      -392.8791
  11   2.0000     -14.436525      -392.8378
  12   2.0000     -14.433694      -392.7608
  13   2.0000     -14.431688      -392.7062
  14   2.0000     -14.426488      -392.5647
  15   2.0000     -14.426368      -392.5614
  16   2.0000     -14.418481      -392.3468
  17   2.0000     -14.416281      -392.2870
  18   2.0000     -10.423485      -283.6375
  19   2.0000     -10.422460      -283.6096
  20   2.0000     -10.413812      -283.3742
  21   2.0000     -10.411109      -283.3007
  22   2.0000     -10.364469      -282.0315
  23   2.0000     -10.352966      -281.7185
  24   2.0000     -10.349608      -281.6272
  25   2.0000     -10.338708      -281.3305
  26   2.0000     -10.337971      -281.3105
  27   2.0000     -10.334856      -281.2257
  28   2.0000     -10.333487      -281.1885
  29   2.0000     -10.332388      -281.1586
  30   2.0000     -10.329995      -281.0935
  31   2.0000     -10.329446      -281.0785
  32   2.0000     -10.329127      -281.0698
  33   2.0000     -10.328825      -281.0616
  34   2.0000     -10.328691      -281.0580
  35   2.0000     -10.328373      -281.0493
  36   2.0000     -10.324067      -280.9321
  37   2.0000     -10.319844      -280.8172
  38   2.0000     -10.319583      -280.8101
  39   2.0000     -10.318724      -280.7868
  40   2.0000     -10.316952      -280.7385
  41   2.0000     -10.313414      -280.6423
  42   2.0000     -10.307847      -280.4908
  43   2.0000     -10.305977      -280.4399
  44   2.0000     -10.304269      -280.3934
  45   2.0000     -10.302629      -280.3488
  46   2.0000     -10.301089      -280.3069
  47   2.0000     -10.299818      -280.2723
  48   2.0000     -10.299146      -280.2540
  49   2.0000     -10.298013      -280.2232
  50   2.0000     -10.297043      -280.1968
  51   2.0000     -10.296073      -280.1704
  52   2.0000     -10.295698      -280.1602
  53   2.0000     -10.288960      -279.9768
  54   2.0000     -10.288036      -279.9517
  55   2.0000     -10.286382      -279.9067
  56   2.0000     -10.285702      -279.8882
  57   2.0000     -10.284760      -279.8625
  58   2.0000     -10.284725      -279.8616
  59   2.0000     -10.284541      -279.8566
  60   2.0000     -10.284373      -279.8520
  61   2.0000     -10.282570      -279.8030
  62   2.0000     -10.281617      -279.7770
  63   2.0000     -10.279348      -279.7153
  64   2.0000     -10.277539      -279.6660
  65   2.0000     -10.276541      -279.6389
  66   2.0000     -10.276448      -279.6364
  67   2.0000     -10.275700      -279.6160
  68   2.0000     -10.273601      -279.5589
  69   2.0000     -10.272587      -279.5313
  70   2.0000      -8.085313      -220.0125
  71   2.0000      -8.082128      -219.9259
  72   2.0000      -8.073257      -219.6845
  73   2.0000      -8.068042      -219.5426
  74   2.0000      -8.067194      -219.5195
  75   2.0000      -8.051383      -219.0893
  76   2.0000      -6.054639      -164.7551
  77   2.0000      -6.051336      -164.6652
  78   2.0000      -6.050393      -164.6396
  79   2.0000      -6.047637      -164.5646
  80   2.0000      -6.047071      -164.5492
  81   2.0000      -6.044746      -164.4859
  82   2.0000      -6.042904      -164.4358
  83   2.0000      -6.038397      -164.3131
  84   2.0000      -6.037283      -164.2828
  85   2.0000      -6.036335      -164.2570
  86   2.0000      -6.034979      -164.2201
  87   2.0000      -6.033123      -164.1696
  88   2.0000      -6.032178      -164.1439
  89   2.0000      -6.030446      -164.0968
  90   2.0000      -6.029754      -164.0779
  91   2.0000      -6.020819      -163.8348
  92   2.0000      -6.016592      -163.7198
  93   2.0000      -6.013400      -163.6329
  94   2.0000      -1.338295       -36.4169
  95   2.0000      -1.328112       -36.1398
  96   2.0000      -1.323554       -36.0157
  97   2.0000      -1.313448       -35.7407
  98   2.0000      -1.088908       -29.6307
  99   2.0000      -1.078565       -29.3492
 100   2.0000      -1.044037       -28.4097
 101   2.0000      -1.028941       -27.9989
 102   2.0000      -1.024343       -27.8738
 103   2.0000      -1.021853       -27.8060
 104   2.0000      -1.011377       -27.5210
 105   2.0000      -1.010405       -27.4945
 106   2.0000      -1.008352       -27.4387
 107   2.0000      -1.007649       -27.4195
 108   2.0000      -0.997827       -27.1523
 109   2.0000      -0.994938       -27.0736
 110   2.0000      -0.982082       -26.7238
 111   2.0000      -0.974341       -26.5132
 112   2.0000      -0.959023       -26.0963
 113   2.0000      -0.950799       -25.8725
 114   2.0000      -0.948148       -25.8004
 115   2.0000      -0.936259       -25.4769
 116   2.0000      -0.928465       -25.2648
 117   2.0000      -0.913856       -24.8673
 118   2.0000      -0.902737       -24.5647
 119   2.0000      -0.890747       -24.2385
 120   2.0000      -0.876859       -23.8605
 121   2.0000      -0.873853       -23.7788
 122   2.0000      -0.867309       -23.6007
 123   2.0000      -0.861130       -23.4325
 124   2.0000      -0.856913       -23.3178
 125   2.0000      -0.854713       -23.2579
 126   2.0000      -0.853341       -23.2206
 127   2.0000      -0.846136       -23.0245
 128   2.0000      -0.837501       -22.7896
 129   2.0000      -0.835972       -22.7480
 130   2.0000      -0.817595       -22.2479
 131   2.0000      -0.799057       -21.7434
 132   2.0000      -0.786023       -21.3888
 133   2.0000      -0.781057       -21.2536
 134   2.0000      -0.777993       -21.1703
 135   2.0000      -0.770045       -20.9540
 136   2.0000      -0.769282       -20.9332
 137   2.0000      -0.765942       -20.8423
 138   2.0000      -0.757782       -20.6203
 139   2.0000      -0.750729       -20.4284
 140   2.0000      -0.741293       -20.1716
 141   2.0000      -0.732715       -19.9382
 142   2.0000      -0.716542       -19.4981
 143   2.0000      -0.705204       -19.1896
 144   2.0000      -0.698696       -19.0125
 145   2.0000      -0.689446       -18.7608
 146   2.0000      -0.683662       -18.6034
 147   2.0000      -0.681303       -18.5392
 148   2.0000      -0.672618       -18.3029
 149   2.0000      -0.670911       -18.2564
 150   2.0000      -0.666755       -18.1433
 151   2.0000      -0.665041       -18.0967
 152   2.0000      -0.659049       -17.9336
 153   2.0000      -0.655965       -17.8497
 154   2.0000      -0.652369       -17.7519
 155   2.0000      -0.648114       -17.6361
 156   2.0000      -0.639760       -17.4088
 157   2.0000      -0.637846       -17.3567
 158   2.0000      -0.630342       -17.1525
 159   2.0000      -0.622803       -16.9473
 160   2.0000      -0.621320       -16.9070
 161   2.0000      -0.618121       -16.8199
 162   2.0000      -0.617371       -16.7995
 163   2.0000      -0.613521       -16.6948
 164   2.0000      -0.610312       -16.6074
 165   2.0000      -0.599933       -16.3250
 166   2.0000      -0.597545       -16.2600
 167   2.0000      -0.594115       -16.1667
 168   2.0000      -0.591357       -16.0916
 169   2.0000      -0.587889       -15.9973
 170   2.0000      -0.585810       -15.9407
 171   2.0000      -0.581547       -15.8247
 172   2.0000      -0.573236       -15.5985
 173   2.0000      -0.568755       -15.4766
 174   2.0000      -0.564498       -15.3608
 175   2.0000      -0.559300       -15.2193
 176   2.0000      -0.557533       -15.1713
 177   2.0000      -0.550903       -14.9908
 178   2.0000      -0.549652       -14.9568
 179   2.0000      -0.547150       -14.8887
 180   2.0000      -0.546134       -14.8611
 181   2.0000      -0.541997       -14.7485
 182   2.0000      -0.540514       -14.7081
 183   2.0000      -0.535931       -14.5834
 184   2.0000      -0.531403       -14.4602
 185   2.0000      -0.531011       -14.4495
 186   2.0000      -0.528292       -14.3756
 187   2.0000      -0.525735       -14.3060
 188   2.0000      -0.517614       -14.0850
 189   2.0000      -0.515074       -14.0159
 190   2.0000      -0.514067       -13.9885
 191   2.0000      -0.511410       -13.9162
 192   2.0000      -0.510471       -13.8906
 193   2.0000      -0.505812       -13.7638
 194   2.0000      -0.505046       -13.7430
 195   2.0000      -0.502774       -13.6812
 196   2.0000      -0.497249       -13.5308
 197   2.0000      -0.496446       -13.5090
 198   2.0000      -0.493940       -13.4408
 199   2.0000      -0.492670       -13.4062
 200   2.0000      -0.490470       -13.3464
 201   2.0000      -0.487691       -13.2707
 202   2.0000      -0.486188       -13.2298
 203   2.0000      -0.480620       -13.0783
 204   2.0000      -0.477243       -12.9864
 205   2.0000      -0.470804       -12.8112
 206   2.0000      -0.469433       -12.7739
 207   2.0000      -0.465849       -12.6764
 208   2.0000      -0.465454       -12.6656
 209   2.0000      -0.462433       -12.5834
 210   2.0000      -0.461862       -12.5679
 211   2.0000      -0.460523       -12.5315
 212   2.0000      -0.459497       -12.5035
 213   2.0000      -0.455507       -12.3950
 214   2.0000      -0.453934       -12.3522
 215   2.0000      -0.450009       -12.2454
 216   2.0000      -0.447596       -12.1797
 217   2.0000      -0.445324       -12.1179
 218   2.0000      -0.443949       -12.0805
 219   2.0000      -0.443462       -12.0672
 220   2.0000      -0.441817       -12.0225
 221   2.0000      -0.440489       -11.9863
 222   2.0000      -0.437233       -11.8977
 223   2.0000      -0.431317       -11.7367
 224   2.0000      -0.430082       -11.7031
 225   2.0000      -0.429005       -11.6738
 226   2.0000      -0.428083       -11.6487
 227   2.0000      -0.427681       -11.6378
 228   2.0000      -0.425689       -11.5836
 229   2.0000      -0.424222       -11.5437
 230   2.0000      -0.423399       -11.5213
 231   2.0000      -0.423276       -11.5179
 232   2.0000      -0.419220       -11.4076
 233   2.0000      -0.413849       -11.2614
 234   2.0000      -0.412056       -11.2126
 235   2.0000      -0.410585       -11.1726
 236   2.0000      -0.409062       -11.1311
 237   2.0000      -0.407958       -11.1011
 238   2.0000      -0.402320       -10.9477
 239   2.0000      -0.396640       -10.7931
 240   2.0000      -0.396086       -10.7781
 241   2.0000      -0.390209       -10.6181
 242   2.0000      -0.377803       -10.2805
 243   2.0000      -0.366358        -9.9691
 244   2.0000      -0.364926        -9.9301
 245   2.0000      -0.357022        -9.7151
 246   2.0000      -0.353926        -9.6308
 247   2.0000      -0.348979        -9.4962
 248   2.0000      -0.345226        -9.3941
 249   2.0000      -0.340524        -9.2661
 250   2.0000      -0.330880        -9.0037
 251   2.0000      -0.329768        -8.9735
 252   2.0000      -0.322110        -8.7651
 253   2.0000      -0.317058        -8.6276
 254   2.0000      -0.308634        -8.3984
 255   2.0000      -0.299470        -8.1490
 256   2.0000      -0.281847        -7.6695
 257   2.0000      -0.265599        -7.2273
 258   2.0000      -0.247481        -6.7343
 259   2.0000      -0.216012        -5.8780
 260   0.0000      -0.106713        -2.9038
 261   0.0000      -0.090686        -2.4677
 262   0.0000      -0.064837        -1.7643
 263   0.0000      -0.047980        -1.3056
 264   0.0000      -0.037968        -1.0332

MULLIKEN ATOMIC CHARGES
-----------------------
   0 C :   -0.044745
   1 C :    0.065808
   2 C :   -0.075998
   3 C :    0.087865
   4 C :    0.019924
   5 C :    0.128806
   6 N :   -0.089722
   7 C :    0.099330
   8 C :    0.116166
   9 N :   -0.081435
  10 F :   -0.142837
  11 F :   -0.144158
  12 C :   -0.055621
  13 C :   -0.033324
  14 C :    0.001162
  15 C :   -0.099995
  16 S :    0.184188
  17 C :   -0.102558
  18 C :    0.011097
  19 C :    0.310989
  20 C :   -0.304349
  21 C :   -0.183562
  22 N :    0.164454
  23 C :   -0.187507
  24 N :    0.166569
  25 C :   -0.052830
  26 C :   -0.058156
  27 S :    0.185193
  28 C :   -0.034022
  29 C :   -0.076365
  30 C :    0.045738
  31 C :    0.066678
  32 C :   -0.130488
  33 S :    0.115459
  34 C :   -0.110903
  35 C :    0.055175
  36 C :    0.008317
  37 C :   -0.069021
  38 S :    0.127478
  39 C :    0.078833
  40 C :   -0.025966
  41 C :    0.029990
  42 C :   -0.086656
  43 C :   -0.036155
  44 C :    0.003165
  45 C :   -0.110947
  46 S :    0.211649
  47 C :   -0.092348
  48 C :    0.003001
  49 C :    0.310793
  50 C :   -0.306327
  51 C :   -0.188559
  52 N :    0.170328
  53 C :   -0.185583
  54 N :    0.160678
  55 C :   -0.016350
  56 C :   -0.089621
  57 S :    0.168407
  58 C :    0.020543
  59 C :   -0.066434
  60 C :    0.033651
  61 C :    0.003789
  62 C :    0.100782
  63 C :    0.113662
  64 N :   -0.100910
  65 C :    0.116456
  66 C :    0.115530
  67 N :   -0.091546
  68 F :   -0.146742
  69 F :   -0.143617
  70 H :    0.013530
  71 H :   -0.004283
  72 H :   -0.009173
  73 H :    0.040718
  74 H :    0.041024
  75 H :    0.001630
  76 H :    0.003844
  77 H :   -0.017941
  78 H :    0.036314
  79 H :   -0.010339
  80 H :    0.028430
  81 H :   -0.013001
  82 H :   -0.021020
  83 H :    0.001119
  84 H :    0.019954
  85 H :   -0.010108
  86 H :   -0.008186
  87 H :    0.004283
  88 H :    0.028194
  89 H :    0.038713
Sum of atomic charges:   -0.0000000

LOEWDIN ATOMIC CHARGES
----------------------
   0 C :   -0.020165
   1 C :   -0.030360
   2 C :   -0.019979
   3 C :   -0.035602
   4 C :    0.007290
   5 C :    0.011756
   6 N :   -0.067616
   7 C :    0.045723
   8 C :    0.047691
   9 N :   -0.077217
  10 F :   -0.031714
  11 F :   -0.032628
  12 C :   -0.156289
  13 C :   -0.022983
  14 C :   -0.075643
  15 C :   -0.181512
  16 S :    0.492432
  17 C :   -0.186891
  18 C :   -0.067795
  19 C :    0.087455
  20 C :   -0.108906
  21 C :   -0.012185
  22 N :   -0.045664
  23 C :   -0.015963
  24 N :   -0.037500
  25 C :   -0.032405
  26 C :   -0.179805
  27 S :    0.466146
  28 C :   -0.190788
  29 C :   -0.016735
  30 C :   -0.025565
  31 C :   -0.045048
  32 C :   -0.141961
  33 S :    0.429136
  34 C :   -0.204132
  35 C :   -0.038736
  36 C :   -0.061815
  37 C :   -0.163158
  38 S :    0.421365
  39 C :   -0.044933
  40 C :   -0.011718
  41 C :   -0.056034
  42 C :   -0.160982
  43 C :   -0.033122
  44 C :   -0.065189
  45 C :   -0.193618
  46 S :    0.494756
  47 C :   -0.170029
  48 C :   -0.081117
  49 C :    0.085733
  50 C :   -0.108612
  51 C :   -0.017135
  52 N :   -0.035527
  53 C :   -0.014166
  54 N :   -0.043660
  55 C :   -0.020017
  56 C :   -0.169830
  57 S :    0.472200
  58 C :   -0.039934
  59 C :   -0.045771
  60 C :   -0.028433
  61 C :   -0.014827
  62 C :    0.014642
  63 C :    0.023961
  64 N :   -0.065372
  65 C :    0.053482
  66 C :    0.041840
  67 N :   -0.065106
  68 F :   -0.035542
  69 F :   -0.031694
  70 H :    0.032401
  71 H :    0.034990
  72 H :    0.032529
  73 H :    0.027748
  74 H :    0.047788
  75 H :    0.038178
  76 H :    0.036700
  77 H :    0.036965
  78 H :    0.036622
  79 H :    0.032865
  80 H :    0.024069
  81 H :    0.031455
  82 H :    0.024178
  83 H :    0.036891
  84 H :    0.039232
  85 H :    0.021634
  86 H :    0.033038
  87 H :    0.029800
  88 H :    0.040181
  89 H :    0.046254

  Mayer bond orders larger than 0.100000
B(  0-C ,  1-C ) :   1.8015 B(  0-C ,  5-C ) :   0.9715 B(  0-C , 70-H ) :   0.9817
B(  1-C ,  2-C ) :   1.0682 B(  1-C , 71-H ) :   0.9797 B(  2-C ,  3-C ) :   1.7383
B(  2-C , 72-H ) :   0.9817 B(  3-C ,  4-C ) :   0.9774 B(  3-C , 12-C ) :   1.1065
B(  4-C ,  5-C ) :   0.9749 B(  4-C ,  9-N ) :   1.0232 B(  4-C , 73-H ) :   0.8953
B(  5-C ,  6-N ) :   1.0063 B(  5-C , 74-H ) :   0.8826 B(  6-N ,  7-C ) :   1.9576
B(  7-C ,  8-C ) :   0.9349 B(  7-C , 11-F ) :   1.1618 B(  8-C ,  9-N ) :   1.9609
B(  8-C , 10-F ) :   1.1665 B( 12-C , 13-C ) :   1.4873 B( 12-C , 16-S ) :   1.1000
B( 13-C , 14-C ) :   1.2915 B( 13-C , 75-H ) :   0.9893 B( 14-C , 15-C ) :   1.4263
B( 14-C , 19-C ) :   1.0058 B( 15-C , 16-S ) :   1.1387 B( 15-C , 17-C ) :   1.1943
B( 17-C , 18-C ) :   1.4397 B( 17-C , 27-S ) :   1.1135 B( 18-C , 19-C ) :   0.9991
B( 18-C , 25-C ) :   1.3043 B( 19-C , 20-C ) :   1.6975 B( 20-C , 21-C ) :   1.1359
B( 20-C , 23-C ) :   1.1366 B( 21-C , 22-N ) :   2.9854 B( 23-C , 24-N ) :   2.9892
B( 25-C , 26-C ) :   1.4764 B( 25-C , 76-H ) :   0.9839 B( 26-C , 27-S ) :   1.1038
B( 26-C , 28-C ) :   1.1252 B( 28-C , 29-C ) :   1.5543 B( 28-C , 33-S ) :   1.0337
B( 29-C , 30-C ) :   1.2332 B( 29-C , 77-H ) :   0.9649 B( 30-C , 31-C ) :   1.0496
B( 30-C , 39-C ) :   1.3879 B( 31-C , 32-C ) :   1.6197 B( 31-C , 34-C ) :   1.1751
B( 32-C , 33-S ) :   1.1286 B( 32-C , 78-H ) :   0.9404 B( 34-C , 35-C ) :   1.4406
B( 34-C , 38-S ) :   1.0759 B( 35-C , 36-C ) :   1.2194 B( 35-C , 39-C ) :   1.0992
B( 36-C , 37-C ) :   1.5848 B( 36-C , 79-H ) :   0.9996 B( 37-C , 38-S ) :   1.1544
B( 37-C , 80-H ) :   0.9664 B( 39-C , 40-C ) :   1.1590 B( 40-C , 41-C ) :   1.6508
B( 40-C , 81-H ) :   0.9613 B( 41-C , 42-C ) :   1.1309 B( 41-C , 82-H ) :   0.9532
B( 42-C , 43-C ) :   1.4377 B( 42-C , 46-S ) :   1.1211 B( 43-C , 44-C ) :   1.3157
B( 43-C , 83-H ) :   0.9896 B( 44-C , 45-C ) :   1.4292 B( 44-C , 49-C ) :   0.9898
B( 45-C , 46-S ) :   1.1352 B( 45-C , 47-C ) :   1.1908 B( 47-C , 48-C ) :   1.4370
B( 47-C , 57-S ) :   1.1337 B( 48-C , 49-C ) :   1.0080 B( 48-C , 55-C ) :   1.2612
B( 49-C , 50-C ) :   1.7022 B( 50-C , 51-C ) :   1.1343 B( 50-C , 53-C ) :   1.1362
B( 51-C , 52-N ) :   2.9924 B( 53-C , 54-N ) :   2.9862 B( 55-C , 56-C ) :   1.4843
B( 55-C , 84-H ) :   0.9826 B( 56-C , 57-S ) :   1.0881 B( 56-C , 58-C ) :   1.1189
B( 58-C , 59-C ) :   1.7314 B( 58-C , 63-C ) :   0.9500 B( 59-C , 60-C ) :   1.0809
B( 59-C , 85-H ) :   0.9757 B( 60-C , 61-C ) :   1.8161 B( 60-C , 86-H ) :   0.9800
B( 61-C , 62-C ) :   0.9975 B( 61-C , 87-H ) :   0.9743 B( 62-C , 63-C ) :   0.9792
B( 62-C , 67-N ) :   0.9993 B( 62-C , 88-H ) :   0.9033 B( 63-C , 64-N ) :   1.0113
B( 63-C , 89-H ) :   0.8758 B( 64-N , 65-C ) :   1.9377 B( 65-C , 66-C ) :   0.9348
B( 65-C , 69-F ) :   1.1651 B( 66-C , 67-N ) :   1.9578 B( 66-C , 68-F ) :   1.1617

-----------------------------------------------------------------------------
         ABSORPTION SPECTRUM VIA TRANSITION ELECTRIC DIPOLE MOMENTS
-----------------------------------------------------------------------------
State   Energy  Wavelength   fosc         T2         TX        TY        TZ
        (cm-1)    (nm)                  (au**2)     (au)      (au)      (au)
-----------------------------------------------------------------------------
   0    8684.9   1151.4   0.152859631   5.79434  -1.55491   1.13751  -1.44315
   1   10687.1    935.7   0.114867624   3.53845  -1.07646  -0.70876   1.37016
   2   14918.4    670.3   0.038592725   0.85164   0.38079   0.40558  -0.73631
   3   17447.8    573.1   0.592659239  11.18250   1.33967  -1.76992   2.50104
   4   19273.8    518.8   0.071842788   1.22713   0.16135  -0.65517   0.87855
   5   21168.0    472.4   0.062711593   0.97531   0.96383  -0.19502   0.09113
   6   21343.7    468.5   0.087872061   1.35536  -0.22531   0.63862  -0.94698
   7   24347.2    410.7   0.336795923   4.55400  -2.01787  -0.13840   0.68047
   8   25068.8    398.9   0.639242582   8.39474  -2.66562  -0.14599   1.12600
   9   25336.2    394.7   0.188711534   2.45207   1.52644  -0.01069  -0.34920
  10   25511.9    392.0   0.044733742   0.57726   0.08353   0.14505  -0.74111
  11   26145.5    382.5   0.150886801   1.89990   1.37105  -0.05782  -0.12952
  12   26656.4    375.1   0.636348520   7.85904   2.53995   0.34235  -1.13600
  13   27991.9    357.2   0.082073410   0.96526   0.28245   0.53087  -0.77696
  14   28641.7    349.1   0.103891809   1.19415  -0.25256   0.64818  -0.84275
  15   28910.7    345.9   0.116436878   1.32589  -0.47188  -0.58555   0.87198
  16   29600.8    337.8   0.264746525   2.94444  -0.97159   0.95056  -1.04732
  17   30284.5    330.2   0.080159888   0.87139  -0.42692   0.71145  -0.42774
  18   30771.8    325.0   0.391110202   4.18428   1.19103  -1.50887   0.69931
  19   30993.6    322.6   0.459192630   4.87751  -0.22844  -1.83837   1.20238
  20   31121.9    321.3   0.237557107   2.51292   0.30780  -1.10394   1.09521
  21   31580.6    316.7   0.343147666   3.57715  -1.59665   0.01842   1.01367
  22   32175.3    310.8   0.101008942   1.03351   0.55683   0.05368  -0.84886
  23   32480.8    307.9   0.068055506   0.68978   0.43846  -0.51102   0.48621
  24   32609.7    306.7   0.128153991   1.29378   0.21868  -0.63811   0.91585
  25   32836.1    304.5   0.271399991   2.72104   1.51742  -0.17675  -0.62228
  26   33220.4    301.0   0.182497937   1.80854   1.12016  -0.61818   0.41430
  27   33417.0    299.2   0.331501608   3.26583  -1.77826   0.03838   0.31960
  28   33543.4    298.1   0.050625452   0.49686  -0.62067   0.20957   0.26022
  29   34599.8    289.0   0.087347818   0.83110  -0.88946   0.18923  -0.06441
  30   35185.9    284.2   0.055156065   0.51606  -0.66212   0.02477   0.27758
  31   35249.3    283.7   0.066698606   0.62293  -0.73796   0.01660   0.27941
  32   35882.8    278.7   0.271274381   2.48884   1.48243  -0.48462   0.23748
  33   36155.7    276.6   0.026789269   0.24393   0.31529  -0.29151  -0.24401
  34   36725.3    272.3   0.028308468   0.25376   0.05944   0.36717  -0.33973
  35   36919.1    270.9   0.008292976   0.07395  -0.08049   0.22793  -0.12457
  36   37041.9    270.0   0.080245252   0.71318   0.76236   0.03927  -0.36118
  37   37229.6    268.6   0.039889523   0.35273   0.35264   0.18276  -0.44156
  38   37614.3    265.9   0.000508213   0.00445  -0.02630  -0.05598  -0.02495
  39   37744.7    264.9   0.051824394   0.45202  -0.67067  -0.04703   0.00101
  40   38012.0    263.1   0.004086104   0.03539   0.17628  -0.03719   0.05415
  41   38385.5    260.5   0.024495899   0.21009   0.05878  -0.26664   0.36815
  42   38869.3    257.3   0.057194242   0.48442  -0.67514   0.13235  -0.10532
  43   38979.9    256.5   0.020556791   0.17362   0.14431  -0.27024   0.28242
  44   39235.6    254.9   0.000778920   0.00654   0.03242  -0.07401  -0.00264
  45   39393.1    253.9   0.015015821   0.12549   0.13638  -0.22385   0.23829
  46   39453.5    253.5   0.007905722   0.06597  -0.10757  -0.10101   0.21022
  47   39796.4    251.3   0.005377948   0.04449   0.12575  -0.12771   0.11120
  48   40033.9    249.8   0.006391937   0.05256  -0.18713   0.06690   0.11433
  49   40143.5    249.1   0.004443546   0.03644  -0.08208  -0.06227   0.16070

FINAL SINGLE POINT ENERGY     -5215.616430885579

DIPOLE MOMENT
-------------
                                X             Y             Z
Electronic contribution:      6.29280      20.59251       0.17570
Nuclear contribution   :     -7.40556     -18.92386      -2.79095
                        -----------------------------------------
Total Dipole Moment    :     -1.11275       1.66865      -2.61525
                        -----------------------------------------
Magnitude (a.u.)       :      3.29578
Magnitude (Debye)      :      8.37721

Rotational constants in cm-1:     0.000912     0.000356     0.000265
Rotational constants in MHz :    27.338914    10.662565     7.944027

                             ****ORCA TERMINATED NORMALLY****
TOTAL RUN TIME: 0 days 0 hours 8 minutes 33 seconds 969 msec
