                         Program Version 4.2.0 -  RELEASE  -
|  1> # ORCA input file
|  2> # SCF done       -154.316044493561          0.000657537632
|  3> ! CAM-B3LYP def2-SVP def2/J RIJCOSX Grid4 TightSCF
|  4> %maxcore 5000
|  5> %tddft
|  6>     Mode sTDDFT
|  7>     Ethresh 5.0
|  8>     maxcore 5000
|  9> end
| 10>
| 11> %pal
| 12>   nprocs 6
| 13>   end
| 14> * xyz 0 1
| 15>    C        0.47292         2.28720         0.79751
| 16>    C       -0.85815         2.46100         0.53705
| 17>    F       -1.73814         2.44424         1.55205
| 18>    C       -1.35117         2.65777        -0.76081
| 19>    C       -0.47165         2.67816        -1.80688
| 20>    C        0.91195         2.50453        -1.59562
| 21>    C        1.39396         2.30649        -0.26792
| 22>    C        2.77740         2.13689        -0.02987
| 23>    C        3.64919         2.16530        -1.08573
| 24>    C        3.15931         2.34929        -2.41214
| 25>    C        1.82864         2.51908        -2.66938
| 26>    C        4.28360         2.30173        -3.36119
| 27>    O        4.26743         2.47173        -4.55652
| 28>    C        5.47401         1.92670        -2.53533
| 29>    C        5.10348         2.05391        -1.13527
| 30>    C        5.95428         2.25659        -0.08396
| 31>    C        7.35394         2.37370        -0.21477
| 32>    N        8.48993         2.52523        -0.27169
| 33>    C        5.52325         2.45669         1.24508
| 34>    N        5.22110         2.61341         2.34055
| 35>    C        6.57810         1.45011        -3.14968
| 36>    C        7.68358         0.73857        -2.56770
| 37>    C        7.53483        -0.20764        -1.54198
| 38>    N        8.54863        -0.85480        -1.02271
| 39>    C        9.76036        -0.62283        -1.52741
| 40>    N       10.00401         0.20513        -2.54263
| 41>    C        8.99738         0.87887        -3.04147
| 42>    C       10.88529        -1.35262        -0.96546
| 43>    C       10.73616        -2.28003         0.07170
| 44>    N       11.74856        -2.97715         0.53801
| 45>    C       12.94293        -2.77516        -0.01944
| 46>    N       13.20097        -1.88167        -0.97529
| 47>    C       12.19128        -1.17898        -1.43772
| 48>    C       14.04880        -3.60707         0.43428
| 49>    C       13.89259        -4.59320         1.41451
| 50>    N       14.88200        -5.37845         1.78031
| 51>    C       16.04546        -5.23324         1.14845
| 52>    N       16.31375        -4.29292         0.23824
| 53>    C       15.33471        -3.48462        -0.10246
| 54>    C       17.10913        -6.14099         1.53334
| 55>    C       18.18466        -6.48938         0.80312
| 56>    C       19.36730        -7.13331         1.46441
| 57>    O       19.38462        -7.67165         2.54339
| 58>    C       20.48952        -6.90179         0.53790
| 59>    C       21.81813        -7.16412         0.71999
| 60>    C       22.73326        -6.83033        -0.30202
| 61>    C       22.25354        -6.21739        -1.49740
| 62>    C       23.17440        -5.87752        -2.50794
| 63>    C       24.50218        -6.14572        -2.32401
| 64>    C       24.99272        -6.75098        -1.15804
| 65>    C       24.11399        -7.08522        -0.16604
| 66>    F       25.38237        -5.82301        -3.28730
| 67>    C       20.87284        -5.96319        -1.66261
| 68>    C       20.00164        -6.30935        -0.66416
| 69>    C       18.54930        -6.20977        -0.57921
| 70>    C       17.69432        -6.11510        -1.63756
| 71>    C       16.29521        -6.28507        -1.54231
| 72>    N       15.16465        -6.47947        -1.54774
| 73>    C       18.11936        -5.93063        -2.97103
| 74>    N       18.41874        -5.76871        -4.06670
| 75>    H        0.81667         2.14143         1.80965
| 76>    H       -2.41190         2.78844        -0.90492
| 77>    H       -0.82720         2.82797        -2.81511
| 78>    H        3.11340         1.97867         0.98274
| 79>    H        1.48072         2.66243        -3.68134
| 80>    H        6.59885         1.56620        -4.22933
| 81>    H        6.55469        -0.46963        -1.16034
| 82>    H        9.23302         1.57454        -3.83628
| 83>    H        9.76907        -2.45846         0.52210
| 84>    H       12.40968        -0.45505        -2.21086
| 85>    H       12.94169        -4.73760         1.90853
| 86>    H       15.56119        -2.71925        -0.83225
| 87>    H       17.03905        -6.53578         2.53995
| 88>    H       22.16608        -7.62025         1.63470
| 89>    H       22.83186        -5.41419        -3.41993
| 90>    H       26.05103        -6.93867        -1.06993
| 91>    H       24.46792        -7.55182         0.74084
| 92>    H       20.53627        -5.49077        -2.57188
| 93> *
| 94>
| 95>                          ****END OF INPUT****

CARTESIAN COORDINATES (ANGSTROEM)
---------------------------------
  C      0.472920    2.287200    0.797510
  C     -0.858150    2.461000    0.537050
  F     -1.738140    2.444240    1.552050
  C     -1.351170    2.657770   -0.760810
  C     -0.471650    2.678160   -1.806880
  C      0.911950    2.504530   -1.595620
  C      1.393960    2.306490   -0.267920
  C      2.777400    2.136890   -0.029870
  C      3.649190    2.165300   -1.085730
  C      3.159310    2.349290   -2.412140
  C      1.828640    2.519080   -2.669380
  C      4.283600    2.301730   -3.361190
  O      4.267430    2.471730   -4.556520
  C      5.474010    1.926700   -2.535330
  C      5.103480    2.053910   -1.135270
  C      5.954280    2.256590   -0.083960
  C      7.353940    2.373700   -0.214770
  N      8.489930    2.525230   -0.271690
  C      5.523250    2.456690    1.245080
  N      5.221100    2.613410    2.340550
  C      6.578100    1.450110   -3.149680
  C      7.683580    0.738570   -2.567700
  C      7.534830   -0.207640   -1.541980
  N      8.548630   -0.854800   -1.022710
  C      9.760360   -0.622830   -1.527410
  N     10.004010    0.205130   -2.542630
  C      8.997380    0.878870   -3.041470
  C     10.885290   -1.352620   -0.965460
  C     10.736160   -2.280030    0.071700
  N     11.748560   -2.977150    0.538010
  C     12.942930   -2.775160   -0.019440
  N     13.200970   -1.881670   -0.975290
  C     12.191280   -1.178980   -1.437720
  C     14.048800   -3.607070    0.434280
  C     13.892590   -4.593200    1.414510
  N     14.882000   -5.378450    1.780310
  C     16.045460   -5.233240    1.148450
  N     16.313750   -4.292920    0.238240
  C     15.334710   -3.484620   -0.102460
  C     17.109130   -6.140990    1.533340
  C     18.184660   -6.489380    0.803120
  C     19.367300   -7.133310    1.464410
  O     19.384620   -7.671650    2.543390
  C     20.489520   -6.901790    0.537900
  C     21.818130   -7.164120    0.719990
  C     22.733260   -6.830330   -0.302020
  C     22.253540   -6.217390   -1.497400
  C     23.174400   -5.877520   -2.507940
  C     24.502180   -6.145720   -2.324010
  C     24.992720   -6.750980   -1.158040
  C     24.113990   -7.085220   -0.166040
  F     25.382370   -5.823010   -3.287300
  C     20.872840   -5.963190   -1.662610
  C     20.001640   -6.309350   -0.664160
  C     18.549300   -6.209770   -0.579210
  C     17.694320   -6.115100   -1.637560
  C     16.295210   -6.285070   -1.542310
  N     15.164650   -6.479470   -1.547740
  C     18.119360   -5.930630   -2.971030
  N     18.418740   -5.768710   -4.066700
  H      0.816670    2.141430    1.809650
  H     -2.411900    2.788440   -0.904920
  H     -0.827200    2.827970   -2.815110
  H      3.113400    1.978670    0.982740
  H      1.480720    2.662430   -3.681340
  H      6.598850    1.566200   -4.229330
  H      6.554690   -0.469630   -1.160340
  H      9.233020    1.574540   -3.836280
  H      9.769070   -2.458460    0.522100
  H     12.409680   -0.455050   -2.210860
  H     12.941690   -4.737600    1.908530
  H     15.561190   -2.719250   -0.832250
  H     17.039050   -6.535780    2.539950
  H     22.166080   -7.620250    1.634700
  H     22.831860   -5.414190   -3.419930
  H     26.051030   -6.938670   -1.069930
  H     24.467920   -7.551820    0.740840
  H     20.536270   -5.490770   -2.571880

 Total Charge           Charge          ....    0
 Multiplicity           Mult            ....    1
 Number of Electrons    NEL             ....  398
 Basis Dimension        Dim             ....  930

ORBITAL ENERGIES
----------------

  NO   OCC          E(Eh)            E(eV)
   0   2.0000     -24.795301      -674.7145
   1   2.0000     -24.785520      -674.4483
   2   2.0000     -19.229818      -523.2700
   3   2.0000     -19.215555      -522.8818
   4   2.0000     -14.431356      -392.6972
   5   2.0000     -14.430324      -392.6691
   6   2.0000     -14.430109      -392.6632
   7   2.0000     -14.429939      -392.6586
   8   2.0000     -14.419417      -392.3723
   9   2.0000     -14.419208      -392.3666
  10   2.0000     -14.416232      -392.2856
  11   2.0000     -14.415088      -392.2545
  12   2.0000     -14.414272      -392.2323
  13   2.0000     -14.411295      -392.1513
  14   2.0000     -10.380803      -282.4760
  15   2.0000     -10.380278      -282.4617
  16   2.0000     -10.369093      -282.1574
  17   2.0000     -10.367775      -282.1215
  18   2.0000     -10.366530      -282.0876
  19   2.0000     -10.361322      -281.9459
  20   2.0000     -10.358307      -281.8639
  21   2.0000     -10.356851      -281.8242
  22   2.0000     -10.350868      -281.6614
  23   2.0000     -10.345896      -281.5261
  24   2.0000     -10.344364      -281.4845
  25   2.0000     -10.342968      -281.4465
  26   2.0000     -10.337814      -281.3062
  27   2.0000     -10.333952      -281.2011
  28   2.0000     -10.331707      -281.1400
  29   2.0000     -10.331573      -281.1364
  30   2.0000     -10.329300      -281.0746
  31   2.0000     -10.328847      -281.0622
  32   2.0000     -10.322314      -280.8844
  33   2.0000     -10.321716      -280.8682
  34   2.0000     -10.320106      -280.8244
  35   2.0000     -10.318266      -280.7743
  36   2.0000     -10.317642      -280.7573
  37   2.0000     -10.316878      -280.7365
  38   2.0000     -10.316340      -280.7219
  39   2.0000     -10.313953      -280.6569
  40   2.0000     -10.313307      -280.6393
  41   2.0000     -10.312928      -280.6290
  42   2.0000     -10.311630      -280.5937
  43   2.0000     -10.308280      -280.5026
  44   2.0000     -10.306360      -280.4503
  45   2.0000     -10.305768      -280.4342
  46   2.0000     -10.305565      -280.4287
  47   2.0000     -10.305009      -280.4135
  48   2.0000     -10.303553      -280.3739
  49   2.0000     -10.301226      -280.3106
  50   2.0000     -10.300773      -280.2983
  51   2.0000     -10.299901      -280.2746
  52   2.0000     -10.299527      -280.2644
  53   2.0000     -10.297248      -280.2024
  54   2.0000     -10.297062      -280.1973
  55   2.0000     -10.296843      -280.1913
  56   2.0000     -10.293939      -280.1123
  57   2.0000     -10.292206      -280.0652
  58   2.0000     -10.289920      -280.0030
  59   2.0000     -10.288141      -279.9545
  60   2.0000      -1.310841       -35.6698
  61   2.0000      -1.300753       -35.3953
  62   2.0000      -1.145623       -31.1740
  63   2.0000      -1.131552       -30.7911
  64   2.0000      -1.107799       -30.1448
  65   2.0000      -1.095098       -29.7991
  66   2.0000      -1.086409       -29.5627
  67   2.0000      -1.033786       -28.1308
  68   2.0000      -1.016578       -27.6625
  69   2.0000      -1.014175       -27.5971
  70   2.0000      -1.008499       -27.4427
  71   2.0000      -1.000683       -27.2300
  72   2.0000      -0.999349       -27.1937
  73   2.0000      -0.992313       -27.0022
  74   2.0000      -0.989955       -26.9380
  75   2.0000      -0.987974       -26.8841
  76   2.0000      -0.981104       -26.6972
  77   2.0000      -0.975002       -26.5312
  78   2.0000      -0.952605       -25.9217
  79   2.0000      -0.937696       -25.5160
  80   2.0000      -0.929937       -25.3049
  81   2.0000      -0.922108       -25.0918
  82   2.0000      -0.909543       -24.7499
  83   2.0000      -0.900848       -24.5133
  84   2.0000      -0.897336       -24.4177
  85   2.0000      -0.888497       -24.1772
  86   2.0000      -0.883415       -24.0390
  87   2.0000      -0.865862       -23.5613
  88   2.0000      -0.850621       -23.1466
  89   2.0000      -0.845463       -23.0062
  90   2.0000      -0.833834       -22.6898
  91   2.0000      -0.816422       -22.2160
  92   2.0000      -0.802102       -21.8263
  93   2.0000      -0.781416       -21.2634
  94   2.0000      -0.779296       -21.2057
  95   2.0000      -0.771995       -21.0071
  96   2.0000      -0.761400       -20.7187
  97   2.0000      -0.759246       -20.6601
  98   2.0000      -0.748201       -20.3596
  99   2.0000      -0.736258       -20.0346
 100   2.0000      -0.730801       -19.8861
 101   2.0000      -0.723163       -19.6783
 102   2.0000      -0.721168       -19.6240
 103   2.0000      -0.713962       -19.4279
 104   2.0000      -0.707944       -19.2641
 105   2.0000      -0.698644       -19.0111
 106   2.0000      -0.694994       -18.9117
 107   2.0000      -0.685100       -18.6425
 108   2.0000      -0.677882       -18.4461
 109   2.0000      -0.658060       -17.9067
 110   2.0000      -0.650041       -17.6885
 111   2.0000      -0.647139       -17.6095
 112   2.0000      -0.644298       -17.5323
 113   2.0000      -0.641064       -17.4442
 114   2.0000      -0.635576       -17.2949
 115   2.0000      -0.632346       -17.2070
 116   2.0000      -0.628083       -17.0910
 117   2.0000      -0.621578       -16.9140
 118   2.0000      -0.617283       -16.7971
 119   2.0000      -0.609145       -16.5757
 120   2.0000      -0.597036       -16.2462
 121   2.0000      -0.592164       -16.1136
 122   2.0000      -0.589295       -16.0355
 123   2.0000      -0.583846       -15.8872
 124   2.0000      -0.578905       -15.7528
 125   2.0000      -0.568968       -15.4824
 126   2.0000      -0.568019       -15.4566
 127   2.0000      -0.565787       -15.3958
 128   2.0000      -0.559908       -15.2359
 129   2.0000      -0.558110       -15.1869
 130   2.0000      -0.554558       -15.0903
 131   2.0000      -0.552599       -15.0370
 132   2.0000      -0.550607       -14.9828
 133   2.0000      -0.548967       -14.9381
 134   2.0000      -0.545141       -14.8341
 135   2.0000      -0.542469       -14.7613
 136   2.0000      -0.538234       -14.6461
 137   2.0000      -0.534916       -14.5558
 138   2.0000      -0.532885       -14.5005
 139   2.0000      -0.530365       -14.4320
 140   2.0000      -0.525396       -14.2968
 141   2.0000      -0.522800       -14.2261
 142   2.0000      -0.521791       -14.1987
 143   2.0000      -0.520750       -14.1703
 144   2.0000      -0.518608       -14.1120
 145   2.0000      -0.512329       -13.9412
 146   2.0000      -0.508975       -13.8499
 147   2.0000      -0.508514       -13.8374
 148   2.0000      -0.503306       -13.6957
 149   2.0000      -0.502501       -13.6737
 150   2.0000      -0.499452       -13.5908
 151   2.0000      -0.498176       -13.5560
 152   2.0000      -0.494583       -13.4583
 153   2.0000      -0.492251       -13.3948
 154   2.0000      -0.489101       -13.3091
 155   2.0000      -0.482192       -13.1211
 156   2.0000      -0.480943       -13.0871
 157   2.0000      -0.479930       -13.0596
 158   2.0000      -0.469481       -12.7752
 159   2.0000      -0.463837       -12.6217
 160   2.0000      -0.463641       -12.6163
 161   2.0000      -0.457869       -12.4592
 162   2.0000      -0.456418       -12.4198
 163   2.0000      -0.451973       -12.2988
 164   2.0000      -0.448367       -12.2007
 165   2.0000      -0.446663       -12.1543
 166   2.0000      -0.441477       -12.0132
 167   2.0000      -0.440675       -11.9914
 168   2.0000      -0.440594       -11.9892
 169   2.0000      -0.437135       -11.8951
 170   2.0000      -0.430266       -11.7081
 171   2.0000      -0.428787       -11.6679
 172   2.0000      -0.426453       -11.6044
 173   2.0000      -0.422206       -11.4888
 174   2.0000      -0.417828       -11.3697
 175   2.0000      -0.416376       -11.3302
 176   2.0000      -0.413500       -11.2519
 177   2.0000      -0.411349       -11.1934
 178   2.0000      -0.404128       -10.9969
 179   2.0000      -0.400591       -10.9006
 180   2.0000      -0.395840       -10.7714
 181   2.0000      -0.393196       -10.6994
 182   2.0000      -0.391213       -10.6455
 183   2.0000      -0.387707       -10.5500
 184   2.0000      -0.381130       -10.3711
 185   2.0000      -0.376850       -10.2546
 186   2.0000      -0.373049       -10.1512
 187   2.0000      -0.357082        -9.7167
 188   2.0000      -0.351405        -9.5622
 189   2.0000      -0.342113        -9.3094
 190   2.0000      -0.336834        -9.1657
 191   2.0000      -0.331948        -9.0328
 192   2.0000      -0.329635        -8.9698
 193   2.0000      -0.324710        -8.8358
 194   2.0000      -0.321119        -8.7381
 195   2.0000      -0.311660        -8.4807
 196   2.0000      -0.309063        -8.4100
 197   2.0000      -0.301365        -8.2006
 198   2.0000      -0.293032        -7.9738
 199   0.0000      -0.107919        -2.9366
 200   0.0000      -0.092586        -2.5194
 201   0.0000      -0.069750        -1.8980
 202   0.0000      -0.057181        -1.5560
 203   0.0000      -0.047651        -1.2967

MULLIKEN ATOMIC CHARGES
-----------------------
   0 C :   -0.094645
   1 C :    0.304317
   2 F :   -0.186121
   3 C :   -0.028734
   4 C :   -0.004645
   5 C :    0.097320
   6 C :    0.099772
   7 C :   -0.079049
   8 C :    0.038802
   9 C :    0.004283
  10 C :   -0.071337
  11 C :    0.138116
  12 O :   -0.132888
  13 C :   -0.112256
  14 C :    0.264473
  15 C :   -0.327049
  16 C :   -0.192375
  17 N :    0.174911
  18 C :   -0.174824
  19 N :    0.164913
  20 C :    0.045343
  21 C :   -0.048495
  22 C :    0.066348
  23 N :   -0.042046
  24 C :   -0.053824
  25 N :   -0.039029
  26 C :    0.076656
  27 C :    0.006541
  28 C :    0.065119
  29 N :   -0.047606
  30 C :   -0.065127
  31 N :   -0.046262
  32 C :    0.062531
  33 C :    0.032883
  34 C :    0.063207
  35 N :   -0.042647
  36 C :   -0.086560
  37 N :   -0.075288
  38 C :    0.061373
  39 C :    0.098734
  40 C :   -0.095719
  41 C :    0.136786
  42 O :   -0.130461
  43 C :    0.003997
  44 C :   -0.078115
  45 C :    0.101368
  46 C :    0.103723
  47 C :   -0.096628
  48 C :    0.303442
  49 C :   -0.031377
  50 C :   -0.007975
  51 F :   -0.188877
  52 C :   -0.083212
  53 C :    0.043033
  54 C :    0.289354
  55 C :   -0.297586
  56 C :   -0.182208
  57 N :    0.159792
  58 C :   -0.188501
  59 N :    0.155742
  60 H :    0.000741
  61 H :    0.008720
  62 H :   -0.005372
  63 H :   -0.000792
  64 H :   -0.006917
  65 H :    0.037045
  66 H :    0.018443
  67 H :    0.015031
  68 H :    0.021188
  69 H :    0.024832
  70 H :    0.022041
  71 H :    0.022443
  72 H :    0.029618
  73 H :   -0.009932
  74 H :   -0.002665
  75 H :    0.004577
  76 H :   -0.008386
  77 H :   -0.002030
Sum of atomic charges:    0.0000000

LOEWDIN ATOMIC CHARGES
----------------------
   0 C :   -0.040516
   1 C :    0.095902
   2 F :   -0.060484
   3 C :   -0.032391
   4 C :    0.006597
   5 C :   -0.017027
   6 C :    0.004564
   7 C :    0.015259
   8 C :   -0.019943
   9 C :   -0.062403
  10 C :    0.039503
  11 C :    0.084572
  12 O :   -0.133448
  13 C :   -0.075115
  14 C :    0.065944
  15 C :   -0.126889
  16 C :   -0.018458
  17 N :   -0.039436
  18 C :   -0.018937
  19 N :   -0.039280
  20 C :    0.070580
  21 C :   -0.087420
  22 C :    0.067736
  23 N :   -0.071072
  24 C :    0.049827
  25 N :   -0.067811
  26 C :    0.078049
  27 C :   -0.089727
  28 C :    0.080948
  29 N :   -0.078144
  30 C :    0.043098
  31 N :   -0.077860
  32 C :    0.081677
  33 C :   -0.074153
  34 C :    0.081473
  35 N :   -0.067189
  36 C :    0.020502
  37 N :   -0.074454
  38 C :    0.079533
  39 C :    0.062719
  40 C :   -0.055583
  41 C :    0.085219
  42 O :   -0.130997
  43 C :   -0.061143
  44 C :    0.036465
  45 C :   -0.018359
  46 C :    0.004885
  47 C :   -0.042006
  48 C :    0.093498
  49 C :   -0.036673
  50 C :    0.005343
  51 F :   -0.063436
  52 C :    0.011880
  53 C :   -0.014537
  54 C :    0.074786
  55 C :   -0.113582
  56 C :   -0.017235
  57 N :   -0.049506
  58 C :   -0.016582
  59 N :   -0.048055
  60 H :    0.044428
  61 H :    0.043965
  62 H :    0.037265
  63 H :    0.040395
  64 H :    0.041707
  65 H :    0.051356
  66 H :    0.028374
  67 H :    0.031857
  68 H :    0.031205
  69 H :    0.032032
  70 H :    0.031621
  71 H :    0.030833
  72 H :    0.052900
  73 H :    0.040219
  74 H :    0.043252
  75 H :    0.042142
  76 H :    0.036029
  77 H :    0.039713

  Mayer bond orders larger than 0.100000
B(  0-C ,  1-C ) :   1.4421 B(  0-C ,  6-C ) :   1.2010 B(  0-C , 60-H ) :   1.0069
B(  1-C ,  2-F ) :   1.0930 B(  1-C ,  3-C ) :   1.2516 B(  3-C ,  4-C ) :   1.4632
B(  3-C , 61-H ) :   0.9932 B(  4-C ,  5-C ) :   1.2328 B(  4-C , 62-H ) :   0.9978
B(  5-C ,  6-C ) :   1.2509 B(  5-C , 10-C ) :   1.1979 B(  6-C ,  7-C ) :   1.2104
B(  7-C ,  8-C ) :   1.4547 B(  7-C , 63-H ) :   0.9943 B(  8-C ,  9-C ) :   1.2138
B(  8-C , 14-C ) :   1.0061 B(  9-C , 10-C ) :   1.4659 B(  9-C , 11-C ) :   0.9242
B( 10-C , 64-H ) :   1.0157 B( 11-C , 12-O ) :   2.2817 B( 11-C , 13-C ) :   0.9203
B( 13-C , 14-C ) :   1.0006 B( 13-C , 20-C ) :   1.7709 B( 14-C , 15-C ) :   1.6806
B( 15-C , 16-C ) :   1.1601 B( 15-C , 18-C ) :   1.1272 B( 16-C , 17-N ) :   3.0021
B( 18-C , 19-N ) :   2.9883 B( 20-C , 21-C ) :   1.0068 B( 20-C , 65-H ) :   0.9412
B( 21-C , 22-C ) :   1.3116 B( 21-C , 26-C ) :   1.3084 B( 22-C , 23-N ) :   1.5840
B( 22-C , 66-H ) :   0.9866 B( 23-N , 24-C ) :   1.5631 B( 24-C , 25-N ) :   1.5694
B( 24-C , 27-C ) :   0.9739 B( 25-N , 26-C ) :   1.5747 B( 26-C , 67-H ) :   0.9921
B( 27-C , 28-C ) :   1.3369 B( 27-C , 32-C ) :   1.3361 B( 28-C , 29-N ) :   1.5493
B( 28-C , 68-H ) :   0.9774 B( 29-N , 30-C ) :   1.5797 B( 30-C , 31-N ) :   1.5775
B( 30-C , 33-C ) :   0.9667 B( 31-N , 32-C ) :   1.5488 B( 32-C , 69-H ) :   0.9767
B( 33-C , 34-C ) :   1.3449 B( 33-C , 38-C ) :   1.3372 B( 34-C , 35-N ) :   1.5425
B( 34-C , 70-H ) :   0.9746 B( 35-N , 36-C ) :   1.5148 B( 36-C , 37-N ) :   1.4804
B( 36-C , 39-C ) :   0.9960 B( 37-N , 38-C ) :   1.5323 B( 38-C , 71-H ) :   0.9760
B( 39-C , 40-C ) :   1.7402 B( 39-C , 72-H ) :   0.9497 B( 40-C , 41-C ) :   0.9175
B( 40-C , 54-C ) :   0.9973 B( 41-C , 42-O ) :   2.2888 B( 41-C , 43-C ) :   0.9204
B( 43-C , 44-C ) :   1.4641 B( 43-C , 53-C ) :   1.2152 B( 44-C , 45-C ) :   1.2017
B( 44-C , 73-H ) :   1.0145 B( 45-C , 46-C ) :   1.2514 B( 45-C , 50-C ) :   1.2307
B( 46-C , 47-C ) :   1.2022 B( 46-C , 52-C ) :   1.2079 B( 47-C , 48-C ) :   1.4419
B( 47-C , 74-H ) :   1.0063 B( 48-C , 49-C ) :   1.2526 B( 48-C , 51-F ) :   1.0904
B( 49-C , 50-C ) :   1.4651 B( 49-C , 75-H ) :   0.9928 B( 50-C , 76-H ) :   0.9968
B( 52-C , 53-C ) :   1.4587 B( 52-C , 77-H ) :   0.9937 B( 53-C , 54-C ) :   1.0039
B( 54-C , 55-C ) :   1.7045 B( 55-C , 56-C ) :   1.1490 B( 55-C , 58-C ) :   1.1354
B( 56-C , 57-N ) :   2.9890 B( 58-C , 59-N ) :   2.9896

-----------------------------------------------------------------------------
         ABSORPTION SPECTRUM VIA TRANSITION ELECTRIC DIPOLE MOMENTS
-----------------------------------------------------------------------------
State   Energy  Wavelength   fosc         T2         TX        TY        TZ
        (cm-1)    (nm)                  (au**2)     (au)      (au)      (au)
-----------------------------------------------------------------------------
   0   25124.7    398.0   0.258793674   3.39100  -1.37532   1.17512   0.34439
   1   25625.4    390.2   0.648675660   8.33359   2.45491  -1.50176  -0.22740
   2   26895.0    371.8   0.128755022   1.57604  -1.09241   0.56610   0.24942
   3   27169.0    368.1   0.071739060   0.86927  -0.92319   0.11575   0.05996
   4   27758.2    360.3   0.024738578   0.29340   0.45797  -0.02411   0.28825
   5   28053.4    356.5   0.020655153   0.24239   0.05984   0.12194   0.47323
   6   29042.2    344.3   0.101904065   1.15515  -1.05005   0.08262  -0.21380
   7   29162.9    342.9   0.288917221   3.26151  -1.62193   0.78912   0.09012
   8   29989.3    333.5   0.076104872   0.83545   0.90529  -0.12538   0.01378
   9   30092.2    332.3   0.067429210   0.73768  -0.85632  -0.04386  -0.04972
  10   30472.0    328.2   0.012724086   0.13747  -0.35731   0.05230   0.08402
  11   33026.3    302.8   0.871002639   8.68230   2.72511  -0.50310   1.00148
  12   33717.9    296.6   0.040251375   0.39300   0.56237   0.14480   0.23616
  13   33982.5    294.3   1.412848181  13.68722   3.57424  -0.70981   0.63888
  14   34348.3    291.1   0.034292989   0.32868   0.53275  -0.17032   0.12588
  15   35207.4    284.0   0.119278799   1.11533   1.02610  -0.22908  -0.09988
  16   35239.4    283.8   0.141987693   1.32647  -1.12948   0.10824   0.19756
  17   35615.2    280.8   0.135836225   1.25561  -0.64062  -0.54951   0.73706
  18   36107.9    276.9   0.012249851   0.11169  -0.03374   0.31499  -0.10643
  19   36332.0    275.2   0.021690440   0.19654   0.41882   0.10863  -0.09660
  20   36880.1    271.1   0.274444438   2.44984  -1.41621   0.65226  -0.13689
  21   37328.2    267.9   0.085153076   0.75100  -0.62836   0.03993   0.59546
  22   37872.0    264.0   0.000374533   0.00326  -0.03399   0.02990  -0.03473
  23   38094.1    262.5   0.124164027   1.07303  -0.96102  -0.26536   0.28119
  24   38730.5    258.2   0.070889537   0.60257   0.16477   0.07859  -0.75448
  25   38921.9    256.9   0.036888145   0.31201  -0.50312   0.03328   0.24036
  26   39389.9    253.9   0.006050764   0.05057  -0.19183   0.09801  -0.06453
  27   39500.0    253.2   0.146343603   1.21970  -0.12155   0.32689   1.04789
  28   39903.2    250.6   0.014567383   0.12018   0.11233   0.22249  -0.24097

FINAL SINGLE POINT ENERGY     -2658.020036318782

DIPOLE MOMENT
-------------
                                X             Y             Z
Electronic contribution:      2.63463      -0.53002       1.33498
Nuclear contribution   :     -4.70958       1.76728      -1.95207
                        -----------------------------------------
Total Dipole Moment    :     -2.07495       1.23726      -0.61709
                        -----------------------------------------
Magnitude (a.u.)       :      2.49340
Magnitude (Debye)      :      6.33772

Rotational constants in cm-1:     0.005055     0.000285     0.000277
Rotational constants in MHz :   151.551930     8.552794     8.309416

                             ****ORCA TERMINATED NORMALLY****
TOTAL RUN TIME: 0 days 0 hours 6 minutes 0 seconds 238 msec
