                         Program Version 4.2.0 -  RELEASE  -
|  1> # ORCA input file
|  2> # SCF done       -144.622282844870          0.000776533425
|  3> ! CAM-B3LYP def2-SVP def2/J RIJCOSX Grid4 TightSCF
|  4> %maxcore 5000
|  5> %tddft
|  6>     Mode sTDDFT
|  7>     Ethresh 5.0
|  8>     maxcore 5000
|  9> end
| 10>
| 11> %pal
| 12>   nprocs 6
| 13>   end
| 14> * xyz 0 1
| 15>    C       -6.15604         1.64461         4.74354
| 16>    C       -5.86145         1.50834         6.09201
| 17>    C       -5.06107         0.47142         6.55052
| 18>    C       -4.52450        -0.45650         5.67080
| 19>    C       -4.81251        -0.33058         4.32224
| 20>    C       -5.63468         0.71922         3.85287
| 21>    C       -5.78066         0.59658         2.40755
| 22>    C       -6.40035         1.49579         1.58210
| 23>    C       -6.99578         2.69623         2.02515
| 24>    N       -7.49830         3.68595         2.31701
| 25>    C       -6.49783         1.38087         0.17935
| 26>    N       -6.60866         1.35393        -0.96332
| 27>    C       -5.15102        -0.66392         2.02989
| 28>    C       -4.36939        -1.10948         3.17788
| 29>    C       -3.23717        -1.87726         3.12708
| 30>    C       -2.65908        -2.33735         1.92476
| 31>    N       -2.12982        -2.68144         0.96621
| 32>    C       -2.46689        -2.21859         4.25707
| 33>    N       -1.81651        -2.54659         5.14424
| 34>    C       -5.36822        -1.32488         0.85398
| 35>    C       -5.16171        -2.69437         0.57076
| 36>    C       -5.03681        -3.24756        -0.69083
| 37>    C       -4.87340        -4.63272        -0.70821
| 38>    C       -4.67423        -5.41846        -1.95640
| 39>    C       -4.92958        -5.18143         0.56956
| 40>    S       -5.15672        -3.95218         1.77978
| 41>    C       -4.82005        -6.53208         0.98379
| 42>    C       -5.00750        -7.01978         2.26422
| 43>    C       -4.81679        -8.39629         2.39782
| 44>    C       -4.95126        -9.10951         3.70001
| 45>    C       -4.45803        -8.98998         1.19319
| 46>    S       -4.38023        -7.81990        -0.09346
| 47>    C       -4.13624       -10.34215         0.90088
| 48>    C       -4.45572       -11.50273         1.57979
| 49>    C       -3.95656       -12.66411         0.98942
| 50>    C       -4.20442       -14.03360         1.51493
| 51>    C       -3.24616       -12.41002        -0.18512
| 52>    S       -3.20006       -10.69503        -0.51763
| 53>    C       -2.52569       -13.36220        -0.93051
| 54>    C       -1.99495       -13.24138        -2.18740
| 55>    C       -0.86532       -14.01374        -2.68518
| 56>    C       -0.35559       -15.17394        -2.16325
| 57>    C       -0.88059       -15.86320        -1.05108
| 58>    N       -1.26002       -16.47196        -0.15352
| 59>    C        0.75559       -15.86123        -2.69539
| 60>    N        1.65319       -16.46959        -3.07198
| 61>    C       -0.34949       -13.29710        -3.84567
| 62>    C       -1.21256       -12.21642        -4.13880
| 63>    C       -0.93933       -11.35518        -5.18771
| 64>    C        0.20238       -11.57625        -5.94348
| 65>    C        1.04708       -12.64107        -5.66396
| 66>    C        0.78159       -13.51176        -4.61717
| 67>    C       -2.32932       -12.26081        -3.20971
| 68>    C       -3.56870       -11.71428        -3.41605
| 69>    C       -3.86818       -10.80286        -4.44732
| 70>    N       -4.16169       -10.03741        -5.25088
| 71>    C       -4.70374       -12.07963        -2.66225
| 72>    N       -5.65246       -12.40363        -2.10294
| 73>    H       -6.78207         2.45473         4.40775
| 74>    H       -6.26525         2.22135         6.79437
| 75>    H       -4.85207         0.38368         7.60569
| 76>    H       -3.90843        -1.26230         6.03604
| 77>    H       -5.81494        -0.77076         0.03824
| 78>    H       -5.02515        -2.63925        -1.57800
| 79>    H       -4.74775        -4.76593        -2.82169
| 80>    H       -5.42065        -6.20733        -2.04547
| 81>    H       -3.69143        -5.88955        -1.95759
| 82>    H       -5.27787        -6.37868         3.08547
| 83>    H       -4.94172        -8.39219         4.51642
| 84>    H       -4.13562        -9.81607         3.83983
| 85>    H       -5.89308        -9.65691         3.73927
| 86>    H       -5.06518       -11.51617         2.46337
| 87>    H       -4.67688       -13.98428         2.49189
| 88>    H       -3.27584       -14.59715         1.59883
| 89>    H       -4.86036       -14.57893         0.83707
| 90>    H       -2.29073       -14.26358        -0.37991
| 91>    H       -1.58783       -10.52244        -5.40780
| 92>    H        0.43551       -10.90888        -6.75900
| 93>    H        1.92855       -12.79572        -6.26723
| 94>    H        1.45125       -14.33128        -4.41447
| 95> *
| 96>
| 97>                          ****END OF INPUT****

CARTESIAN COORDINATES (ANGSTROEM)
---------------------------------
  C     -6.156040    1.644610    4.743540
  C     -5.861450    1.508340    6.092010
  C     -5.061070    0.471420    6.550520
  C     -4.524500   -0.456500    5.670800
  C     -4.812510   -0.330580    4.322240
  C     -5.634680    0.719220    3.852870
  C     -5.780660    0.596580    2.407550
  C     -6.400350    1.495790    1.582100
  C     -6.995780    2.696230    2.025150
  N     -7.498300    3.685950    2.317010
  C     -6.497830    1.380870    0.179350
  N     -6.608660    1.353930   -0.963320
  C     -5.151020   -0.663920    2.029890
  C     -4.369390   -1.109480    3.177880
  C     -3.237170   -1.877260    3.127080
  C     -2.659080   -2.337350    1.924760
  N     -2.129820   -2.681440    0.966210
  C     -2.466890   -2.218590    4.257070
  N     -1.816510   -2.546590    5.144240
  C     -5.368220   -1.324880    0.853980
  C     -5.161710   -2.694370    0.570760
  C     -5.036810   -3.247560   -0.690830
  C     -4.873400   -4.632720   -0.708210
  C     -4.674230   -5.418460   -1.956400
  C     -4.929580   -5.181430    0.569560
  S     -5.156720   -3.952180    1.779780
  C     -4.820050   -6.532080    0.983790
  C     -5.007500   -7.019780    2.264220
  C     -4.816790   -8.396290    2.397820
  C     -4.951260   -9.109510    3.700010
  C     -4.458030   -8.989980    1.193190
  S     -4.380230   -7.819900   -0.093460
  C     -4.136240  -10.342150    0.900880
  C     -4.455720  -11.502730    1.579790
  C     -3.956560  -12.664110    0.989420
  C     -4.204420  -14.033600    1.514930
  C     -3.246160  -12.410020   -0.185120
  S     -3.200060  -10.695030   -0.517630
  C     -2.525690  -13.362200   -0.930510
  C     -1.994950  -13.241380   -2.187400
  C     -0.865320  -14.013740   -2.685180
  C     -0.355590  -15.173940   -2.163250
  C     -0.880590  -15.863200   -1.051080
  N     -1.260020  -16.471960   -0.153520
  C      0.755590  -15.861230   -2.695390
  N      1.653190  -16.469590   -3.071980
  C     -0.349490  -13.297100   -3.845670
  C     -1.212560  -12.216420   -4.138800
  C     -0.939330  -11.355180   -5.187710
  C      0.202380  -11.576250   -5.943480
  C      1.047080  -12.641070   -5.663960
  C      0.781590  -13.511760   -4.617170
  C     -2.329320  -12.260810   -3.209710
  C     -3.568700  -11.714280   -3.416050
  C     -3.868180  -10.802860   -4.447320
  N     -4.161690  -10.037410   -5.250880
  C     -4.703740  -12.079630   -2.662250
  N     -5.652460  -12.403630   -2.102940
  H     -6.782070    2.454730    4.407750
  H     -6.265250    2.221350    6.794370
  H     -4.852070    0.383680    7.605690
  H     -3.908430   -1.262300    6.036040
  H     -5.814940   -0.770760    0.038240
  H     -5.025150   -2.639250   -1.578000
  H     -4.747750   -4.765930   -2.821690
  H     -5.420650   -6.207330   -2.045470
  H     -3.691430   -5.889550   -1.957590
  H     -5.277870   -6.378680    3.085470
  H     -4.941720   -8.392190    4.516420
  H     -4.135620   -9.816070    3.839830
  H     -5.893080   -9.656910    3.739270
  H     -5.065180  -11.516170    2.463370
  H     -4.676880  -13.984280    2.491890
  H     -3.275840  -14.597150    1.598830
  H     -4.860360  -14.578930    0.837070
  H     -2.290730  -14.263580   -0.379910
  H     -1.587830  -10.522440   -5.407800
  H      0.435510  -10.908880   -6.759000
  H      1.928550  -12.795720   -6.267230
  H      1.451250  -14.331280   -4.414470

 Total Charge           Charge          ....    0
 Multiplicity           Mult            ....    1
 Number of Electrons    NEL             ....  408
 Basis Dimension        Dim             ....  934

ORBITAL ENERGIES
----------------

  NO   OCC          E(Eh)            E(eV)
   0   2.0000     -88.982483     -2421.3364
   1   2.0000     -88.980308     -2421.2773
   2   2.0000     -88.977185     -2421.1923
   3   2.0000     -14.427103      -392.5814
   4   2.0000     -14.426823      -392.5738
   5   2.0000     -14.424898      -392.5214
   6   2.0000     -14.423398      -392.4806
   7   2.0000     -14.423237      -392.4762
   8   2.0000     -14.422814      -392.4647
   9   2.0000     -14.419855      -392.3842
  10   2.0000     -14.419089      -392.3634
  11   2.0000     -10.356556      -281.8162
  12   2.0000     -10.354374      -281.7569
  13   2.0000     -10.353125      -281.7229
  14   2.0000     -10.351653      -281.6828
  15   2.0000     -10.351398      -281.6759
  16   2.0000     -10.349226      -281.6167
  17   2.0000     -10.348638      -281.6008
  18   2.0000     -10.346807      -281.5509
  19   2.0000     -10.340981      -281.3924
  20   2.0000     -10.335962      -281.2558
  21   2.0000     -10.334830      -281.2250
  22   2.0000     -10.334082      -281.2047
  23   2.0000     -10.329903      -281.0910
  24   2.0000     -10.329123      -281.0697
  25   2.0000     -10.328738      -281.0593
  26   2.0000     -10.327776      -281.0331
  27   2.0000     -10.327462      -281.0245
  28   2.0000     -10.326656      -281.0026
  29   2.0000     -10.325969      -280.9839
  30   2.0000     -10.325089      -280.9599
  31   2.0000     -10.325065      -280.9593
  32   2.0000     -10.323447      -280.9153
  33   2.0000     -10.322064      -280.8776
  34   2.0000     -10.322036      -280.8769
  35   2.0000     -10.320275      -280.8290
  36   2.0000     -10.317730      -280.7597
  37   2.0000     -10.317408      -280.7509
  38   2.0000     -10.316007      -280.7128
  39   2.0000     -10.314917      -280.6832
  40   2.0000     -10.313080      -280.6332
  41   2.0000     -10.312761      -280.6245
  42   2.0000     -10.309573      -280.5377
  43   2.0000     -10.305696      -280.4323
  44   2.0000     -10.305664      -280.4314
  45   2.0000     -10.305279      -280.4209
  46   2.0000     -10.304902      -280.4106
  47   2.0000     -10.304664      -280.4042
  48   2.0000     -10.303423      -280.3704
  49   2.0000     -10.301532      -280.3189
  50   2.0000     -10.301050      -280.3058
  51   2.0000     -10.300399      -280.2881
  52   2.0000     -10.299216      -280.2559
  53   2.0000     -10.297422      -280.2071
  54   2.0000     -10.295167      -280.1457
  55   2.0000     -10.289679      -279.9964
  56   2.0000     -10.284187      -279.8470
  57   2.0000     -10.283765      -279.8355
  58   2.0000      -8.077449      -219.7986
  59   2.0000      -8.075180      -219.7368
  60   2.0000      -8.072445      -219.6624
  61   2.0000      -6.046879      -164.5439
  62   2.0000      -6.044609      -164.4822
  63   2.0000      -6.042517      -164.4253
  64   2.0000      -6.041858      -164.4073
  65   2.0000      -6.040510      -164.3706
  66   2.0000      -6.039513      -164.3435
  67   2.0000      -6.037687      -164.2938
  68   2.0000      -6.037022      -164.2757
  69   2.0000      -6.034261      -164.2006
  70   2.0000      -1.041999       -28.3542
  71   2.0000      -1.037780       -28.2394
  72   2.0000      -1.026135       -27.9226
  73   2.0000      -1.022420       -27.8215
  74   2.0000      -1.019172       -27.7331
  75   2.0000      -1.012714       -27.5574
  76   2.0000      -1.011937       -27.5362
  77   2.0000      -1.008294       -27.4371
  78   2.0000      -1.003444       -27.3051
  79   2.0000      -1.002970       -27.2922
  80   2.0000      -0.999990       -27.2111
  81   2.0000      -0.999450       -27.1964
  82   2.0000      -0.993708       -27.0402
  83   2.0000      -0.963869       -26.2282
  84   2.0000      -0.959188       -26.1008
  85   2.0000      -0.945026       -25.7155
  86   2.0000      -0.940717       -25.5982
  87   2.0000      -0.922675       -25.1073
  88   2.0000      -0.910252       -24.7692
  89   2.0000      -0.899011       -24.4633
  90   2.0000      -0.895084       -24.3565
  91   2.0000      -0.890973       -24.2446
  92   2.0000      -0.888236       -24.1701
  93   2.0000      -0.880554       -23.9611
  94   2.0000      -0.870923       -23.6990
  95   2.0000      -0.866786       -23.5865
  96   2.0000      -0.861592       -23.4451
  97   2.0000      -0.845859       -23.0170
  98   2.0000      -0.825487       -22.4626
  99   2.0000      -0.803552       -21.8658
 100   2.0000      -0.797828       -21.7100
 101   2.0000      -0.796056       -21.6618
 102   2.0000      -0.792015       -21.5518
 103   2.0000      -0.791514       -21.5382
 104   2.0000      -0.782269       -21.2866
 105   2.0000      -0.757968       -20.6254
 106   2.0000      -0.733535       -19.9605
 107   2.0000      -0.720941       -19.6178
 108   2.0000      -0.719614       -19.5817
 109   2.0000      -0.717117       -19.5137
 110   2.0000      -0.715157       -19.4604
 111   2.0000      -0.709217       -19.2988
 112   2.0000      -0.688157       -18.7257
 113   2.0000      -0.681409       -18.5421
 114   2.0000      -0.671890       -18.2830
 115   2.0000      -0.670666       -18.2498
 116   2.0000      -0.668254       -18.1841
 117   2.0000      -0.666302       -18.1310
 118   2.0000      -0.659649       -17.9500
 119   2.0000      -0.648101       -17.6357
 120   2.0000      -0.637640       -17.3511
 121   2.0000      -0.626968       -17.0607
 122   2.0000      -0.624786       -17.0013
 123   2.0000      -0.618228       -16.8228
 124   2.0000      -0.605669       -16.4811
 125   2.0000      -0.591105       -16.0848
 126   2.0000      -0.588586       -16.0162
 127   2.0000      -0.587100       -15.9758
 128   2.0000      -0.586351       -15.9554
 129   2.0000      -0.573006       -15.5923
 130   2.0000      -0.561653       -15.2833
 131   2.0000      -0.552503       -15.0344
 132   2.0000      -0.550296       -14.9743
 133   2.0000      -0.546060       -14.8591
 134   2.0000      -0.545329       -14.8392
 135   2.0000      -0.543320       -14.7845
 136   2.0000      -0.543018       -14.7763
 137   2.0000      -0.540696       -14.7131
 138   2.0000      -0.538938       -14.6652
 139   2.0000      -0.538180       -14.6446
 140   2.0000      -0.533687       -14.5224
 141   2.0000      -0.530388       -14.4326
 142   2.0000      -0.527001       -14.3404
 143   2.0000      -0.524823       -14.2812
 144   2.0000      -0.514813       -14.0088
 145   2.0000      -0.512963       -13.9584
 146   2.0000      -0.512005       -13.9324
 147   2.0000      -0.508105       -13.8262
 148   2.0000      -0.503640       -13.7047
 149   2.0000      -0.500434       -13.6175
 150   2.0000      -0.494532       -13.4569
 151   2.0000      -0.493540       -13.4299
 152   2.0000      -0.491909       -13.3855
 153   2.0000      -0.487381       -13.2623
 154   2.0000      -0.484760       -13.1910
 155   2.0000      -0.482058       -13.1175
 156   2.0000      -0.474806       -12.9201
 157   2.0000      -0.473990       -12.8979
 158   2.0000      -0.471591       -12.8326
 159   2.0000      -0.468291       -12.7429
 160   2.0000      -0.466494       -12.6940
 161   2.0000      -0.464234       -12.6324
 162   2.0000      -0.461721       -12.5641
 163   2.0000      -0.459363       -12.4999
 164   2.0000      -0.458459       -12.4753
 165   2.0000      -0.457827       -12.4581
 166   2.0000      -0.457082       -12.4378
 167   2.0000      -0.455214       -12.3870
 168   2.0000      -0.454154       -12.3582
 169   2.0000      -0.451959       -12.2984
 170   2.0000      -0.451025       -12.2730
 171   2.0000      -0.449163       -12.2223
 172   2.0000      -0.447849       -12.1866
 173   2.0000      -0.447230       -12.1698
 174   2.0000      -0.443075       -12.0567
 175   2.0000      -0.440857       -11.9963
 176   2.0000      -0.437172       -11.8960
 177   2.0000      -0.436600       -11.8805
 178   2.0000      -0.434507       -11.8235
 179   2.0000      -0.433474       -11.7954
 180   2.0000      -0.433004       -11.7826
 181   2.0000      -0.430829       -11.7234
 182   2.0000      -0.430370       -11.7110
 183   2.0000      -0.427882       -11.6433
 184   2.0000      -0.422200       -11.4886
 185   2.0000      -0.419877       -11.4254
 186   2.0000      -0.419235       -11.4080
 187   2.0000      -0.416340       -11.3292
 188   2.0000      -0.415892       -11.3170
 189   2.0000      -0.412719       -11.2306
 190   2.0000      -0.392466       -10.6795
 191   2.0000      -0.389464       -10.5979
 192   2.0000      -0.385523       -10.4906
 193   2.0000      -0.374909       -10.2018
 194   2.0000      -0.347923        -9.4675
 195   2.0000      -0.342307        -9.3147
 196   2.0000      -0.340954        -9.2778
 197   2.0000      -0.336971        -9.1694
 198   2.0000      -0.336719        -9.1626
 199   2.0000      -0.334454        -9.1009
 200   2.0000      -0.322893        -8.7864
 201   2.0000      -0.310400        -8.4464
 202   2.0000      -0.290648        -7.9089
 203   2.0000      -0.259685        -7.0664
 204   0.0000      -0.114352        -3.1117
 205   0.0000      -0.096067        -2.6141
 206   0.0000      -0.091836        -2.4990
 207   0.0000      -0.088448        -2.4068
 208   0.0000      -0.042401        -1.1538

MULLIKEN ATOMIC CHARGES
-----------------------
   0 C :   -0.032312
   1 C :    0.046112
   2 C :    0.048640
   3 C :   -0.031596
   4 C :    0.007891
   5 C :    0.009736
   6 C :    0.297775
   7 C :   -0.342594
   8 C :   -0.186287
   9 N :    0.162362
  10 C :   -0.180119
  11 N :    0.151236
  12 C :   -0.072373
  13 C :    0.212853
  14 C :   -0.322670
  15 C :   -0.194797
  16 N :    0.184411
  17 C :   -0.182354
  18 N :    0.163405
  19 C :    0.057731
  20 C :   -0.110051
  21 C :    0.032692
  22 C :   -0.085353
  23 C :    0.114036
  24 C :   -0.042796
  25 S :    0.140268
  26 C :   -0.054893
  27 C :   -0.047822
  28 C :   -0.048350
  29 C :    0.107130
  30 C :   -0.075295
  31 S :    0.127795
  32 C :   -0.032612
  33 C :   -0.039753
  34 C :   -0.022641
  35 C :    0.119722
  36 C :   -0.141885
  37 S :    0.140488
  38 C :    0.029010
  39 C :   -0.068548
  40 C :    0.298214
  41 C :   -0.350956
  42 C :   -0.178882
  43 N :    0.147233
  44 C :   -0.186945
  45 N :    0.160142
  46 C :    0.011577
  47 C :    0.008046
  48 C :   -0.032401
  49 C :    0.047098
  50 C :    0.046780
  51 C :   -0.033897
  52 C :    0.208944
  53 C :   -0.322442
  54 C :   -0.180286
  55 N :    0.158252
  56 C :   -0.199470
  57 N :    0.176252
  58 H :    0.007044
  59 H :    0.005583
  60 H :    0.005901
  61 H :    0.006142
  62 H :    0.024860
  63 H :    0.001274
  64 H :    0.022570
  65 H :    0.044004
  66 H :    0.046819
  67 H :   -0.010562
  68 H :    0.019746
  69 H :    0.037716
  70 H :    0.046238
  71 H :   -0.025726
  72 H :    0.014625
  73 H :    0.055048
  74 H :    0.057189
  75 H :    0.005245
  76 H :    0.005171
  77 H :    0.004728
  78 H :    0.004140
  79 H :    0.006799
Sum of atomic charges:   -0.0000000

LOEWDIN ATOMIC CHARGES
----------------------
   0 C :    0.005867
   1 C :    0.001850
   2 C :    0.005042
   3 C :    0.000436
   4 C :   -0.009821
   5 C :   -0.013442
   6 C :    0.078809
   7 C :   -0.133291
   8 C :   -0.019330
   9 N :   -0.045158
  10 C :   -0.020484
  11 N :   -0.044951
  12 C :   -0.063980
  13 C :    0.058922
  14 C :   -0.133439
  15 C :   -0.034144
  16 N :   -0.041268
  17 C :   -0.019777
  18 N :   -0.044387
  19 C :    0.046829
  20 C :   -0.182181
  21 C :    0.001929
  22 C :   -0.051306
  23 C :   -0.054445
  24 C :   -0.154415
  25 S :    0.464822
  26 C :   -0.175242
  27 C :   -0.055938
  28 C :   -0.032780
  29 C :   -0.043902
  30 C :   -0.199792
  31 S :    0.469925
  32 C :   -0.139805
  33 C :   -0.065052
  34 C :    0.006598
  35 C :   -0.041815
  36 C :   -0.194217
  37 S :    0.456756
  38 C :    0.046093
  39 C :   -0.072502
  40 C :    0.080981
  41 C :   -0.139594
  42 C :   -0.018258
  43 N :   -0.053046
  44 C :   -0.019856
  45 N :   -0.048844
  46 C :   -0.013553
  47 C :   -0.009641
  48 C :    0.000398
  49 C :    0.004304
  50 C :    0.000897
  51 C :    0.005354
  52 C :    0.059684
  53 C :   -0.140344
  54 C :   -0.019928
  55 N :   -0.048348
  56 C :   -0.034079
  57 N :   -0.047433
  58 H :    0.041976
  59 H :    0.038243
  60 H :    0.038041
  61 H :    0.040750
  62 H :    0.052879
  63 H :    0.040595
  64 H :    0.039966
  65 H :    0.035604
  66 H :    0.037808
  67 H :    0.026759
  68 H :    0.037433
  69 H :    0.039826
  70 H :    0.041455
  71 H :    0.031239
  72 H :    0.036380
  73 H :    0.046940
  74 H :    0.052555
  75 H :    0.048340
  76 H :    0.040571
  77 H :    0.037589
  78 H :    0.037621
  79 H :    0.041720

  Mayer bond orders larger than 0.100000
B(  0-C ,  1-C ) :   1.3716 B(  0-C ,  5-C ) :   1.3833 B(  0-C , 58-H ) :   0.9837
B(  1-C ,  2-C ) :   1.3772 B(  1-C , 59-H ) :   0.9859 B(  2-C ,  3-C ) :   1.3649
B(  2-C , 60-H ) :   0.9867 B(  3-C ,  4-C ) :   1.3813 B(  3-C , 61-H ) :   0.9873
B(  4-C ,  5-C ) :   1.3125 B(  4-C , 13-C ) :   1.0139 B(  5-C ,  6-C ) :   1.0020
B(  6-C ,  7-C ) :   1.6416 B(  6-C , 12-C ) :   1.0571 B(  7-C ,  8-C ) :   1.1449
B(  7-C , 10-C ) :   1.1368 B(  8-C ,  9-N ) :   2.9780 B( 10-C , 11-N ) :   2.9677
B( 12-C , 13-C ) :   1.0152 B( 12-C , 19-C ) :   1.5902 B( 13-C , 14-C ) :   1.6575
B( 14-C , 15-C ) :   1.1453 B( 14-C , 17-C ) :   1.1461 B( 15-C , 16-N ) :   3.0229
B( 17-C , 18-N ) :   2.9941 B( 19-C , 20-C ) :   1.1681 B( 19-C , 62-H ) :   0.9338
B( 20-C , 21-C ) :   1.4103 B( 20-C , 25-S ) :   1.1032 B( 21-C , 22-C ) :   1.2995
B( 21-C , 63-H ) :   1.0021 B( 22-C , 23-C ) :   1.1053 B( 22-C , 24-C ) :   1.4555
B( 23-C , 64-H ) :   0.9412 B( 23-C , 65-H ) :   0.9378 B( 23-C , 66-H ) :   0.9367
B( 24-C , 25-S ) :   1.1381 B( 24-C , 26-C ) :   1.1606 B( 26-C , 27-C ) :   1.4463
B( 26-C , 30-C ) :   0.1034 B( 26-C , 31-S ) :   1.1315 B( 27-C , 28-C ) :   1.3101
B( 27-C , 67-H ) :   0.9906 B( 28-C , 29-C ) :   1.1032 B( 28-C , 30-C ) :   1.4937
B( 29-C , 68-H ) :   0.9457 B( 29-C , 69-H ) :   0.9412 B( 29-C , 70-H ) :   0.9388
B( 30-C , 31-S ) :   1.1060 B( 30-C , 32-C ) :   1.1201 B( 32-C , 33-C ) :   1.4506
B( 32-C , 37-S ) :   1.1502 B( 33-C , 34-C ) :   1.3059 B( 33-C , 71-H ) :   0.9989
B( 34-C , 35-C ) :   1.1149 B( 34-C , 36-C ) :   1.4002 B( 35-C , 72-H ) :   0.9441
B( 35-C , 73-H ) :   0.9263 B( 35-C , 74-H ) :   0.9401 B( 36-C , 37-S ) :   1.0764
B( 36-C , 38-C ) :   1.2307 B( 38-C , 39-C ) :   1.5571 B( 38-C , 75-H ) :   0.9245
B( 39-C , 40-C ) :   1.0725 B( 39-C , 52-C ) :   1.0278 B( 40-C , 41-C ) :   1.6304
B( 40-C , 46-C ) :   0.9993 B( 41-C , 42-C ) :   1.1411 B( 41-C , 44-C ) :   1.1464
B( 42-C , 43-N ) :   2.9728 B( 44-C , 45-N ) :   2.9773 B( 46-C , 47-C ) :   1.3125
B( 46-C , 51-C ) :   1.3838 B( 47-C , 48-C ) :   1.3871 B( 47-C , 52-C ) :   1.0163
B( 48-C , 49-C ) :   1.3611 B( 48-C , 76-H ) :   0.9874 B( 49-C , 50-C ) :   1.3793
B( 49-C , 77-H ) :   0.9871 B( 50-C , 51-C ) :   1.3684 B( 50-C , 78-H ) :   0.9863
B( 51-C , 79-H ) :   0.9842 B( 52-C , 53-C ) :   1.6429 B( 53-C , 54-C ) :   1.1419
B( 53-C , 56-C ) :   1.1496 B( 54-C , 55-N ) :   2.9944 B( 56-C , 57-N ) :   3.0213

-----------------------------------------------------------------------------
         ABSORPTION SPECTRUM VIA TRANSITION ELECTRIC DIPOLE MOMENTS
-----------------------------------------------------------------------------
State   Energy  Wavelength   fosc         T2         TX        TY        TZ
        (cm-1)    (nm)                  (au**2)     (au)      (au)      (au)
-----------------------------------------------------------------------------
   0   15711.6    636.5   1.293400201  27.10116   1.00080  -4.60840  -2.20504
   1   19871.0    503.2   0.107311568   1.77788  -0.86884  -0.54595   0.85143
   2   21867.5    457.3   0.354385355   5.33522  -1.35086   1.85446  -0.26718
   3   22170.7    451.0   0.028057111   0.41662   0.32729   0.34972  -0.43266
   4   24195.9    413.3   0.005805291   0.07899  -0.01623   0.24984  -0.12769
   5   26073.7    383.5   0.132789671   1.67663   0.83818  -0.92559  -0.34258
   6   28459.6    351.4   0.038341642   0.44352  -0.51067  -0.42547  -0.04138
   7   29043.1    344.3   0.236037111   2.67555  -0.49722   1.07419  -1.12891
   8   29864.5    334.8   0.049355562   0.54407  -0.00343  -0.61546   0.40653
   9   30125.1    331.9   0.279233075   3.05150   1.43998  -0.96939  -0.19554
  10   30784.3    324.8   0.036168989   0.38680   0.05764  -0.61827  -0.03487
  11   30965.6    322.9   0.066014271   0.70183   0.26157  -0.03538  -0.79509
  12   32039.7    312.1   0.033840464   0.34772  -0.09718  -0.57337  -0.09759
  13   32221.9    310.3   0.014660858   0.14979   0.23888  -0.14450   0.26804
  14   32569.3    307.0   0.256987674   2.59764  -0.52582   1.52322  -0.03079
  15   32887.0    304.1   0.318446090   3.18777  -1.24491   1.27519  -0.10886
  16   33091.6    302.2   0.407992348   4.05891   1.35623  -1.43087   0.41492
  17   33353.8    299.8   0.276751010   2.73161   1.10157  -0.98238   0.74369
  18   33859.6    295.3   0.001640940   0.01595  -0.09160   0.08600   0.01293
  19   34703.3    288.2   0.104146136   0.98798   0.51398   0.79555   0.30151
  20   35217.2    284.0   0.128965339   1.20557  -0.43086  -0.36055   0.94336
  21   35892.5    278.6   0.563394544   5.16755  -0.27028  -0.65135   2.16107
  22   36212.9    276.1   0.320348143   2.91229   0.71910   0.07804  -1.54567
  23   36386.9    274.8   0.021277654   0.19251  -0.40715  -0.15433   0.05403
  24   36983.9    270.4   0.092033793   0.81924   0.01077   0.46076  -0.77899
  25   38051.1    262.8   0.030731925   0.26589   0.42310   0.18062  -0.23291
  26   38263.1    261.3   0.008553820   0.07360  -0.15629   0.04779  -0.21653
  27   38563.5    259.3   0.027591211   0.23554  -0.25190  -0.40572  -0.08648
  28   38744.9    258.1   0.039550801   0.33606   0.33162  -0.24200  -0.40930
  29   39034.0    256.2   0.019810715   0.16708  -0.20550  -0.00338   0.35333
  30   39469.2    253.4   0.017734230   0.14792  -0.21009  -0.12971   0.29489
  31   39929.9    250.4   0.014255650   0.11753   0.16910   0.10001   0.28096

FINAL SINGLE POINT ENERGY     -3433.392053668043

DIPOLE MOMENT
-------------
                                X             Y             Z
Electronic contribution:      2.87266      11.48500      -9.17793
Nuclear contribution   :     -3.41450     -11.25228      11.09347
                        -----------------------------------------
Total Dipole Moment    :     -0.54185       0.23272       1.91554
                        -----------------------------------------
Magnitude (a.u.)       :      2.00426
Magnitude (Debye)      :      5.09443

Rotational constants in cm-1:     0.003264     0.000483     0.000458
Rotational constants in MHz :    97.845383    14.491186    13.738637

                             ****ORCA TERMINATED NORMALLY****
TOTAL RUN TIME: 0 days 0 hours 10 minutes 6 seconds 566 msec
