                         Program Version 4.2.0 -  RELEASE  -
|  1> # ORCA input file
|  2> # SCF done       -181.874784202425          0.000889100890
|  3> ! CAM-B3LYP def2-SVP def2/J RIJCOSX Grid4 TightSCF
|  4> %maxcore 5000
|  5> %tddft
|  6>     Mode sTDDFT
|  7>     Ethresh 5.0
|  8>     maxcore 5000
|  9> end
| 10>
| 11> %pal
| 12>   nprocs 6
| 13>   end
| 14> * xyz 0 1
| 15>    C       -3.80649        -2.93790        -1.27128
| 16>    C       -4.11916        -4.01777        -0.48377
| 17>    C       -3.53424        -5.29236        -0.62518
| 18>    N       -3.09736        -6.35190        -0.69571
| 19>    C       -5.02655        -3.99663         0.59550
| 20>    N       -5.73337        -4.05325         1.49907
| 21>    C       -2.78662        -2.91609        -2.31288
| 22>    C       -2.64816        -1.58656        -2.77824
| 23>    C       -1.76188        -1.23480        -3.76631
| 24>    C       -0.97448        -2.24712        -4.32519
| 25>    C       -1.12177        -3.57398        -3.85637
| 26>    C       -2.01688        -3.92844        -2.85421
| 27>    S       -0.05969        -4.66782        -4.69040
| 28>    C        0.55874        -3.34548        -5.64429
| 29>    C        0.00161        -2.14609        -5.35425
| 30>   Br        1.87993        -3.67442        -6.93412
| 31>    C       -3.59165        -0.70767        -2.05678
| 32>    O       -3.73437         0.48279        -2.23988
| 33>    C       -4.35495        -1.60210        -1.15776
| 34>    C       -5.51555        -1.29495        -0.49439
| 35>    C       -6.07493        -0.03490        -0.22685
| 36>    C       -5.51590         1.23837        -0.20101
| 37>    C       -6.43672         2.20920         0.15989
| 38>    C       -7.73141         1.68657         0.40533
| 39>    S       -7.78658        -0.00369         0.23671
| 40>    C       -8.59661         2.75669         0.71259
| 41>    C       -7.85885         3.95566         0.67858
| 42>    C       -6.47610         3.64777         0.35033
| 43>    C       -5.43863         4.53183         0.26940
| 44>    C       -4.11257         4.13653        -0.00717
| 45>    N       -3.02268         3.84161        -0.20574
| 46>    C       -5.61840         5.91235         0.49059
| 47>    N       -5.75430         7.03773         0.66831
| 48>    C       -8.63133         5.07854         0.95433
| 49>    C       -9.95761         4.76401         1.19330
| 50>    S      -10.24400         3.02753         1.08102
| 51>    C      -11.04514         5.65031         1.47687
| 52>    C      -12.35203         5.17756         1.52551
| 53>    C      -13.43623         6.01382         1.71176
| 54>    C      -13.30225         7.38742         1.89278
| 55>    C      -11.96455         7.89566         1.96269
| 56>    C      -10.85245         7.04707         1.70945
| 57>    N       -9.61341         7.57079         1.68991
| 58>    C       -9.42014         8.83277         1.97224
| 59>    C      -10.51897         9.64815         2.35991
| 60>    N      -11.73685         9.17404         2.31835
| 61>    C      -10.33778        11.04823         2.83961
| 62>    C       -8.03330         9.36697         1.88765
| 63>    C      -14.46533         8.23671         1.96338
| 64>    C      -14.41473         9.59439         1.78024
| 65>    C      -15.50524        10.46144         1.75517
| 66>    C      -16.85827         9.98306         2.06595
| 67>    C      -17.15694         8.68388         2.28181
| 68>    S      -16.00868         7.41193         2.22027
| 69>    C      -17.67670        11.14487         2.07451
| 70>    C      -16.89759        12.26657         1.78049
| 71>    C      -17.66242        13.45472         1.76009
| 72>    C      -18.96952        13.21151         2.03576
| 73>    S      -19.32997        11.54081         2.32573
| 74>    C      -15.54027        11.85355         1.55239
| 75>    C      -14.48629        12.74687         1.20919
| 76>    C      -13.32676        12.39978         0.60444
| 77>    C      -12.22710        13.27821         0.33798
| 78>    C      -12.21527        14.67035         0.61909
| 79>    C      -11.03709        15.27837         0.31516
| 80>    S      -10.69513        16.97759         0.53018
| 81>    C       -8.96056        17.05898         0.00453
| 82>    S       -9.87901        14.15614        -0.33112
| 83>    C      -11.01574        12.84174        -0.19339
| 84>    C      -10.62409        11.51972        -0.57870
| 85>    C       -9.41404        11.17789        -1.02492
| 86>    H       -1.67933        -0.21158        -4.09764
| 87>    H       -2.09668        -4.95418        -2.53517
| 88>    H        0.26507        -1.22702        -5.84505
| 89>    H       -6.11848        -2.12848        -0.15223
| 90>    H       -4.48477         1.42536        -0.43495
| 91>    H       -8.28420         6.09394         0.98541
| 92>    H      -12.53171         4.12242         1.37612
| 93>    H      -14.42535         5.58142         1.68514
| 94>    H       -9.78527        11.04792         3.77859
| 95>    H      -11.30840        11.51034         2.99857
| 96>    H       -9.77041        11.62991         2.11629
| 97>    H       -7.71275         9.73900         2.85954
| 98>    H       -8.00091        10.19787         1.18333
| 99>    H       -7.35003         8.58936         1.55753
|100>    H      -13.42566        10.01131         1.68177
|101>    H      -18.15814         8.34412         2.49657
|102>    H      -17.27317        14.43525         1.55345
|103>    H      -19.77329        13.91962         2.08924
|104>    H      -14.67243        13.78611         1.44593
|105>    H      -13.19944        11.38059         0.27701
|106>    H      -13.04681        15.21337         1.02708
|107>    H       -8.65702        18.09476         0.11641
|108>    H       -8.87949        16.75282        -1.03471
|109>    H       -8.35729        16.41845         0.64169
|110>    H      -11.38535        10.75706        -0.48445
|111>    H       -8.62644        11.90554        -1.13759
|112>    H       -9.18126        10.16502        -1.30110
|113> *
|114>
|115>                          ****END OF INPUT****

CARTESIAN COORDINATES (ANGSTROEM)
---------------------------------
  C     -3.806490   -2.937900   -1.271280
  C     -4.119160   -4.017770   -0.483770
  C     -3.534240   -5.292360   -0.625180
  N     -3.097360   -6.351900   -0.695710
  C     -5.026550   -3.996630    0.595500
  N     -5.733370   -4.053250    1.499070
  C     -2.786620   -2.916090   -2.312880
  C     -2.648160   -1.586560   -2.778240
  C     -1.761880   -1.234800   -3.766310
  C     -0.974480   -2.247120   -4.325190
  C     -1.121770   -3.573980   -3.856370
  C     -2.016880   -3.928440   -2.854210
  S     -0.059690   -4.667820   -4.690400
  C      0.558740   -3.345480   -5.644290
  C      0.001610   -2.146090   -5.354250
  Br     1.879930   -3.674420   -6.934120
  C     -3.591650   -0.707670   -2.056780
  O     -3.734370    0.482790   -2.239880
  C     -4.354950   -1.602100   -1.157760
  C     -5.515550   -1.294950   -0.494390
  C     -6.074930   -0.034900   -0.226850
  C     -5.515900    1.238370   -0.201010
  C     -6.436720    2.209200    0.159890
  C     -7.731410    1.686570    0.405330
  S     -7.786580   -0.003690    0.236710
  C     -8.596610    2.756690    0.712590
  C     -7.858850    3.955660    0.678580
  C     -6.476100    3.647770    0.350330
  C     -5.438630    4.531830    0.269400
  C     -4.112570    4.136530   -0.007170
  N     -3.022680    3.841610   -0.205740
  C     -5.618400    5.912350    0.490590
  N     -5.754300    7.037730    0.668310
  C     -8.631330    5.078540    0.954330
  C     -9.957610    4.764010    1.193300
  S    -10.244000    3.027530    1.081020
  C    -11.045140    5.650310    1.476870
  C    -12.352030    5.177560    1.525510
  C    -13.436230    6.013820    1.711760
  C    -13.302250    7.387420    1.892780
  C    -11.964550    7.895660    1.962690
  C    -10.852450    7.047070    1.709450
  N     -9.613410    7.570790    1.689910
  C     -9.420140    8.832770    1.972240
  C    -10.518970    9.648150    2.359910
  N    -11.736850    9.174040    2.318350
  C    -10.337780   11.048230    2.839610
  C     -8.033300    9.366970    1.887650
  C    -14.465330    8.236710    1.963380
  C    -14.414730    9.594390    1.780240
  C    -15.505240   10.461440    1.755170
  C    -16.858270    9.983060    2.065950
  C    -17.156940    8.683880    2.281810
  S    -16.008680    7.411930    2.220270
  C    -17.676700   11.144870    2.074510
  C    -16.897590   12.266570    1.780490
  C    -17.662420   13.454720    1.760090
  C    -18.969520   13.211510    2.035760
  S    -19.329970   11.540810    2.325730
  C    -15.540270   11.853550    1.552390
  C    -14.486290   12.746870    1.209190
  C    -13.326760   12.399780    0.604440
  C    -12.227100   13.278210    0.337980
  C    -12.215270   14.670350    0.619090
  C    -11.037090   15.278370    0.315160
  S    -10.695130   16.977590    0.530180
  C     -8.960560   17.058980    0.004530
  S     -9.879010   14.156140   -0.331120
  C    -11.015740   12.841740   -0.193390
  C    -10.624090   11.519720   -0.578700
  C     -9.414040   11.177890   -1.024920
  H     -1.679330   -0.211580   -4.097640
  H     -2.096680   -4.954180   -2.535170
  H      0.265070   -1.227020   -5.845050
  H     -6.118480   -2.128480   -0.152230
  H     -4.484770    1.425360   -0.434950
  H     -8.284200    6.093940    0.985410
  H    -12.531710    4.122420    1.376120
  H    -14.425350    5.581420    1.685140
  H     -9.785270   11.047920    3.778590
  H    -11.308400   11.510340    2.998570
  H     -9.770410   11.629910    2.116290
  H     -7.712750    9.739000    2.859540
  H     -8.000910   10.197870    1.183330
  H     -7.350030    8.589360    1.557530
  H    -13.425660   10.011310    1.681770
  H    -18.158140    8.344120    2.496570
  H    -17.273170   14.435250    1.553450
  H    -19.773290   13.919620    2.089240
  H    -14.672430   13.786110    1.445930
  H    -13.199440   11.380590    0.277010
  H    -13.046810   15.213370    1.027080
  H     -8.657020   18.094760    0.116410
  H     -8.879490   16.752820   -1.034710
  H     -8.357290   16.418450    0.641690
  H    -11.385350   10.757060   -0.484450
  H     -8.626440   11.905540   -1.137590
  H     -9.181260   10.165020   -1.301100

 Total Charge           Charge          ....    0
 Multiplicity           Mult            ....    1
 Number of Electrons    NEL             ....  560
 Basis Dimension        Dim             .... 1175

ORBITAL ENERGIES
----------------

  NO   OCC          E(Eh)            E(eV)
   0   2.0000    -482.883351    -13139.9240
   1   2.0000     -88.992936     -2421.6209
   2   2.0000     -88.987837     -2421.4822
   3   2.0000     -88.972963     -2421.0774
   4   2.0000     -88.966140     -2420.8918
   5   2.0000     -88.954635     -2420.5787
   6   2.0000     -88.951413     -2420.4910
   7   2.0000     -88.935485     -2420.0576
   8   2.0000     -62.561064     -1702.3731
   9   2.0000     -56.395012     -1534.5863
  10   2.0000     -56.392299     -1534.5125
  11   2.0000     -56.392267     -1534.5116
  12   2.0000     -19.214397      -522.8503
  13   2.0000     -14.433115      -392.7450
  14   2.0000     -14.427565      -392.5940
  15   2.0000     -14.420086      -392.3905
  16   2.0000     -14.419609      -392.3775
  17   2.0000     -14.412222      -392.1765
  18   2.0000     -14.411209      -392.1489
  19   2.0000     -10.366196      -282.0785
  20   2.0000     -10.364700      -282.0378
  21   2.0000     -10.356328      -281.8100
  22   2.0000     -10.352112      -281.6953
  23   2.0000     -10.344708      -281.4938
  24   2.0000     -10.338170      -281.3159
  25   2.0000     -10.337503      -281.2978
  26   2.0000     -10.334158      -281.2067
  27   2.0000     -10.329279      -281.0740
  28   2.0000     -10.327205      -281.0175
  29   2.0000     -10.324962      -280.9565
  30   2.0000     -10.324607      -280.9468
  31   2.0000     -10.324539      -280.9450
  32   2.0000     -10.324279      -280.9379
  33   2.0000     -10.323605      -280.9196
  34   2.0000     -10.322810      -280.8979
  35   2.0000     -10.322303      -280.8842
  36   2.0000     -10.321604      -280.8651
  37   2.0000     -10.321595      -280.8649
  38   2.0000     -10.318467      -280.7798
  39   2.0000     -10.315497      -280.6990
  40   2.0000     -10.314422      -280.6697
  41   2.0000     -10.312187      -280.6089
  42   2.0000     -10.306851      -280.4637
  43   2.0000     -10.304845      -280.4091
  44   2.0000     -10.304673      -280.4044
  45   2.0000     -10.304535      -280.4007
  46   2.0000     -10.304446      -280.3982
  47   2.0000     -10.303055      -280.3604
  48   2.0000     -10.302718      -280.3512
  49   2.0000     -10.301382      -280.3149
  50   2.0000     -10.300179      -280.2821
  51   2.0000     -10.297776      -280.2167
  52   2.0000     -10.296134      -280.1721
  53   2.0000     -10.294066      -280.1158
  54   2.0000     -10.292726      -280.0793
  55   2.0000     -10.292309      -280.0680
  56   2.0000     -10.291814      -280.0545
  57   2.0000     -10.289382      -279.9883
  58   2.0000     -10.289193      -279.9832
  59   2.0000     -10.287478      -279.9365
  60   2.0000     -10.287358      -279.9332
  61   2.0000     -10.281706      -279.7794
  62   2.0000     -10.281007      -279.7604
  63   2.0000     -10.280705      -279.7522
  64   2.0000     -10.276915      -279.6491
  65   2.0000     -10.273899      -279.5670
  66   2.0000     -10.272768      -279.5362
  67   2.0000     -10.270317      -279.4695
  68   2.0000     -10.269238      -279.4402
  69   2.0000     -10.269091      -279.4362
  70   2.0000     -10.266572      -279.3676
  71   2.0000     -10.265723      -279.3445
  72   2.0000     -10.265076      -279.3269
  73   2.0000     -10.263788      -279.2919
  74   2.0000     -10.259802      -279.1834
  75   2.0000      -8.790492      -239.2015
  76   2.0000      -8.087727      -220.0782
  77   2.0000      -8.082181      -219.9273
  78   2.0000      -8.068938      -219.5670
  79   2.0000      -8.061276      -219.3585
  80   2.0000      -8.049906      -219.0491
  81   2.0000      -8.046768      -218.9637
  82   2.0000      -8.031138      -218.5384
  83   2.0000      -6.626786      -180.3240
  84   2.0000      -6.612242      -179.9282
  85   2.0000      -6.612026      -179.9224
  86   2.0000      -6.056849      -164.8152
  87   2.0000      -6.052734      -164.7033
  88   2.0000      -6.051456      -164.6685
  89   2.0000      -6.050229      -164.6351
  90   2.0000      -6.047257      -164.5542
  91   2.0000      -6.044579      -164.4813
  92   2.0000      -6.038647      -164.3199
  93   2.0000      -6.034339      -164.2027
  94   2.0000      -6.030815      -164.1068
  95   2.0000      -6.030164      -164.0891
  96   2.0000      -6.026330      -163.9848
  97   2.0000      -6.023257      -163.9012
  98   2.0000      -6.019467      -163.7980
  99   2.0000      -6.016223      -163.7098
 100   2.0000      -6.015168      -163.6810
 101   2.0000      -6.012003      -163.5949
 102   2.0000      -6.011700      -163.5867
 103   2.0000      -6.008772      -163.5070
 104   2.0000      -6.001592      -163.3116
 105   2.0000      -5.997510      -163.2005
 106   2.0000      -5.990716      -163.0157
 107   2.0000      -2.742668       -74.6318
 108   2.0000      -2.738549       -74.5197
 109   2.0000      -2.738438       -74.5167
 110   2.0000      -2.726857       -74.2015
 111   2.0000      -2.726848       -74.2013
 112   2.0000      -1.129809       -30.7437
 113   2.0000      -1.083538       -29.4846
 114   2.0000      -1.045802       -28.4577
 115   2.0000      -1.022577       -27.8257
 116   2.0000      -1.020123       -27.7590
 117   2.0000      -1.010393       -27.4942
 118   2.0000      -1.008013       -27.4294
 119   2.0000      -1.006610       -27.3913
 120   2.0000      -0.999100       -27.1869
 121   2.0000      -0.996669       -27.1207
 122   2.0000      -0.990608       -26.9558
 123   2.0000      -0.986689       -26.8492
 124   2.0000      -0.985746       -26.8235
 125   2.0000      -0.974388       -26.5144
 126   2.0000      -0.961663       -26.1682
 127   2.0000      -0.950625       -25.8678
 128   2.0000      -0.940524       -25.5930
 129   2.0000      -0.922985       -25.1157
 130   2.0000      -0.917358       -24.9626
 131   2.0000      -0.908798       -24.7297
 132   2.0000      -0.905543       -24.6411
 133   2.0000      -0.897784       -24.4300
 134   2.0000      -0.890475       -24.2311
 135   2.0000      -0.887167       -24.1410
 136   2.0000      -0.882872       -24.0242
 137   2.0000      -0.879132       -23.9224
 138   2.0000      -0.870663       -23.6919
 139   2.0000      -0.865860       -23.5612
 140   2.0000      -0.860729       -23.4216
 141   2.0000      -0.853997       -23.2384
 142   2.0000      -0.845696       -23.0125
 143   2.0000      -0.839751       -22.8508
 144   2.0000      -0.826390       -22.4872
 145   2.0000      -0.815864       -22.2008
 146   2.0000      -0.813801       -22.1446
 147   2.0000      -0.808842       -22.0097
 148   2.0000      -0.802777       -21.8447
 149   2.0000      -0.801896       -21.8207
 150   2.0000      -0.792611       -21.5680
 151   2.0000      -0.778654       -21.1883
 152   2.0000      -0.769024       -20.9262
 153   2.0000      -0.757808       -20.6210
 154   2.0000      -0.754700       -20.5364
 155   2.0000      -0.741364       -20.1735
 156   2.0000      -0.731679       -19.9100
 157   2.0000      -0.728812       -19.8320
 158   2.0000      -0.720130       -19.5957
 159   2.0000      -0.713628       -19.4188
 160   2.0000      -0.712324       -19.3833
 161   2.0000      -0.697683       -18.9849
 162   2.0000      -0.690946       -18.8016
 163   2.0000      -0.688856       -18.7447
 164   2.0000      -0.685170       -18.6444
 165   2.0000      -0.674890       -18.3647
 166   2.0000      -0.670685       -18.2503
 167   2.0000      -0.663989       -18.0681
 168   2.0000      -0.656498       -17.8642
 169   2.0000      -0.655595       -17.8397
 170   2.0000      -0.641141       -17.4463
 171   2.0000      -0.638604       -17.3773
 172   2.0000      -0.631418       -17.1818
 173   2.0000      -0.629175       -17.1207
 174   2.0000      -0.626065       -17.0361
 175   2.0000      -0.619322       -16.8526
 176   2.0000      -0.614696       -16.7267
 177   2.0000      -0.612671       -16.6716
 178   2.0000      -0.606759       -16.5107
 179   2.0000      -0.605264       -16.4701
 180   2.0000      -0.600480       -16.3399
 181   2.0000      -0.594845       -16.1865
 182   2.0000      -0.586377       -15.9561
 183   2.0000      -0.577689       -15.7197
 184   2.0000      -0.573208       -15.5978
 185   2.0000      -0.566316       -15.4103
 186   2.0000      -0.563178       -15.3249
 187   2.0000      -0.559730       -15.2310
 188   2.0000      -0.554960       -15.1012
 189   2.0000      -0.551581       -15.0093
 190   2.0000      -0.548081       -14.9140
 191   2.0000      -0.545779       -14.8514
 192   2.0000      -0.538715       -14.6592
 193   2.0000      -0.537392       -14.6232
 194   2.0000      -0.535356       -14.5678
 195   2.0000      -0.533116       -14.5068
 196   2.0000      -0.531833       -14.4719
 197   2.0000      -0.524587       -14.2747
 198   2.0000      -0.520933       -14.1753
 199   2.0000      -0.520204       -14.1555
 200   2.0000      -0.515410       -14.0250
 201   2.0000      -0.513240       -13.9660
 202   2.0000      -0.512026       -13.9329
 203   2.0000      -0.509287       -13.8584
 204   2.0000      -0.507161       -13.8005
 205   2.0000      -0.505720       -13.7613
 206   2.0000      -0.504526       -13.7288
 207   2.0000      -0.502721       -13.6797
 208   2.0000      -0.500845       -13.6287
 209   2.0000      -0.499054       -13.5800
 210   2.0000      -0.497566       -13.5395
 211   2.0000      -0.496164       -13.5013
 212   2.0000      -0.492617       -13.4048
 213   2.0000      -0.490412       -13.3448
 214   2.0000      -0.490149       -13.3376
 215   2.0000      -0.488105       -13.2820
 216   2.0000      -0.481997       -13.1158
 217   2.0000      -0.480037       -13.0625
 218   2.0000      -0.479660       -13.0522
 219   2.0000      -0.477142       -12.9837
 220   2.0000      -0.476282       -12.9603
 221   2.0000      -0.471788       -12.8380
 222   2.0000      -0.471505       -12.8303
 223   2.0000      -0.468096       -12.7375
 224   2.0000      -0.464146       -12.6300
 225   2.0000      -0.459872       -12.5138
 226   2.0000      -0.458064       -12.4646
 227   2.0000      -0.457319       -12.4443
 228   2.0000      -0.455285       -12.3889
 229   2.0000      -0.454490       -12.3673
 230   2.0000      -0.452179       -12.3044
 231   2.0000      -0.450170       -12.2498
 232   2.0000      -0.445781       -12.1303
 233   2.0000      -0.445499       -12.1226
 234   2.0000      -0.444986       -12.1087
 235   2.0000      -0.443859       -12.0780
 236   2.0000      -0.440448       -11.9852
 237   2.0000      -0.440097       -11.9756
 238   2.0000      -0.438200       -11.9240
 239   2.0000      -0.437135       -11.8951
 240   2.0000      -0.436160       -11.8685
 241   2.0000      -0.433901       -11.8070
 242   2.0000      -0.433022       -11.7831
 243   2.0000      -0.425956       -11.5909
 244   2.0000      -0.424609       -11.5542
 245   2.0000      -0.423599       -11.5267
 246   2.0000      -0.422490       -11.4965
 247   2.0000      -0.420553       -11.4438
 248   2.0000      -0.418101       -11.3771
 249   2.0000      -0.414622       -11.2824
 250   2.0000      -0.409586       -11.1454
 251   2.0000      -0.407655       -11.0929
 252   2.0000      -0.405150       -11.0247
 253   2.0000      -0.403497       -10.9797
 254   2.0000      -0.402976       -10.9655
 255   2.0000      -0.394529       -10.7357
 256   2.0000      -0.392245       -10.6735
 257   2.0000      -0.390799       -10.6342
 258   2.0000      -0.383324       -10.4308
 259   2.0000      -0.378527       -10.3002
 260   2.0000      -0.372751       -10.1431
 261   2.0000      -0.371490       -10.1087
 262   2.0000      -0.366997        -9.9865
 263   2.0000      -0.362480        -9.8636
 264   2.0000      -0.350072        -9.5259
 265   2.0000      -0.341002        -9.2791
 266   2.0000      -0.335421        -9.1273
 267   2.0000      -0.331148        -9.0110
 268   2.0000      -0.327308        -8.9065
 269   2.0000      -0.323186        -8.7943
 270   2.0000      -0.320849        -8.7308
 271   2.0000      -0.315671        -8.5898
 272   2.0000      -0.312966        -8.5162
 273   2.0000      -0.304666        -8.2904
 274   2.0000      -0.300910        -8.1882
 275   2.0000      -0.290934        -7.9167
 276   2.0000      -0.274596        -7.4721
 277   2.0000      -0.260509        -7.0888
 278   2.0000      -0.251452        -6.8424
 279   2.0000      -0.219467        -5.9720
 280   0.0000      -0.112007        -3.0479
 281   0.0000      -0.086314        -2.3487
 282   0.0000      -0.068854        -1.8736
 283   0.0000      -0.056761        -1.5445
 284   0.0000      -0.039301        -1.0694

MULLIKEN ATOMIC CHARGES
-----------------------
   0 C :    0.298134
   1 C :   -0.347698
   2 C :   -0.185390
   3 N :    0.147824
   4 C :   -0.205835
   5 N :    0.156161
   6 C :    0.015384
   7 C :   -0.017735
   8 C :   -0.067858
   9 C :    0.115342
  10 C :   -0.090720
  11 C :   -0.019392
  12 S :    0.185048
  13 C :   -0.124617
  14 C :    0.040985
  15 Br:    0.022417
  16 C :    0.147948
  17 O :   -0.154965
  18 C :   -0.098657
  19 C :    0.030444
  20 C :   -0.117301
  21 C :    0.036038
  22 C :   -0.025542
  23 C :   -0.080691
  24 S :    0.204060
  25 C :   -0.096150
  26 C :    0.045376
  27 C :    0.316192
  28 C :   -0.300621
  29 C :   -0.189453
  30 N :    0.185259
  31 C :   -0.178952
  32 N :    0.180943
  33 C :   -0.060234
  34 C :   -0.103258
  35 S :    0.163041
  36 C :    0.152428
  37 C :   -0.064617
  38 C :   -0.063300
  39 C :    0.128972
  40 C :   -0.052165
  41 C :   -0.031683
  42 N :   -0.015128
  43 C :   -0.154633
  44 C :   -0.164268
  45 N :   -0.023345
  46 C :    0.128967
  47 C :    0.125041
  48 C :   -0.088919
  49 C :   -0.041831
  50 C :    0.041503
  51 C :    0.066981
  52 C :   -0.124017
  53 S :    0.093275
  54 C :   -0.109404
  55 C :    0.048779
  56 C :    0.010748
  57 C :   -0.071669
  58 S :    0.122577
  59 C :    0.081967
  60 C :   -0.023808
  61 C :   -0.035827
  62 C :    0.144990
  63 C :   -0.005683
  64 C :   -0.120681
  65 S :   -0.000945
  66 C :   -0.094538
  67 S :    0.079086
  68 C :   -0.146414
  69 C :   -0.007380
  70 C :   -0.042128
  71 H :   -0.008235
  72 H :   -0.006516
  73 H :   -0.002855
  74 H :    0.021558
  75 H :    0.032370
  76 H :    0.017476
  77 H :   -0.010916
  78 H :   -0.001170
  79 H :    0.028427
  80 H :    0.034670
  81 H :    0.038523
  82 H :    0.020212
  83 H :    0.027330
  84 H :    0.029535
  85 H :   -0.010632
  86 H :    0.032266
  87 H :   -0.020290
  88 H :    0.025002
  89 H :   -0.029421
  90 H :   -0.022307
  91 H :   -0.021904
  92 H :    0.067545
  93 H :    0.072858
  94 H :    0.070499
  95 H :   -0.002821
  96 H :    0.023354
  97 H :    0.026984
Sum of atomic charges:   -0.0000000

LOEWDIN ATOMIC CHARGES
----------------------
   0 C :    0.076107
   1 C :   -0.146308
   2 C :   -0.018739
   3 N :   -0.056372
   4 C :   -0.025761
   5 N :   -0.056116
   6 C :   -0.021232
   7 C :   -0.049476
   8 C :    0.022629
   9 C :   -0.032863
  10 C :   -0.144120
  11 C :   -0.010155
  12 S :    0.431600
  13 C :   -0.271928
  14 C :   -0.069858
  15 Br:    0.135841
  16 C :    0.083923
  17 O :   -0.141960
  18 C :   -0.102528
  19 C :    0.044219
  20 C :   -0.181581
  21 C :    0.027819
  22 C :   -0.079111
  23 C :   -0.150961
  24 S :    0.490065
  25 C :   -0.196460
  26 C :   -0.055227
  27 C :    0.081648
  28 C :   -0.099504
  29 C :   -0.020319
  30 N :   -0.022693
  31 C :   -0.002485
  32 N :   -0.031241
  33 C :   -0.027509
  34 C :   -0.136112
  35 S :    0.472868
  36 C :   -0.049459
  37 C :   -0.017663
  38 C :   -0.032507
  39 C :   -0.026910
  40 C :   -0.003758
  41 C :   -0.000008
  42 N :   -0.040670
  43 C :    0.014269
  44 C :    0.009433
  45 N :   -0.039591
  46 C :   -0.051890
  47 C :   -0.056978
  48 C :   -0.168878
  49 C :   -0.007237
  50 C :   -0.028014
  51 C :   -0.051526
  52 C :   -0.140101
  53 S :    0.440614
  54 C :   -0.202831
  55 C :   -0.042478
  56 C :   -0.064383
  57 C :   -0.167360
  58 S :    0.416499
  59 C :   -0.044258
  60 C :   -0.014072
  61 C :   -0.028359
  62 C :   -0.043241
  63 C :   -0.094565
  64 C :   -0.304755
  65 S :    0.294085
  66 C :   -0.161455
  67 S :    0.412562
  68 C :   -0.191063
  69 C :   -0.038986
  70 C :   -0.071086
  71 H :    0.041718
  72 H :    0.040866
  73 H :    0.039078
  74 H :    0.043698
  75 H :    0.045474
  76 H :    0.035903
  77 H :    0.022178
  78 H :    0.022273
  79 H :    0.040051
  80 H :    0.041025
  81 H :    0.039652
  82 H :    0.038606
  83 H :    0.039084
  84 H :    0.036326
  85 H :    0.031947
  86 H :    0.034984
  87 H :    0.029176
  88 H :    0.022331
  89 H :    0.025754
  90 H :    0.025798
  91 H :    0.025752
  92 H :    0.035727
  93 H :    0.024784
  94 H :    0.024584
  95 H :    0.032460
  96 H :    0.014978
  97 H :    0.026312

  Mayer bond orders larger than 0.100000
B(  0-C ,  1-C ) :   1.6267 B(  0-C ,  6-C ) :   1.0033 B(  0-C , 18-C ) :   1.0824
B(  1-C ,  2-C ) :   1.1431 B(  1-C ,  4-C ) :   1.1405 B(  2-C ,  3-N ) :   2.9715
B(  4-C ,  5-N ) :   2.9955 B(  6-C ,  7-C ) :   1.2734 B(  6-C , 11-C ) :   1.4117
B(  7-C ,  8-C ) :   1.4291 B(  7-C , 16-C ) :   0.9437 B(  8-C ,  9-C ) :   1.2430
B(  8-C , 71-H ) :   1.0167 B(  9-C , 10-C ) :   1.3086 B(  9-C , 14-C ) :   1.1627
B( 10-C , 11-C ) :   1.3291 B( 10-C , 12-S ) :   1.0845 B( 11-C , 72-H ) :   0.9808
B( 12-S , 13-C ) :   1.0865 B( 13-C , 14-C ) :   1.6185 B( 13-C , 15-Br) :   1.0183
B( 14-C , 73-H ) :   1.0002 B( 16-C , 17-O ) :   2.1929 B( 16-C , 18-C ) :   0.9528
B( 18-C , 19-C ) :   1.5688 B( 19-C , 20-C ) :   1.2185 B( 19-C , 74-H ) :   0.9272
B( 20-C , 21-C ) :   1.3933 B( 20-C , 24-S ) :   1.0641 B( 21-C , 22-C ) :   1.3499
B( 21-C , 75-H ) :   0.9738 B( 22-C , 23-C ) :   1.3648 B( 22-C , 27-C ) :   0.9925
B( 23-C , 24-S ) :   1.1702 B( 23-C , 25-C ) :   1.2137 B( 25-C , 26-C ) :   1.4204
B( 25-C , 35-S ) :   1.1074 B( 26-C , 27-C ) :   0.9994 B( 26-C , 33-C ) :   1.2325
B( 27-C , 28-C ) :   1.7092 B( 28-C , 29-C ) :   1.1317 B( 28-C , 31-C ) :   1.1445
B( 29-C , 30-N ) :   2.9964 B( 31-C , 32-N ) :   2.9749 B( 33-C , 34-C ) :   1.4697
B( 33-C , 76-H ) :   0.9815 B( 34-C , 35-S ) :   1.1053 B( 34-C , 36-C ) :   1.1147
B( 36-C , 37-C ) :   1.3793 B( 36-C , 39-C ) :   0.1111 B( 36-C , 41-C ) :   1.2150
B( 37-C , 38-C ) :   1.3246 B( 37-C , 77-H ) :   0.9850 B( 38-C , 39-C ) :   1.3847
B( 38-C , 78-H ) :   0.9771 B( 39-C , 40-C ) :   1.2103 B( 39-C , 48-C ) :   1.1133
B( 40-C , 41-C ) :   1.2643 B( 40-C , 45-N ) :   1.4148 B( 41-C , 42-N ) :   1.4418
B( 42-N , 43-C ) :   1.6590 B( 43-C , 44-C ) :   1.1659 B( 43-C , 47-C ) :   1.0962
B( 44-C , 45-N ) :   1.6561 B( 44-C , 46-C ) :   1.1000 B( 46-C , 79-H ) :   0.9396
B( 46-C , 80-H ) :   0.9415 B( 46-C , 81-H ) :   0.9301 B( 47-C , 82-H ) :   0.9267
B( 47-C , 83-H ) :   0.9307 B( 47-C , 84-H ) :   0.9273 B( 48-C , 49-C ) :   1.5570
B( 48-C , 53-S ) :   1.0272 B( 49-C , 50-C ) :   1.2208 B( 49-C , 85-H ) :   0.9316
B( 50-C , 51-C ) :   1.0493 B( 50-C , 59-C ) :   1.4075 B( 51-C , 52-C ) :   1.6021
B( 51-C , 54-C ) :   1.1762 B( 52-C , 53-S ) :   1.1447 B( 52-C , 86-H ) :   0.9415
B( 54-C , 55-C ) :   1.4371 B( 54-C , 58-S ) :   1.0731 B( 55-C , 56-C ) :   1.2154
B( 55-C , 59-C ) :   1.1080 B( 56-C , 57-C ) :   1.5872 B( 56-C , 87-H ) :   0.9981
B( 57-C , 58-S ) :   1.1510 B( 57-C , 88-H ) :   0.9666 B( 59-C , 60-C ) :   1.1184
B( 60-C , 61-C ) :   1.6719 B( 60-C , 89-H ) :   0.9624 B( 61-C , 62-C ) :   1.1071
B( 61-C , 90-H ) :   0.9688 B( 62-C , 63-C ) :   1.2301 B( 62-C , 68-C ) :   1.4482
B( 63-C , 64-C ) :   1.5857 B( 63-C , 91-H ) :   0.9885 B( 64-C , 65-S ) :   1.0251
B( 64-C , 67-S ) :   1.1048 B( 65-S , 66-C ) :   1.0136 B( 66-C , 92-H ) :   0.9728
B( 66-C , 93-H ) :   0.9650 B( 66-C , 94-H ) :   0.9656 B( 67-S , 68-C ) :   1.0700
B( 68-C , 69-C ) :   1.1514 B( 69-C , 70-C ) :   1.9072 B( 69-C , 95-H ) :   0.9547
B( 70-C , 96-H ) :   0.9516 B( 70-C , 97-H ) :   0.9416

-----------------------------------------------------------------------------
         ABSORPTION SPECTRUM VIA TRANSITION ELECTRIC DIPOLE MOMENTS
-----------------------------------------------------------------------------
State   Energy  Wavelength   fosc         T2         TX        TY        TZ
        (cm-1)    (nm)                  (au**2)     (au)      (au)      (au)
-----------------------------------------------------------------------------
   0   11046.8    905.2   0.479227660  14.28176  -2.24967   2.99337   0.51040
   1   15045.2    664.7   0.045851300   1.00330   0.22139  -0.90322   0.37213
   2   17269.1    579.1   0.587398099  11.19792   1.65944  -2.90088  -0.17048
   3   19817.2    504.6   0.707137001  11.74727   2.28735  -2.24685  -1.21117
   4   21047.5    475.1   0.090717074   1.41894  -0.30620   1.14908  -0.06926
   5   21435.4    466.5   0.019984259   0.30693  -0.22282  -0.49789  -0.09687
   6   22912.6    436.4   0.363939859   5.22914  -1.52941   1.59616   0.58509
   7   24117.8    414.6   0.025716534   0.35103  -0.10757  -0.57709  -0.08021
   8   25024.7    399.6   0.036452822   0.47955  -0.65115   0.22740  -0.06196
   9   25609.4    390.5   0.000988656   0.01271   0.06727   0.05158  -0.07432
  10   26462.0    377.9   0.413588817   5.14543  -1.88992  -0.06601   1.25270
  11   26608.8    375.8   0.142160266   1.75885   1.21544   0.52607  -0.06925
  12   27130.2    368.6   0.143963751   1.74693   1.06922   0.12414  -0.76699
  13   27323.9    366.0   0.000379130   0.00457  -0.05338  -0.01092  -0.03999
  14   27652.9    361.6   0.012633260   0.15040  -0.35638   0.06912  -0.13644
  15   28576.2    349.9   0.016488692   0.18996  -0.39860  -0.01790   0.17538
  16   29252.5    341.9   0.045058992   0.50710   0.44343  -0.37039  -0.41627
  17   29497.5    339.0   0.012372217   0.13808   0.36945   0.03841  -0.01056
  18   29537.8    338.5   0.072830910   0.81173  -0.85291   0.26633   0.11550
  19   29883.2    334.6   0.107911394   1.18882  -0.55440  -0.93193  -0.11385
  20   30202.5    331.1   0.031663856   0.34514   0.34187   0.33993   0.33573
  21   30430.8    328.6   0.079477243   0.85981  -0.47210  -0.63783  -0.47970
  22   30535.9    327.5   0.070315572   0.75808   0.10960   0.72813  -0.46465
  23   30806.1    324.6   0.557691281   5.95981   2.12657   0.12048  -1.19290
  24   30917.1    323.4   0.106615700   1.13527  -0.82438  -0.20990   0.64157
  25   31419.5    318.3   0.269665980   2.82555  -0.50513  -1.60308  -0.02325
  26   31506.2    317.4   0.091337514   0.95440   0.75695  -0.48717  -0.37959
  27   31666.9    315.8   0.216313851   2.24882   1.29838  -0.50510  -0.55488
  28   31960.6    312.9   0.093957891   0.96782  -0.45949   0.86295  -0.10957
  29   32252.0    310.1   0.052995147   0.54095  -0.21211   0.10201   0.69682
  30   32576.9    307.0   0.200287636   2.02404   1.08849   0.06326  -0.91391
  31   33163.6    301.5   0.009677664   0.09607  -0.26037   0.16785  -0.01028
  32   33544.1    298.1   0.021586312   0.21185  -0.19126   0.41097  -0.07989
  33   33769.0    296.1   0.198479196   1.93496  -0.09090  -1.38260  -0.12296
  34   34353.3    291.1   0.331617216   3.17793   0.80345   1.27828  -0.94784
  35   34652.2    288.6   0.032442557   0.30822   0.03154   0.26372   0.48752
  36   35051.6    285.3   0.188158237   1.76722  -0.62405  -1.13493   0.29953
  37   35206.3    284.0   0.040257466   0.37644  -0.14433   0.58131   0.13301
  38   35345.6    282.9   0.114730513   1.06861   1.01777   0.07590   0.16432
  39   35499.7    281.7   0.117365373   1.08841   0.99908  -0.23608  -0.18577
  40   36257.1    275.8   0.121971653   1.10749   0.20862   1.01919  -0.15880
  41   36401.2    274.7   0.069012722   0.62415   0.26829  -0.72069  -0.18102
  42   36777.0    271.9   0.231522387   2.07249   0.77304  -1.17700  -0.29930
  43   36983.9    270.4   0.082064158   0.73049   0.78863   0.32054  -0.07621
  44   37231.0    268.6   0.063550104   0.56194  -0.16969   0.72890   0.04305
  45   37816.6    264.4   0.035884935   0.31240   0.55362   0.06613   0.03910
  46   38191.1    261.8   0.120451657   1.03831   0.78262   0.42431  -0.49576
  47   38335.4    260.9   0.220501780   1.89360   1.20866  -0.64528   0.12786
  48   38555.2    259.4   0.117428699   1.00269  -0.79432  -0.59554   0.13070
  49   38652.2    258.7   0.032136705   0.27372   0.38837   0.29368  -0.19141
  50   38833.5    257.5   0.134281020   1.13837   0.14676  -1.04811  -0.13530
  51   38986.2    256.5   0.064985238   0.54876   0.28206   0.66783  -0.15232
  52   39188.8    255.2   0.089577992   0.75252  -0.02435  -0.84982  -0.17243
  53   39369.5    254.0   0.062500481   0.52264   0.26701   0.67182  -0.00058
  54   39895.7    250.7   0.016425092   0.13554  -0.24490   0.25214  -0.10949
  55   39988.9    250.1   0.051474323   0.42377   0.16071   0.54742   0.31348
  56   40111.0    249.3   0.132973938   1.09139  -0.00450  -1.03559  -0.13753

FINAL SINGLE POINT ENERGY     -7911.015818399496

DIPOLE MOMENT
-------------
                                X             Y             Z
Electronic contribution:    133.77287    -179.44064     -82.28612
Nuclear contribution   :   -135.43276     182.12706      81.60253
                        -----------------------------------------
Total Dipole Moment    :     -1.65989       2.68642      -0.68359
                        -----------------------------------------
Magnitude (a.u.)       :      3.23101
Magnitude (Debye)      :      8.21256

Rotational constants in cm-1:     0.001469     0.000200     0.000182
Rotational constants in MHz :    44.030666     5.989296     5.468938

                             ****ORCA TERMINATED NORMALLY****
TOTAL RUN TIME: 0 days 0 hours 11 minutes 21 seconds 640 msec
