                         Program Version 4.2.0 -  RELEASE  -
|  1> # ORCA input file
|  2> # SCF done       -182.732261957028          0.000461014833
|  3> ! CAM-B3LYP def2-SVP def2/J RIJCOSX Grid4 TightSCF
|  4> %maxcore 5000
|  5> %tddft
|  6>     Mode sTDDFT
|  7>     Ethresh 5.0
|  8>     maxcore 5000
|  9> end
| 10>
| 11> %pal
| 12>   nprocs 6
| 13>   end
| 14> * xyz 0 1
| 15>    C       -0.69217         9.50100        -3.00504
| 16>    C        0.58143         9.04195        -3.14187
| 17>    C        0.93503         8.18364        -2.08197
| 18>    C       -0.10622         8.01895        -1.15887
| 19>    S       -1.49932         8.90740        -1.58871
| 20>    C        0.33304         7.14008        -0.13134
| 21>    C        1.65004         6.75271        -0.40962
| 22>    C        2.07239         7.39891        -1.64843
| 23>    C        3.28633         7.27997        -2.26247
| 24>    C        4.31802         6.47542        -1.73744
| 25>    N        5.16010         5.82014        -1.31631
| 26>    C        3.59035         7.95424        -3.46282
| 27>    N        3.84497         8.49910        -4.43949
| 28>    C        2.17501         5.87837         0.54194
| 29>    C        1.26591         5.59152         1.54430
| 30>    S       -0.26462         6.42980         1.30276
| 31>    C        1.44082         4.72936         2.66579
| 32>    C        0.43555         4.47236         3.56459
| 33>    C        0.53398         3.60613         4.65236
| 34>    C        1.74364         2.79700         4.86109
| 35>    C        2.86733         2.91570         4.12192
| 36>    S        3.04140         4.00772         2.80927
| 37>    C        1.42981         1.92177         5.93712
| 38>    C        0.12248         2.15534         6.36523
| 39>    C       -0.24740         1.31194         7.43565
| 40>    C        0.76501         0.47507         7.78261
| 41>    S        2.20170         0.67604         6.83545
| 42>    C       -0.44232         3.23004         5.59239
| 43>    C       -1.74561         3.75180         5.77965
| 44>    C       -2.15051         5.00908         5.45729
| 45>    C       -3.48901         5.43869         5.57173
| 46>    S       -3.88466         7.16446         5.29430
| 47>    C       -5.53074         6.75064         5.52986
| 48>    C       -5.65599         5.37897         5.79204
| 49>    N       -4.52709         4.68465         5.81987
| 50>    C       -7.09458         4.99587         5.93998
| 51>    C       -7.77000         6.31513         5.70476
| 52>    C       -6.81919         7.32044         5.49437
| 53>    S       -7.53714         8.85570         5.23880
| 54>    C       -9.13781         8.14228         5.36334
| 55>    C       -9.07402         6.77953         5.61886
| 56>    C      -10.26971         8.97078         5.16484
| 57>    C      -11.51910         8.51651         4.89792
| 58>    C      -12.65837         9.33631         4.65841
| 59>    C      -13.81189         8.81595         4.11695
| 60>    C      -14.96193         9.54287         3.81253
| 61>    C      -15.08128        10.94898         4.22516
| 62>    C      -14.07278        11.66845         4.76205
| 63>    S      -12.50379        11.04269         5.06029
| 64>    C      -16.41635        11.32521         3.91272
| 65>    C      -17.07726        10.25128         3.31894
| 66>    C      -18.40686        10.57256         2.96725
| 67>    C      -18.71494        11.85312         3.30033
| 68>    S      -17.41229        12.72075         4.04285
| 69>    C      -16.17036         9.13667         3.21253
| 70>    C      -16.50567         7.93924         2.53700
| 71>    C      -15.64363         7.01343         2.04156
| 72>    C      -16.02612         5.85659         1.32341
| 73>    C      -15.16536         4.92665         0.75793
| 74>    C      -15.84680         3.91276         0.08962
| 75>    C      -17.23922         4.06142         0.14101
| 76>    S      -17.71151         5.45104         1.02112
| 77>    C      -17.83138         2.99050        -0.58055
| 78>    C      -16.81227         2.16960        -1.08509
| 79>    C      -15.53429         2.71170        -0.68117
| 80>    C      -14.29074         2.21359        -0.95027
| 81>    C      -14.09743         1.04378        -1.71241
| 82>    N      -13.93175         0.09363        -2.33355
| 83>    C      -13.11573         2.83137        -0.47818
| 84>    N      -12.15606         3.32408        -0.08687
| 85>    C      -17.31578         1.07820        -1.82129
| 86>    C      -18.67482         1.09011        -1.86179
| 87>    S      -19.38519         2.42558        -1.00717
| 88>    H       -1.22602        10.16420        -3.65567
| 89>    H        1.22697         9.30658        -3.95925
| 90>    H        3.16519         5.46044         0.51479
| 91>    H       -0.51640         4.95017         3.37701
| 92>    H        3.75030         2.32426         4.30608
| 93>    H       -1.20570         1.32050         7.92213
| 94>    H        0.76767        -0.26913         8.55495
| 95>    H       -2.46984         3.09890         6.24847
| 96>    H       -1.44256         5.75263         5.12239
| 97>    H       -7.30784         4.59573         6.93308
| 98>    H       -7.38612         4.24102         5.20772
| 99>    H       -9.94885         6.16916         5.74879
|100>    H      -10.08743        10.03760         5.17902
|101>    H      -11.68538         7.45241         4.80129
|102>    H      -13.81103         7.75175         3.92891
|103>    H      -14.17979        12.70793         5.02917
|104>    H      -19.10136         9.89960         2.49775
|105>    H      -19.64663        12.36425         3.15534
|106>    H      -17.56280         7.79495         2.34386
|107>    H      -14.57673         7.15537         2.13003
|108>    H      -14.09611         5.00509         0.83603
|109>    H      -16.71054         0.32731        -2.29559
|110>    H      -19.32668         0.39125        -2.34616
|111> *
|112>
|113>                          ****END OF INPUT****

CARTESIAN COORDINATES (ANGSTROEM)
---------------------------------
  C     -0.692170    9.501000   -3.005040
  C      0.581430    9.041950   -3.141870
  C      0.935030    8.183640   -2.081970
  C     -0.106220    8.018950   -1.158870
  S     -1.499320    8.907400   -1.588710
  C      0.333040    7.140080   -0.131340
  C      1.650040    6.752710   -0.409620
  C      2.072390    7.398910   -1.648430
  C      3.286330    7.279970   -2.262470
  C      4.318020    6.475420   -1.737440
  N      5.160100    5.820140   -1.316310
  C      3.590350    7.954240   -3.462820
  N      3.844970    8.499100   -4.439490
  C      2.175010    5.878370    0.541940
  C      1.265910    5.591520    1.544300
  S     -0.264620    6.429800    1.302760
  C      1.440820    4.729360    2.665790
  C      0.435550    4.472360    3.564590
  C      0.533980    3.606130    4.652360
  C      1.743640    2.797000    4.861090
  C      2.867330    2.915700    4.121920
  S      3.041400    4.007720    2.809270
  C      1.429810    1.921770    5.937120
  C      0.122480    2.155340    6.365230
  C     -0.247400    1.311940    7.435650
  C      0.765010    0.475070    7.782610
  S      2.201700    0.676040    6.835450
  C     -0.442320    3.230040    5.592390
  C     -1.745610    3.751800    5.779650
  C     -2.150510    5.009080    5.457290
  C     -3.489010    5.438690    5.571730
  S     -3.884660    7.164460    5.294300
  C     -5.530740    6.750640    5.529860
  C     -5.655990    5.378970    5.792040
  N     -4.527090    4.684650    5.819870
  C     -7.094580    4.995870    5.939980
  C     -7.770000    6.315130    5.704760
  C     -6.819190    7.320440    5.494370
  S     -7.537140    8.855700    5.238800
  C     -9.137810    8.142280    5.363340
  C     -9.074020    6.779530    5.618860
  C    -10.269710    8.970780    5.164840
  C    -11.519100    8.516510    4.897920
  C    -12.658370    9.336310    4.658410
  C    -13.811890    8.815950    4.116950
  C    -14.961930    9.542870    3.812530
  C    -15.081280   10.948980    4.225160
  C    -14.072780   11.668450    4.762050
  S    -12.503790   11.042690    5.060290
  C    -16.416350   11.325210    3.912720
  C    -17.077260   10.251280    3.318940
  C    -18.406860   10.572560    2.967250
  C    -18.714940   11.853120    3.300330
  S    -17.412290   12.720750    4.042850
  C    -16.170360    9.136670    3.212530
  C    -16.505670    7.939240    2.537000
  C    -15.643630    7.013430    2.041560
  C    -16.026120    5.856590    1.323410
  C    -15.165360    4.926650    0.757930
  C    -15.846800    3.912760    0.089620
  C    -17.239220    4.061420    0.141010
  S    -17.711510    5.451040    1.021120
  C    -17.831380    2.990500   -0.580550
  C    -16.812270    2.169600   -1.085090
  C    -15.534290    2.711700   -0.681170
  C    -14.290740    2.213590   -0.950270
  C    -14.097430    1.043780   -1.712410
  N    -13.931750    0.093630   -2.333550
  C    -13.115730    2.831370   -0.478180
  N    -12.156060    3.324080   -0.086870
  C    -17.315780    1.078200   -1.821290
  C    -18.674820    1.090110   -1.861790
  S    -19.385190    2.425580   -1.007170
  H     -1.226020   10.164200   -3.655670
  H      1.226970    9.306580   -3.959250
  H      3.165190    5.460440    0.514790
  H     -0.516400    4.950170    3.377010
  H      3.750300    2.324260    4.306080
  H     -1.205700    1.320500    7.922130
  H      0.767670   -0.269130    8.554950
  H     -2.469840    3.098900    6.248470
  H     -1.442560    5.752630    5.122390
  H     -7.307840    4.595730    6.933080
  H     -7.386120    4.241020    5.207720
  H     -9.948850    6.169160    5.748790
  H    -10.087430   10.037600    5.179020
  H    -11.685380    7.452410    4.801290
  H    -13.811030    7.751750    3.928910
  H    -14.179790   12.707930    5.029170
  H    -19.101360    9.899600    2.497750
  H    -19.646630   12.364250    3.155340
  H    -17.562800    7.794950    2.343860
  H    -14.576730    7.155370    2.130030
  H    -14.096110    5.005090    0.836030
  H    -16.710540    0.327310   -2.295590
  H    -19.326680    0.391250   -2.346160

 Total Charge           Charge          ....    0
 Multiplicity           Mult            ....    1
 Number of Electrons    NEL             ....  566
 Basis Dimension        Dim             .... 1177

ORBITAL ENERGIES
----------------

  NO   OCC          E(Eh)            E(eV)
   0   2.0000     -88.986676     -2421.4505
   1   2.0000     -88.984082     -2421.3800
   2   2.0000     -88.978332     -2421.2235
   3   2.0000     -88.974534     -2421.1202
   4   2.0000     -88.974195     -2421.1109
   5   2.0000     -88.967627     -2420.9322
   6   2.0000     -88.960070     -2420.7266
   7   2.0000     -88.959418     -2420.7088
   8   2.0000     -88.953168     -2420.5388
   9   2.0000     -88.951952     -2420.5057
  10   2.0000     -14.426412      -392.5626
  11   2.0000     -14.425856      -392.5475
  12   2.0000     -14.421383      -392.4258
  13   2.0000     -14.420782      -392.4094
  14   2.0000     -14.402766      -391.9192
  15   2.0000     -10.359728      -281.9025
  16   2.0000     -10.352948      -281.7180
  17   2.0000     -10.347450      -281.5684
  18   2.0000     -10.341267      -281.4002
  19   2.0000     -10.328599      -281.0555
  20   2.0000     -10.326930      -281.0101
  21   2.0000     -10.326820      -281.0070
  22   2.0000     -10.326505      -280.9985
  23   2.0000     -10.326283      -280.9924
  24   2.0000     -10.326237      -280.9912
  25   2.0000     -10.326001      -280.9848
  26   2.0000     -10.324294      -280.9383
  27   2.0000     -10.322411      -280.8871
  28   2.0000     -10.321668      -280.8669
  29   2.0000     -10.321528      -280.8631
  30   2.0000     -10.320931      -280.8468
  31   2.0000     -10.315517      -280.6995
  32   2.0000     -10.315323      -280.6942
  33   2.0000     -10.309117      -280.5253
  34   2.0000     -10.308137      -280.4987
  35   2.0000     -10.302029      -280.3324
  36   2.0000     -10.301761      -280.3252
  37   2.0000     -10.300337      -280.2864
  38   2.0000     -10.299646      -280.2676
  39   2.0000     -10.298422      -280.2343
  40   2.0000     -10.298267      -280.2301
  41   2.0000     -10.297088      -280.1980
  42   2.0000     -10.295933      -280.1666
  43   2.0000     -10.295349      -280.1507
  44   2.0000     -10.295094      -280.1437
  45   2.0000     -10.294161      -280.1184
  46   2.0000     -10.293372      -280.0969
  47   2.0000     -10.292259      -280.0666
  48   2.0000     -10.292058      -280.0611
  49   2.0000     -10.289399      -279.9888
  50   2.0000     -10.288755      -279.9713
  51   2.0000     -10.287660      -279.9415
  52   2.0000     -10.287435      -279.9353
  53   2.0000     -10.286527      -279.9106
  54   2.0000     -10.284831      -279.8645
  55   2.0000     -10.283914      -279.8395
  56   2.0000     -10.283409      -279.8258
  57   2.0000     -10.283299      -279.8228
  58   2.0000     -10.282534      -279.8020
  59   2.0000     -10.280499      -279.7466
  60   2.0000     -10.279756      -279.7264
  61   2.0000     -10.278531      -279.6930
  62   2.0000     -10.277285      -279.6591
  63   2.0000     -10.276885      -279.6483
  64   2.0000     -10.276310      -279.6326
  65   2.0000     -10.275655      -279.6148
  66   2.0000     -10.273877      -279.5664
  67   2.0000     -10.272064      -279.5171
  68   2.0000     -10.271219      -279.4941
  69   2.0000     -10.270872      -279.4846
  70   2.0000     -10.269619      -279.4505
  71   2.0000     -10.269604      -279.4501
  72   2.0000     -10.267412      -279.3905
  73   2.0000      -8.080948      -219.8938
  74   2.0000      -8.079112      -219.8438
  75   2.0000      -8.073276      -219.6850
  76   2.0000      -8.069354      -219.5783
  77   2.0000      -8.069002      -219.5687
  78   2.0000      -8.063057      -219.4069
  79   2.0000      -8.055324      -219.1965
  80   2.0000      -8.054637      -219.1778
  81   2.0000      -8.048599      -219.0135
  82   2.0000      -8.047259      -218.9770
  83   2.0000      -6.050241      -164.6354
  84   2.0000      -6.048373      -164.5846
  85   2.0000      -6.046145      -164.5240
  86   2.0000      -6.043919      -164.4634
  87   2.0000      -6.043204      -164.4439
  88   2.0000      -6.042538      -164.4258
  89   2.0000      -6.041703      -164.4031
  90   2.0000      -6.039037      -164.3305
  91   2.0000      -6.038221      -164.3083
  92   2.0000      -6.038118      -164.3055
  93   2.0000      -6.035886      -164.2448
  94   2.0000      -6.034410      -164.2046
  95   2.0000      -6.034173      -164.1982
  96   2.0000      -6.032545      -164.1539
  97   2.0000      -6.031368      -164.1219
  98   2.0000      -6.031109      -164.1148
  99   2.0000      -6.028127      -164.0337
 100   2.0000      -6.024977      -163.9480
 101   2.0000      -6.024491      -163.9347
 102   2.0000      -6.023952      -163.9201
 103   2.0000      -6.020667      -163.8307
 104   2.0000      -6.019931      -163.8107
 105   2.0000      -6.018057      -163.7597
 106   2.0000      -6.017437      -163.7428
 107   2.0000      -6.016735      -163.7237
 108   2.0000      -6.016696      -163.7226
 109   2.0000      -6.013814      -163.6442
 110   2.0000      -6.012483      -163.6080
 111   2.0000      -6.010581      -163.5562
 112   2.0000      -6.009267      -163.5205
 113   2.0000      -1.059640       -28.8343
 114   2.0000      -1.039371       -28.2827
 115   2.0000      -1.031223       -28.0610
 116   2.0000      -1.017735       -27.6940
 117   2.0000      -1.011823       -27.5331
 118   2.0000      -1.004788       -27.3417
 119   2.0000      -1.003400       -27.3039
 120   2.0000      -0.999902       -27.2087
 121   2.0000      -0.998606       -27.1734
 122   2.0000      -0.992881       -27.0177
 123   2.0000      -0.992411       -27.0049
 124   2.0000      -0.981834       -26.7171
 125   2.0000      -0.968051       -26.3420
 126   2.0000      -0.967081       -26.3156
 127   2.0000      -0.950704       -25.8700
 128   2.0000      -0.946383       -25.7524
 129   2.0000      -0.930997       -25.3337
 130   2.0000      -0.925774       -25.1916
 131   2.0000      -0.920937       -25.0600
 132   2.0000      -0.908664       -24.7260
 133   2.0000      -0.905410       -24.6375
 134   2.0000      -0.895759       -24.3749
 135   2.0000      -0.891944       -24.2710
 136   2.0000      -0.884667       -24.0730
 137   2.0000      -0.873840       -23.7784
 138   2.0000      -0.870439       -23.6859
 139   2.0000      -0.862552       -23.4712
 140   2.0000      -0.858133       -23.3510
 141   2.0000      -0.852656       -23.2019
 142   2.0000      -0.848590       -23.0913
 143   2.0000      -0.841150       -22.8889
 144   2.0000      -0.839698       -22.8493
 145   2.0000      -0.836295       -22.7567
 146   2.0000      -0.829481       -22.5713
 147   2.0000      -0.816900       -22.2290
 148   2.0000      -0.805274       -21.9126
 149   2.0000      -0.797789       -21.7089
 150   2.0000      -0.793701       -21.5977
 151   2.0000      -0.779575       -21.2133
 152   2.0000      -0.778031       -21.1713
 153   2.0000      -0.773752       -21.0549
 154   2.0000      -0.766984       -20.8707
 155   2.0000      -0.762522       -20.7493
 156   2.0000      -0.752642       -20.4804
 157   2.0000      -0.738474       -20.0949
 158   2.0000      -0.729225       -19.8432
 159   2.0000      -0.725002       -19.7283
 160   2.0000      -0.710718       -19.3396
 161   2.0000      -0.698871       -19.0172
 162   2.0000      -0.694899       -18.9092
 163   2.0000      -0.690851       -18.7990
 164   2.0000      -0.685698       -18.6588
 165   2.0000      -0.673863       -18.3367
 166   2.0000      -0.672796       -18.3077
 167   2.0000      -0.669559       -18.2196
 168   2.0000      -0.663596       -18.0574
 169   2.0000      -0.658563       -17.9204
 170   2.0000      -0.649651       -17.6779
 171   2.0000      -0.646207       -17.5842
 172   2.0000      -0.636433       -17.3182
 173   2.0000      -0.635368       -17.2892
 174   2.0000      -0.628812       -17.1108
 175   2.0000      -0.624366       -16.9899
 176   2.0000      -0.620185       -16.8761
 177   2.0000      -0.616765       -16.7830
 178   2.0000      -0.615630       -16.7521
 179   2.0000      -0.614233       -16.7141
 180   2.0000      -0.609613       -16.5884
 181   2.0000      -0.606987       -16.5170
 182   2.0000      -0.603291       -16.4164
 183   2.0000      -0.594372       -16.1737
 184   2.0000      -0.590270       -16.0621
 185   2.0000      -0.583563       -15.8796
 186   2.0000      -0.578036       -15.7292
 187   2.0000      -0.572571       -15.5804
 188   2.0000      -0.568158       -15.4604
 189   2.0000      -0.565658       -15.3923
 190   2.0000      -0.554161       -15.0795
 191   2.0000      -0.552357       -15.0304
 192   2.0000      -0.550026       -14.9670
 193   2.0000      -0.546335       -14.8665
 194   2.0000      -0.541987       -14.7482
 195   2.0000      -0.541779       -14.7426
 196   2.0000      -0.538340       -14.6490
 197   2.0000      -0.534163       -14.5353
 198   2.0000      -0.532382       -14.4868
 199   2.0000      -0.528586       -14.3836
 200   2.0000      -0.525727       -14.3058
 201   2.0000      -0.518160       -14.0999
 202   2.0000      -0.512631       -13.9494
 203   2.0000      -0.510561       -13.8931
 204   2.0000      -0.509318       -13.8593
 205   2.0000      -0.506695       -13.7879
 206   2.0000      -0.506178       -13.7738
 207   2.0000      -0.501959       -13.6590
 208   2.0000      -0.500471       -13.6185
 209   2.0000      -0.499168       -13.5830
 210   2.0000      -0.493726       -13.4350
 211   2.0000      -0.490740       -13.3537
 212   2.0000      -0.489466       -13.3191
 213   2.0000      -0.487890       -13.2762
 214   2.0000      -0.485663       -13.2156
 215   2.0000      -0.484163       -13.1747
 216   2.0000      -0.482010       -13.1161
 217   2.0000      -0.478442       -13.0191
 218   2.0000      -0.476267       -12.9599
 219   2.0000      -0.475850       -12.9485
 220   2.0000      -0.471212       -12.8223
 221   2.0000      -0.470634       -12.8066
 222   2.0000      -0.469466       -12.7748
 223   2.0000      -0.467208       -12.7134
 224   2.0000      -0.459533       -12.5045
 225   2.0000      -0.458428       -12.4745
 226   2.0000      -0.457613       -12.4523
 227   2.0000      -0.456004       -12.4085
 228   2.0000      -0.454969       -12.3803
 229   2.0000      -0.453822       -12.3491
 230   2.0000      -0.453326       -12.3356
 231   2.0000      -0.453132       -12.3304
 232   2.0000      -0.450089       -12.2475
 233   2.0000      -0.448087       -12.1931
 234   2.0000      -0.447826       -12.1860
 235   2.0000      -0.446636       -12.1536
 236   2.0000      -0.443045       -12.0559
 237   2.0000      -0.442639       -12.0448
 238   2.0000      -0.438426       -11.9302
 239   2.0000      -0.436302       -11.8724
 240   2.0000      -0.435601       -11.8533
 241   2.0000      -0.435443       -11.8490
 242   2.0000      -0.431758       -11.7487
 243   2.0000      -0.429612       -11.6903
 244   2.0000      -0.429253       -11.6806
 245   2.0000      -0.428383       -11.6569
 246   2.0000      -0.424203       -11.5432
 247   2.0000      -0.422541       -11.4979
 248   2.0000      -0.421067       -11.4578
 249   2.0000      -0.419982       -11.4283
 250   2.0000      -0.418675       -11.3927
 251   2.0000      -0.417161       -11.3515
 252   2.0000      -0.415764       -11.3135
 253   2.0000      -0.414322       -11.2743
 254   2.0000      -0.413769       -11.2592
 255   2.0000      -0.411373       -11.1940
 256   2.0000      -0.408477       -11.1152
 257   2.0000      -0.405087       -11.0230
 258   2.0000      -0.401843       -10.9347
 259   2.0000      -0.398668       -10.8483
 260   2.0000      -0.391924       -10.6648
 261   2.0000      -0.385367       -10.4864
 262   2.0000      -0.377045       -10.2599
 263   2.0000      -0.359169        -9.7735
 264   2.0000      -0.353762        -9.6264
 265   2.0000      -0.346893        -9.4394
 266   2.0000      -0.344036        -9.3617
 267   2.0000      -0.343265        -9.3407
 268   2.0000      -0.342721        -9.3259
 269   2.0000      -0.335576        -9.1315
 270   2.0000      -0.332081        -9.0364
 271   2.0000      -0.323312        -8.7978
 272   2.0000      -0.321068        -8.7367
 273   2.0000      -0.317142        -8.6299
 274   2.0000      -0.310404        -8.4465
 275   2.0000      -0.308506        -8.3949
 276   2.0000      -0.290847        -7.9143
 277   2.0000      -0.280811        -7.6413
 278   2.0000      -0.275888        -7.5073
 279   2.0000      -0.265729        -7.2309
 280   2.0000      -0.248054        -6.7499
 281   2.0000      -0.224051        -6.0967
 282   2.0000      -0.207750        -5.6532
 283   0.0000      -0.099731        -2.7138
 284   0.0000      -0.093982        -2.5574
 285   0.0000      -0.070939        -1.9303
 286   0.0000      -0.057130        -1.5546
 287   0.0000      -0.029923        -0.8142

MULLIKEN ATOMIC CHARGES
-----------------------
   0 C :   -0.082197
   1 C :    0.038629
   2 C :   -0.036629
   3 C :   -0.115231
   4 S :    0.182401
   5 C :   -0.096408
   6 C :    0.013002
   7 C :    0.300894
   8 C :   -0.297772
   9 C :   -0.185483
  10 N :    0.167997
  11 C :   -0.192603
  12 N :    0.175141
  13 C :   -0.054354
  14 C :   -0.062388
  15 S :    0.167271
  16 C :   -0.023417
  17 C :   -0.095734
  18 C :    0.052460
  19 C :    0.061220
  20 C :   -0.124524
  21 S :    0.130213
  22 C :   -0.111736
  23 C :    0.054036
  24 C :    0.011135
  25 C :   -0.070779
  26 S :    0.127418
  27 C :    0.077765
  28 C :   -0.021481
  29 C :    0.024904
  30 C :   -0.109671
  31 S :    0.112445
  32 C :   -0.066392
  33 C :   -0.225767
  34 N :   -0.016310
  35 C :    0.390347
  36 C :   -0.168236
  37 C :   -0.097955
  38 S :    0.143856
  39 C :   -0.087171
  40 C :   -0.011544
  41 C :    0.047999
  42 C :   -0.023740
  43 C :   -0.027926
  44 C :   -0.063977
  45 C :    0.048853
  46 C :    0.060000
  47 C :   -0.125397
  48 S :    0.110246
  49 C :   -0.109595
  50 C :    0.054953
  51 C :    0.003086
  52 C :   -0.069580
  53 S :    0.122400
  54 C :    0.079430
  55 C :   -0.031424
  56 C :   -0.012459
  57 C :   -0.039386
  58 C :   -0.052749
  59 C :    0.017474
  60 C :   -0.105652
  61 S :    0.157383
  62 C :   -0.113410
  63 C :   -0.038688
  64 C :    0.299304
  65 C :   -0.303209
  66 C :   -0.192438
  67 N :    0.167955
  68 C :   -0.186298
  69 N :    0.166274
  70 C :    0.040075
  71 C :   -0.087003
  72 S :    0.171527
  73 H :    0.035894
  74 H :    0.011469
  75 H :    0.018366
  76 H :   -0.007384
  77 H :    0.037663
  78 H :   -0.015755
  79 H :    0.027257
  80 H :    0.002361
  81 H :   -0.014775
  82 H :    0.033763
  83 H :    0.037433
  84 H :   -0.023236
  85 H :   -0.002689
  86 H :   -0.007743
  87 H :   -0.019435
  88 H :    0.033407
  89 H :   -0.019639
  90 H :    0.023603
  91 H :   -0.023206
  92 H :   -0.011067
  93 H :    0.000187
  94 H :    0.009920
  95 H :    0.032229
Sum of atomic charges:   -0.0000000

LOEWDIN ATOMIC CHARGES
----------------------
   0 C :   -0.178286
   1 C :   -0.033789
   2 C :   -0.078617
   3 C :   -0.182302
   4 S :    0.477204
   5 C :   -0.180445
   6 C :   -0.069106
   7 C :    0.084304
   8 C :   -0.104278
   9 C :   -0.016246
  10 N :   -0.035423
  11 C :   -0.016948
  12 N :   -0.033954
  13 C :   -0.041731
  14 C :   -0.178390
  15 S :    0.476202
  16 C :   -0.182934
  17 C :   -0.032966
  18 C :   -0.018804
  19 C :   -0.047889
  20 C :   -0.138945
  21 S :    0.457594
  22 C :   -0.204622
  23 C :   -0.038725
  24 C :   -0.062221
  25 C :   -0.165376
  26 S :    0.419865
  27 C :   -0.052706
  28 C :    0.014690
  29 C :   -0.078487
  30 C :   -0.117928
  31 S :    0.394635
  32 C :   -0.223377
  33 C :   -0.034597
  34 N :   -0.094650
  35 C :   -0.012260
  36 C :   -0.050618
  37 C :   -0.197103
  38 S :    0.432585
  39 C :   -0.172890
  40 C :   -0.048952
  41 C :   -0.047949
  42 C :   -0.049929
  43 C :   -0.159334
  44 C :   -0.029456
  45 C :   -0.020654
  46 C :   -0.048241
  47 C :   -0.142312
  48 S :    0.446145
  49 C :   -0.206119
  50 C :   -0.040365
  51 C :   -0.066220
  52 C :   -0.167249
  53 S :    0.416853
  54 C :   -0.056459
  55 C :   -0.020234
  56 C :   -0.057813
  57 C :   -0.154377
  58 C :   -0.039724
  59 C :   -0.069797
  60 C :   -0.191211
  61 S :    0.460111
  62 C :   -0.176884
  63 C :   -0.085092
  64 C :    0.086861
  65 C :   -0.109801
  66 C :   -0.016801
  67 N :   -0.038890
  68 C :   -0.015088
  69 N :   -0.042006
  70 C :   -0.034138
  71 C :   -0.183916
  72 S :    0.468982
  73 H :    0.027390
  74 H :    0.042426
  75 H :    0.034534
  76 H :    0.026621
  77 H :    0.037430
  78 H :    0.031651
  79 H :    0.023192
  80 H :    0.035685
  81 H :    0.024648
  82 H :    0.055663
  83 H :    0.055971
  84 H :    0.030198
  85 H :    0.020690
  86 H :    0.033081
  87 H :    0.035335
  88 H :    0.035086
  89 H :    0.028839
  90 H :    0.022134
  91 H :    0.020089
  92 H :    0.033535
  93 H :    0.038112
  94 H :    0.041634
  95 H :    0.025647

  Mayer bond orders larger than 0.100000
B(  0-C ,  1-C ) :   1.5505 B(  0-C ,  4-S ) :   1.1472 B(  0-C , 73-H ) :   0.9646
B(  1-C ,  2-C ) :   1.2754 B(  1-C , 74-H ) :   0.9959 B(  2-C ,  3-C ) :   1.4536
B(  2-C ,  7-C ) :   1.0199 B(  3-C ,  4-S ) :   1.1372 B(  3-C ,  5-C ) :   1.1811
B(  5-C ,  6-C ) :   1.4674 B(  5-C , 15-S ) :   1.1222 B(  6-C ,  7-C ) :   0.9950
B(  6-C , 13-C ) :   1.2955 B(  7-C ,  8-C ) :   1.7058 B(  8-C ,  9-C ) :   1.1329
B(  8-C , 11-C ) :   1.1325 B(  9-C , 10-N ) :   2.9887 B( 11-C , 12-N ) :   3.0027
B( 13-C , 14-C ) :   1.4651 B( 13-C , 75-H ) :   0.9803 B( 14-C , 15-S ) :   1.1055
B( 14-C , 16-C ) :   1.1638 B( 16-C , 17-C ) :   1.5268 B( 16-C , 21-S ) :   1.0541
B( 17-C , 18-C ) :   1.2440 B( 17-C , 76-H ) :   0.9572 B( 18-C , 19-C ) :   1.0530
B( 18-C , 27-C ) :   1.4009 B( 19-C , 20-C ) :   1.6127 B( 19-C , 22-C ) :   1.1740
B( 20-C , 21-S ) :   1.1349 B( 20-C , 77-H ) :   0.9405 B( 22-C , 23-C ) :   1.4422
B( 22-C , 26-S ) :   1.0752 B( 23-C , 24-C ) :   1.2231 B( 23-C , 27-C ) :   1.0982
B( 24-C , 25-C ) :   1.5840 B( 24-C , 78-H ) :   0.9984 B( 25-C , 26-S ) :   1.1537
B( 25-C , 79-H ) :   0.9666 B( 27-C , 28-C ) :   1.1327 B( 28-C , 29-C ) :   1.6617
B( 28-C , 80-H ) :   0.9643 B( 29-C , 30-C ) :   1.1284 B( 29-C , 81-H ) :   0.9433
B( 30-C , 31-S ) :   1.0633 B( 30-C , 34-N ) :   1.6510 B( 31-S , 32-C ) :   1.0789
B( 32-C , 33-C ) :   1.4786 B( 32-C , 37-C ) :   1.1971 B( 33-C , 34-N ) :   1.4449
B( 33-C , 35-C ) :   1.0436 B( 35-C , 36-C ) :   0.9793 B( 35-C , 82-H ) :   0.8573
B( 35-C , 83-H ) :   0.8657 B( 36-C , 37-C ) :   1.5128 B( 36-C , 40-C ) :   1.3226
B( 37-C , 38-S ) :   1.0895 B( 38-S , 39-C ) :   1.0956 B( 39-C , 40-C ) :   1.4596
B( 39-C , 41-C ) :   1.1399 B( 40-C , 84-H ) :   0.9974 B( 41-C , 42-C ) :   1.6571
B( 41-C , 85-H ) :   0.9478 B( 42-C , 43-C ) :   1.1553 B( 42-C , 86-H ) :   0.9848
B( 43-C , 44-C ) :   1.5088 B( 43-C , 48-S ) :   1.0464 B( 44-C , 45-C ) :   1.2080
B( 44-C , 87-H ) :   0.9770 B( 45-C , 46-C ) :   1.0588 B( 45-C , 54-C ) :   1.3861
B( 46-C , 47-C ) :   1.6112 B( 46-C , 49-C ) :   1.1742 B( 47-C , 48-S ) :   1.1356
B( 47-C , 88-H ) :   0.9411 B( 49-C , 50-C ) :   1.4470 B( 49-C , 53-S ) :   1.0722
B( 50-C , 51-C ) :   1.2195 B( 50-C , 54-C ) :   1.0975 B( 51-C , 52-C ) :   1.5842
B( 51-C , 89-H ) :   0.9973 B( 52-C , 53-S ) :   1.1554 B( 52-C , 90-H ) :   0.9666
B( 54-C , 55-C ) :   1.1766 B( 55-C , 56-C ) :   1.6016 B( 55-C , 91-H ) :   0.9557
B( 56-C , 57-C ) :   1.1722 B( 56-C , 92-H ) :   0.9736 B( 57-C , 58-C ) :   1.4281
B( 57-C , 61-S ) :   1.0961 B( 58-C , 59-C ) :   1.2743 B( 58-C , 93-H ) :   1.0054
B( 59-C , 60-C ) :   1.4600 B( 59-C , 64-C ) :   0.9904 B( 60-C , 61-S ) :   1.1080
B( 60-C , 62-C ) :   1.1922 B( 62-C , 63-C ) :   1.4483 B( 62-C , 72-S ) :   1.1391
B( 63-C , 64-C ) :   1.0260 B( 63-C , 70-C ) :   1.2724 B( 64-C , 65-C ) :   1.7025
B( 65-C , 66-C ) :   1.1318 B( 65-C , 68-C ) :   1.1343 B( 66-C , 67-N ) :   3.0024
B( 68-C , 69-N ) :   2.9918 B( 70-C , 71-C ) :   1.5563 B( 70-C , 94-H ) :   0.9952
B( 71-C , 72-S ) :   1.1380 B( 71-C , 95-H ) :   0.9642

-----------------------------------------------------------------------------
         ABSORPTION SPECTRUM VIA TRANSITION ELECTRIC DIPOLE MOMENTS
-----------------------------------------------------------------------------
State   Energy  Wavelength   fosc         T2         TX        TY        TZ
        (cm-1)    (nm)                  (au**2)     (au)      (au)      (au)
-----------------------------------------------------------------------------
   0   10318.5    969.1   0.170993275   5.45553   1.65635   1.35079   0.94203
   1   10922.5    915.5   0.086978064   2.62157   0.76180   0.36335  -1.38174
   2   15587.1    641.6   1.265031140  26.71842   5.12431  -0.62724   0.25778
   3   16587.5    602.9   0.048925769   0.97103   0.91895   0.30545  -0.18239
   4   17777.5    562.5   0.116262589   2.15300   1.31387   0.20097  -0.62158
   5   18603.6    537.5   0.392041748   6.93764   0.05594   0.64403   2.55338
   6   19629.1    509.4   0.003456008   0.05796  -0.04938   0.03457  -0.23309
   7   21405.8    467.2   0.070453108   1.08354  -0.65780  -0.42186  -0.68765
   8   21606.0    462.8   0.201373862   3.06834   1.39085  -0.84243   0.65130
   9   22515.0    444.1   0.198809012   2.90697  -1.10343   1.20052   0.49815
  10   23425.2    426.9   0.152872624   2.14844   0.39976  -0.87044  -1.10949
  11   23642.9    423.0   0.346734235   4.82805  -0.85139   1.86655  -0.78688
  12   24686.8    405.1   0.200024768   2.66744  -0.29049   1.59470  -0.20000
  13   25690.7    389.2   0.069278708   0.88777  -0.44383   0.57957  -0.59572
  14   26578.5    376.2   0.066040632   0.81801   0.46067  -0.39668   0.66965
  15   26777.1    373.5   0.365840065   4.49783   0.43730  -2.07301  -0.09597
  16   27454.8    364.2   0.157026682   1.88292  -0.98347  -0.46180  -0.83812
  17   27903.5    358.4   0.474247702   5.59528   1.57350  -1.74539   0.27020
  18   28887.1    346.2   0.137764716   1.57003   0.75928  -0.95978  -0.26899
  19   29532.0    338.6   0.407667075   4.54453  -0.16129   1.55057   1.45404
  20   29918.9    334.2   0.027468373   0.30225   0.54238   0.08879  -0.01389
  21   30520.8    327.6   0.007145556   0.07708  -0.04177  -0.26893  -0.05483
  22   31241.6    320.1   0.059961805   0.63185  -0.55023  -0.54561   0.17724
  23   31326.9    319.2   1.265096175  13.29479  -3.38504   0.72655   1.14386
  24   31446.3    318.0   0.178278563   1.86640  -1.35064   0.09146  -0.18387
  25   31510.2    317.4   0.015776947   0.16483   0.17327   0.02059  -0.36659
  26   32122.8    311.3   0.094497203   0.96846  -0.25275   0.67366  -0.67139
  27   32299.6    309.6   0.013924770   0.14193  -0.37262  -0.02037  -0.05162
  28   32420.4    308.4   0.106848629   1.08499   0.07620  -0.59056   0.85464
  29   32626.8    306.5   0.056084695   0.56591   0.12659   0.27279  -0.68954
  30   32774.0    305.1   0.238197822   2.39267   0.60701   1.02829   0.98328
  31   33333.4    300.0   0.001376932   0.01360  -0.07595   0.08846  -0.00211
  32   33841.3    295.5   0.083093511   0.80834   0.25802   0.03521   0.86054
  33   33887.5    295.1   0.374110909   3.63443   0.33303   1.43390  -1.21138
  34   34429.1    290.5   0.040170961   0.38412   0.45587  -0.37952  -0.17962
  35   35202.8    284.1   0.044319799   0.41447   0.51335   0.37691   0.09425
  36   35654.6    280.5   0.041058628   0.37911  -0.23849  -0.55263  -0.12973
  37   35780.7    279.5   0.230520566   2.12098   0.11649  -0.75392   1.24057
  38   36149.1    276.6   0.200605733   1.82693   0.06136  -1.18934   0.63925
  39   36348.7    275.1   0.102775574   0.93084  -0.79200   0.54636   0.07120
  40   36494.8    274.0   0.184146873   1.66115   0.00046  -0.70965   1.07589
  41   36740.2    272.2   0.002097201   0.01879   0.09686  -0.07770   0.05808
  42   37038.8    270.0   0.138724205   1.23302   1.07291   0.03585  -0.28391
  43   37573.3    266.1   0.037157107   0.32557   0.47220  -0.25046   0.19966
  44   37996.0    263.2   0.185810750   1.60994  -0.97070   0.59690  -0.55802
  45   38425.2    260.2   0.068865954   0.59002   0.45278   0.49324  -0.37646
  46   38449.5    260.1   0.343702672   2.94285   1.18905  -1.15848   0.43236
  47   38491.4    259.8   0.058383090   0.49934   0.08312  -0.07970   0.69720
  48   38788.1    257.8   0.014002693   0.11885   0.20972   0.27348  -0.00853
  49   39039.7    256.1   0.070864625   0.59758   0.66419  -0.39351  -0.03977
  50   39396.2    253.8   0.022556391   0.18849   0.33154   0.09328  -0.26433
  51   39602.3    252.5   0.009724293   0.08084   0.21885   0.04981   0.17453
  52   39774.3    251.4   0.012892124   0.10671   0.26970  -0.01600   0.18362
  53   39836.9    251.0   0.008989871   0.07429   0.22539  -0.06991  -0.13641
  54   39915.3    250.5   0.008968167   0.07397   0.15502   0.18339   0.12770
  55   40181.5    248.9   0.006901717   0.05655   0.19330   0.03760  -0.13330
  56   40296.8    248.2   0.027887203   0.22783   0.31677  -0.35461   0.04170

FINAL SINGLE POINT ENERGY     -6475.065634206889

DIPOLE MOMENT
-------------
                                X             Y             Z
Electronic contribution:     21.16512       3.92313     -14.22392
Nuclear contribution   :    -23.70345      -2.83454      15.80073
                        -----------------------------------------
Total Dipole Moment    :     -2.53833       1.08859       1.57681
                        -----------------------------------------
Magnitude (a.u.)       :      3.18032
Magnitude (Debye)      :      8.08374

Rotational constants in cm-1:     0.000756     0.000205     0.000201
Rotational constants in MHz :    22.673773     6.148580     6.035849

                             ****ORCA TERMINATED NORMALLY****
TOTAL RUN TIME: 0 days 0 hours 12 minutes 49 seconds 956 msec
