                         Program Version 4.2.0 -  RELEASE  -
|  1> # ORCA input file
|  2> # SCF done       -170.241283811157          0.000339570089
|  3> ! CAM-B3LYP def2-SVP def2/J RIJCOSX Grid4 TightSCF
|  4> %maxcore 5000
|  5> %tddft
|  6>     Mode sTDDFT
|  7>     Ethresh 5.0
|  8>     maxcore 5000
|  9> end
| 10>
| 11> %pal
| 12>   nprocs 6
| 13>   end
| 14> * xyz 0 1
| 15>    C       -3.87022        -2.57800        -3.42734
| 16>    C       -3.46304        -3.64394        -2.66405
| 17>    C       -3.04024        -4.87408        -3.20585
| 18>    N       -2.69208        -5.89574        -3.59858
| 19>    C       -3.32726        -3.63180        -1.25993
| 20>    N       -3.14710        -3.69012        -0.12749
| 21>    C       -3.86234        -2.53053        -4.88343
| 22>    C       -4.09865        -1.19526        -5.28758
| 23>    C       -4.15248        -0.81709        -6.60595
| 24>    C       -3.98880        -1.81158        -7.57604
| 25>    C       -3.76238        -3.14550        -7.16370
| 26>    C       -3.68786        -3.52455        -5.82854
| 27>    S       -3.61254        -4.21762        -8.52322
| 28>    C       -3.86027        -2.87638        -9.60820
| 29>    C       -4.03817        -1.68533        -8.99108
| 30>   Br       -3.88519        -3.17285       -11.45362
| 31>    C       -4.28557        -0.34077        -4.09575
| 32>    O       -4.38379         0.86791        -4.11506
| 33>    C       -4.29894        -1.27793        -2.94230
| 34>    C       -4.78293        -1.05601        -1.68050
| 35>    C       -5.31477         0.13631        -1.14666
| 36>    O       -5.24957         1.32507        -1.79505
| 37>    C       -6.00390         0.34122         0.04296
| 38>    C       -6.53346        -0.32011         1.23998
| 39>    O       -6.49349        -1.46651         1.59931
| 40>    N       -7.16286         0.71690         1.93153
| 41>    C       -7.11875         1.96361         1.31208
| 42>    O       -7.61306         2.97217         1.74462
| 43>    C       -6.36538         1.70742         0.08057
| 44>    C       -5.87979         2.28346        -1.08155
| 45>    C       -5.96128         3.59907        -1.61743
| 46>    C       -5.36530         3.89929        -2.79319
| 47>    C       -5.45387         5.16732        -3.44368
| 48>    C       -4.77475         5.49158        -4.55856
| 49>    C       -3.78539         4.57793        -5.21420
| 50>    C       -4.95241         6.84211        -5.19512
| 51>    N       -5.19673         6.71183        -6.61327
| 52>    C       -5.08808         7.72562        -7.48944
| 53>    C       -5.36806         7.63263        -8.81951
| 54>    C       -5.28004         8.72998        -9.68960
| 55>    C       -5.52935         8.69855       -11.03871
| 56>    C       -5.54717         9.80475       -11.91841
| 57>    C       -5.85531         9.49063       -13.20798
| 58>    C       -6.07250         8.11309       -13.42925
| 59>    S       -5.89600         7.22563       -11.93633
| 60>    C       -6.37630         7.49791       -14.63343
| 61>    C       -6.66296         8.14146       -15.85441
| 62>    C       -6.93900         7.28029       -16.87565
| 63>    C       -6.85835         5.91838       -16.51273
| 64>    S       -6.44498         5.75258       -14.82559
| 65>    C       -7.05164         4.83339       -17.33969
| 66>    C       -6.86894         3.52125       -16.91156
| 67>    S       -7.10450         2.14656       -18.04063
| 68>    C       -6.63548         1.11190       -16.75749
| 69>    C       -6.34879         1.85588       -15.60135
| 70>    N       -6.48656         3.16717       -15.70508
| 71>    C       -5.91758         0.95375       -14.48785
| 72>    C       -5.98530        -0.38867       -15.15771
| 73>    C       -6.41622        -0.25185       -16.47979
| 74>    S       -6.51056        -1.75903       -17.29283
| 75>    C       -5.95706        -2.58698       -15.85165
| 76>    C       -5.72489        -1.71026       -14.80913
| 77>    C       -5.80754        -4.01288       -15.90028
| 78>    C       -5.34676        -4.77432       -14.90845
| 79>    H       -4.32804         0.21034        -6.88411
| 80>    H       -3.51673        -4.55450        -5.56390
| 81>    H       -4.20313        -0.75786        -9.50871
| 82>    H       -4.84408        -1.89062        -0.99428
| 83>    H       -7.62811         0.56869         2.81570
| 84>    H       -6.52169         4.32061        -1.04200
| 85>    H       -4.80698         3.11586        -3.28501
| 86>    H       -6.12153         5.89417        -2.99833
| 87>    H       -4.20807         3.58906        -5.37985
| 88>    H       -2.91544         4.44947        -4.57067
| 89>    H       -3.44797         4.98481        -6.16404
| 90>    H       -4.03806         7.43408        -5.05863
| 91>    H       -5.77620         7.38125        -4.70678
| 92>    H       -5.63018         5.85687        -6.92798
| 93>    H       -4.73095         8.65886        -7.07425
| 94>    H       -5.69096         6.68670        -9.23269
| 95>    H       -5.01722         9.69059        -9.26483
| 96>    H       -5.34178        10.80113       -11.56799
| 97>    H       -5.91540        10.20915       -14.00513
| 98>    H       -6.67615         9.21230       -15.95115
| 99>    H       -7.18876         7.58002       -17.87811
|100>    H       -7.33225         5.00202       -18.36821
|101>    H       -6.58921         1.02384       -13.63041
|102>    H       -4.91066         1.19547       -14.14342
|103>    H       -5.37678        -2.03185       -13.84510
|104>    H       -6.10007        -4.46949       -16.83733
|105>    H       -5.03493        -4.36133       -13.96512
|106>    H       -5.26294        -5.84062       -15.02003
|107> *
|108>
|109>                          ****END OF INPUT****

CARTESIAN COORDINATES (ANGSTROEM)
---------------------------------
  C     -3.870220   -2.578000   -3.427340
  C     -3.463040   -3.643940   -2.664050
  C     -3.040240   -4.874080   -3.205850
  N     -2.692080   -5.895740   -3.598580
  C     -3.327260   -3.631800   -1.259930
  N     -3.147100   -3.690120   -0.127490
  C     -3.862340   -2.530530   -4.883430
  C     -4.098650   -1.195260   -5.287580
  C     -4.152480   -0.817090   -6.605950
  C     -3.988800   -1.811580   -7.576040
  C     -3.762380   -3.145500   -7.163700
  C     -3.687860   -3.524550   -5.828540
  S     -3.612540   -4.217620   -8.523220
  C     -3.860270   -2.876380   -9.608200
  C     -4.038170   -1.685330   -8.991080
  Br    -3.885190   -3.172850  -11.453620
  C     -4.285570   -0.340770   -4.095750
  O     -4.383790    0.867910   -4.115060
  C     -4.298940   -1.277930   -2.942300
  C     -4.782930   -1.056010   -1.680500
  C     -5.314770    0.136310   -1.146660
  O     -5.249570    1.325070   -1.795050
  C     -6.003900    0.341220    0.042960
  C     -6.533460   -0.320110    1.239980
  O     -6.493490   -1.466510    1.599310
  N     -7.162860    0.716900    1.931530
  C     -7.118750    1.963610    1.312080
  O     -7.613060    2.972170    1.744620
  C     -6.365380    1.707420    0.080570
  C     -5.879790    2.283460   -1.081550
  C     -5.961280    3.599070   -1.617430
  C     -5.365300    3.899290   -2.793190
  C     -5.453870    5.167320   -3.443680
  C     -4.774750    5.491580   -4.558560
  C     -3.785390    4.577930   -5.214200
  C     -4.952410    6.842110   -5.195120
  N     -5.196730    6.711830   -6.613270
  C     -5.088080    7.725620   -7.489440
  C     -5.368060    7.632630   -8.819510
  C     -5.280040    8.729980   -9.689600
  C     -5.529350    8.698550  -11.038710
  C     -5.547170    9.804750  -11.918410
  C     -5.855310    9.490630  -13.207980
  C     -6.072500    8.113090  -13.429250
  S     -5.896000    7.225630  -11.936330
  C     -6.376300    7.497910  -14.633430
  C     -6.662960    8.141460  -15.854410
  C     -6.939000    7.280290  -16.875650
  C     -6.858350    5.918380  -16.512730
  S     -6.444980    5.752580  -14.825590
  C     -7.051640    4.833390  -17.339690
  C     -6.868940    3.521250  -16.911560
  S     -7.104500    2.146560  -18.040630
  C     -6.635480    1.111900  -16.757490
  C     -6.348790    1.855880  -15.601350
  N     -6.486560    3.167170  -15.705080
  C     -5.917580    0.953750  -14.487850
  C     -5.985300   -0.388670  -15.157710
  C     -6.416220   -0.251850  -16.479790
  S     -6.510560   -1.759030  -17.292830
  C     -5.957060   -2.586980  -15.851650
  C     -5.724890   -1.710260  -14.809130
  C     -5.807540   -4.012880  -15.900280
  C     -5.346760   -4.774320  -14.908450
  H     -4.328040    0.210340   -6.884110
  H     -3.516730   -4.554500   -5.563900
  H     -4.203130   -0.757860   -9.508710
  H     -4.844080   -1.890620   -0.994280
  H     -7.628110    0.568690    2.815700
  H     -6.521690    4.320610   -1.042000
  H     -4.806980    3.115860   -3.285010
  H     -6.121530    5.894170   -2.998330
  H     -4.208070    3.589060   -5.379850
  H     -2.915440    4.449470   -4.570670
  H     -3.447970    4.984810   -6.164040
  H     -4.038060    7.434080   -5.058630
  H     -5.776200    7.381250   -4.706780
  H     -5.630180    5.856870   -6.927980
  H     -4.730950    8.658860   -7.074250
  H     -5.690960    6.686700   -9.232690
  H     -5.017220    9.690590   -9.264830
  H     -5.341780   10.801130  -11.567990
  H     -5.915400   10.209150  -14.005130
  H     -6.676150    9.212300  -15.951150
  H     -7.188760    7.580020  -17.878110
  H     -7.332250    5.002020  -18.368210
  H     -6.589210    1.023840  -13.630410
  H     -4.910660    1.195470  -14.143420
  H     -5.376780   -2.031850  -13.845100
  H     -6.100070   -4.469490  -16.837330
  H     -5.034930   -4.361330  -13.965120
  H     -5.262940   -5.840620  -15.020030

 Total Charge           Charge          ....    0
 Multiplicity           Mult            ....    1
 Number of Electrons    NEL             ....  504
 Basis Dimension        Dim             .... 1074

ORBITAL ENERGIES
----------------

  NO   OCC          E(Eh)            E(eV)
   0   2.0000    -482.894958    -13140.2399
   1   2.0000     -88.983738     -2421.3706
   2   2.0000     -88.945851     -2420.3397
   3   2.0000     -88.943713     -2420.2815
   4   2.0000     -88.932531     -2419.9772
   5   2.0000     -88.923517     -2419.7319
   6   2.0000     -62.572081     -1702.6729
   7   2.0000     -56.406031     -1534.8861
   8   2.0000     -56.403370     -1534.8137
   9   2.0000     -56.403330     -1534.8127
  10   2.0000     -19.318889      -525.6937
  11   2.0000     -19.230030      -523.2757
  12   2.0000     -19.223159      -523.0888
  13   2.0000     -19.219173      -522.9803
  14   2.0000     -14.463211      -393.5640
  15   2.0000     -14.450319      -393.2132
  16   2.0000     -14.423127      -392.4732
  17   2.0000     -14.421481      -392.4284
  18   2.0000     -14.388221      -391.5234
  19   2.0000     -10.411969      -283.3241
  20   2.0000     -10.409192      -283.2485
  21   2.0000     -10.383109      -282.5388
  22   2.0000     -10.379533      -282.4415
  23   2.0000     -10.375278      -282.3257
  24   2.0000     -10.366751      -282.0936
  25   2.0000     -10.352783      -281.7136
  26   2.0000     -10.351284      -281.6728
  27   2.0000     -10.336556      -281.2720
  28   2.0000     -10.334589      -281.2185
  29   2.0000     -10.330733      -281.1135
  30   2.0000     -10.327609      -281.0285
  31   2.0000     -10.325249      -280.9643
  32   2.0000     -10.322865      -280.8994
  33   2.0000     -10.319048      -280.7956
  34   2.0000     -10.317717      -280.7594
  35   2.0000     -10.316654      -280.7304
  36   2.0000     -10.314874      -280.6820
  37   2.0000     -10.314713      -280.6776
  38   2.0000     -10.314315      -280.6668
  39   2.0000     -10.310905      -280.5740
  40   2.0000     -10.309120      -280.5254
  41   2.0000     -10.304737      -280.4061
  42   2.0000     -10.303421      -280.3703
  43   2.0000     -10.302303      -280.3399
  44   2.0000     -10.301730      -280.3243
  45   2.0000     -10.301046      -280.3057
  46   2.0000     -10.300458      -280.2897
  47   2.0000     -10.291264      -280.0395
  48   2.0000     -10.288963      -279.9769
  49   2.0000     -10.288804      -279.9726
  50   2.0000     -10.287979      -279.9501
  51   2.0000     -10.287817      -279.9457
  52   2.0000     -10.283102      -279.8174
  53   2.0000     -10.282117      -279.7906
  54   2.0000     -10.281487      -279.7735
  55   2.0000     -10.281411      -279.7714
  56   2.0000     -10.281100      -279.7629
  57   2.0000     -10.276577      -279.6399
  58   2.0000     -10.273283      -279.5502
  59   2.0000     -10.271167      -279.4927
  60   2.0000     -10.270226      -279.4671
  61   2.0000     -10.270042      -279.4620
  62   2.0000     -10.263760      -279.2911
  63   2.0000     -10.262255      -279.2501
  64   2.0000     -10.262253      -279.2501
  65   2.0000     -10.261905      -279.2406
  66   2.0000     -10.256716      -279.0994
  67   2.0000     -10.253473      -279.0112
  68   2.0000      -8.801311      -239.4958
  69   2.0000      -8.079707      -219.8600
  70   2.0000      -8.041121      -218.8100
  71   2.0000      -8.039087      -218.7547
  72   2.0000      -8.028804      -218.4749
  73   2.0000      -8.018404      -218.1919
  74   2.0000      -6.637541      -180.6167
  75   2.0000      -6.623061      -180.2226
  76   2.0000      -6.622892      -180.2180
  77   2.0000      -6.049390      -164.6123
  78   2.0000      -6.045101      -164.4956
  79   2.0000      -6.040945      -164.3825
  80   2.0000      -6.010370      -163.5505
  81   2.0000      -6.008353      -163.4956
  82   2.0000      -6.006415      -163.4429
  83   2.0000      -6.004586      -163.3931
  84   2.0000      -6.003246      -163.3566
  85   2.0000      -6.000915      -163.2932
  86   2.0000      -5.998472      -163.2267
  87   2.0000      -5.994577      -163.1207
  88   2.0000      -5.989748      -162.9893
  89   2.0000      -5.988236      -162.9482
  90   2.0000      -5.983920      -162.8307
  91   2.0000      -5.979488      -162.7101
  92   2.0000      -2.753454       -74.9253
  93   2.0000      -2.749383       -74.8145
  94   2.0000      -2.749225       -74.8102
  95   2.0000      -2.737724       -74.4973
  96   2.0000      -2.737719       -74.4971
  97   2.0000      -1.243013       -33.8241
  98   2.0000      -1.165480       -31.7143
  99   2.0000      -1.144717       -31.1493
 100   2.0000      -1.144394       -31.1405
 101   2.0000      -1.052776       -28.6475
 102   2.0000      -1.052226       -28.6325
 103   2.0000      -1.045805       -28.4578
 104   2.0000      -1.032454       -28.0945
 105   2.0000      -1.021156       -27.7871
 106   2.0000      -1.000528       -27.2258
 107   2.0000      -0.999484       -27.1973
 108   2.0000      -0.979814       -26.6621
 109   2.0000      -0.977238       -26.5920
 110   2.0000      -0.957717       -26.0608
 111   2.0000      -0.955728       -26.0067
 112   2.0000      -0.947380       -25.7795
 113   2.0000      -0.937412       -25.5083
 114   2.0000      -0.930973       -25.3331
 115   2.0000      -0.917761       -24.9736
 116   2.0000      -0.911595       -24.8058
 117   2.0000      -0.906480       -24.6666
 118   2.0000      -0.894930       -24.3523
 119   2.0000      -0.892942       -24.2982
 120   2.0000      -0.879323       -23.9276
 121   2.0000      -0.876426       -23.8488
 122   2.0000      -0.864490       -23.5240
 123   2.0000      -0.852246       -23.1908
 124   2.0000      -0.845425       -23.0052
 125   2.0000      -0.838257       -22.8101
 126   2.0000      -0.834578       -22.7100
 127   2.0000      -0.826415       -22.4879
 128   2.0000      -0.816194       -22.2098
 129   2.0000      -0.805436       -21.9170
 130   2.0000      -0.804523       -21.8922
 131   2.0000      -0.798107       -21.7176
 132   2.0000      -0.787054       -21.4168
 133   2.0000      -0.776794       -21.1377
 134   2.0000      -0.772841       -21.0301
 135   2.0000      -0.769110       -20.9286
 136   2.0000      -0.765382       -20.8271
 137   2.0000      -0.762124       -20.7385
 138   2.0000      -0.741440       -20.1756
 139   2.0000      -0.724456       -19.7134
 140   2.0000      -0.720983       -19.6189
 141   2.0000      -0.716185       -19.4884
 142   2.0000      -0.705410       -19.1952
 143   2.0000      -0.699976       -19.0473
 144   2.0000      -0.697637       -18.9837
 145   2.0000      -0.685006       -18.6400
 146   2.0000      -0.678153       -18.4535
 147   2.0000      -0.667480       -18.1631
 148   2.0000      -0.661606       -18.0032
 149   2.0000      -0.642000       -17.4697
 150   2.0000      -0.639780       -17.4093
 151   2.0000      -0.639456       -17.4005
 152   2.0000      -0.635670       -17.2975
 153   2.0000      -0.628502       -17.1024
 154   2.0000      -0.620998       -16.8982
 155   2.0000      -0.618122       -16.8199
 156   2.0000      -0.612602       -16.6698
 157   2.0000      -0.609549       -16.5867
 158   2.0000      -0.607205       -16.5229
 159   2.0000      -0.604165       -16.4402
 160   2.0000      -0.600784       -16.3482
 161   2.0000      -0.599044       -16.3008
 162   2.0000      -0.597642       -16.2627
 163   2.0000      -0.591862       -16.1054
 164   2.0000      -0.588909       -16.0250
 165   2.0000      -0.583772       -15.8852
 166   2.0000      -0.574394       -15.6301
 167   2.0000      -0.573051       -15.5935
 168   2.0000      -0.563769       -15.3409
 169   2.0000      -0.558927       -15.2092
 170   2.0000      -0.556333       -15.1386
 171   2.0000      -0.553789       -15.0694
 172   2.0000      -0.553113       -15.0510
 173   2.0000      -0.550388       -14.9768
 174   2.0000      -0.548724       -14.9315
 175   2.0000      -0.543564       -14.7911
 176   2.0000      -0.539868       -14.6906
 177   2.0000      -0.536683       -14.6039
 178   2.0000      -0.534491       -14.5443
 179   2.0000      -0.533493       -14.5171
 180   2.0000      -0.528995       -14.3947
 181   2.0000      -0.527254       -14.3473
 182   2.0000      -0.525145       -14.2899
 183   2.0000      -0.517723       -14.0880
 184   2.0000      -0.516744       -14.0613
 185   2.0000      -0.515023       -14.0145
 186   2.0000      -0.511036       -13.9060
 187   2.0000      -0.507934       -13.8216
 188   2.0000      -0.504881       -13.7385
 189   2.0000      -0.502794       -13.6817
 190   2.0000      -0.500073       -13.6077
 191   2.0000      -0.498083       -13.5535
 192   2.0000      -0.492161       -13.3924
 193   2.0000      -0.489376       -13.3166
 194   2.0000      -0.486552       -13.2397
 195   2.0000      -0.484064       -13.1721
 196   2.0000      -0.483132       -13.1467
 197   2.0000      -0.477114       -12.9829
 198   2.0000      -0.475966       -12.9517
 199   2.0000      -0.472601       -12.8601
 200   2.0000      -0.470593       -12.8055
 201   2.0000      -0.467730       -12.7276
 202   2.0000      -0.466362       -12.6904
 203   2.0000      -0.464120       -12.6293
 204   2.0000      -0.461919       -12.5695
 205   2.0000      -0.456693       -12.4273
 206   2.0000      -0.454893       -12.3783
 207   2.0000      -0.454583       -12.3698
 208   2.0000      -0.450680       -12.2636
 209   2.0000      -0.449674       -12.2362
 210   2.0000      -0.448264       -12.1979
 211   2.0000      -0.446789       -12.1577
 212   2.0000      -0.444797       -12.1035
 213   2.0000      -0.443237       -12.0611
 214   2.0000      -0.439149       -11.9498
 215   2.0000      -0.435217       -11.8428
 216   2.0000      -0.432573       -11.7709
 217   2.0000      -0.430846       -11.7239
 218   2.0000      -0.429511       -11.6876
 219   2.0000      -0.424141       -11.5415
 220   2.0000      -0.422179       -11.4881
 221   2.0000      -0.420255       -11.4357
 222   2.0000      -0.415741       -11.3129
 223   2.0000      -0.408470       -11.1150
 224   2.0000      -0.406872       -11.0715
 225   2.0000      -0.403115       -10.9693
 226   2.0000      -0.400903       -10.9091
 227   2.0000      -0.395366       -10.7585
 228   2.0000      -0.391081       -10.6418
 229   2.0000      -0.388600       -10.5743
 230   2.0000      -0.386755       -10.5241
 231   2.0000      -0.382507       -10.4085
 232   2.0000      -0.380074       -10.3423
 233   2.0000      -0.375467       -10.2170
 234   2.0000      -0.370412       -10.0794
 235   2.0000      -0.365759        -9.9528
 236   2.0000      -0.355267        -9.6673
 237   2.0000      -0.349075        -9.4988
 238   2.0000      -0.344637        -9.3780
 239   2.0000      -0.335812        -9.1379
 240   2.0000      -0.331876        -9.0308
 241   2.0000      -0.324303        -8.8247
 242   2.0000      -0.322853        -8.7853
 243   2.0000      -0.321160        -8.7392
 244   2.0000      -0.309259        -8.4154
 245   2.0000      -0.305255        -8.3064
 246   2.0000      -0.304363        -8.2821
 247   2.0000      -0.302059        -8.2194
 248   2.0000      -0.279972        -7.6184
 249   2.0000      -0.271942        -7.3999
 250   2.0000      -0.233275        -6.3477
 251   2.0000      -0.186339        -5.0706
 252   0.0000      -0.109121        -2.9693
 253   0.0000      -0.071392        -1.9427
 254   0.0000      -0.063801        -1.7361
 255   0.0000      -0.060893        -1.6570
 256   0.0000      -0.028520        -0.7761

MULLIKEN ATOMIC CHARGES
-----------------------
   0 C :    0.280194
   1 C :   -0.330552
   2 C :   -0.180544
   3 N :    0.155317
   4 C :   -0.205462
   5 N :    0.177002
   6 C :    0.021988
   7 C :   -0.010113
   8 C :   -0.071613
   9 C :    0.115437
  10 C :   -0.090826
  11 C :   -0.014544
  12 S :    0.194880
  13 C :   -0.119117
  14 C :    0.042513
  15 Br:    0.033832
  16 C :    0.145403
  17 O :   -0.134641
  18 C :   -0.067712
  19 C :   -0.036412
  20 C :    0.076934
  21 O :   -0.175860
  22 C :   -0.012324
  23 C :    0.170013
  24 O :   -0.124657
  25 N :   -0.168308
  26 C :    0.166814
  27 O :   -0.135872
  28 C :   -0.039510
  29 C :    0.094435
  30 C :   -0.037869
  31 C :    0.033382
  32 C :    0.015877
  33 C :   -0.239089
  34 C :    0.084118
  35 C :    0.249351
  36 N :   -0.174314
  37 C :    0.061913
  38 C :   -0.025112
  39 C :   -0.010852
  40 C :   -0.039732
  41 C :    0.042018
  42 C :    0.008689
  43 C :   -0.041174
  44 S :    0.068671
  45 C :   -0.060752
  46 C :    0.025631
  47 C :    0.023756
  48 C :   -0.012871
  49 S :    0.117678
  50 C :   -0.002710
  51 C :   -0.073426
  52 S :    0.102009
  53 C :   -0.071074
  54 C :   -0.226277
  55 N :   -0.058864
  56 C :    0.390280
  57 C :   -0.174815
  58 C :   -0.098757
  59 S :    0.135347
  60 C :   -0.100378
  61 C :    0.002931
  62 C :    0.045561
  63 C :   -0.024879
  64 H :   -0.015253
  65 H :   -0.001995
  66 H :   -0.002029
  67 H :    0.038896
  68 H :    0.142853
  69 H :    0.009560
  70 H :    0.028535
  71 H :   -0.017664
  72 H :    0.048690
  73 H :    0.043135
  74 H :    0.019537
  75 H :    0.030400
  76 H :    0.013490
  77 H :    0.128507
  78 H :    0.003283
  79 H :   -0.013903
  80 H :   -0.021523
  81 H :   -0.020022
  82 H :   -0.018946
  83 H :   -0.021605
  84 H :   -0.023142
  85 H :   -0.027561
  86 H :    0.026786
  87 H :    0.026908
  88 H :   -0.061902
  89 H :   -0.015228
  90 H :   -0.011933
  91 H :    0.021165
Sum of atomic charges:   -0.0000000

LOEWDIN ATOMIC CHARGES
----------------------
   0 C :    0.072071
   1 C :   -0.131100
   2 C :   -0.017348
   3 N :   -0.046284
   4 C :   -0.029685
   5 N :   -0.034310
   6 C :   -0.020820
   7 C :   -0.051443
   8 C :    0.020229
   9 C :   -0.031317
  10 C :   -0.142030
  11 C :   -0.007453
  12 S :    0.438356
  13 C :   -0.272155
  14 C :   -0.070194
  15 Br:    0.158523
  16 C :    0.084734
  17 O :   -0.141362
  18 C :   -0.075478
  19 C :    0.048094
  20 C :    0.040652
  21 O :    0.044881
  22 C :   -0.056946
  23 C :    0.085234
  24 O :   -0.140568
  25 N :   -0.005562
  26 C :    0.084816
  27 O :   -0.155012
  28 C :   -0.105774
  29 C :    0.093269
  30 C :   -0.051158
  31 C :    0.027869
  32 C :   -0.048764
  33 C :   -0.012590
  34 C :   -0.057057
  35 C :    0.047854
  36 N :   -0.003604
  37 C :    0.049217
  38 C :   -0.120399
  39 C :   -0.029934
  40 C :   -0.179595
  41 C :   -0.024997
  42 C :   -0.053460
  43 C :   -0.158844
  44 S :    0.361234
  45 C :   -0.210285
  46 C :   -0.028010
  47 C :   -0.055377
  48 C :   -0.123211
  49 S :    0.408321
  50 C :   -0.124912
  51 C :   -0.117356
  52 S :    0.384099
  53 C :   -0.229376
  54 C :   -0.034047
  55 N :   -0.118960
  56 C :   -0.013635
  57 C :   -0.058089
  58 C :   -0.197958
  59 S :    0.428844
  60 C :   -0.182562
  61 C :   -0.054660
  62 C :   -0.039425
  63 C :   -0.062105
  64 H :    0.038466
  65 H :    0.042076
  66 H :    0.039324
  67 H :    0.061025
  68 H :    0.097171
  69 H :    0.043682
  70 H :    0.037195
  71 H :    0.028161
  72 H :    0.041910
  73 H :    0.046885
  74 H :    0.029236
  75 H :    0.034928
  76 H :    0.022423
  77 H :    0.081891
  78 H :    0.028753
  79 H :    0.019301
  80 H :    0.030323
  81 H :    0.030458
  82 H :    0.028972
  83 H :    0.027151
  84 H :    0.028672
  85 H :    0.028734
  86 H :    0.052001
  87 H :    0.051892
  88 H :    0.016892
  89 H :    0.027052
  90 H :    0.007633
  91 H :    0.024711

  Mayer bond orders larger than 0.100000
B(  0-C ,  1-C ) :   1.6538 B(  0-C ,  6-C ) :   1.0101 B(  0-C , 18-C ) :   1.0489
B(  1-C ,  2-C ) :   1.1412 B(  1-C ,  4-C ) :   1.1359 B(  2-C ,  3-N ) :   2.9747
B(  4-C ,  5-N ) :   3.0015 B(  6-C ,  7-C ) :   1.2720 B(  6-C , 11-C ) :   1.4080
B(  7-C ,  8-C ) :   1.4239 B(  7-C , 16-C ) :   0.9440 B(  8-C ,  9-C ) :   1.2509
B(  8-C , 64-H ) :   1.0166 B(  9-C , 10-C ) :   1.3035 B(  9-C , 14-C ) :   1.1639
B( 10-C , 11-C ) :   1.3329 B( 10-C , 12-S ) :   1.0863 B( 11-C , 65-H ) :   0.9813
B( 12-S , 13-C ) :   1.0874 B( 13-C , 14-C ) :   1.6148 B( 13-C , 15-Br) :   1.0240
B( 14-C , 66-H ) :   0.9996 B( 16-C , 17-O ) :   2.2035 B( 16-C , 18-C ) :   0.9260
B( 18-C , 19-C ) :   1.5672 B( 19-C , 20-C ) :   1.2172 B( 19-C , 67-H ) :   0.9370
B( 20-C , 21-O ) :   1.1482 B( 20-C , 22-C ) :   1.3714 B( 21-O , 29-C ) :   1.1991
B( 22-C , 23-C ) :   0.8661 B( 22-C , 28-C ) :   1.3165 B( 23-C , 24-O ) :   2.2695
B( 23-C , 25-N ) :   1.0832 B( 25-N , 26-C ) :   1.0735 B( 25-N , 68-H ) :   0.9130
B( 26-C , 27-O ) :   2.2807 B( 26-C , 28-C ) :   0.8764 B( 28-C , 29-C ) :   1.3375
B( 29-C , 30-C ) :   1.1609 B( 30-C , 31-C ) :   1.6451 B( 30-C , 69-H ) :   0.9742
B( 31-C , 32-C ) :   1.0960 B( 31-C , 70-H ) :   0.9647 B( 32-C , 33-C ) :   1.7528
B( 32-C , 71-H ) :   0.9799 B( 33-C , 34-C ) :   1.0740 B( 33-C , 35-C ) :   1.0435
B( 34-C , 72-H ) :   0.9405 B( 34-C , 73-H ) :   0.9414 B( 34-C , 74-H ) :   0.9498
B( 35-C , 36-N ) :   0.9652 B( 35-C , 75-H ) :   0.9252 B( 35-C , 76-H ) :   0.9381
B( 36-N , 37-C ) :   1.2310 B( 36-N , 77-H ) :   0.9391 B( 37-C , 38-C ) :   1.5883
B( 37-C , 78-H ) :   0.9699 B( 38-C , 39-C ) :   1.1820 B( 38-C , 79-H ) :   0.9662
B( 39-C , 40-C ) :   1.5737 B( 39-C , 80-H ) :   0.9770 B( 40-C , 41-C ) :   1.1530
B( 40-C , 44-S ) :   1.0079 B( 41-C , 42-C ) :   1.5769 B( 41-C , 81-H ) :   0.9985
B( 42-C , 43-C ) :   1.1966 B( 42-C , 82-H ) :   0.9946 B( 43-C , 44-S ) :   1.0642
B( 43-C , 45-C ) :   1.4872 B( 45-C , 46-C ) :   1.2078 B( 45-C , 49-S ) :   0.9958
B( 46-C , 47-C ) :   1.5619 B( 46-C , 83-H ) :   0.9949 B( 47-C , 48-C ) :   1.1654
B( 47-C , 84-H ) :   0.9991 B( 48-C , 49-S ) :   1.0867 B( 48-C , 50-C ) :   1.5378
B( 50-C , 51-C ) :   1.2006 B( 50-C , 85-H ) :   0.9533 B( 51-C , 52-S ) :   1.0458
B( 51-C , 55-N ) :   1.5668 B( 52-S , 53-C ) :   1.0657 B( 53-C , 54-C ) :   1.4854
B( 53-C , 58-C ) :   1.1956 B( 54-C , 55-N ) :   1.4528 B( 54-C , 56-C ) :   1.0492
B( 56-C , 57-C ) :   0.9816 B( 56-C , 86-H ) :   0.8580 B( 56-C , 87-H ) :   0.8605
B( 57-C , 58-C ) :   1.5239 B( 57-C , 61-C ) :   1.3158 B( 58-C , 59-S ) :   1.0895
B( 59-S , 60-C ) :   1.0998 B( 60-C , 61-C ) :   1.4879 B( 60-C , 62-C ) :   1.1009
B( 61-C , 88-H ) :   0.9902 B( 62-C , 63-C ) :   1.9435 B( 62-C , 89-H ) :   0.9527
B( 63-C , 90-H ) :   0.9489 B( 63-C , 91-H ) :   0.9497

-----------------------------------------------------------------------------
         ABSORPTION SPECTRUM VIA TRANSITION ELECTRIC DIPOLE MOMENTS
-----------------------------------------------------------------------------
State   Energy  Wavelength   fosc         T2         TX        TY        TZ
        (cm-1)    (nm)                  (au**2)     (au)      (au)      (au)
-----------------------------------------------------------------------------
   0    8519.0   1173.8   0.000661761   0.02557   0.02389  -0.06705   0.14320
   1   13602.0    735.2   1.168959755  28.29262   0.62331   3.59666   3.86887
   2   16089.3    621.5   0.001040891   0.02130  -0.00271   0.14495  -0.01672
   3   17891.6    558.9   0.007281562   0.13398   0.01869  -0.36437   0.02944
   4   18861.2    530.2   0.003936407   0.06871   0.08044  -0.24161  -0.06214
   5   20568.1    486.2   0.794314677  12.71376   0.98437  -3.22814  -1.15060
   6   21998.7    454.6   0.039801172   0.59563   0.08293  -0.24815   0.72607
   7   25254.2    396.0   0.008187855   0.10674  -0.07255   0.23093  -0.21942
   8   25382.6    394.0   1.557950197  20.20655   0.70117  -3.03852   3.23764
   9   25592.0    390.7   0.064014619   0.82348  -0.07712  -0.56925  -0.70249
  10   25871.7    386.5   0.002982290   0.03795  -0.09594   0.15088  -0.07732
  11   26925.4    371.4   0.003936142   0.04813   0.08113  -0.07090  -0.19109
  12   27277.5    366.6   0.011254743   0.13583  -0.04384   0.04892   0.36265
  13   27892.0    358.5   0.067803836   0.80030  -0.13661   0.08739  -0.87977
  14   28564.5    350.1   0.010927917   0.12595  -0.05012  -0.22911  -0.26635
  15   28727.8    348.1   0.011698327   0.13406   0.01461   0.30637  -0.19996
  16   28759.3    347.7   0.006372736   0.07295  -0.12511   0.18595  -0.15073
  17   30858.0    324.1   0.278143241   2.96740  -0.55913  -1.41541   0.80709
  18   31428.9    318.2   0.021161939   0.22167   0.00913   0.25652   0.39469
  19   31857.1    313.9   0.000217946   0.00225   0.01953   0.03119  -0.02997
  20   32086.9    311.7   0.008688415   0.08914   0.01809  -0.04795   0.29414
  21   32377.5    308.9   0.673570097   6.84881  -0.23569   0.80476  -2.47904
  22   32890.4    304.0   0.453840571   4.54265  -0.64734  -0.30839   2.00711
  23   33304.3    300.3   0.035646054   0.35236  -0.19064  -0.15555   0.54021
  24   33558.2    298.0   0.284471987   2.79072   0.75494  -0.07449  -1.48837
  25   33880.9    295.2   0.015215585   0.14785   0.02501   0.24921  -0.29174
  26   34011.0    294.0   0.081350638   0.78744  -0.40932   0.08920   0.78226
  27   34130.5    293.0   0.003421433   0.03300   0.07586  -0.13432   0.09594
  28   34598.0    289.0   0.066218995   0.63010   0.17104  -0.76633   0.11656
  29   34705.5    288.1   0.009069983   0.08604   0.12397  -0.03403  -0.26365
  30   35166.5    284.4   0.000937760   0.00878   0.01573   0.03832  -0.08404
  31   35212.7    284.0   0.000759904   0.00710   0.02753   0.01562  -0.07812
  32   35247.9    283.7   0.000698188   0.00652  -0.05941   0.05010   0.02194
  33   35425.5    282.3   0.000524768   0.00488  -0.03199  -0.01312   0.06067
  34   35779.6    279.5   0.011788449   0.10847   0.06419   0.31605  -0.06679
  35   35862.1    278.8   0.001639025   0.01505   0.02077   0.11717  -0.02976
  36   36597.0    273.2   0.052806441   0.47503  -0.14938  -0.47555  -0.47599
  37   36643.1    272.9   0.202174803   1.81639   0.45198  -1.11627  -0.60503
  38   36693.9    272.5   0.046579738   0.41791   0.18618  -0.50805  -0.35374
  39   37180.3    269.0   0.000590756   0.00523  -0.05262   0.04139   0.02736
  40   37779.5    264.7   0.000886159   0.00772   0.01059   0.03058   0.08170
  41   38351.9    260.7   0.114027413   0.97881   0.09239  -0.80601   0.56623
  42   38489.8    259.8   0.003994592   0.03417   0.01136  -0.16229   0.08775
  43   38512.7    259.7   0.011437207   0.09777   0.03428  -0.30845   0.03805
  44   38529.4    259.5   0.016619830   0.14201  -0.03390   0.36666  -0.08010
  45   38909.5    257.0   0.002930416   0.02479  -0.06161   0.13919   0.04031
  46   38971.3    256.6   0.058759671   0.49638   0.22164  -0.66874  -0.00579
  47   39518.6    253.0   0.051215213   0.42665  -0.11072   0.28413  -0.57764
  48   39814.8    251.2   0.001671273   0.01382  -0.05110  -0.04094  -0.09763
  49   39863.1    250.9   0.115504194   0.95390   0.06054  -0.24469  -0.94359
  50   39939.9    250.4   0.140223086   1.15582  -0.30976  -0.22047   1.00561

FINAL SINGLE POINT ENERGY     -7019.830092390418

DIPOLE MOMENT
-------------
                                X             Y             Z
Electronic contribution:     13.73655     -92.60286     -21.58535
Nuclear contribution   :    -13.76753      95.74499      22.15010
                        -----------------------------------------
Total Dipole Moment    :     -0.03098       3.14213       0.56475
                        -----------------------------------------
Magnitude (a.u.)       :      3.19263
Magnitude (Debye)      :      8.11501

Rotational constants in cm-1:     0.000909     0.000419     0.000297
Rotational constants in MHz :    27.239878    12.574199     8.912994

                             ****ORCA TERMINATED NORMALLY****
TOTAL RUN TIME: 0 days 0 hours 7 minutes 45 seconds 250 msec
