                         Program Version 4.2.0 -  RELEASE  -
|  1> # ORCA input file
|  2> # SCF done       -179.285942119278          0.002741421317
|  3> ! CAM-B3LYP def2-SVP def2/J RIJCOSX Grid4 TightSCF
|  4> %maxcore 5000
|  5> %tddft
|  6>     Mode sTDDFT
|  7>     Ethresh 5.0
|  8>     maxcore 5000
|  9> end
| 10>
| 11> %pal
| 12>   nprocs 6
| 13>   end
| 14> * xyz 0 1
| 15>    C       -3.70896        -3.96727         1.82013
| 16>    C       -4.06620        -5.14018         1.19411
| 17>    C       -3.13483        -6.05901         0.67430
| 18>    N       -2.42049        -6.82959         0.20961
| 19>    C       -5.38024        -5.59180         0.96945
| 20>    N       -6.40534        -6.06757         0.75914
| 21>    C       -2.33617        -3.57325         2.13497
| 22>    C       -2.36610        -2.29986         2.75102
| 23>    C       -1.23320        -1.64289         3.16077
| 24>    C       -0.00627        -2.29234         2.98986
| 25>    C        0.01323        -3.58405         2.41278
| 26>    C       -1.13365        -4.23203         1.96702
| 27>    S        1.62091        -4.23407         2.34876
| 28>    C        2.24006        -2.77401         3.07415
| 29>    C        1.29297        -1.84700         3.35486
| 30>   Br        4.07576        -2.60906         3.40705
| 31>    C       -3.76912        -1.86205         2.89491
| 32>    O       -4.13358        -0.82529         3.41905
| 33>    C       -4.58820        -2.92915         2.28975
| 34>    C       -5.96483        -2.88794         2.17290
| 35>    C       -6.73835        -1.86109         2.70373
| 36>    C       -8.08755        -1.66974         2.49862
| 37>    C       -8.81572        -0.57053         3.01660
| 38>    C      -10.10083        -0.49940         2.58194
| 39>    C      -10.46676        -1.54939         1.70439
| 40>    S       -9.12216        -2.65539         1.49135
| 41>    C      -11.67601        -1.65732         1.04614
| 42>    C      -12.69368        -0.66600         1.04810
| 43>    C      -13.73879        -0.94843         0.23708
| 44>    C      -13.63599        -2.20049        -0.44092
| 45>    S      -12.13192        -2.99833         0.01855
| 46>    C      -14.55968        -2.64896        -1.33054
| 47>    C      -14.60144        -3.89848        -2.04055
| 48>    C      -15.49807        -4.09241        -3.03619
| 49>    C      -13.76237        -4.97186        -1.67108
| 50>    C      -13.16460        -5.99481        -1.40810
| 51>    C      -12.54609        -7.20482        -1.12258
| 52>    C      -13.04971        -8.36188        -1.63904
| 53>    C      -12.58450        -9.67732        -1.44346
| 54>    C      -11.52518       -10.13346        -0.69802
| 55>    C      -11.15393       -11.49955        -0.58424
| 56>    C      -10.06268       -11.72477         0.19653
| 57>    C       -9.50689       -10.54786         0.74655
| 58>    S      -10.41940        -9.15047         0.24453
| 59>    C       -8.38926       -10.42798         1.55343
| 60>    C       -7.53344       -11.45338         2.01011
| 61>    C       -6.48530       -10.99581         2.75225
| 62>    C       -6.47210        -9.59279         2.91969
| 63>    S       -7.83034        -8.86736         2.10746
| 64>    C       -5.49476        -8.84806         3.55226
| 65>    C       -5.55176        -7.46609         3.66590
| 66>    C       -4.54233        -6.60168         4.03660
| 67>    C       -3.11326        -6.74528         4.06179
| 68>    C       -2.33799        -7.65920         3.38390
| 69>    C       -0.93263        -7.58110         3.32288
| 70>    N        0.21254        -7.54899         3.23328
| 71>    C       -2.80361        -8.70981         2.56779
| 72>    N       -3.09485        -9.58850         1.88784
| 73>    C       -2.57251        -5.56662         4.74418
| 74>    C       -3.62490        -4.64738         4.97245
| 75>    C       -4.88850        -5.24161         4.48766
| 76>    O       -5.98778        -4.72304         4.47484
| 77>    C       -3.42229        -3.41678         5.54641
| 78>    C       -2.11393        -3.07479         5.90531
| 79>    C       -1.07764        -4.01411         5.70710
| 80>    C       -1.28478        -5.26398         5.13708
| 81>    S        0.46001        -3.38953         6.21900
| 82>    C       -0.29499        -1.87625         6.64465
| 83>    C       -1.63295        -1.84985         6.44477
| 84>   Br        0.76715        -0.46928         7.28367
| 85>    H       -1.29224        -0.66399         3.61079
| 86>    H       -1.05583        -5.20913         1.52034
| 87>    H        1.49996        -0.89259         3.80472
| 88>    H       -6.47297        -3.67878         1.63559
| 89>    H       -6.23840        -1.11588         3.30683
| 90>    H       -8.35424         0.13916         3.67947
| 91>    H      -10.78986         0.27278         2.87078
| 92>    H      -12.60735         0.23728         1.62332
| 93>    H      -14.58923        -0.30727         0.08773
| 94>    H      -15.38057        -1.97565        -1.54232
| 95>    H      -16.17441        -3.31213        -3.34043
| 96>    H      -15.55014        -5.02671        -3.56541
| 97>    H      -11.67781        -7.18250        -0.48107
| 98>    H      -13.92268        -8.27189        -2.27462
| 99>    H      -13.14445       -10.45182        -1.95427
|100>    H      -11.70816       -12.27125        -1.09051
|101>    H       -9.64230       -12.69544         0.38747
|102>    H       -7.70405       -12.48849         1.77658
|103>    H       -5.71270       -11.61579         3.17013
|104>    H       -4.65400        -9.38877         3.96057
|105>    H       -6.51239        -6.98942         3.49057
|106>    H       -4.24054        -2.73098         5.69929
|107>    H       -0.46104        -5.94680         5.01465
|108>    H       -2.25764        -0.99961         6.64882
|109> *
|110>
|111>                          ****END OF INPUT****

CARTESIAN COORDINATES (ANGSTROEM)
---------------------------------
  C     -3.708960   -3.967270    1.820130
  C     -4.066200   -5.140180    1.194110
  C     -3.134830   -6.059010    0.674300
  N     -2.420490   -6.829590    0.209610
  C     -5.380240   -5.591800    0.969450
  N     -6.405340   -6.067570    0.759140
  C     -2.336170   -3.573250    2.134970
  C     -2.366100   -2.299860    2.751020
  C     -1.233200   -1.642890    3.160770
  C     -0.006270   -2.292340    2.989860
  C      0.013230   -3.584050    2.412780
  C     -1.133650   -4.232030    1.967020
  S      1.620910   -4.234070    2.348760
  C      2.240060   -2.774010    3.074150
  C      1.292970   -1.847000    3.354860
  Br     4.075760   -2.609060    3.407050
  C     -3.769120   -1.862050    2.894910
  O     -4.133580   -0.825290    3.419050
  C     -4.588200   -2.929150    2.289750
  C     -5.964830   -2.887940    2.172900
  C     -6.738350   -1.861090    2.703730
  C     -8.087550   -1.669740    2.498620
  C     -8.815720   -0.570530    3.016600
  C    -10.100830   -0.499400    2.581940
  C    -10.466760   -1.549390    1.704390
  S     -9.122160   -2.655390    1.491350
  C    -11.676010   -1.657320    1.046140
  C    -12.693680   -0.666000    1.048100
  C    -13.738790   -0.948430    0.237080
  C    -13.635990   -2.200490   -0.440920
  S    -12.131920   -2.998330    0.018550
  C    -14.559680   -2.648960   -1.330540
  C    -14.601440   -3.898480   -2.040550
  C    -15.498070   -4.092410   -3.036190
  C    -13.762370   -4.971860   -1.671080
  C    -13.164600   -5.994810   -1.408100
  C    -12.546090   -7.204820   -1.122580
  C    -13.049710   -8.361880   -1.639040
  C    -12.584500   -9.677320   -1.443460
  C    -11.525180  -10.133460   -0.698020
  C    -11.153930  -11.499550   -0.584240
  C    -10.062680  -11.724770    0.196530
  C     -9.506890  -10.547860    0.746550
  S    -10.419400   -9.150470    0.244530
  C     -8.389260  -10.427980    1.553430
  C     -7.533440  -11.453380    2.010110
  C     -6.485300  -10.995810    2.752250
  C     -6.472100   -9.592790    2.919690
  S     -7.830340   -8.867360    2.107460
  C     -5.494760   -8.848060    3.552260
  C     -5.551760   -7.466090    3.665900
  C     -4.542330   -6.601680    4.036600
  C     -3.113260   -6.745280    4.061790
  C     -2.337990   -7.659200    3.383900
  C     -0.932630   -7.581100    3.322880
  N      0.212540   -7.548990    3.233280
  C     -2.803610   -8.709810    2.567790
  N     -3.094850   -9.588500    1.887840
  C     -2.572510   -5.566620    4.744180
  C     -3.624900   -4.647380    4.972450
  C     -4.888500   -5.241610    4.487660
  O     -5.987780   -4.723040    4.474840
  C     -3.422290   -3.416780    5.546410
  C     -2.113930   -3.074790    5.905310
  C     -1.077640   -4.014110    5.707100
  C     -1.284780   -5.263980    5.137080
  S      0.460010   -3.389530    6.219000
  C     -0.294990   -1.876250    6.644650
  C     -1.632950   -1.849850    6.444770
  Br     0.767150   -0.469280    7.283670
  H     -1.292240   -0.663990    3.610790
  H     -1.055830   -5.209130    1.520340
  H      1.499960   -0.892590    3.804720
  H     -6.472970   -3.678780    1.635590
  H     -6.238400   -1.115880    3.306830
  H     -8.354240    0.139160    3.679470
  H    -10.789860    0.272780    2.870780
  H    -12.607350    0.237280    1.623320
  H    -14.589230   -0.307270    0.087730
  H    -15.380570   -1.975650   -1.542320
  H    -16.174410   -3.312130   -3.340430
  H    -15.550140   -5.026710   -3.565410
  H    -11.677810   -7.182500   -0.481070
  H    -13.922680   -8.271890   -2.274620
  H    -13.144450  -10.451820   -1.954270
  H    -11.708160  -12.271250   -1.090510
  H     -9.642300  -12.695440    0.387470
  H     -7.704050  -12.488490    1.776580
  H     -5.712700  -11.615790    3.170130
  H     -4.654000   -9.388770    3.960570
  H     -6.512390   -6.989420    3.490570
  H     -4.240540   -2.730980    5.699290
  H     -0.461040   -5.946800    5.014650
  H     -2.257640   -0.999610    6.648820

 Total Charge           Charge          ....    0
 Multiplicity           Mult            ....    1
 Number of Electrons    NEL             ....  570
 Basis Dimension        Dim             .... 1160

ORBITAL ENERGIES
----------------

  NO   OCC          E(Eh)            E(eV)
   0   2.0000    -482.879189    -13139.8108
   1   2.0000    -482.869739    -13139.5536
   2   2.0000     -88.965129     -2420.8642
   3   2.0000     -88.960283     -2420.7324
   4   2.0000     -88.958646     -2420.6878
   5   2.0000     -88.956814     -2420.6380
   6   2.0000     -88.956220     -2420.6218
   7   2.0000     -88.952698     -2420.5260
   8   2.0000     -62.556819     -1702.2576
   9   2.0000     -62.547454     -1702.0027
  10   2.0000     -56.390747     -1534.4702
  11   2.0000     -56.388094     -1534.3980
  12   2.0000     -56.388025     -1534.3962
  13   2.0000     -56.381373     -1534.2152
  14   2.0000     -56.378733     -1534.1433
  15   2.0000     -56.378658     -1534.1413
  16   2.0000     -19.198210      -522.4099
  17   2.0000     -19.196136      -522.3534
  18   2.0000     -14.400679      -391.8624
  19   2.0000     -14.398238      -391.7960
  20   2.0000     -14.394879      -391.7046
  21   2.0000     -14.391060      -391.6006
  22   2.0000     -10.348194      -281.5887
  23   2.0000     -10.347936      -281.5817
  24   2.0000     -10.346268      -281.5363
  25   2.0000     -10.339230      -281.3448
  26   2.0000     -10.330121      -281.0969
  27   2.0000     -10.327637      -281.0293
  28   2.0000     -10.322634      -280.8931
  29   2.0000     -10.322514      -280.8899
  30   2.0000     -10.322287      -280.8837
  31   2.0000     -10.322071      -280.8778
  32   2.0000     -10.321225      -280.8548
  33   2.0000     -10.320577      -280.8372
  34   2.0000     -10.320431      -280.8332
  35   2.0000     -10.320067      -280.8233
  36   2.0000     -10.319782      -280.8155
  37   2.0000     -10.319593      -280.8104
  38   2.0000     -10.312575      -280.6194
  39   2.0000     -10.312086      -280.6061
  40   2.0000     -10.305218      -280.4192
  41   2.0000     -10.304522      -280.4003
  42   2.0000     -10.302151      -280.3358
  43   2.0000     -10.301413      -280.3157
  44   2.0000     -10.300457      -280.2897
  45   2.0000     -10.299958      -280.2761
  46   2.0000     -10.299706      -280.2693
  47   2.0000     -10.299364      -280.2600
  48   2.0000     -10.299136      -280.2537
  49   2.0000     -10.298561      -280.2381
  50   2.0000     -10.298228      -280.2290
  51   2.0000     -10.297320      -280.2043
  52   2.0000     -10.295293      -280.1492
  53   2.0000     -10.294744      -280.1342
  54   2.0000     -10.294123      -280.1173
  55   2.0000     -10.293412      -280.0980
  56   2.0000     -10.292811      -280.0816
  57   2.0000     -10.292113      -280.0626
  58   2.0000     -10.291412      -280.0436
  59   2.0000     -10.289816      -280.0001
  60   2.0000     -10.289041      -279.9790
  61   2.0000     -10.288573      -279.9663
  62   2.0000     -10.288336      -279.9599
  63   2.0000     -10.287976      -279.9501
  64   2.0000     -10.287830      -279.9461
  65   2.0000     -10.286329      -279.9052
  66   2.0000     -10.285391      -279.8797
  67   2.0000     -10.285037      -279.8701
  68   2.0000     -10.281393      -279.7709
  69   2.0000     -10.280001      -279.7331
  70   2.0000     -10.278641      -279.6960
  71   2.0000     -10.277284      -279.6591
  72   2.0000     -10.276222      -279.6302
  73   2.0000     -10.275846      -279.6200
  74   2.0000     -10.273625      -279.5595
  75   2.0000     -10.272275      -279.5228
  76   2.0000     -10.271930      -279.5134
  77   2.0000     -10.267738      -279.3994
  78   2.0000      -8.786213      -239.0850
  79   2.0000      -8.776876      -238.8309
  80   2.0000      -8.060276      -219.3313
  81   2.0000      -8.056214      -219.2207
  82   2.0000      -8.054234      -219.1668
  83   2.0000      -8.052524      -219.1203
  84   2.0000      -8.052121      -219.1094
  85   2.0000      -8.048979      -219.0239
  86   2.0000      -6.622379      -180.2041
  87   2.0000      -6.613051      -179.9503
  88   2.0000      -6.608057      -179.8144
  89   2.0000      -6.607782      -179.8069
  90   2.0000      -6.598687      -179.5594
  91   2.0000      -6.598477      -179.5537
  92   2.0000      -6.030047      -164.0859
  93   2.0000      -6.025887      -163.9727
  94   2.0000      -6.025680      -163.9671
  95   2.0000      -6.024076      -163.9235
  96   2.0000      -6.022174      -163.8717
  97   2.0000      -6.021766      -163.8606
  98   2.0000      -6.021758      -163.8604
  99   2.0000      -6.021609      -163.8563
 100   2.0000      -6.019912      -163.8101
 101   2.0000      -6.018580      -163.7739
 102   2.0000      -6.017893      -163.7552
 103   2.0000      -6.017742      -163.7511
 104   2.0000      -6.017328      -163.7398
 105   2.0000      -6.015047      -163.6777
 106   2.0000      -6.014444      -163.6613
 107   2.0000      -6.013832      -163.6447
 108   2.0000      -6.013248      -163.6288
 109   2.0000      -6.010111      -163.5434
 110   2.0000      -2.738241       -74.5113
 111   2.0000      -2.734307       -74.4043
 112   2.0000      -2.734081       -74.3981
 113   2.0000      -2.728957       -74.2587
 114   2.0000      -2.724893       -74.1481
 115   2.0000      -2.724798       -74.1455
 116   2.0000      -2.722693       -74.0882
 117   2.0000      -2.722682       -74.0879
 118   2.0000      -2.713341       -73.8338
 119   2.0000      -2.713337       -73.8337
 120   2.0000      -1.111736       -30.2519
 121   2.0000      -1.109507       -30.1912
 122   2.0000      -1.010464       -27.4961
 123   2.0000      -1.007878       -27.4257
 124   2.0000      -1.006719       -27.3942
 125   2.0000      -1.002719       -27.2854
 126   2.0000      -0.997740       -27.1499
 127   2.0000      -0.994237       -27.0546
 128   2.0000      -0.985197       -26.8086
 129   2.0000      -0.984911       -26.8008
 130   2.0000      -0.977311       -26.5940
 131   2.0000      -0.974356       -26.5136
 132   2.0000      -0.972683       -26.4681
 133   2.0000      -0.968736       -26.3607
 134   2.0000      -0.936351       -25.4794
 135   2.0000      -0.930014       -25.3070
 136   2.0000      -0.925218       -25.1765
 137   2.0000      -0.921390       -25.0723
 138   2.0000      -0.904189       -24.6042
 139   2.0000      -0.901432       -24.5292
 140   2.0000      -0.894154       -24.3312
 141   2.0000      -0.890382       -24.2285
 142   2.0000      -0.880980       -23.9727
 143   2.0000      -0.876230       -23.8434
 144   2.0000      -0.871985       -23.7279
 145   2.0000      -0.867009       -23.5925
 146   2.0000      -0.863264       -23.4906
 147   2.0000      -0.858239       -23.3539
 148   2.0000      -0.856340       -23.3022
 149   2.0000      -0.852683       -23.2027
 150   2.0000      -0.836407       -22.7598
 151   2.0000      -0.835332       -22.7305
 152   2.0000      -0.833286       -22.6749
 153   2.0000      -0.825199       -22.4548
 154   2.0000      -0.816122       -22.2078
 155   2.0000      -0.811320       -22.0771
 156   2.0000      -0.810150       -22.0453
 157   2.0000      -0.789541       -21.4845
 158   2.0000      -0.785933       -21.3863
 159   2.0000      -0.762944       -20.7608
 160   2.0000      -0.756233       -20.5781
 161   2.0000      -0.745300       -20.2806
 162   2.0000      -0.740122       -20.1398
 163   2.0000      -0.731205       -19.8971
 164   2.0000      -0.723190       -19.6790
 165   2.0000      -0.706546       -19.2261
 166   2.0000      -0.699677       -19.0392
 167   2.0000      -0.687829       -18.7168
 168   2.0000      -0.683114       -18.5885
 169   2.0000      -0.679154       -18.4807
 170   2.0000      -0.677079       -18.4242
 171   2.0000      -0.672484       -18.2992
 172   2.0000      -0.670674       -18.2500
 173   2.0000      -0.657325       -17.8867
 174   2.0000      -0.654121       -17.7995
 175   2.0000      -0.648504       -17.6467
 176   2.0000      -0.643767       -17.5178
 177   2.0000      -0.639358       -17.3978
 178   2.0000      -0.638407       -17.3719
 179   2.0000      -0.629362       -17.1258
 180   2.0000      -0.627271       -17.0689
 181   2.0000      -0.626433       -17.0461
 182   2.0000      -0.615675       -16.7534
 183   2.0000      -0.615023       -16.7356
 184   2.0000      -0.611043       -16.6273
 185   2.0000      -0.607485       -16.5305
 186   2.0000      -0.604874       -16.4595
 187   2.0000      -0.588823       -16.0227
 188   2.0000      -0.583805       -15.8861
 189   2.0000      -0.582927       -15.8623
 190   2.0000      -0.581265       -15.8170
 191   2.0000      -0.579544       -15.7702
 192   2.0000      -0.574379       -15.6296
 193   2.0000      -0.567056       -15.4304
 194   2.0000      -0.552452       -15.0330
 195   2.0000      -0.551050       -14.9948
 196   2.0000      -0.550589       -14.9823
 197   2.0000      -0.546170       -14.8620
 198   2.0000      -0.535967       -14.5844
 199   2.0000      -0.535053       -14.5595
 200   2.0000      -0.531172       -14.4539
 201   2.0000      -0.525865       -14.3095
 202   2.0000      -0.523904       -14.2561
 203   2.0000      -0.521690       -14.1959
 204   2.0000      -0.518624       -14.1125
 205   2.0000      -0.513506       -13.9732
 206   2.0000      -0.511354       -13.9146
 207   2.0000      -0.510071       -13.8797
 208   2.0000      -0.509445       -13.8627
 209   2.0000      -0.508070       -13.8253
 210   2.0000      -0.506850       -13.7921
 211   2.0000      -0.502777       -13.6813
 212   2.0000      -0.501899       -13.6574
 213   2.0000      -0.499233       -13.5848
 214   2.0000      -0.498275       -13.5588
 215   2.0000      -0.497757       -13.5447
 216   2.0000      -0.491848       -13.3839
 217   2.0000      -0.487195       -13.2573
 218   2.0000      -0.486430       -13.2364
 219   2.0000      -0.482782       -13.1372
 220   2.0000      -0.480772       -13.0825
 221   2.0000      -0.478358       -13.0168
 222   2.0000      -0.476639       -12.9700
 223   2.0000      -0.476338       -12.9618
 224   2.0000      -0.475112       -12.9285
 225   2.0000      -0.473588       -12.8870
 226   2.0000      -0.473409       -12.8821
 227   2.0000      -0.472275       -12.8512
 228   2.0000      -0.468115       -12.7380
 229   2.0000      -0.464149       -12.6301
 230   2.0000      -0.459744       -12.5103
 231   2.0000      -0.455379       -12.3915
 232   2.0000      -0.452804       -12.3214
 233   2.0000      -0.452264       -12.3067
 234   2.0000      -0.446088       -12.1387
 235   2.0000      -0.444896       -12.1062
 236   2.0000      -0.443810       -12.0767
 237   2.0000      -0.443515       -12.0686
 238   2.0000      -0.439535       -11.9604
 239   2.0000      -0.436071       -11.8661
 240   2.0000      -0.433351       -11.7921
 241   2.0000      -0.432114       -11.7584
 242   2.0000      -0.429435       -11.6855
 243   2.0000      -0.428744       -11.6667
 244   2.0000      -0.427729       -11.6391
 245   2.0000      -0.425028       -11.5656
 246   2.0000      -0.422868       -11.5068
 247   2.0000      -0.420848       -11.4519
 248   2.0000      -0.418869       -11.3980
 249   2.0000      -0.416148       -11.3240
 250   2.0000      -0.413485       -11.2515
 251   2.0000      -0.411496       -11.1974
 252   2.0000      -0.407852       -11.0982
 253   2.0000      -0.405604       -11.0370
 254   2.0000      -0.404219       -10.9993
 255   2.0000      -0.400478       -10.8976
 256   2.0000      -0.399363       -10.8672
 257   2.0000      -0.393687       -10.7128
 258   2.0000      -0.391508       -10.6535
 259   2.0000      -0.387646       -10.5484
 260   2.0000      -0.384030       -10.4500
 261   2.0000      -0.375978       -10.2309
 262   2.0000      -0.371387       -10.1059
 263   2.0000      -0.368149       -10.0179
 264   2.0000      -0.360541        -9.8108
 265   2.0000      -0.359285        -9.7767
 266   2.0000      -0.357202        -9.7200
 267   2.0000      -0.350023        -9.5246
 268   2.0000      -0.347454        -9.4547
 269   2.0000      -0.346048        -9.4164
 270   2.0000      -0.341571        -9.2946
 271   2.0000      -0.336968        -9.1694
 272   2.0000      -0.332703        -9.0533
 273   2.0000      -0.329271        -8.9599
 274   2.0000      -0.323178        -8.7941
 275   2.0000      -0.317394        -8.6367
 276   2.0000      -0.312101        -8.4927
 277   2.0000      -0.303389        -8.2556
 278   2.0000      -0.294882        -8.0241
 279   2.0000      -0.290076        -7.8934
 280   2.0000      -0.281881        -7.6704
 281   2.0000      -0.276309        -7.5188
 282   2.0000      -0.272924        -7.4266
 283   2.0000      -0.226465        -6.1624
 284   2.0000      -0.222483        -6.0541
 285   0.0000      -0.107548        -2.9265
 286   0.0000      -0.100377        -2.7314
 287   0.0000      -0.060167        -1.6372
 288   0.0000      -0.055547        -1.5115
 289   0.0000      -0.040503        -1.1021

MULLIKEN ATOMIC CHARGES
-----------------------
   0 C :    0.307555
   1 C :   -0.376998
   2 C :   -0.188552
   3 N :    0.151099
   4 C :   -0.187415
   5 N :    0.140516
   6 C :    0.042533
   7 C :   -0.015542
   8 C :   -0.072791
   9 C :    0.112830
  10 C :   -0.096793
  11 C :   -0.039753
  12 S :    0.200649
  13 C :   -0.126190
  14 C :    0.037375
  15 Br:    0.009506
  16 C :    0.139465
  17 O :   -0.175754
  18 C :   -0.105477
  19 C :    0.015292
  20 C :   -0.030471
  21 C :    0.011512
  22 C :    0.026553
  23 C :    0.040573
  24 C :   -0.066456
  25 S :    0.132302
  26 C :   -0.035712
  27 C :    0.027440
  28 C :    0.048527
  29 C :   -0.018809
  30 S :    0.131732
  31 C :   -0.012909
  32 C :   -0.007915
  33 C :   -0.009193
  34 C :   -0.015041
  35 C :    0.001285
  36 C :   -0.079045
  37 C :    0.012864
  38 C :   -0.003001
  39 C :   -0.023405
  40 C :    0.045389
  41 C :    0.027744
  42 C :   -0.024901
  43 S :    0.091498
  44 C :   -0.055092
  45 C :    0.036273
  46 C :    0.049396
  47 C :   -0.015215
  48 S :    0.147349
  49 C :   -0.003116
  50 C :    0.015738
  51 C :   -0.113432
  52 C :    0.285907
  53 C :   -0.354862
  54 C :   -0.194344
  55 N :    0.143294
  56 C :   -0.213254
  57 N :    0.170847
  58 C :    0.016595
  59 C :   -0.025889
  60 C :    0.135782
  61 O :   -0.162142
  62 C :   -0.060800
  63 C :    0.120675
  64 C :   -0.101580
  65 C :   -0.027215
  66 S :    0.183946
  67 C :   -0.137365
  68 C :    0.049016
  69 Br:    0.013872
  70 H :   -0.021186
  71 H :   -0.004143
  72 H :   -0.012688
  73 H :    0.006269
  74 H :    0.014956
  75 H :    0.000006
  76 H :   -0.006634
  77 H :   -0.008040
  78 H :   -0.004512
  79 H :   -0.012121
  80 H :    0.022574
  81 H :    0.032171
  82 H :    0.046157
  83 H :    0.003401
  84 H :   -0.005428
  85 H :   -0.004497
  86 H :   -0.006364
  87 H :   -0.005244
  88 H :    0.002629
  89 H :    0.013556
  90 H :    0.024465
  91 H :   -0.012014
  92 H :   -0.007578
  93 H :   -0.002236
Sum of atomic charges:   -0.0000000

LOEWDIN ATOMIC CHARGES
----------------------
   0 C :    0.070823
   1 C :   -0.156144
   2 C :   -0.019326
   3 N :   -0.054913
   4 C :   -0.014981
   5 N :   -0.070981
   6 C :   -0.019667
   7 C :   -0.050314
   8 C :    0.016224
   9 C :   -0.041067
  10 C :   -0.148489
  11 C :   -0.012412
  12 S :    0.444841
  13 C :   -0.280385
  14 C :   -0.078065
  15 Br:    0.127569
  16 C :    0.083351
  17 O :   -0.166174
  18 C :   -0.108374
  19 C :    0.069842
  20 C :   -0.066358
  21 C :   -0.102410
  22 C :   -0.036329
  23 C :   -0.011213
  24 C :   -0.189084
  25 S :    0.406933
  26 C :   -0.153103
  27 C :   -0.032646
  28 C :   -0.014164
  29 C :   -0.142107
  30 S :    0.406607
  31 C :   -0.026583
  32 C :   -0.047018
  33 C :    0.002012
  34 C :   -0.049863
  35 C :   -0.015729
  36 C :   -0.040105
  37 C :   -0.011238
  38 C :   -0.051206
  39 C :   -0.139591
  40 C :   -0.016614
  41 C :   -0.034937
  42 C :   -0.157415
  43 S :    0.412264
  44 C :   -0.179662
  45 C :   -0.010775
  46 C :   -0.024302
  47 C :   -0.103029
  48 S :    0.433508
  49 C :   -0.061649
  50 C :    0.054130
  51 C :   -0.109056
  52 C :    0.062710
  53 C :   -0.148085
  54 C :   -0.015411
  55 N :   -0.070031
  56 C :   -0.022831
  57 N :   -0.053964
  58 C :   -0.015831
  59 C :   -0.056321
  60 C :    0.076698
  61 O :   -0.159122
  62 C :    0.019938
  63 C :   -0.036325
  64 C :   -0.143391
  65 C :   -0.012858
  66 S :    0.444390
  67 C :   -0.278667
  68 C :   -0.064897
  69 Br:    0.129101
  70 H :    0.035721
  71 H :    0.039601
  72 H :    0.033356
  73 H :    0.034504
  74 H :    0.037317
  75 H :    0.039000
  76 H :    0.034039
  77 H :    0.033658
  78 H :    0.036610
  79 H :    0.037945
  80 H :    0.025423
  81 H :    0.031399
  82 H :    0.029254
  83 H :    0.037693
  84 H :    0.038210
  85 H :    0.036854
  86 H :    0.034962
  87 H :    0.035217
  88 H :    0.040917
  89 H :    0.038603
  90 H :    0.036075
  91 H :    0.039945
  92 H :    0.038492
  93 H :    0.039479

  Mayer bond orders larger than 0.100000
B(  0-C ,  1-C ) :   1.5878 B(  0-C ,  6-C ) :   0.9906 B(  0-C , 18-C ) :   1.1067
B(  1-C ,  2-C ) :   1.1668 B(  1-C ,  4-C ) :   1.1531 B(  2-C ,  3-N ) :   2.9045
B(  4-C ,  5-N ) :   2.9246 B(  6-C ,  7-C ) :   1.2863 B(  6-C , 11-C ) :   1.4030
B(  7-C ,  8-C ) :   1.4198 B(  7-C , 16-C ) :   0.9391 B(  8-C ,  9-C ) :   1.2363
B(  8-C , 70-H ) :   1.0150 B(  9-C , 10-C ) :   1.3121 B(  9-C , 14-C ) :   1.1612
B( 10-C , 11-C ) :   1.3150 B( 10-C , 12-S ) :   1.0942 B( 11-C , 71-H ) :   0.9850
B( 12-S , 13-C ) :   1.0851 B( 13-C , 14-C ) :   1.6075 B( 13-C , 15-Br) :   1.0123
B( 14-C , 72-H ) :   1.0031 B( 16-C , 17-O ) :   2.1550 B( 16-C , 18-C ) :   0.9761
B( 18-C , 19-C ) :   1.4776 B( 19-C , 20-C ) :   1.2459 B( 19-C , 73-H ) :   0.9483
B( 20-C , 21-C ) :   1.4455 B( 20-C , 74-H ) :   0.9661 B( 21-C , 22-C ) :   1.1620
B( 21-C , 25-S ) :   1.0784 B( 22-C , 23-C ) :   1.5641 B( 22-C , 75-H ) :   1.0032
B( 23-C , 24-C ) :   1.1912 B( 23-C , 76-H ) :   0.9935 B( 24-C , 25-S ) :   1.0380
B( 24-C , 26-C ) :   1.5079 B( 26-C , 27-C ) :   1.1647 B( 26-C , 30-S ) :   1.0599
B( 27-C , 28-C ) :   1.6230 B( 27-C , 77-H ) :   0.9930 B( 28-C , 29-C ) :   1.1077
B( 28-C , 78-H ) :   0.9995 B( 29-C , 30-S ) :   1.0247 B( 29-C , 31-C ) :   1.6413
B( 31-C , 32-C ) :   1.0831 B( 31-C , 79-H ) :   0.9687 B( 32-C , 33-C ) :   1.8451
B( 32-C , 34-C ) :   0.9029 B( 33-C , 80-H ) :   0.9496 B( 33-C , 81-H ) :   0.9506
B( 34-C , 35-C ) :   2.3335 B( 35-C , 36-C ) :   1.0718 B( 36-C , 37-C ) :   1.6533
B( 36-C , 82-H ) :   0.9304 B( 37-C , 38-C ) :   1.2045 B( 37-C , 83-H ) :   0.9665
B( 38-C , 39-C ) :   1.5672 B( 38-C , 84-H ) :   0.9645 B( 39-C , 40-C ) :   1.1487
B( 39-C , 43-S ) :   1.0458 B( 40-C , 41-C ) :   1.5859 B( 40-C , 85-H ) :   0.9988
B( 41-C , 42-C ) :   1.1903 B( 41-C , 86-H ) :   0.9942 B( 42-C , 43-S ) :   1.0634
B( 42-C , 44-C ) :   1.4817 B( 44-C , 45-C ) :   1.1997 B( 44-C , 48-S ) :   1.0587
B( 45-C , 46-C ) :   1.5622 B( 45-C , 87-H ) :   0.9949 B( 46-C , 47-C ) :   1.1700
B( 46-C , 88-H ) :   0.9999 B( 47-C , 48-S ) :   1.0983 B( 47-C , 49-C ) :   1.4990
B( 49-C , 50-C ) :   1.2155 B( 49-C , 89-H ) :   0.9645 B( 50-C , 51-C ) :   1.5262
B( 50-C , 90-H ) :   0.9292 B( 51-C , 52-C ) :   1.0847 B( 51-C , 60-C ) :   0.9736
B( 52-C , 53-C ) :   1.6054 B( 52-C , 58-C ) :   0.9904 B( 53-C , 54-C ) :   1.1539
B( 53-C , 56-C ) :   1.1596 B( 54-C , 55-N ) :   2.9586 B( 56-C , 57-N ) :   2.9989
B( 58-C , 59-C ) :   1.2788 B( 58-C , 65-C ) :   1.4114 B( 59-C , 60-C ) :   0.9176
B( 59-C , 62-C ) :   1.4306 B( 60-C , 61-O ) :   2.2071 B( 62-C , 63-C ) :   1.2469
B( 62-C , 91-H ) :   1.0064 B( 63-C , 64-C ) :   1.3219 B( 63-C , 68-C ) :   1.1612
B( 64-C , 65-C ) :   1.3072 B( 64-C , 66-S ) :   1.0882 B( 65-C , 92-H ) :   0.9877
B( 66-S , 67-C ) :   1.0909 B( 67-C , 68-C ) :   1.6005 B( 67-C , 69-Br) :   1.0125
B( 68-C , 93-H ) :   1.0033

-----------------------------------------------------------------------------
         ABSORPTION SPECTRUM VIA TRANSITION ELECTRIC DIPOLE MOMENTS
-----------------------------------------------------------------------------
State   Energy  Wavelength   fosc         T2         TX        TY        TZ
        (cm-1)    (nm)                  (au**2)     (au)      (au)      (au)
-----------------------------------------------------------------------------
   0   10702.2    934.4   0.164983936   5.07510   1.38594   0.87535   1.54532
   1   13073.6    764.9   0.037829919   0.95261  -0.59658   0.51636  -0.57453
   2   13263.9    753.9   0.065748861   1.63190  -1.19103   0.24323  -0.39265
   3   14375.4    695.6   2.359803558  54.04188  -6.92479  -0.04398  -2.46723
   4   20424.0    489.6   0.050549225   0.81480   0.02612   0.79325  -0.42997
   5   21657.1    461.7   0.143269220   2.17785  -1.22126  -0.60135  -0.56987
   6   22151.1    451.4   0.079585994   1.18282   0.43231   0.69857   0.71269
   7   22432.7    445.8   0.056753189   0.83288   0.08691  -0.84592   0.33128
   8   22665.5    441.2   0.055457133   0.80551   0.35007  -0.70576   0.42995
   9   23366.8    428.0   0.026146679   0.36838   0.38943   0.42938   0.17988
  10   24127.1    414.5   0.091361137   1.24662  -0.18059  -1.05168   0.32859
  11   24330.9    411.0   0.134386539   1.81833   1.10178  -0.20558   0.74977
  12   24638.0    405.9   0.053824975   0.71921  -0.70367  -0.02797  -0.47252
  13   25042.6    399.3   0.026839082   0.35283  -0.37422   0.44303  -0.12850
  14   25430.5    393.2   0.339646446   4.39691  -0.08222   2.08554   0.20163
  15   25926.8    385.7   0.170597719   2.16621   0.33413  -1.43047  -0.09126
  16   26262.0    380.8   0.311897053   3.90984   0.05652   1.89433   0.56405
  17   27185.9    367.8   0.015461745   0.18724  -0.18345  -0.01596  -0.39157
  18   27280.2    366.6   0.013449528   0.16231  -0.12927   0.31971  -0.20828
  19   27297.5    366.3   0.036602897   0.44144  -0.27290  -0.60561  -0.01420
  20   27633.2    361.9   0.040845188   0.48662   0.20568   0.36129   0.56016
  21   28080.8    356.1   0.167510912   1.96385   0.31516   0.39186   1.30804
  22   28190.6    354.7   0.045037597   0.52595  -0.16618  -0.00886   0.70587
  23   28586.2    349.8   0.003923093   0.04518   0.02546   0.04124  -0.20696
  24   28994.3    344.9   0.010939668   0.12421   0.08549  -0.25298  -0.23001
  25   29040.9    344.3   0.003749691   0.04251   0.02162   0.20412  -0.01940
  26   29514.3    338.8   0.085038410   0.94855  -0.18226  -0.92096  -0.25913
  27   29937.6    334.0   0.050265586   0.55275  -0.44432  -0.52130  -0.28909
  28   30300.9    330.0   0.069657340   0.75681   0.83570  -0.21755  -0.10533
  29   30724.2    325.5   0.150657048   1.61430   0.86835   0.90777   0.19033
  30   30872.5    323.9   0.023811942   0.25392   0.05070  -0.38113  -0.32572
  31   31121.1    321.3   0.054647666   0.57809   0.72406  -0.04819   0.22695
  32   31373.2    318.7   0.006317882   0.06630   0.18305  -0.18075   0.01073
  33   31668.5    315.8   0.065038577   0.67611  -0.77346   0.25857   0.10493
  34   31910.1    313.4   0.185874417   1.91764  -0.07327   1.25373   0.58346
  35   32279.6    309.8   0.075817070   0.77324   0.74046   0.44050   0.17583
  36   32525.5    307.5   0.334139781   3.38205  -0.52664  -1.44816  -1.00377
  37   33075.9    302.3   0.000353580   0.00352  -0.01837   0.04966  -0.02675
  38   33141.8    301.7   0.006837691   0.06792   0.08573   0.18352   0.16399
  39   33382.1    299.6   0.046398549   0.45758  -0.31619   0.58499   0.12404
  40   33484.9    298.6   0.013228762   0.13006  -0.18784  -0.16092  -0.26245
  41   33828.5    295.6   0.057992315   0.56437  -0.37302  -0.51426  -0.40095
  42   34130.8    293.0   0.022381823   0.21589   0.07493  -0.45786   0.02527
  43   34487.1    290.0   0.045401033   0.43340   0.57375  -0.31296  -0.07918
  44   34687.2    288.3   0.060600055   0.57515   0.65814  -0.16460   0.33897
  45   34781.9    287.5   0.045268310   0.42847  -0.43865   0.48529   0.02348
  46   35004.1    285.7   0.113513805   1.06759   0.47039  -0.86304  -0.31856
  47   35267.6    283.5   0.021209772   0.19799   0.01707   0.39917   0.19585
  48   35367.0    282.7   0.054853314   0.51060  -0.48976  -0.51417  -0.07977
  49   35698.0    280.1   0.077950490   0.71887   0.48287   0.55247   0.42484
  50   36085.6    277.1   0.040097157   0.36581  -0.16503  -0.43274  -0.38898
  51   36151.9    276.6   0.006329437   0.05764   0.15070   0.17805  -0.05680
  52   36285.5    275.6   0.160787523   1.45880   0.43413   0.99689   0.52587
  53   36367.1    275.0   0.117658671   1.06510  -0.19561  -0.92790  -0.40724
  54   36622.5    273.1   0.044557455   0.40054   0.50805  -0.16275  -0.34050
  55   36864.9    271.3   0.030938356   0.27629   0.45732  -0.17735  -0.18892
  56   36969.4    270.5   0.023039404   0.20517   0.19128  -0.40851  -0.04124
  57   37014.4    270.2   0.054338740   0.48330  -0.31476  -0.42080  -0.45514
  58   37163.3    269.1   0.004156768   0.03682   0.11977  -0.14896   0.01697
  59   37322.2    267.9   0.057215129   0.50468   0.19441   0.50253   0.46298
  60   37680.5    265.4   0.025805466   0.22546   0.28791   0.33654   0.17119
  61   37735.8    265.0   0.049535499   0.43215  -0.01139  -0.60391  -0.25946
  62   38009.3    263.1   0.026427802   0.22890   0.14403   0.17025   0.42328
  63   38354.1    260.7   0.078936261   0.67755  -0.74847   0.30118  -0.16318
  64   38415.9    260.3   0.077744704   0.66625  -0.12313   0.54035   0.59926
  65   38642.6    258.8   0.048697187   0.41487   0.30281  -0.55563  -0.12024
  66   38858.7    257.3   0.055036734   0.46627  -0.62548   0.18645   0.20070
  67   39037.8    256.2   0.012143635   0.10241   0.11805  -0.29042   0.06425
  68   39454.5    253.5   0.012258222   0.10228  -0.06261  -0.31099  -0.04060
  69   39501.3    253.2   0.012338276   0.10283   0.11001   0.29721   0.04892
  70   39566.9    252.7   0.003794222   0.03157  -0.11334   0.12120   0.06352
  71   39966.6    250.2   0.019847475   0.16349  -0.38622  -0.02042   0.11791
  72   40070.4    249.6   0.000829049   0.00681  -0.00781   0.00404  -0.08206
  73   40314.3    248.1   0.039535404   0.32285  -0.14027  -0.38785  -0.39083

FINAL SINGLE POINT ENERGY    -10050.743895732325

DIPOLE MOMENT
-------------
                                X             Y             Z
Electronic contribution:    206.35386      68.91871      73.78442
Nuclear contribution   :   -211.54699     -67.93977     -73.59194
                        -----------------------------------------
Total Dipole Moment    :     -5.19313       0.97894       0.19248
                        -----------------------------------------
Magnitude (a.u.)       :      5.28810
Magnitude (Debye)      :     13.44128

Rotational constants in cm-1:     0.001326     0.000405     0.000341
Rotational constants in MHz :    39.764893    12.153295    10.216187

                             ****ORCA TERMINATED NORMALLY****
TOTAL RUN TIME: 0 days 0 hours 13 minutes 17 seconds 929 msec
