                         Program Version 4.2.0 -  RELEASE  -
|  1> # ORCA input file
|  2> # SCF done       -204.730741952692          0.000466894445
|  3> ! CAM-B3LYP def2-SVP def2/J RIJCOSX Grid4 TightSCF
|  4> %maxcore 5000
|  5> %tddft
|  6>     Mode sTDDFT
|  7>     Ethresh 5.0
|  8>     maxcore 5000
|  9> end
| 10>
| 11> %pal
| 12>   nprocs 6
| 13>   end
| 14> * xyz 0 1
| 15>    C       -3.62912         1.71826         1.92736
| 16>    C       -2.79733         2.05123         0.89140
| 17>    C       -1.69180         1.27502         0.48306
| 18>    N       -0.78304         0.68639         0.10228
| 19>    C       -2.90852         3.21342         0.09921
| 20>    N       -2.92754         4.13598        -0.58457
| 21>    C       -3.49309         0.54795         2.78369
| 22>    C       -4.48317         0.60334         3.79513
| 23>    C       -4.61076        -0.36407         4.76240
| 24>    C       -3.71727        -1.43916         4.73176
| 25>    C       -2.73235        -1.48884         3.71541
| 26>    C       -2.60431        -0.51137         2.73724
| 27>    S       -1.73542        -2.90435         3.86106
| 28>    C       -2.63975        -3.40160         5.26662
| 29>    C       -3.63860        -2.55379         5.61030
| 30>   Br       -2.18146        -4.99307         6.14593
| 31>    C       -5.29743         1.82270         3.62757
| 32>    O       -6.21724         2.17295         4.33301
| 33>    C       -4.77366         2.48308         2.40114
| 34>    C       -5.38587         3.49686         1.73704
| 35>    C       -6.47688         4.28450         2.25170
| 36>    C       -6.42190         4.80006         3.51800
| 37>    S       -7.73142         5.81156         3.93363
| 38>    C       -8.46517         5.50300         2.38803
| 39>    C       -7.68100         4.68694         1.55990
| 40>    C       -8.17158         4.33447         0.28152
| 41>    C       -7.29292         3.51019        -0.62052
| 42>    C       -6.33993         4.39786        -1.42658
| 43>    C       -9.42371         4.77074        -0.13649
| 44>    C       -9.91676         4.43080        -1.52011
| 45>    C      -10.63853         3.07886        -1.56007
| 46>    C      -10.23322         5.54988         0.72671
| 47>    C      -11.56561         6.09462         0.55401
| 48>    C      -11.92764         6.88604         1.60909
| 49>    S      -10.76794         6.98788         2.86484
| 50>    C       -9.70721         5.94580         1.96764
| 51>    C      -12.49767         5.78560        -0.50065
| 52>    C      -13.54686         6.54125        -0.88041
| 53>    C      -14.44854         6.10828        -1.90158
| 54>    S      -16.02446         6.83466        -2.08228
| 55>    C      -16.47433         5.74422        -3.37856
| 56>    C      -15.37526         4.92689        -3.68205
| 57>    C      -14.26897         5.12258        -2.83718
| 58>    N      -15.24462         4.10534        -4.81449
| 59>    O      -16.09904         4.18645        -5.69012
| 60>    O      -14.27017         3.37269        -4.87774
| 61>    C      -17.80551         5.79673        -3.81949
| 62>    C      -18.58191         4.81506        -4.39100
| 63>    C      -19.95674         4.97396        -4.72348
| 64>    C      -20.56258         3.83603        -5.15369
| 65>    C      -19.70012         2.71302        -5.16810
| 66>    S      -18.09464         3.16745        -4.67182
| 67>    C      -19.99201         1.40956        -5.53095
| 68>    C      -21.22632         0.87835        -5.96775
| 69>    C      -21.17945        -0.45503        -6.24545
| 70>    C      -19.90760        -1.04237        -6.04134
| 71>    S      -18.77327         0.15902        -5.47502
| 72>    C      -19.57667        -2.36843        -6.23322
| 73>    C      -18.29358        -2.87408        -6.03546
| 74>    C      -17.86362        -4.17547        -6.15381
| 75>    C      -18.57114        -5.42253        -6.26858
| 76>    C      -19.82335        -5.71428        -5.77998
| 77>    C      -20.43232        -6.97972        -5.88842
| 78>    N      -20.98433        -7.98416        -5.96462
| 79>    C      -20.60490        -4.82821        -5.01279
| 80>    N      -21.26780        -4.16902        -4.34535
| 81>    C      -17.63137        -6.40870        -6.80229
| 82>    C      -16.33313        -5.84007        -6.80812
| 83>    C      -16.41597        -4.44265        -6.33337
| 84>    O      -15.50489        -3.66359        -6.16310
| 85>    C      -15.22465        -6.53377        -7.22597
| 86>    C      -15.40695        -7.84781        -7.67170
| 87>    C      -16.70850        -8.40144        -7.67504
| 88>    C      -17.82992        -7.70222        -7.24260
| 89>    S      -16.70827       -10.03095        -8.27838
| 90>    C      -14.98192        -9.94867        -8.51042
| 91>    C      -14.43248        -8.76300        -8.15677
| 92>   Br      -14.06949       -11.43491        -9.20123
| 93>    H       -5.37585        -0.29151         5.51941
| 94>    H       -1.84101        -0.59715         1.98214
| 95>    H       -4.29393        -2.70682         6.44820
| 96>    H       -5.01529         3.76727         0.75908
| 97>    H       -5.61989         4.67664         4.21901
| 98>    H       -7.88783         2.91231        -1.30739
| 99>    H       -6.72359         2.80844        -0.00677
|100>    H       -6.89524         5.01009        -2.13333
|101>    H       -5.63135         3.78920        -1.98340
|102>    H       -5.78190         5.07144        -0.78054
|103>    H       -9.08101         4.40428        -2.21768
|104>    H      -10.58039         5.22470        -1.86368
|105>    H       -9.94255         2.26339        -1.37905
|106>    H      -11.09613         2.92265        -2.53470
|107>    H      -11.40889         3.01634        -0.79416
|108>    H      -12.86947         7.38106         1.74239
|109>    H      -12.38057         4.82893        -0.97832
|110>    H      -13.75344         7.49677        -0.42122
|111>    H      -13.36018         4.56616        -2.97404
|112>    H      -18.32609         6.71597        -3.57688
|113>    H      -20.44544         5.92786        -4.63262
|114>    H      -21.59203         3.77222        -5.45626
|115>    H      -22.10591         1.48823        -6.06799
|116>    H      -22.01640        -1.03873        -6.58473
|117>    H      -20.36488        -3.01888        -6.58306
|118>    H      -17.50216        -2.15403        -5.84651
|119>    H      -14.24709        -6.07802        -7.21187
|120>    H      -18.80246        -8.16505        -7.26907
|121>    H      -13.38412        -8.53977        -8.23500
|122> *
|123>
|124>                          ****END OF INPUT****

CARTESIAN COORDINATES (ANGSTROEM)
---------------------------------
  C     -3.629120    1.718260    1.927360
  C     -2.797330    2.051230    0.891400
  C     -1.691800    1.275020    0.483060
  N     -0.783040    0.686390    0.102280
  C     -2.908520    3.213420    0.099210
  N     -2.927540    4.135980   -0.584570
  C     -3.493090    0.547950    2.783690
  C     -4.483170    0.603340    3.795130
  C     -4.610760   -0.364070    4.762400
  C     -3.717270   -1.439160    4.731760
  C     -2.732350   -1.488840    3.715410
  C     -2.604310   -0.511370    2.737240
  S     -1.735420   -2.904350    3.861060
  C     -2.639750   -3.401600    5.266620
  C     -3.638600   -2.553790    5.610300
  Br    -2.181460   -4.993070    6.145930
  C     -5.297430    1.822700    3.627570
  O     -6.217240    2.172950    4.333010
  C     -4.773660    2.483080    2.401140
  C     -5.385870    3.496860    1.737040
  C     -6.476880    4.284500    2.251700
  C     -6.421900    4.800060    3.518000
  S     -7.731420    5.811560    3.933630
  C     -8.465170    5.503000    2.388030
  C     -7.681000    4.686940    1.559900
  C     -8.171580    4.334470    0.281520
  C     -7.292920    3.510190   -0.620520
  C     -6.339930    4.397860   -1.426580
  C     -9.423710    4.770740   -0.136490
  C     -9.916760    4.430800   -1.520110
  C    -10.638530    3.078860   -1.560070
  C    -10.233220    5.549880    0.726710
  C    -11.565610    6.094620    0.554010
  C    -11.927640    6.886040    1.609090
  S    -10.767940    6.987880    2.864840
  C     -9.707210    5.945800    1.967640
  C    -12.497670    5.785600   -0.500650
  C    -13.546860    6.541250   -0.880410
  C    -14.448540    6.108280   -1.901580
  S    -16.024460    6.834660   -2.082280
  C    -16.474330    5.744220   -3.378560
  C    -15.375260    4.926890   -3.682050
  C    -14.268970    5.122580   -2.837180
  N    -15.244620    4.105340   -4.814490
  O    -16.099040    4.186450   -5.690120
  O    -14.270170    3.372690   -4.877740
  C    -17.805510    5.796730   -3.819490
  C    -18.581910    4.815060   -4.391000
  C    -19.956740    4.973960   -4.723480
  C    -20.562580    3.836030   -5.153690
  C    -19.700120    2.713020   -5.168100
  S    -18.094640    3.167450   -4.671820
  C    -19.992010    1.409560   -5.530950
  C    -21.226320    0.878350   -5.967750
  C    -21.179450   -0.455030   -6.245450
  C    -19.907600   -1.042370   -6.041340
  S    -18.773270    0.159020   -5.475020
  C    -19.576670   -2.368430   -6.233220
  C    -18.293580   -2.874080   -6.035460
  C    -17.863620   -4.175470   -6.153810
  C    -18.571140   -5.422530   -6.268580
  C    -19.823350   -5.714280   -5.779980
  C    -20.432320   -6.979720   -5.888420
  N    -20.984330   -7.984160   -5.964620
  C    -20.604900   -4.828210   -5.012790
  N    -21.267800   -4.169020   -4.345350
  C    -17.631370   -6.408700   -6.802290
  C    -16.333130   -5.840070   -6.808120
  C    -16.415970   -4.442650   -6.333370
  O    -15.504890   -3.663590   -6.163100
  C    -15.224650   -6.533770   -7.225970
  C    -15.406950   -7.847810   -7.671700
  C    -16.708500   -8.401440   -7.675040
  C    -17.829920   -7.702220   -7.242600
  S    -16.708270  -10.030950   -8.278380
  C    -14.981920   -9.948670   -8.510420
  C    -14.432480   -8.763000   -8.156770
  Br   -14.069490  -11.434910   -9.201230
  H     -5.375850   -0.291510    5.519410
  H     -1.841010   -0.597150    1.982140
  H     -4.293930   -2.706820    6.448200
  H     -5.015290    3.767270    0.759080
  H     -5.619890    4.676640    4.219010
  H     -7.887830    2.912310   -1.307390
  H     -6.723590    2.808440   -0.006770
  H     -6.895240    5.010090   -2.133330
  H     -5.631350    3.789200   -1.983400
  H     -5.781900    5.071440   -0.780540
  H     -9.081010    4.404280   -2.217680
  H    -10.580390    5.224700   -1.863680
  H     -9.942550    2.263390   -1.379050
  H    -11.096130    2.922650   -2.534700
  H    -11.408890    3.016340   -0.794160
  H    -12.869470    7.381060    1.742390
  H    -12.380570    4.828930   -0.978320
  H    -13.753440    7.496770   -0.421220
  H    -13.360180    4.566160   -2.974040
  H    -18.326090    6.715970   -3.576880
  H    -20.445440    5.927860   -4.632620
  H    -21.592030    3.772220   -5.456260
  H    -22.105910    1.488230   -6.067990
  H    -22.016400   -1.038730   -6.584730
  H    -20.364880   -3.018880   -6.583060
  H    -17.502160   -2.154030   -5.846510
  H    -14.247090   -6.078020   -7.211870
  H    -18.802460   -8.165050   -7.269070
  H    -13.384120   -8.539770   -8.235000

 Total Charge           Charge          ....    0
 Multiplicity           Mult            ....    1
 Number of Electrons    NEL             ....  638
 Basis Dimension        Dim             .... 1301

ORBITAL ENERGIES
----------------

  NO   OCC          E(Eh)            E(eV)
   0   2.0000    -482.888470    -13140.0633
   1   2.0000    -482.879565    -13139.8210
   2   2.0000     -88.979004     -2421.2418
   3   2.0000     -88.976442     -2421.1721
   4   2.0000     -88.968261     -2420.9495
   5   2.0000     -88.965337     -2420.8699
   6   2.0000     -88.964646     -2420.8511
   7   2.0000     -88.963327     -2420.8152
   8   2.0000     -88.961697     -2420.7709
   9   2.0000     -62.566176     -1702.5122
  10   2.0000     -62.557308     -1702.2709
  11   2.0000     -56.400134     -1534.7257
  12   2.0000     -56.397403     -1534.6514
  13   2.0000     -56.397377     -1534.6507
  14   2.0000     -56.391248     -1534.4839
  15   2.0000     -56.388548     -1534.4104
  16   2.0000     -56.388511     -1534.4094
  17   2.0000     -19.237988      -523.4923
  18   2.0000     -19.231218      -523.3080
  19   2.0000     -19.218788      -522.9698
  20   2.0000     -19.202867      -522.5366
  21   2.0000     -14.638915      -398.3451
  22   2.0000     -14.420297      -392.3962
  23   2.0000     -14.418774      -392.3548
  24   2.0000     -14.406374      -392.0174
  25   2.0000     -14.404241      -391.9593
  26   2.0000     -10.371299      -282.2174
  27   2.0000     -10.362577      -281.9801
  28   2.0000     -10.353579      -281.7352
  29   2.0000     -10.351541      -281.6798
  30   2.0000     -10.346543      -281.5438
  31   2.0000     -10.345494      -281.5152
  32   2.0000     -10.336978      -281.2835
  33   2.0000     -10.332032      -281.1489
  34   2.0000     -10.331841      -281.1437
  35   2.0000     -10.331783      -281.1421
  36   2.0000     -10.331375      -281.1310
  37   2.0000     -10.331312      -281.1293
  38   2.0000     -10.330049      -281.0949
  39   2.0000     -10.329556      -281.0815
  40   2.0000     -10.327887      -281.0361
  41   2.0000     -10.322960      -280.9020
  42   2.0000     -10.322232      -280.8822
  43   2.0000     -10.321860      -280.8721
  44   2.0000     -10.321529      -280.8631
  45   2.0000     -10.317570      -280.7553
  46   2.0000     -10.312835      -280.6265
  47   2.0000     -10.312224      -280.6099
  48   2.0000     -10.311702      -280.5957
  49   2.0000     -10.309710      -280.5415
  50   2.0000     -10.309650      -280.5398
  51   2.0000     -10.308908      -280.5196
  52   2.0000     -10.308404      -280.5059
  53   2.0000     -10.307437      -280.4796
  54   2.0000     -10.306911      -280.4653
  55   2.0000     -10.306422      -280.4520
  56   2.0000     -10.304803      -280.4080
  57   2.0000     -10.304760      -280.4068
  58   2.0000     -10.304347      -280.3955
  59   2.0000     -10.304114      -280.3892
  60   2.0000     -10.303191      -280.3641
  61   2.0000     -10.301798      -280.3262
  62   2.0000     -10.299926      -280.2752
  63   2.0000     -10.299668      -280.2682
  64   2.0000     -10.299649      -280.2677
  65   2.0000     -10.299060      -280.2517
  66   2.0000     -10.296786      -280.1898
  67   2.0000     -10.296110      -280.1714
  68   2.0000     -10.293607      -280.1033
  69   2.0000     -10.292935      -280.0850
  70   2.0000     -10.292389      -280.0701
  71   2.0000     -10.291957      -280.0584
  72   2.0000     -10.291526      -280.0467
  73   2.0000     -10.290769      -280.0261
  74   2.0000     -10.289730      -279.9978
  75   2.0000     -10.288939      -279.9763
  76   2.0000     -10.288349      -279.9602
  77   2.0000     -10.287202      -279.9290
  78   2.0000     -10.284213      -279.8477
  79   2.0000     -10.283111      -279.8177
  80   2.0000     -10.282434      -279.7992
  81   2.0000     -10.281136      -279.7639
  82   2.0000     -10.271098      -279.4908
  83   2.0000     -10.270710      -279.4802
  84   2.0000     -10.262618      -279.2600
  85   2.0000     -10.256695      -279.0989
  86   2.0000      -8.795597      -239.3404
  87   2.0000      -8.786755      -239.0998
  88   2.0000      -8.074987      -219.7316
  89   2.0000      -8.072298      -219.6584
  90   2.0000      -8.064293      -219.4406
  91   2.0000      -8.061590      -219.3670
  92   2.0000      -8.060196      -219.3291
  93   2.0000      -8.059724      -219.3162
  94   2.0000      -8.057742      -219.2623
  95   2.0000      -6.631924      -180.4638
  96   2.0000      -6.623030      -180.2218
  97   2.0000      -6.617335      -180.0668
  98   2.0000      -6.617097      -180.0604
  99   2.0000      -6.608497      -179.8263
 100   2.0000      -6.608312      -179.8213
 101   2.0000      -6.044669      -164.4838
 102   2.0000      -6.041598      -164.4002
 103   2.0000      -6.040402      -164.3677
 104   2.0000      -6.037571      -164.2907
 105   2.0000      -6.036209      -164.2536
 106   2.0000      -6.034195      -164.1988
 107   2.0000      -6.033986      -164.1931
 108   2.0000      -6.030966      -164.1109
 109   2.0000      -6.029818      -164.0797
 110   2.0000      -6.029720      -164.0770
 111   2.0000      -6.029350      -164.0669
 112   2.0000      -6.027231      -164.0093
 113   2.0000      -6.026743      -163.9960
 114   2.0000      -6.025497      -163.9621
 115   2.0000      -6.025464      -163.9612
 116   2.0000      -6.025285      -163.9563
 117   2.0000      -6.023462      -163.9067
 118   2.0000      -6.022965      -163.8932
 119   2.0000      -6.021563      -163.8551
 120   2.0000      -6.020792      -163.8341
 121   2.0000      -6.019541      -163.8000
 122   2.0000      -2.747787       -74.7711
 123   2.0000      -2.743681       -74.6594
 124   2.0000      -2.743552       -74.6558
 125   2.0000      -2.738894       -74.5291
 126   2.0000      -2.734832       -74.4186
 127   2.0000      -2.734698       -74.4149
 128   2.0000      -2.731937       -74.3398
 129   2.0000      -2.731914       -74.3391
 130   2.0000      -2.723138       -74.1003
 131   2.0000      -2.723127       -74.1000
 132   2.0000      -1.311198       -35.6795
 133   2.0000      -1.134804       -30.8796
 134   2.0000      -1.129965       -30.7479
 135   2.0000      -1.117735       -30.4151
 136   2.0000      -1.026813       -27.9410
 137   2.0000      -1.017432       -27.6857
 138   2.0000      -1.016559       -27.6620
 139   2.0000      -1.014118       -27.5955
 140   2.0000      -1.012146       -27.5419
 141   2.0000      -1.010123       -27.4868
 142   2.0000      -1.004093       -27.3227
 143   2.0000      -0.998224       -27.1630
 144   2.0000      -0.993555       -27.0360
 145   2.0000      -0.991980       -26.9931
 146   2.0000      -0.984042       -26.7771
 147   2.0000      -0.982652       -26.7393
 148   2.0000      -0.979948       -26.6657
 149   2.0000      -0.946622       -25.7589
 150   2.0000      -0.935676       -25.4610
 151   2.0000      -0.933916       -25.4131
 152   2.0000      -0.926719       -25.2173
 153   2.0000      -0.915570       -24.9139
 154   2.0000      -0.912188       -24.8219
 155   2.0000      -0.909863       -24.7586
 156   2.0000      -0.902240       -24.5512
 157   2.0000      -0.899741       -24.4832
 158   2.0000      -0.894012       -24.3273
 159   2.0000      -0.889774       -24.2120
 160   2.0000      -0.878460       -23.9041
 161   2.0000      -0.877516       -23.8784
 162   2.0000      -0.876897       -23.8616
 163   2.0000      -0.868560       -23.6347
 164   2.0000      -0.865517       -23.5519
 165   2.0000      -0.859715       -23.3940
 166   2.0000      -0.851675       -23.1753
 167   2.0000      -0.842122       -22.9153
 168   2.0000      -0.836430       -22.7604
 169   2.0000      -0.833138       -22.6708
 170   2.0000      -0.826779       -22.4978
 171   2.0000      -0.821771       -22.3615
 172   2.0000      -0.819151       -22.2902
 173   2.0000      -0.799472       -21.7547
 174   2.0000      -0.795031       -21.6339
 175   2.0000      -0.792581       -21.5672
 176   2.0000      -0.775188       -21.0939
 177   2.0000      -0.767264       -20.8783
 178   2.0000      -0.760356       -20.6903
 179   2.0000      -0.756896       -20.5962
 180   2.0000      -0.748136       -20.3578
 181   2.0000      -0.731117       -19.8947
 182   2.0000      -0.728445       -19.8220
 183   2.0000      -0.716790       -19.5049
 184   2.0000      -0.710590       -19.3361
 185   2.0000      -0.705506       -19.1978
 186   2.0000      -0.699886       -19.0449
 187   2.0000      -0.697112       -18.9694
 188   2.0000      -0.692566       -18.8457
 189   2.0000      -0.690903       -18.8004
 190   2.0000      -0.681358       -18.5407
 191   2.0000      -0.681152       -18.5351
 192   2.0000      -0.672401       -18.2970
 193   2.0000      -0.662127       -18.0174
 194   2.0000      -0.659980       -17.9590
 195   2.0000      -0.656161       -17.8551
 196   2.0000      -0.650566       -17.7028
 197   2.0000      -0.649881       -17.6842
 198   2.0000      -0.648102       -17.6358
 199   2.0000      -0.639921       -17.4131
 200   2.0000      -0.635268       -17.2865
 201   2.0000      -0.629875       -17.1398
 202   2.0000      -0.626244       -17.0410
 203   2.0000      -0.624578       -16.9956
 204   2.0000      -0.621643       -16.9158
 205   2.0000      -0.617135       -16.7931
 206   2.0000      -0.614282       -16.7155
 207   2.0000      -0.611251       -16.6330
 208   2.0000      -0.604549       -16.4506
 209   2.0000      -0.596091       -16.2205
 210   2.0000      -0.591686       -16.1006
 211   2.0000      -0.589536       -16.0421
 212   2.0000      -0.586407       -15.9570
 213   2.0000      -0.580653       -15.8004
 214   2.0000      -0.576376       -15.6840
 215   2.0000      -0.569472       -15.4961
 216   2.0000      -0.565363       -15.3843
 217   2.0000      -0.559041       -15.2123
 218   2.0000      -0.555193       -15.1076
 219   2.0000      -0.549997       -14.9662
 220   2.0000      -0.546717       -14.8769
 221   2.0000      -0.544463       -14.8156
 222   2.0000      -0.542929       -14.7739
 223   2.0000      -0.540682       -14.7127
 224   2.0000      -0.537685       -14.6311
 225   2.0000      -0.534454       -14.5432
 226   2.0000      -0.532338       -14.4856
 227   2.0000      -0.530274       -14.4295
 228   2.0000      -0.529457       -14.4072
 229   2.0000      -0.527809       -14.3624
 230   2.0000      -0.523950       -14.2574
 231   2.0000      -0.518469       -14.1083
 232   2.0000      -0.517335       -14.0774
 233   2.0000      -0.515948       -14.0397
 234   2.0000      -0.515135       -14.0175
 235   2.0000      -0.511727       -13.9248
 236   2.0000      -0.510631       -13.8950
 237   2.0000      -0.509636       -13.8679
 238   2.0000      -0.505304       -13.7500
 239   2.0000      -0.501830       -13.6555
 240   2.0000      -0.499479       -13.5915
 241   2.0000      -0.499353       -13.5881
 242   2.0000      -0.498872       -13.5750
 243   2.0000      -0.496358       -13.5066
 244   2.0000      -0.492604       -13.4044
 245   2.0000      -0.491887       -13.3849
 246   2.0000      -0.488801       -13.3009
 247   2.0000      -0.487631       -13.2691
 248   2.0000      -0.485309       -13.2059
 249   2.0000      -0.484761       -13.1910
 250   2.0000      -0.482956       -13.1419
 251   2.0000      -0.479985       -13.0611
 252   2.0000      -0.477699       -12.9989
 253   2.0000      -0.475028       -12.9262
 254   2.0000      -0.470672       -12.8076
 255   2.0000      -0.467319       -12.7164
 256   2.0000      -0.464129       -12.6296
 257   2.0000      -0.461816       -12.5667
 258   2.0000      -0.461770       -12.5654
 259   2.0000      -0.460534       -12.5318
 260   2.0000      -0.455041       -12.3823
 261   2.0000      -0.452477       -12.3125
 262   2.0000      -0.451599       -12.2886
 263   2.0000      -0.451117       -12.2755
 264   2.0000      -0.450316       -12.2537
 265   2.0000      -0.450101       -12.2479
 266   2.0000      -0.447758       -12.1841
 267   2.0000      -0.445002       -12.1091
 268   2.0000      -0.443499       -12.0682
 269   2.0000      -0.442540       -12.0421
 270   2.0000      -0.441914       -12.0251
 271   2.0000      -0.439592       -11.9619
 272   2.0000      -0.438974       -11.9451
 273   2.0000      -0.438109       -11.9216
 274   2.0000      -0.434499       -11.8233
 275   2.0000      -0.432465       -11.7680
 276   2.0000      -0.431406       -11.7392
 277   2.0000      -0.429666       -11.6918
 278   2.0000      -0.428231       -11.6528
 279   2.0000      -0.425983       -11.5916
 280   2.0000      -0.425092       -11.5673
 281   2.0000      -0.420051       -11.4302
 282   2.0000      -0.419667       -11.4197
 283   2.0000      -0.416095       -11.3225
 284   2.0000      -0.413794       -11.2599
 285   2.0000      -0.412488       -11.2244
 286   2.0000      -0.410208       -11.1623
 287   2.0000      -0.407004       -11.0751
 288   2.0000      -0.400207       -10.8902
 289   2.0000      -0.396506       -10.7895
 290   2.0000      -0.393858       -10.7174
 291   2.0000      -0.391310       -10.6481
 292   2.0000      -0.386288       -10.5114
 293   2.0000      -0.383226       -10.4281
 294   2.0000      -0.379914       -10.3380
 295   2.0000      -0.378068       -10.2878
 296   2.0000      -0.377738       -10.2788
 297   2.0000      -0.377401       -10.2696
 298   2.0000      -0.372055       -10.1241
 299   2.0000      -0.369160       -10.0453
 300   2.0000      -0.363357        -9.8875
 301   2.0000      -0.360300        -9.8043
 302   2.0000      -0.351615        -9.5679
 303   2.0000      -0.349498        -9.5103
 304   2.0000      -0.344668        -9.3789
 305   2.0000      -0.340662        -9.2699
 306   2.0000      -0.337810        -9.1923
 307   2.0000      -0.330022        -8.9803
 308   2.0000      -0.324894        -8.8408
 309   2.0000      -0.322511        -8.7760
 310   2.0000      -0.319096        -8.6830
 311   2.0000      -0.311917        -8.4877
 312   2.0000      -0.307163        -8.3583
 313   2.0000      -0.297308        -8.0902
 314   2.0000      -0.292429        -7.9574
 315   2.0000      -0.286051        -7.7838
 316   2.0000      -0.272807        -7.4234
 317   2.0000      -0.263893        -7.1809
 318   2.0000      -0.231147        -6.2898
 319   0.0000      -0.116340        -3.1658
 320   0.0000      -0.088701        -2.4137
 321   0.0000      -0.066577        -1.8117
 322   0.0000      -0.059338        -1.6147
 323   0.0000      -0.047767        -1.2998

MULLIKEN ATOMIC CHARGES
-----------------------
   0 C :    0.300964
   1 C :   -0.345987
   2 C :   -0.188310
   3 N :    0.152671
   4 C :   -0.194134
   5 N :    0.162563
   6 C :    0.018965
   7 C :   -0.020137
   8 C :   -0.068273
   9 C :    0.117905
  10 C :   -0.090254
  11 C :   -0.021455
  12 S :    0.188335
  13 C :   -0.122586
  14 C :    0.038749
  15 Br:    0.027226
  16 C :    0.129908
  17 O :   -0.136464
  18 C :   -0.091729
  19 C :   -0.045967
  20 C :    0.046970
  21 C :   -0.041451
  22 S :    0.150894
  23 C :   -0.145861
  24 C :    0.127184
  25 C :   -0.117526
  26 C :    0.010307
  27 C :    0.045451
  28 C :   -0.107502
  29 C :    0.004157
  30 C :    0.028028
  31 C :    0.108776
  32 C :    0.083757
  33 C :   -0.115988
  34 S :    0.138505
  35 C :   -0.154128
  36 C :   -0.023544
  37 C :    0.051069
  38 C :   -0.054809
  39 S :    0.146506
  40 C :   -0.174285
  41 C :    0.161048
  42 C :   -0.031862
  43 N :    0.255920
  44 O :   -0.255327
  45 O :   -0.253939
  46 C :    0.029871
  47 C :   -0.014944
  48 C :    0.039099
  49 C :    0.036126
  50 C :   -0.049374
  51 S :    0.155149
  52 C :   -0.052368
  53 C :    0.040928
  54 C :    0.044924
  55 C :   -0.020809
  56 S :    0.120604
  57 C :    0.003185
  58 C :    0.021959
  59 C :   -0.123286
  60 C :    0.284347
  61 C :   -0.343866
  62 C :   -0.179457
  63 N :    0.141738
  64 C :   -0.216846
  65 N :    0.161828
  66 C :    0.007234
  67 C :   -0.002353
  68 C :    0.137906
  69 O :   -0.147899
  70 C :   -0.079119
  71 C :    0.117332
  72 C :   -0.087109
  73 C :   -0.029029
  74 S :    0.180959
  75 C :   -0.124341
  76 C :    0.037427
  77 Br:    0.018186
  78 H :   -0.007604
  79 H :   -0.004305
  80 H :   -0.001767
  81 H :    0.026466
  82 H :    0.030042
  83 H :    0.000330
  84 H :    0.007351
  85 H :    0.006902
  86 H :    0.027007
  87 H :    0.030514
  88 H :    0.007425
  89 H :    0.014004
  90 H :    0.011211
  91 H :    0.035768
  92 H :    0.025002
  93 H :    0.020245
  94 H :   -0.007328
  95 H :   -0.017218
  96 H :   -0.003079
  97 H :   -0.005737
  98 H :   -0.003201
  99 H :   -0.006454
 100 H :   -0.001968
 101 H :    0.005097
 102 H :    0.009877
 103 H :    0.021052
 104 H :   -0.011768
 105 H :   -0.005610
 106 H :   -0.004593
Sum of atomic charges:   -0.0000000

LOEWDIN ATOMIC CHARGES
----------------------
   0 C :    0.076732
   1 C :   -0.139687
   2 C :   -0.018466
   3 N :   -0.051069
   4 C :   -0.021923
   5 N :   -0.047534
   6 C :   -0.022618
   7 C :   -0.051070
   8 C :    0.022724
   9 C :   -0.031154
  10 C :   -0.143266
  11 C :   -0.008823
  12 S :    0.434453
  13 C :   -0.269924
  14 C :   -0.070317
  15 Br:    0.139754
  16 C :    0.080904
  17 O :   -0.133891
  18 C :   -0.096194
  19 C :    0.078837
  20 C :   -0.077882
  21 C :   -0.115002
  22 S :    0.443711
  23 C :   -0.178865
  24 C :   -0.035179
  25 C :   -0.017761
  26 C :   -0.032915
  27 C :   -0.048557
  28 C :   -0.016047
  29 C :   -0.033377
  30 C :   -0.052604
  31 C :   -0.040026
  32 C :   -0.064755
  33 C :   -0.161463
  34 S :    0.424737
  35 C :   -0.176046
  36 C :    0.002928
  37 C :   -0.049615
  38 C :   -0.155926
  39 S :    0.448777
  40 C :   -0.150194
  41 C :   -0.078590
  42 C :   -0.046828
  43 N :    0.274974
  44 O :   -0.224886
  45 O :   -0.221638
  46 C :   -0.072350
  47 C :   -0.137002
  48 C :   -0.016132
  49 C :   -0.034673
  50 C :   -0.162453
  51 S :    0.456625
  52 C :   -0.174307
  53 C :   -0.009488
  54 C :   -0.025758
  55 C :   -0.103979
  56 S :    0.412250
  57 C :   -0.059483
  58 C :    0.051033
  59 C :   -0.097803
  60 C :    0.068778
  61 C :   -0.149592
  62 C :   -0.019874
  63 N :   -0.060528
  64 C :   -0.024507
  65 N :   -0.059002
  66 C :   -0.016520
  67 C :   -0.051006
  68 C :    0.079080
  69 O :   -0.148177
  70 C :    0.020108
  71 C :   -0.035360
  72 C :   -0.144387
  73 C :   -0.015253
  74 S :    0.428440
  75 C :   -0.274093
  76 C :   -0.070202
  77 Br:    0.132308
  78 H :    0.041716
  79 H :    0.041496
  80 H :    0.039463
  81 H :    0.043450
  82 H :    0.029011
  83 H :    0.027294
  84 H :    0.027935
  85 H :    0.025099
  86 H :    0.029102
  87 H :    0.024695
  88 H :    0.029807
  89 H :    0.028398
  90 H :    0.025956
  91 H :    0.030324
  92 H :    0.023037
  93 H :    0.022718
  94 H :    0.033317
  95 H :    0.026462
  96 H :    0.037945
  97 H :    0.037325
  98 H :    0.036838
  99 H :    0.034502
 100 H :    0.036923
 101 H :    0.041437
 102 H :    0.038731
 103 H :    0.037013
 104 H :    0.040512
 105 H :    0.040105
 106 H :    0.038254

  Mayer bond orders larger than 0.100000
B(  0-C ,  1-C ) :   1.6480 B(  0-C ,  6-C ) :   1.0154 B(  0-C , 18-C ) :   1.0375
B(  1-C ,  2-C ) :   1.1388 B(  1-C ,  4-C ) :   1.1500 B(  2-C ,  3-N ) :   2.9712
B(  4-C ,  5-N ) :   2.9726 B(  6-C ,  7-C ) :   1.2690 B(  6-C , 11-C ) :   1.4034
B(  7-C ,  8-C ) :   1.4243 B(  7-C , 16-C ) :   0.9437 B(  8-C ,  9-C ) :   1.2484
B(  8-C , 78-H ) :   1.0168 B(  9-C , 10-C ) :   1.2997 B(  9-C , 14-C ) :   1.1644
B( 10-C , 11-C ) :   1.3368 B( 10-C , 12-S ) :   1.0860 B( 11-C , 79-H ) :   0.9800
B( 12-S , 13-C ) :   1.0868 B( 13-C , 14-C ) :   1.6158 B( 13-C , 15-Br) :   1.0206
B( 14-C , 80-H ) :   1.0009 B( 16-C , 17-O ) :   2.2399 B( 16-C , 18-C ) :   0.9230
B( 18-C , 19-C ) :   1.6939 B( 19-C , 20-C ) :   1.0391 B( 19-C , 81-H ) :   0.9221
B( 20-C , 21-C ) :   1.5772 B( 20-C , 24-C ) :   1.1515 B( 21-C , 22-S ) :   1.1610
B( 21-C , 82-H ) :   0.9601 B( 22-S , 23-C ) :   1.0683 B( 23-C , 24-C ) :   1.3724
B( 23-C , 35-C ) :   1.3855 B( 24-C , 25-C ) :   1.2692 B( 25-C , 26-C ) :   1.0616
B( 25-C , 28-C ) :   1.5119 B( 26-C , 27-C ) :   1.1107 B( 26-C , 83-H ) :   0.9047
B( 26-C , 84-H ) :   0.9152 B( 27-C , 85-H ) :   0.9535 B( 27-C , 86-H ) :   0.9659
B( 27-C , 87-H ) :   0.9548 B( 28-C , 29-C ) :   1.0532 B( 28-C , 31-C ) :   1.2668
B( 29-C , 30-C ) :   1.1081 B( 29-C , 88-H ) :   0.9111 B( 29-C , 89-H ) :   0.9257
B( 30-C , 90-H ) :   0.9541 B( 30-C , 91-H ) :   0.9657 B( 30-C , 92-H ) :   0.9539
B( 31-C , 32-C ) :   1.1384 B( 31-C , 35-C ) :   1.3727 B( 32-C , 33-C ) :   1.5958
B( 32-C , 36-C ) :   1.0410 B( 33-C , 34-S ) :   1.1285 B( 33-C , 93-H ) :   0.9596
B( 34-S , 35-C ) :   1.0768 B( 36-C , 37-C ) :   1.7632 B( 36-C , 94-H ) :   0.9571
B( 37-C , 38-C ) :   1.0743 B( 37-C , 95-H ) :   0.9668 B( 38-C , 39-S ) :   1.0951
B( 38-C , 42-C ) :   1.4957 B( 39-S , 40-C ) :   1.1348 B( 40-C , 41-C ) :   1.3856
B( 40-C , 46-C ) :   1.1941 B( 41-C , 42-C ) :   1.2579 B( 41-C , 43-N ) :   0.9642
B( 42-C , 96-H ) :   0.9912 B( 43-N , 44-O ) :   1.4604 B( 43-N , 45-O ) :   1.5160
B( 44-O , 45-O ) :   0.2438 B( 46-C , 47-C ) :   1.5835 B( 46-C , 97-H ) :   0.9370
B( 47-C , 48-C ) :   1.1370 B( 47-C , 51-S ) :   1.0721 B( 48-C , 49-C ) :   1.6025
B( 48-C , 98-H ) :   0.9985 B( 49-C , 50-C ) :   1.1705 B( 49-C , 99-H ) :   0.9935
B( 50-C , 51-S ) :   1.0886 B( 50-C , 52-C ) :   1.4827 B( 52-C , 53-C ) :   1.2017
B( 52-C , 56-S ) :   1.0553 B( 53-C , 54-C ) :   1.5647 B( 53-C ,100-H ) :   0.9949
B( 54-C , 55-C ) :   1.1637 B( 54-C ,101-H ) :   1.0001 B( 55-C , 56-S ) :   1.0780
B( 55-C , 57-C ) :   1.5273 B( 57-C , 58-C ) :   1.1965 B( 57-C ,102-H ) :   0.9610
B( 58-C , 59-C ) :   1.5622 B( 58-C ,103-H ) :   0.9386 B( 59-C , 60-C ) :   1.0748
B( 59-C , 68-C ) :   0.9567 B( 60-C , 61-C ) :   1.6098 B( 60-C , 66-C ) :   1.0055
B( 61-C , 62-C ) :   1.1330 B( 61-C , 64-C ) :   1.1650 B( 62-C , 63-N ) :   2.9790
B( 64-C , 65-N ) :   3.0115 B( 66-C , 67-C ) :   1.2776 B( 66-C , 73-C ) :   1.4178
B( 67-C , 68-C ) :   0.9180 B( 67-C , 70-C ) :   1.4306 B( 68-C , 69-O ) :   2.2519
B( 70-C , 71-C ) :   1.2427 B( 70-C ,104-H ) :   1.0177 B( 71-C , 72-C ) :   1.3161
B( 71-C , 76-C ) :   1.1605 B( 72-C , 73-C ) :   1.3196 B( 72-C , 74-S ) :   1.0833
B( 73-C ,105-H ) :   0.9829 B( 74-S , 75-C ) :   1.0855 B( 75-C , 76-C ) :   1.6205
B( 75-C , 77-Br) :   1.0160 B( 76-C ,106-H ) :   1.0011

-----------------------------------------------------------------------------
         ABSORPTION SPECTRUM VIA TRANSITION ELECTRIC DIPOLE MOMENTS
-----------------------------------------------------------------------------
State   Energy  Wavelength   fosc         T2         TX        TY        TZ
        (cm-1)    (nm)                  (au**2)     (au)      (au)      (au)
-----------------------------------------------------------------------------
   0   11397.3    877.4   1.275746418  36.85010  -1.89176  -5.44164  -1.91308
   1   20001.1    500.0   0.269559745   4.43688   1.36270  -1.51663   0.52894
   2   21093.5    474.1   0.271549073   4.23815   1.71897  -0.91899   0.66239
   3   22510.6    444.2   0.323254095   4.72752  -1.65239   1.39007   0.25463
   4   23039.6    434.0   0.051832657   0.74064   0.71867  -0.45355   0.13582
   5   23816.5    419.9   0.032539574   0.44979   0.14381   0.16050   0.63510
   6   24466.7    408.7   0.023578965   0.31727  -0.53930   0.13924   0.08390
   7   25655.4    389.8   0.004006860   0.05142  -0.17846   0.02978  -0.13667
   8   25758.7    388.2   0.371380628   4.74647  -1.76058   1.27392   0.15479
   9   26127.0    382.7   0.003526347   0.04443  -0.17098   0.01300  -0.12260
  10   26472.3    377.8   0.066312818   0.82467   0.24145  -0.61895  -0.61909
  11   26584.1    376.2   0.003791456   0.04695  -0.06643   0.20107  -0.04592
  12   26849.3    372.4   0.062017968   0.76043   0.37134  -0.55050  -0.56523
  13   27535.6    363.2   0.314756000   3.76318   1.41372   0.15454   1.31935
  14   27907.1    358.3   0.008253644   0.09737  -0.22018   0.06632   0.21092
  15   28657.7    348.9   0.420413276   4.82959  -0.04435   1.75549  -1.32131
  16   29436.9    339.7   0.023861845   0.26686  -0.26750   0.41144  -0.16132
  17   29886.5    334.6   0.111467098   1.22785   0.88667  -0.54088   0.38616
  18   30521.2    327.6   0.088418004   0.95371  -0.45569   0.83538   0.21955
  19   30544.4    327.4   0.041994887   0.45263   0.28180   0.35460  -0.49747
  20   31041.2    322.2   0.064003882   0.67880  -0.39036   0.64375  -0.33466
  21   31196.3    320.6   0.016337828   0.17241   0.18346  -0.19334  -0.31839
  22   31539.3    317.1   0.070968951   0.74078   0.71748  -0.42630  -0.21044
  23   32191.5    310.6   0.206160521   2.10834  -0.55566   0.67733   1.15793
  24   32239.6    310.2   0.249657628   2.54935   1.02077  -1.07458  -0.59385
  25   32734.3    305.5   0.455159551   4.57759  -1.92639   0.04056  -0.93003
  26   32961.7    303.4   0.026879107   0.26846   0.33220  -0.38090  -0.11407
  27   33396.6    299.4   0.029391016   0.28973   0.05954  -0.01897  -0.53462
  28   33431.9    299.1   0.034324640   0.33800   0.16425  -0.05523   0.55496
  29   33521.2    298.3   0.043892572   0.43107  -0.15925   0.00417  -0.63694
  30   33977.8    294.3   0.563303111   5.45786  -0.18017  -1.69949   1.59284
  31   34240.8    292.0   0.053032232   0.50988   0.35968   0.30766  -0.53466
  32   34554.3    289.4   0.002946189   0.02807  -0.02785   0.11093   0.12242
  33   34712.3    288.1   0.325118531   3.08343   1.42613  -0.95700  -0.36570
  34   34959.8    286.0   0.026595709   0.25045  -0.01687   0.48886   0.10574
  35   35433.9    282.2   0.043497309   0.40413  -0.53549   0.24253   0.24198
  36   35698.7    280.1   0.093756219   0.86462  -0.89709  -0.19186   0.15179
  37   36018.1    277.6   0.082400031   0.75315   0.13880  -0.63868  -0.57094
  38   36875.3    271.2   0.092521023   0.82600   0.76841  -0.46727  -0.13113
  39   37010.0    270.2   0.006087241   0.05415   0.11357  -0.19591   0.05354
  40   37065.0    269.8   0.017956700   0.15949   0.39312   0.00807   0.06987
  41   37203.3    268.8   0.095997433   0.84948  -0.69484   0.60485   0.02890
  42   37386.3    267.5   0.000416916   0.00367  -0.00980  -0.05732   0.01701
  43   37527.1    266.5   0.033947483   0.29781   0.38285  -0.04958  -0.38571
  44   37933.5    263.6   0.044056505   0.38235  -0.20365   0.48731  -0.32156
  45   38049.8    262.8   0.230367903   1.99317  -1.39886  -0.04944  -0.18420
  46   38271.9    261.3   0.000209324   0.00180  -0.01166   0.01600   0.03753
  47   38563.8    259.3   0.313497881   2.67627  -0.95209   1.15355  -0.66267
  48   38822.9    257.6   0.011822183   0.10025   0.18619  -0.05365  -0.25041
  49   38897.7    257.1   0.084092433   0.71172   0.79153   0.16617   0.23996
  50   39233.7    254.9   0.110104448   0.92389  -0.89321  -0.05353  -0.35100
  51   39456.7    253.4   0.090950482   0.75886  -0.11263  -0.86002  -0.08083
  52   39748.4    251.6   0.076773302   0.63587   0.68196  -0.34858  -0.22202
  53   39838.8    251.0   0.052084214   0.43040   0.09338   0.11955  -0.63827
  54   40227.1    248.6   0.125576986   1.02770  -0.54471   0.67573   0.52381

FINAL SINGLE POINT ENERGY    -10809.060252766783

DIPOLE MOMENT
-------------
                                X             Y             Z
Electronic contribution:     73.21122    -205.05914      13.41220
Nuclear contribution   :    -74.15212     207.48215     -11.90382
                        -----------------------------------------
Total Dipole Moment    :     -0.94091       2.42302       1.50838
                        -----------------------------------------
Magnitude (a.u.)       :      3.00525
Magnitude (Debye)      :      7.63874

Rotational constants in cm-1:     0.000410     0.000201     0.000144
Rotational constants in MHz :    12.300447     6.026335     4.314487

                             ****ORCA TERMINATED NORMALLY****
TOTAL RUN TIME: 0 days 0 hours 13 minutes 45 seconds 372 msec
