                         Program Version 4.2.0 -  RELEASE  -
|  1> # ORCA input file
|  2> # SCF done       -184.782208278084          0.000473172011
|  3> ! CAM-B3LYP def2-SVP def2/J RIJCOSX Grid4 TightSCF
|  4> %maxcore 5000
|  5> %tddft
|  6>     Mode sTDDFT
|  7>     Ethresh 5.0
|  8>     maxcore 5000
|  9> end
| 10>
| 11> %pal
| 12>   nprocs 6
| 13>   end
| 14> * xyz 0 1
| 15>    C       -4.56730        -5.17001         1.60258
| 16>    C       -5.67606        -5.55052         2.31146
| 17>    C       -5.66213        -6.60206         3.25362
| 18>    N       -5.69734        -7.41204         4.06616
| 19>    C       -6.94191        -4.93187         2.29623
| 20>    N       -8.00680        -4.50412         2.36080
| 21>    C       -3.27567        -5.83903         1.67278
| 22>    C       -2.29673        -4.99362         1.09920
| 23>    C       -0.96896        -5.34105         1.04545
| 24>    C       -0.60022        -6.59594         1.54384
| 25>    C       -1.59867        -7.45409         2.06015
| 26>    C       -2.93608        -7.09178         2.14487
| 27>    S       -0.93730        -8.97523         2.57569
| 28>    C        0.65825        -8.42745         2.14143
| 29>    C        0.69381        -7.18278         1.61036
| 30>   Br        2.12878        -9.54259         2.47232
| 31>    C       -2.95539        -3.77377         0.57814
| 32>    O       -2.39610        -2.79105         0.13310
| 33>    C       -4.40292        -3.98837         0.77105
| 34>    C       -5.42942        -3.19085         0.35915
| 35>    C       -5.43453        -2.01962        -0.44845
| 36>    C       -4.74904        -1.72400        -1.62054
| 37>    C       -3.74716        -2.50407        -2.38016
| 38>    N       -5.24570        -0.55446        -2.09462
| 39>    C       -6.22158        -0.05610        -1.27703
| 40>    C       -6.87786         1.24571        -1.55789
| 41>    C       -6.38033        -0.94246        -0.23343
| 42>    C       -7.21517        -0.81680         0.92649
| 43>    C       -6.88243        -1.42678         2.08328
| 44>    C       -7.64197        -1.57727         3.26968
| 45>    S       -9.31565        -1.14206         3.36924
| 46>    C       -9.46889        -1.93096         4.89283
| 47>    C       -8.32219        -2.52224         5.30877
| 48>    C       -8.18493        -3.28933         6.58027
| 49>    C       -7.23998        -2.30241         4.39846
| 50>    C       -5.92505        -2.81898         4.60008
| 51>    C       -4.78495        -2.22619         4.14224
| 52>    C       -3.48092        -2.76546         4.15496
| 53>    C       -3.10270        -4.02955         4.52706
| 54>    C       -1.77361        -4.45370         4.45463
| 55>    C       -1.30702        -5.68595         4.85246
| 56>    C        0.03058        -6.13580         4.79856
| 57>    C        0.21191        -7.40456         5.26557
| 58>    C       -0.97646        -8.02017         5.71215
| 59>    S       -2.33385        -6.93899         5.53028
| 60>    C       -1.11506        -9.29945         6.23058
| 61>    C       -0.12065       -10.28990         6.34735
| 62>    C       -0.56583       -11.44528         6.92371
| 63>    C       -1.92660       -11.41516         7.29544
| 64>    S       -2.63714        -9.88079         6.86410
| 65>    C       -2.61153       -12.41443         7.96546
| 66>    C       -3.94498       -12.32692         8.33808
| 67>    C       -4.66386       -13.21809         9.11189
| 68>    C       -4.24483       -14.28909         9.96892
| 69>    C       -3.02985       -14.42312        10.60625
| 70>    C       -2.70264       -15.49538        11.45651
| 71>    N       -2.36961       -16.35743        12.13982
| 72>    C       -2.00792       -13.45503        10.59027
| 73>    N       -1.15822       -12.68466        10.66347
| 74>    C       -5.42200       -15.11402        10.24868
| 75>    C       -6.56638       -14.45297         9.73871
| 76>    C       -6.13942       -13.21241         9.05236
| 77>    O       -6.85005       -12.38382         8.52331
| 78>    C       -7.83556       -14.95306         9.88751
| 79>    C       -7.98282       -16.17103        10.56205
| 80>    C       -6.83311       -16.83064        11.05188
| 81>    C       -5.54755       -16.31966        10.90896
| 82>    S       -7.24089       -18.32363        11.84395
| 83>    C       -8.92948       -18.04010        11.51439
| 84>    C       -9.17713       -16.89064        10.84449
| 85>   Br      -10.20661       -19.29022        12.08731
| 86>    H       -0.23583        -4.67313         0.62056
| 87>    H       -3.65971        -7.77555         2.55614
| 88>    H        1.59447        -6.69508         1.28456
| 89>    H       -6.42083        -3.47544         0.69544
| 90>    H       -3.99195        -3.56453        -2.35848
| 91>    H       -2.76473        -2.38931        -1.91662
| 92>    H       -3.69684        -2.16766        -3.41353
| 93>    H       -4.92998        -0.10629        -2.94067
| 94>    H       -7.11752         1.33431        -2.61701
| 95>    H       -6.22438         2.07651        -1.28723
| 96>    H       -7.79431         1.33409        -0.98224
| 97>    H       -8.10563        -0.20739         0.85653
| 98>    H       -5.92243        -1.92308         2.11515
| 99>    H      -10.41820        -1.91670         5.39128
|100>    H       -9.11605        -3.26644         7.13985
|101>    H       -7.39118        -2.87004         7.19713
|102>    H       -7.93551        -4.32829         6.36517
|103>    H       -5.85620        -3.73551         5.17155
|104>    H       -4.86402        -1.22441         3.74055
|105>    H       -2.69755        -2.10843         3.79613
|106>    H       -3.83344        -4.73586         4.89885
|107>    H       -1.04145        -3.75971         4.06043
|108>    H        0.81826        -5.50745         4.42122
|109>    H        1.16315        -7.90406         5.30837
|110>    H        0.88670       -10.13690         6.00404
|111>    H        0.04683       -12.30925         7.10843
|112>    H       -2.04767       -13.30703         8.19530
|113>    H       -4.52859       -11.50897         7.92556
|114>    H       -8.69035       -14.42278         9.49785
|115>    H       -4.70169       -16.86135        11.29848
|116>    H      -10.15975       -16.56056        10.56053
|117> *
|118>
|119>                          ****END OF INPUT****

CARTESIAN COORDINATES (ANGSTROEM)
---------------------------------
  C     -4.567300   -5.170010    1.602580
  C     -5.676060   -5.550520    2.311460
  C     -5.662130   -6.602060    3.253620
  N     -5.697340   -7.412040    4.066160
  C     -6.941910   -4.931870    2.296230
  N     -8.006800   -4.504120    2.360800
  C     -3.275670   -5.839030    1.672780
  C     -2.296730   -4.993620    1.099200
  C     -0.968960   -5.341050    1.045450
  C     -0.600220   -6.595940    1.543840
  C     -1.598670   -7.454090    2.060150
  C     -2.936080   -7.091780    2.144870
  S     -0.937300   -8.975230    2.575690
  C      0.658250   -8.427450    2.141430
  C      0.693810   -7.182780    1.610360
  Br     2.128780   -9.542590    2.472320
  C     -2.955390   -3.773770    0.578140
  O     -2.396100   -2.791050    0.133100
  C     -4.402920   -3.988370    0.771050
  C     -5.429420   -3.190850    0.359150
  C     -5.434530   -2.019620   -0.448450
  C     -4.749040   -1.724000   -1.620540
  C     -3.747160   -2.504070   -2.380160
  N     -5.245700   -0.554460   -2.094620
  C     -6.221580   -0.056100   -1.277030
  C     -6.877860    1.245710   -1.557890
  C     -6.380330   -0.942460   -0.233430
  C     -7.215170   -0.816800    0.926490
  C     -6.882430   -1.426780    2.083280
  C     -7.641970   -1.577270    3.269680
  S     -9.315650   -1.142060    3.369240
  C     -9.468890   -1.930960    4.892830
  C     -8.322190   -2.522240    5.308770
  C     -8.184930   -3.289330    6.580270
  C     -7.239980   -2.302410    4.398460
  C     -5.925050   -2.818980    4.600080
  C     -4.784950   -2.226190    4.142240
  C     -3.480920   -2.765460    4.154960
  C     -3.102700   -4.029550    4.527060
  C     -1.773610   -4.453700    4.454630
  C     -1.307020   -5.685950    4.852460
  C      0.030580   -6.135800    4.798560
  C      0.211910   -7.404560    5.265570
  C     -0.976460   -8.020170    5.712150
  S     -2.333850   -6.938990    5.530280
  C     -1.115060   -9.299450    6.230580
  C     -0.120650  -10.289900    6.347350
  C     -0.565830  -11.445280    6.923710
  C     -1.926600  -11.415160    7.295440
  S     -2.637140   -9.880790    6.864100
  C     -2.611530  -12.414430    7.965460
  C     -3.944980  -12.326920    8.338080
  C     -4.663860  -13.218090    9.111890
  C     -4.244830  -14.289090    9.968920
  C     -3.029850  -14.423120   10.606250
  C     -2.702640  -15.495380   11.456510
  N     -2.369610  -16.357430   12.139820
  C     -2.007920  -13.455030   10.590270
  N     -1.158220  -12.684660   10.663470
  C     -5.422000  -15.114020   10.248680
  C     -6.566380  -14.452970    9.738710
  C     -6.139420  -13.212410    9.052360
  O     -6.850050  -12.383820    8.523310
  C     -7.835560  -14.953060    9.887510
  C     -7.982820  -16.171030   10.562050
  C     -6.833110  -16.830640   11.051880
  C     -5.547550  -16.319660   10.908960
  S     -7.240890  -18.323630   11.843950
  C     -8.929480  -18.040100   11.514390
  C     -9.177130  -16.890640   10.844490
  Br   -10.206610  -19.290220   12.087310
  H     -0.235830   -4.673130    0.620560
  H     -3.659710   -7.775550    2.556140
  H      1.594470   -6.695080    1.284560
  H     -6.420830   -3.475440    0.695440
  H     -3.991950   -3.564530   -2.358480
  H     -2.764730   -2.389310   -1.916620
  H     -3.696840   -2.167660   -3.413530
  H     -4.929980   -0.106290   -2.940670
  H     -7.117520    1.334310   -2.617010
  H     -6.224380    2.076510   -1.287230
  H     -7.794310    1.334090   -0.982240
  H     -8.105630   -0.207390    0.856530
  H     -5.922430   -1.923080    2.115150
  H    -10.418200   -1.916700    5.391280
  H     -9.116050   -3.266440    7.139850
  H     -7.391180   -2.870040    7.197130
  H     -7.935510   -4.328290    6.365170
  H     -5.856200   -3.735510    5.171550
  H     -4.864020   -1.224410    3.740550
  H     -2.697550   -2.108430    3.796130
  H     -3.833440   -4.735860    4.898850
  H     -1.041450   -3.759710    4.060430
  H      0.818260   -5.507450    4.421220
  H      1.163150   -7.904060    5.308370
  H      0.886700  -10.136900    6.004040
  H      0.046830  -12.309250    7.108430
  H     -2.047670  -13.307030    8.195300
  H     -4.528590  -11.508970    7.925560
  H     -8.690350  -14.422780    9.497850
  H     -4.701690  -16.861350   11.298480
  H    -10.159750  -16.560560   10.560530

 Total Charge           Charge          ....    0
 Multiplicity           Mult            ....    1
 Number of Electrons    NEL             ....  574
 Basis Dimension        Dim             .... 1205

ORBITAL ENERGIES
----------------

  NO   OCC          E(Eh)            E(eV)
   0   2.0000    -482.894430    -13140.2255
   1   2.0000    -482.871031    -13139.5888
   2   2.0000     -88.980401     -2421.2798
   3   2.0000     -88.958892     -2420.6945
   4   2.0000     -88.957866     -2420.6666
   5   2.0000     -88.951974     -2420.5063
   6   2.0000     -88.944621     -2420.3062
   7   2.0000     -62.571986     -1702.6703
   8   2.0000     -62.548761     -1702.0383
   9   2.0000     -56.405915     -1534.8830
  10   2.0000     -56.403252     -1534.8105
  11   2.0000     -56.403199     -1534.8091
  12   2.0000     -56.382693     -1534.2511
  13   2.0000     -56.380014     -1534.1782
  14   2.0000     -56.379969     -1534.1769
  15   2.0000     -19.216819      -522.9162
  16   2.0000     -19.186957      -522.1037
  17   2.0000     -14.474059      -393.8592
  18   2.0000     -14.414268      -392.2322
  19   2.0000     -14.414051      -392.2263
  20   2.0000     -14.391529      -391.6134
  21   2.0000     -14.388719      -391.5370
  22   2.0000     -10.367657      -282.1183
  23   2.0000     -10.363329      -282.0005
  24   2.0000     -10.341306      -281.4012
  25   2.0000     -10.339838      -281.3613
  26   2.0000     -10.339037      -281.3395
  27   2.0000     -10.337867      -281.3077
  28   2.0000     -10.329742      -281.0866
  29   2.0000     -10.327454      -281.0243
  30   2.0000     -10.319794      -280.8159
  31   2.0000     -10.318481      -280.7802
  32   2.0000     -10.317271      -280.7472
  33   2.0000     -10.316167      -280.7172
  34   2.0000     -10.315840      -280.7083
  35   2.0000     -10.315582      -280.7013
  36   2.0000     -10.314801      -280.6800
  37   2.0000     -10.314051      -280.6596
  38   2.0000     -10.312496      -280.6173
  39   2.0000     -10.310343      -280.5587
  40   2.0000     -10.307689      -280.4865
  41   2.0000     -10.306849      -280.4636
  42   2.0000     -10.306641      -280.4579
  43   2.0000     -10.305719      -280.4329
  44   2.0000     -10.303979      -280.3855
  45   2.0000     -10.302088      -280.3341
  46   2.0000     -10.300841      -280.3001
  47   2.0000     -10.298769      -280.2437
  48   2.0000     -10.296393      -280.1791
  49   2.0000     -10.295918      -280.1662
  50   2.0000     -10.295800      -280.1630
  51   2.0000     -10.295741      -280.1614
  52   2.0000     -10.293880      -280.1107
  53   2.0000     -10.292773      -280.0806
  54   2.0000     -10.291962      -280.0585
  55   2.0000     -10.290817      -280.0274
  56   2.0000     -10.288811      -279.9728
  57   2.0000     -10.287097      -279.9261
  58   2.0000     -10.286817      -279.9185
  59   2.0000     -10.286058      -279.8979
  60   2.0000     -10.285524      -279.8833
  61   2.0000     -10.285398      -279.8799
  62   2.0000     -10.283810      -279.8367
  63   2.0000     -10.282637      -279.8048
  64   2.0000     -10.280692      -279.7519
  65   2.0000     -10.280030      -279.7338
  66   2.0000     -10.279979      -279.7324
  67   2.0000     -10.278249      -279.6854
  68   2.0000     -10.277252      -279.6582
  69   2.0000     -10.276797      -279.6459
  70   2.0000     -10.273105      -279.5454
  71   2.0000     -10.272962      -279.5415
  72   2.0000     -10.272184      -279.5203
  73   2.0000     -10.270506      -279.4747
  74   2.0000     -10.270318      -279.4696
  75   2.0000     -10.269543      -279.4485
  76   2.0000     -10.269348      -279.4432
  77   2.0000     -10.264547      -279.3125
  78   2.0000     -10.261331      -279.2250
  79   2.0000      -8.801359      -239.4972
  80   2.0000      -8.778189      -238.8667
  81   2.0000      -8.075341      -219.7412
  82   2.0000      -8.054480      -219.1735
  83   2.0000      -8.053842      -219.1562
  84   2.0000      -8.048122      -219.0005
  85   2.0000      -8.040705      -218.7987
  86   2.0000      -6.637493      -180.6154
  87   2.0000      -6.623226      -180.2271
  88   2.0000      -6.622935      -180.2192
  89   2.0000      -6.614427      -179.9877
  90   2.0000      -6.599928      -179.5932
  91   2.0000      -6.599805      -179.5898
  92   2.0000      -6.045082      -164.4950
  93   2.0000      -6.040734      -164.3767
  94   2.0000      -6.036740      -164.2680
  95   2.0000      -6.024143      -163.9253
  96   2.0000      -6.023546      -163.9090
  97   2.0000      -6.020091      -163.8150
  98   2.0000      -6.019278      -163.7929
  99   2.0000      -6.017697      -163.7499
 100   2.0000      -6.015601      -163.6928
 101   2.0000      -6.015061      -163.6781
 102   2.0000      -6.013678      -163.6405
 103   2.0000      -6.009966      -163.5395
 104   2.0000      -6.009337      -163.5224
 105   2.0000      -6.005739      -163.4245
 106   2.0000      -6.002921      -163.3478
 107   2.0000      -2.753390       -74.9235
 108   2.0000      -2.749443       -74.8161
 109   2.0000      -2.749185       -74.8091
 110   2.0000      -2.737863       -74.5010
 111   2.0000      -2.737839       -74.5004
 112   2.0000      -2.730265       -74.2943
 113   2.0000      -2.726268       -74.1855
 114   2.0000      -2.726125       -74.1816
 115   2.0000      -2.714634       -73.8690
 116   2.0000      -2.714598       -73.8680
 117   2.0000      -1.130477       -30.7618
 118   2.0000      -1.101144       -29.9637
 119   2.0000      -1.091013       -29.6880
 120   2.0000      -1.025423       -27.9032
 121   2.0000      -1.014372       -27.6025
 122   2.0000      -1.005381       -27.3578
 123   2.0000      -1.001755       -27.2591
 124   2.0000      -0.993244       -27.0275
 125   2.0000      -0.990330       -26.9482
 126   2.0000      -0.990230       -26.9455
 127   2.0000      -0.982452       -26.7339
 128   2.0000      -0.978014       -26.6131
 129   2.0000      -0.969198       -26.3732
 130   2.0000      -0.965904       -26.2836
 131   2.0000      -0.946452       -25.7543
 132   2.0000      -0.927425       -25.2365
 133   2.0000      -0.924600       -25.1597
 134   2.0000      -0.922428       -25.1005
 135   2.0000      -0.911256       -24.7965
 136   2.0000      -0.902128       -24.5481
 137   2.0000      -0.899162       -24.4675
 138   2.0000      -0.889941       -24.2165
 139   2.0000      -0.888509       -24.1776
 140   2.0000      -0.886317       -24.1179
 141   2.0000      -0.882705       -24.0196
 142   2.0000      -0.871951       -23.7270
 143   2.0000      -0.867869       -23.6159
 144   2.0000      -0.865044       -23.5391
 145   2.0000      -0.855233       -23.2721
 146   2.0000      -0.851603       -23.1733
 147   2.0000      -0.845137       -22.9973
 148   2.0000      -0.832628       -22.6570
 149   2.0000      -0.831917       -22.6376
 150   2.0000      -0.830529       -22.5999
 151   2.0000      -0.825524       -22.4636
 152   2.0000      -0.821135       -22.3442
 153   2.0000      -0.809253       -22.0209
 154   2.0000      -0.800554       -21.7842
 155   2.0000      -0.781348       -21.2616
 156   2.0000      -0.775475       -21.1017
 157   2.0000      -0.761605       -20.7243
 158   2.0000      -0.759965       -20.6797
 159   2.0000      -0.749469       -20.3941
 160   2.0000      -0.737841       -20.0777
 161   2.0000      -0.735370       -20.0104
 162   2.0000      -0.727339       -19.7919
 163   2.0000      -0.716142       -19.4872
 164   2.0000      -0.710630       -19.3372
 165   2.0000      -0.700700       -19.0670
 166   2.0000      -0.691442       -18.8151
 167   2.0000      -0.687279       -18.7018
 168   2.0000      -0.686543       -18.6818
 169   2.0000      -0.678528       -18.4637
 170   2.0000      -0.666406       -18.1338
 171   2.0000      -0.662006       -18.0141
 172   2.0000      -0.655291       -17.8314
 173   2.0000      -0.651995       -17.7417
 174   2.0000      -0.648407       -17.6440
 175   2.0000      -0.642680       -17.4882
 176   2.0000      -0.641377       -17.4527
 177   2.0000      -0.633073       -17.2268
 178   2.0000      -0.625395       -17.0179
 179   2.0000      -0.623498       -16.9663
 180   2.0000      -0.620730       -16.8909
 181   2.0000      -0.612737       -16.6734
 182   2.0000      -0.611069       -16.6280
 183   2.0000      -0.606311       -16.4986
 184   2.0000      -0.601092       -16.3565
 185   2.0000      -0.600045       -16.3281
 186   2.0000      -0.593207       -16.1420
 187   2.0000      -0.583315       -15.8728
 188   2.0000      -0.579711       -15.7747
 189   2.0000      -0.575492       -15.6599
 190   2.0000      -0.573020       -15.5927
 191   2.0000      -0.570351       -15.5200
 192   2.0000      -0.563771       -15.3410
 193   2.0000      -0.552860       -15.0441
 194   2.0000      -0.552071       -15.0226
 195   2.0000      -0.548035       -14.9128
 196   2.0000      -0.546747       -14.8777
 197   2.0000      -0.542830       -14.7712
 198   2.0000      -0.535899       -14.5826
 199   2.0000      -0.532114       -14.4795
 200   2.0000      -0.528592       -14.3837
 201   2.0000      -0.525477       -14.2990
 202   2.0000      -0.524627       -14.2758
 203   2.0000      -0.522318       -14.2130
 204   2.0000      -0.521120       -14.1804
 205   2.0000      -0.520769       -14.1709
 206   2.0000      -0.517537       -14.0829
 207   2.0000      -0.515086       -14.0162
 208   2.0000      -0.510864       -13.9013
 209   2.0000      -0.510422       -13.8893
 210   2.0000      -0.506523       -13.7832
 211   2.0000      -0.503661       -13.7053
 212   2.0000      -0.502648       -13.6778
 213   2.0000      -0.500950       -13.6316
 214   2.0000      -0.498964       -13.5775
 215   2.0000      -0.497554       -13.5391
 216   2.0000      -0.496081       -13.4991
 217   2.0000      -0.494272       -13.4498
 218   2.0000      -0.492266       -13.3952
 219   2.0000      -0.489552       -13.3214
 220   2.0000      -0.487231       -13.2582
 221   2.0000      -0.485036       -13.1985
 222   2.0000      -0.481275       -13.0962
 223   2.0000      -0.476587       -12.9686
 224   2.0000      -0.476178       -12.9575
 225   2.0000      -0.475336       -12.9346
 226   2.0000      -0.472901       -12.8683
 227   2.0000      -0.471811       -12.8386
 228   2.0000      -0.468614       -12.7516
 229   2.0000      -0.467488       -12.7210
 230   2.0000      -0.463531       -12.6133
 231   2.0000      -0.462881       -12.5956
 232   2.0000      -0.461817       -12.5667
 233   2.0000      -0.458418       -12.4742
 234   2.0000      -0.453940       -12.3523
 235   2.0000      -0.452891       -12.3238
 236   2.0000      -0.449708       -12.2372
 237   2.0000      -0.448302       -12.1989
 238   2.0000      -0.445688       -12.1278
 239   2.0000      -0.443441       -12.0666
 240   2.0000      -0.442673       -12.0458
 241   2.0000      -0.441266       -12.0075
 242   2.0000      -0.439569       -11.9613
 243   2.0000      -0.439059       -11.9474
 244   2.0000      -0.436141       -11.8680
 245   2.0000      -0.430512       -11.7148
 246   2.0000      -0.427332       -11.6283
 247   2.0000      -0.426907       -11.6167
 248   2.0000      -0.425617       -11.5816
 249   2.0000      -0.424959       -11.5637
 250   2.0000      -0.423853       -11.5336
 251   2.0000      -0.421369       -11.4660
 252   2.0000      -0.420612       -11.4454
 253   2.0000      -0.418400       -11.3852
 254   2.0000      -0.414796       -11.2872
 255   2.0000      -0.409816       -11.1517
 256   2.0000      -0.407902       -11.0996
 257   2.0000      -0.405826       -11.0431
 258   2.0000      -0.402892       -10.9633
 259   2.0000      -0.400857       -10.9079
 260   2.0000      -0.397087       -10.8053
 261   2.0000      -0.393302       -10.7023
 262   2.0000      -0.387927       -10.5560
 263   2.0000      -0.386529       -10.5180
 264   2.0000      -0.383436       -10.4338
 265   2.0000      -0.382569       -10.4102
 266   2.0000      -0.377701       -10.2778
 267   2.0000      -0.370739       -10.0883
 268   2.0000      -0.363710        -9.8970
 269   2.0000      -0.360865        -9.8196
 270   2.0000      -0.354987        -9.6597
 271   2.0000      -0.347450        -9.4546
 272   2.0000      -0.341915        -9.3040
 273   2.0000      -0.336466        -9.1557
 274   2.0000      -0.331011        -9.0073
 275   2.0000      -0.326101        -8.8737
 276   2.0000      -0.317807        -8.6480
 277   2.0000      -0.313334        -8.5262
 278   2.0000      -0.310653        -8.4533
 279   2.0000      -0.299136        -8.1399
 280   2.0000      -0.296235        -8.0610
 281   2.0000      -0.294942        -8.0258
 282   2.0000      -0.281370        -7.6565
 283   2.0000      -0.275253        -7.4900
 284   2.0000      -0.269795        -7.3415
 285   2.0000      -0.244901        -6.6641
 286   2.0000      -0.213256        -5.8030
 287   0.0000      -0.105359        -2.8670
 288   0.0000      -0.080802        -2.1987
 289   0.0000      -0.058154        -1.5825
 290   0.0000      -0.052286        -1.4228
 291   0.0000      -0.039098        -1.0639

MULLIKEN ATOMIC CHARGES
-----------------------
   0 C :    0.310086
   1 C :   -0.372222
   2 C :   -0.218568
   3 N :    0.165144
   4 C :   -0.188254
   5 N :    0.167698
   6 C :    0.011864
   7 C :    0.006708
   8 C :   -0.104887
   9 C :    0.129957
  10 C :   -0.097055
  11 C :   -0.009800
  12 S :    0.194214
  13 C :   -0.137118
  14 C :    0.044450
  15 Br:    0.017922
  16 C :    0.122485
  17 O :   -0.165384
  18 C :   -0.055660
  19 C :   -0.144278
  20 C :    0.051140
  21 C :   -0.122144
  22 C :    0.127178
  23 N :   -0.032144
  24 C :   -0.157225
  25 C :    0.135279
  26 C :    0.054896
  27 C :   -0.023630
  28 C :   -0.062585
  29 C :   -0.089870
  30 S :    0.114497
  31 C :   -0.121367
  32 C :   -0.063945
  33 C :    0.115639
  34 C :    0.107671
  35 C :   -0.026319
  36 C :    0.002320
  37 C :    0.001096
  38 C :   -0.002579
  39 C :    0.020160
  40 C :   -0.052700
  41 C :    0.067062
  42 C :    0.018987
  43 C :   -0.028563
  44 S :    0.109742
  45 C :   -0.062823
  46 C :    0.032907
  47 C :    0.036837
  48 C :   -0.016185
  49 S :    0.121533
  50 C :   -0.007013
  51 C :    0.020601
  52 C :   -0.130222
  53 C :    0.289168
  54 C :   -0.356741
  55 C :   -0.177741
  56 N :    0.127870
  57 C :   -0.219985
  58 N :    0.154400
  59 C :    0.005073
  60 C :   -0.006505
  61 C :    0.134809
  62 O :   -0.156303
  63 C :   -0.077355
  64 C :    0.115604
  65 C :   -0.090978
  66 C :   -0.025673
  67 S :    0.175039
  68 C :   -0.124606
  69 C :    0.036635
  70 Br:    0.009087
  71 H :   -0.018128
  72 H :   -0.000397
  73 H :   -0.008826
  74 H :    0.053987
  75 H :    0.025772
  76 H :    0.066653
  77 H :   -0.006566
  78 H :    0.118370
  79 H :    0.014910
  80 H :    0.034236
  81 H :    0.020330
  82 H :   -0.016621
  83 H :    0.031044
  84 H :    0.012521
  85 H :    0.009259
  86 H :    0.025792
  87 H :    0.038956
  88 H :    0.002105
  89 H :    0.010220
  90 H :   -0.004420
  91 H :    0.015234
  92 H :   -0.008774
  93 H :   -0.010611
  94 H :   -0.009966
  95 H :   -0.011430
  96 H :   -0.001726
  97 H :    0.007072
  98 H :    0.017358
  99 H :   -0.015887
 100 H :   -0.010070
 101 H :   -0.007726
Sum of atomic charges:   -0.0000000

LOEWDIN ATOMIC CHARGES
----------------------
   0 C :    0.080257
   1 C :   -0.146928
   2 C :   -0.025012
   3 N :   -0.056985
   4 C :   -0.026234
   5 N :   -0.044100
   6 C :   -0.019639
   7 C :   -0.048487
   8 C :    0.012408
   9 C :   -0.035701
  10 C :   -0.145133
  11 C :   -0.009212
  12 S :    0.455769
  13 C :   -0.275857
  14 C :   -0.072476
  15 Br:    0.133176
  16 C :    0.082608
  17 O :   -0.153054
  18 C :   -0.113608
  19 C :    0.081947
  20 C :   -0.087204
  21 C :    0.029583
  22 C :   -0.059018
  23 N :    0.100504
  24 C :   -0.019956
  25 C :   -0.051614
  26 C :   -0.062658
  27 C :   -0.021406
  28 C :   -0.047572
  29 C :   -0.155893
  30 S :    0.436077
  31 C :   -0.184428
  32 C :   -0.050953
  33 C :   -0.044231
  34 C :   -0.062405
  35 C :    0.012823
  36 C :   -0.046670
  37 C :   -0.004272
  38 C :   -0.039953
  39 C :   -0.019328
  40 C :   -0.162483
  41 C :   -0.012708
  42 C :   -0.044850
  43 C :   -0.154402
  44 S :    0.409966
  45 C :   -0.201045
  46 C :   -0.010523
  47 C :   -0.040002
  48 C :   -0.100828
  49 S :    0.411512
  50 C :   -0.073210
  51 C :    0.051694
  52 C :   -0.113447
  53 C :    0.068640
  54 C :   -0.160404
  55 C :   -0.019773
  56 N :   -0.072223
  57 C :   -0.023814
  58 N :   -0.068556
  59 C :   -0.015041
  60 C :   -0.050109
  61 C :    0.076564
  62 O :   -0.158246
  63 C :    0.016862
  64 C :   -0.038280
  65 C :   -0.145870
  66 C :   -0.017788
  67 S :    0.423575
  68 C :   -0.276933
  69 C :   -0.070576
  70 Br:    0.125571
  71 H :    0.037193
  72 H :    0.039878
  73 H :    0.036397
  74 H :    0.050050
  75 H :    0.041603
  76 H :    0.045221
  77 H :    0.026759
  78 H :    0.090157
  79 H :    0.033118
  80 H :    0.038248
  81 H :    0.041523
  82 H :    0.022860
  83 H :    0.035838
  84 H :    0.021264
  85 H :    0.033919
  86 H :    0.034566
  87 H :    0.039077
  88 H :    0.030517
  89 H :    0.035552
  90 H :    0.032893
  91 H :    0.024119
  92 H :    0.036033
  93 H :    0.034556
  94 H :    0.031263
  95 H :    0.032541
  96 H :    0.038628
  97 H :    0.037097
  98 H :    0.035997
  99 H :    0.038730
 100 H :    0.039030
 101 H :    0.036935

  Mayer bond orders larger than 0.100000
B(  0-C ,  1-C ) :   1.6351 B(  0-C ,  6-C ) :   0.9852 B(  0-C , 18-C ) :   1.0680
B(  1-C ,  2-C ) :   1.1531 B(  1-C ,  4-C ) :   1.1435 B(  2-C ,  3-N ) :   2.9761
B(  4-C ,  5-N ) :   2.9316 B(  6-C ,  7-C ) :   1.2709 B(  6-C , 11-C ) :   1.4111
B(  7-C ,  8-C ) :   1.4146 B(  7-C , 16-C ) :   0.9271 B(  8-C ,  9-C ) :   1.2331
B(  8-C , 71-H ) :   1.0192 B(  9-C , 10-C ) :   1.3137 B(  9-C , 14-C ) :   1.1566
B( 10-C , 11-C ) :   1.3181 B( 10-C , 12-S ) :   1.0905 B( 11-C , 72-H ) :   0.9843
B( 12-S , 13-C ) :   1.0956 B( 13-C , 14-C ) :   1.6099 B( 13-C , 15-Br) :   1.0130
B( 14-C , 73-H ) :   1.0018 B( 16-C , 17-O ) :   2.1822 B( 16-C , 18-C ) :   0.9586
B( 18-C , 19-C ) :   1.5829 B( 19-C , 20-C ) :   1.1106 B( 19-C , 74-H ) :   0.9317
B( 20-C , 21-C ) :   1.4017 B( 20-C , 26-C ) :   1.2004 B( 21-C , 22-C ) :   1.1372
B( 21-C , 23-N ) :   1.2693 B( 22-C , 75-H ) :   0.9368 B( 22-C , 76-H ) :   0.9128
B( 22-C , 77-H ) :   0.9312 B( 23-N , 24-C ) :   1.1877 B( 23-N , 78-H ) :   0.9341
B( 24-C , 25-C ) :   1.1117 B( 24-C , 26-C ) :   1.4774 B( 25-C , 79-H ) :   0.9416
B( 25-C , 80-H ) :   0.9433 B( 25-C , 81-H ) :   0.9401 B( 26-C , 27-C ) :   1.1116
B( 27-C , 28-C ) :   1.6863 B( 27-C , 82-H ) :   0.9673 B( 28-C , 29-C ) :   1.1596
B( 28-C , 83-H ) :   0.9476 B( 29-C , 30-S ) :   1.1442 B( 29-C , 34-C ) :   1.4169
B( 30-S , 31-C ) :   1.1269 B( 31-C , 32-C ) :   1.6138 B( 31-C , 84-H ) :   0.9644
B( 32-C , 33-C ) :   1.0999 B( 32-C , 34-C ) :   1.2140 B( 33-C , 85-H ) :   0.9493
B( 33-C , 86-H ) :   0.9464 B( 33-C , 87-H ) :   0.9397 B( 34-C , 35-C ) :   1.1395
B( 35-C , 36-C ) :   1.6422 B( 35-C , 88-H ) :   0.9439 B( 36-C , 37-C ) :   1.1714
B( 36-C , 89-H ) :   0.9644 B( 37-C , 38-C ) :   1.6033 B( 37-C , 90-H ) :   0.9774
B( 38-C , 39-C ) :   1.1949 B( 38-C , 91-H ) :   0.9605 B( 39-C , 40-C ) :   1.5284
B( 39-C , 92-H ) :   0.9810 B( 40-C , 41-C ) :   1.1551 B( 40-C , 44-S ) :   1.0255
B( 41-C , 42-C ) :   1.5594 B( 41-C , 93-H ) :   0.9976 B( 42-C , 43-C ) :   1.2060
B( 42-C , 94-H ) :   0.9939 B( 43-C , 44-S ) :   1.0871 B( 43-C , 45-C ) :   1.4445
B( 45-C , 46-C ) :   1.2297 B( 45-C , 49-S ) :   1.0474 B( 46-C , 47-C ) :   1.5285
B( 46-C , 95-H ) :   0.9944 B( 47-C , 48-C ) :   1.1947 B( 47-C , 96-H ) :   1.0002
B( 48-C , 49-S ) :   1.0927 B( 48-C , 50-C ) :   1.4725 B( 50-C , 51-C ) :   1.2458
B( 50-C , 97-H ) :   0.9614 B( 51-C , 52-C ) :   1.4950 B( 51-C , 98-H ) :   0.9435
B( 52-C , 53-C ) :   1.1096 B( 52-C , 61-C ) :   0.9700 B( 53-C , 54-C ) :   1.5796
B( 53-C , 59-C ) :   1.0015 B( 54-C , 55-C ) :   1.1373 B( 54-C , 57-C ) :   1.1691
B( 55-C , 56-N ) :   2.9711 B( 57-C , 58-N ) :   3.0134 B( 59-C , 60-C ) :   1.2787
B( 59-C , 66-C ) :   1.4226 B( 60-C , 61-C ) :   0.9147 B( 60-C , 63-C ) :   1.4363
B( 61-C , 62-O ) :   2.2490 B( 63-C , 64-C ) :   1.2393 B( 63-C , 99-H ) :   1.0167
B( 64-C , 65-C ) :   1.3224 B( 64-C , 69-C ) :   1.1582 B( 65-C , 66-C ) :   1.3164
B( 65-C , 67-S ) :   1.0803 B( 66-C ,100-H ) :   0.9819 B( 67-S , 68-C ) :   1.0846
B( 68-C , 69-C ) :   1.6230 B( 68-C , 70-Br) :   1.0096 B( 69-C ,101-H ) :   1.0006

-----------------------------------------------------------------------------
         ABSORPTION SPECTRUM VIA TRANSITION ELECTRIC DIPOLE MOMENTS
-----------------------------------------------------------------------------
State   Energy  Wavelength   fosc         T2         TX        TY        TZ
        (cm-1)    (nm)                  (au**2)     (au)      (au)      (au)
-----------------------------------------------------------------------------
   0   10123.1    987.8   1.179314332  38.35242   0.17822  -5.27107   3.24599
   1   13593.8    735.6   0.232961087   5.64182  -0.09623  -2.26632   0.70454
   2   16610.7    602.0   0.100074622   1.98341   0.84228   1.12862  -0.01398
   3   19031.5    525.4   0.002016272   0.03488  -0.03340  -0.14026  -0.11870
   4   19650.0    508.9   0.168567370   2.82415  -1.60597   0.20913   0.44865
   5   20420.4    489.7   0.002030083   0.03273   0.07031  -0.16455   0.02663
   6   22109.0    452.3   0.088455464   1.31714   0.75457  -0.14927  -0.85175
   7   23164.7    431.7   0.111906321   1.59039   0.91726   0.63166  -0.59163
   8   23777.9    420.6   0.142016112   1.96625  -1.00477   0.92721  -0.31140
   9   24649.6    405.7   0.065486148   0.87461   0.53685   0.76046   0.09002
  10   24988.5    400.2   0.093965542   1.23795   1.00206   0.45326  -0.16845
  11   25413.9    393.5   0.300124546   3.88781   1.77089  -0.86681   0.02024
  12   25732.2    388.6   0.082095389   1.05031  -0.61571   0.63894  -0.51281
  13   26353.5    379.5   0.099809851   1.24684  -0.75651  -0.70893   0.41468
  14   27132.9    368.6   0.004740516   0.05752  -0.05455  -0.11710  -0.20206
  15   27701.8    361.0   0.046807980   0.55627  -0.09187  -0.11810   0.73067
  16   28363.5    352.6   0.066795221   0.77528   0.39835   0.01930  -0.78500
  17   28645.2    349.1   0.003263139   0.03750  -0.10118  -0.04992  -0.15739
  18   28702.7    348.4   0.023831620   0.27334  -0.50470  -0.05308   0.12572
  19   29121.6    343.4   0.127409358   1.44033   0.31199  -0.71086   0.91524
  20   29819.6    335.3   0.023347268   0.25776  -0.21145  -0.38589  -0.25324
  21   30202.9    331.1   0.274506623   2.99213   1.64466  -0.48377   0.23065
  22   30462.2    328.3   0.143874370   1.55488  -0.70620   1.00588  -0.21065
  23   30623.5    326.5   0.041754476   0.44887  -0.44811   0.20820   0.45246
  24   31392.2    318.6   0.107602161   1.12843  -1.05268   0.01522   0.14166
  25   31732.6    315.1   0.186775544   1.93771  -1.24698   0.61736  -0.04022
  26   31800.6    314.5   0.169646598   1.75625   1.28988   0.28827  -0.09673
  27   32162.2    310.9   0.340760014   3.48802  -1.58959  -0.76243   0.61638
  28   32405.9    308.6   0.241419376   2.45259  -0.42412   1.03106  -1.09983
  29   32532.4    307.4   0.030685944   0.31053   0.12720  -0.42471   0.33759
  30   32604.4    306.7   0.054958749   0.55493   0.65623  -0.33753  -0.10181
  31   32850.0    304.4   0.137407573   1.37705   1.14499   0.08354   0.24305
  32   33104.0    302.1   0.223349481   2.22116   1.41971   0.43665   0.12212
  33   33503.8    298.5   0.023476427   0.23068   0.26969  -0.31866  -0.23750
  34   33614.0    297.5   0.103495706   1.01363  -0.76929   0.34985   0.54720
  35   34246.2    292.0   0.029107616   0.27981  -0.23365  -0.31591   0.35415
  36   34388.0    290.8   0.017772811   0.17015  -0.33724  -0.21170  -0.10772
  37   34401.7    290.7   0.070463122   0.67431   0.25771  -0.50399   0.59489
  38   34860.3    286.9   0.057102423   0.53926   0.59147   0.17901  -0.39672
  39   35262.3    283.6   0.100696247   0.94011  -0.79193   0.51217  -0.22503
  40   35394.4    282.5   0.150134530   1.39644   1.06769   0.01745  -0.50613
  41   35691.8    280.2   0.032928848   0.30373   0.02663   0.33857   0.43403
  42   35963.0    278.1   0.066904393   0.61246  -0.10040   0.11181  -0.76803
  43   36039.1    277.5   0.134520008   1.22882  -0.90795  -0.25505   0.58257
  44   36210.2    276.2   0.012929371   0.11755   0.32197   0.11695  -0.01453
  45   36587.5    273.3   0.041576943   0.37411  -0.07886   0.12820  -0.59283
  46   36847.1    271.4   0.150194019   1.34192   0.92046   0.26281  -0.65238
  47   37585.9    266.1   0.042724361   0.37422  -0.57322   0.15929  -0.14236
  48   37610.0    265.9   0.067898697   0.59434   0.69464  -0.24829   0.22397
  49   37881.8    264.0   0.052556828   0.45675  -0.58705   0.23245  -0.24101
  50   38019.1    263.0   0.207221211   1.79435   1.32383  -0.11065  -0.17198
  51   38259.6    261.4   0.017074720   0.14692   0.37261   0.03271   0.08377
  52   38314.3    261.0   0.092957407   0.79873  -0.71565   0.28085  -0.45573
  53   38628.1    258.9   0.123120546   1.04931  -0.78353  -0.10605   0.65126
  54   39130.2    255.6   0.011848156   0.09968  -0.25128  -0.17168  -0.08404
  55   39241.0    254.8   0.021902861   0.18375   0.35037   0.09840  -0.22651
  56   39328.8    254.3   0.053260758   0.44583  -0.33406   0.36850  -0.44547
  57   39491.5    253.2   0.003635077   0.03030   0.04860   0.12049  -0.11586
  58   39666.8    252.1   0.010833175   0.08991   0.25740   0.15199   0.02357
  59   39869.9    250.8   0.037248132   0.30756   0.55419  -0.01507  -0.01442
  60   40025.2    249.8   0.013080384   0.10759   0.11315   0.29423   0.09061
  61   40242.2    248.5   0.034946391   0.28589  -0.47207   0.24985   0.02488
  62   40251.5    248.4   0.085932083   0.70283  -0.68471   0.26182   0.40675

FINAL SINGLE POINT ENERGY     -9749.729506845671

DIPOLE MOMENT
-------------
                                X             Y             Z
Electronic contribution:     11.60159    -199.78559      81.85696
Nuclear contribution   :    -10.41300     204.79969     -87.55371
                        -----------------------------------------
Total Dipole Moment    :      1.18860       5.01410      -5.69675
                        -----------------------------------------
Magnitude (a.u.)       :      7.68160
Magnitude (Debye)      :     19.52507

Rotational constants in cm-1:     0.001045     0.000287     0.000240
Rotational constants in MHz :    31.329862     8.611500     7.207182

                             ****ORCA TERMINATED NORMALLY****
TOTAL RUN TIME: 0 days 0 hours 12 minutes 10 seconds 323 msec
