                         Program Version 4.2.0 -  RELEASE  -
|  1> # ORCA input file
|  2> # SCF done       -178.689729658290          0.000414556786
|  3> ! CAM-B3LYP def2-SVP def2/J RIJCOSX Grid4 TightSCF
|  4> %maxcore 5000
|  5> %tddft
|  6>     Mode sTDDFT
|  7>     Ethresh 5.0
|  8>     maxcore 5000
|  9> end
| 10>
| 11> %pal
| 12>   nprocs 6
| 13>   end
| 14> * xyz 0 1
| 15>    C       -4.36508         7.66005         4.86225
| 16>    C       -3.01546         7.68769         5.11450
| 17>    C       -2.45221         7.78821         6.40261
| 18>    N       -1.93520         7.86179         7.42535
| 19>    C       -2.01019         7.63894         4.12747
| 20>    N       -1.13564         7.61651         3.38316
| 21>    C       -5.42066         7.78501         5.86019
| 22>    C       -6.67416         7.79755         5.20025
| 23>    C       -7.86515         7.91183         5.87422
| 24>    C       -7.81779         8.02726         7.26766
| 25>    C       -6.56132         8.01056         7.91893
| 26>    C       -5.35657         7.88949         7.23736
| 27>    S       -6.73242         8.15730         9.64178
| 28>    C       -8.46531         8.24109         9.46600
| 29>    C       -8.89606         8.16246         8.18469
| 30>   Br       -9.54167         8.42103        10.99075
| 31>    C       -6.46895         7.65803         3.74615
| 32>    O       -7.32688         7.48913         2.90992
| 33>    C       -4.99177         7.59640         3.56100
| 34>    C       -4.38148         7.34443         2.36504
| 35>    C       -4.99032         7.56397         1.10975
| 36>    O       -4.52474         6.90077         0.01110
| 37>    C       -5.96007         8.46263         0.69371
| 38>    C       -6.80917         9.58607         1.12729
| 39>    O       -6.92665        10.12949         2.19257
| 40>    N       -7.44994         9.97642        -0.04447
| 41>    C       -7.06754         9.28403        -1.19382
| 42>    O       -7.47670         9.50459        -2.30454
| 43>    C       -6.08921         8.31519        -0.69946
| 44>    C       -5.19130         7.32710        -1.09467
| 45>    C       -4.92956         6.80767        -2.37685
| 46>    C       -4.03795         5.79537        -2.59214
| 47>    C       -3.65291         5.18842        -3.80788
| 48>    C       -3.74108         5.72771        -5.09325
| 49>    O       -3.44732         4.98678        -6.20908
| 50>    C       -2.97949         3.72348        -6.00177
| 51>    C       -2.78462         3.21137        -4.68813
| 52>    C       -2.28532         1.94942        -4.68467
| 53>    S       -2.04961         1.37248        -6.29221
| 54>    C       -2.62827         2.84411        -6.97322
| 55>    O       -3.10395         3.94060        -3.58273
| 56>    C       -4.04392         7.07521        -5.37038
| 57>    C       -4.12675         7.55351        -6.65797
| 58>    C       -4.36998         8.88130        -6.99466
| 59>    C       -4.38200         9.32420        -8.30574
| 60>    C       -4.62304        10.62879        -8.78662
| 61>    C       -4.53474        10.74858       -10.14648
| 62>    C       -4.21373         9.54163       -10.79645
| 63>    S       -4.04294         8.24565        -9.64007
| 64>    C       -4.01068         9.28042       -12.14442
| 65>    C       -4.07958        10.13915       -13.25957
| 66>    C       -3.79397         9.52036       -14.44157
| 67>    C       -3.48129         8.14154       -14.31887
| 68>    S       -3.57644         7.66544       -12.63703
| 69>    C       -3.14953         7.29987       -15.35291
| 70>    C       -2.81482         5.93454       -15.27691
| 71>    S       -2.44005         5.05353       -16.75494
| 72>    C       -2.14176         3.56361       -15.95518
| 73>    C       -2.31590         3.70806       -14.59882
| 74>    C       -2.69255         5.03723       -14.22647
| 75>    O       -2.84485         5.12296       -12.88979
| 76>    C       -2.57656         3.88371       -12.40490
| 77>    N       -2.66778         3.70882       -11.00735
| 78>    O       -2.42621         2.59480       -10.57418
| 79>    O       -2.97625         4.66595       -10.32782
| 80>    C       -2.24959         2.97817       -13.37991
| 81>    H       -8.80305         7.91972         5.34176
| 82>    H       -4.42561         7.87648         7.77936
| 83>    H       -9.93069         8.19768         7.89567
| 84>    H       -3.37171         6.95701         2.33203
| 85>    H       -8.11883        10.73283        -0.06640
| 86>    H       -5.52505         7.23678        -3.16626
| 87>    H       -3.60969         5.31787        -1.71921
| 88>    H       -2.04680         1.33695        -3.84077
| 89>    H       -2.67212         2.97016        -8.03508
| 90>    H       -4.14893         7.75531        -4.54316
| 91>    H       -3.99061         6.85071        -7.47011
| 92>    H       -4.55380         9.60452        -6.21153
| 93>    H       -4.85413        11.44067        -8.11981
| 94>    H       -4.68633        11.66623       -10.68637
| 95>    H       -4.33403        11.17977       -13.16591
| 96>    H       -3.79347        10.00967       -15.39954
| 97>    H       -3.13865         7.72697       -16.34668
| 98>    H       -1.86330         2.69655       -16.51618
| 99>    H       -2.00106         1.94828       -13.22935
|100> *
|101>
|102>                          ****END OF INPUT****

CARTESIAN COORDINATES (ANGSTROEM)
---------------------------------
  C     -4.365080    7.660050    4.862250
  C     -3.015460    7.687690    5.114500
  C     -2.452210    7.788210    6.402610
  N     -1.935200    7.861790    7.425350
  C     -2.010190    7.638940    4.127470
  N     -1.135640    7.616510    3.383160
  C     -5.420660    7.785010    5.860190
  C     -6.674160    7.797550    5.200250
  C     -7.865150    7.911830    5.874220
  C     -7.817790    8.027260    7.267660
  C     -6.561320    8.010560    7.918930
  C     -5.356570    7.889490    7.237360
  S     -6.732420    8.157300    9.641780
  C     -8.465310    8.241090    9.466000
  C     -8.896060    8.162460    8.184690
  Br    -9.541670    8.421030   10.990750
  C     -6.468950    7.658030    3.746150
  O     -7.326880    7.489130    2.909920
  C     -4.991770    7.596400    3.561000
  C     -4.381480    7.344430    2.365040
  C     -4.990320    7.563970    1.109750
  O     -4.524740    6.900770    0.011100
  C     -5.960070    8.462630    0.693710
  C     -6.809170    9.586070    1.127290
  O     -6.926650   10.129490    2.192570
  N     -7.449940    9.976420   -0.044470
  C     -7.067540    9.284030   -1.193820
  O     -7.476700    9.504590   -2.304540
  C     -6.089210    8.315190   -0.699460
  C     -5.191300    7.327100   -1.094670
  C     -4.929560    6.807670   -2.376850
  C     -4.037950    5.795370   -2.592140
  C     -3.652910    5.188420   -3.807880
  C     -3.741080    5.727710   -5.093250
  O     -3.447320    4.986780   -6.209080
  C     -2.979490    3.723480   -6.001770
  C     -2.784620    3.211370   -4.688130
  C     -2.285320    1.949420   -4.684670
  S     -2.049610    1.372480   -6.292210
  C     -2.628270    2.844110   -6.973220
  O     -3.103950    3.940600   -3.582730
  C     -4.043920    7.075210   -5.370380
  C     -4.126750    7.553510   -6.657970
  C     -4.369980    8.881300   -6.994660
  C     -4.382000    9.324200   -8.305740
  C     -4.623040   10.628790   -8.786620
  C     -4.534740   10.748580  -10.146480
  C     -4.213730    9.541630  -10.796450
  S     -4.042940    8.245650   -9.640070
  C     -4.010680    9.280420  -12.144420
  C     -4.079580   10.139150  -13.259570
  C     -3.793970    9.520360  -14.441570
  C     -3.481290    8.141540  -14.318870
  S     -3.576440    7.665440  -12.637030
  C     -3.149530    7.299870  -15.352910
  C     -2.814820    5.934540  -15.276910
  S     -2.440050    5.053530  -16.754940
  C     -2.141760    3.563610  -15.955180
  C     -2.315900    3.708060  -14.598820
  C     -2.692550    5.037230  -14.226470
  O     -2.844850    5.122960  -12.889790
  C     -2.576560    3.883710  -12.404900
  N     -2.667780    3.708820  -11.007350
  O     -2.426210    2.594800  -10.574180
  O     -2.976250    4.665950  -10.327820
  C     -2.249590    2.978170  -13.379910
  H     -8.803050    7.919720    5.341760
  H     -4.425610    7.876480    7.779360
  H     -9.930690    8.197680    7.895670
  H     -3.371710    6.957010    2.332030
  H     -8.118830   10.732830   -0.066400
  H     -5.525050    7.236780   -3.166260
  H     -3.609690    5.317870   -1.719210
  H     -2.046800    1.336950   -3.840770
  H     -2.672120    2.970160   -8.035080
  H     -4.148930    7.755310   -4.543160
  H     -3.990610    6.850710   -7.470110
  H     -4.553800    9.604520   -6.211530
  H     -4.854130   11.440670   -8.119810
  H     -4.686330   11.666230  -10.686370
  H     -4.334030   11.179770  -13.165910
  H     -3.793470   10.009670  -15.399540
  H     -3.138650    7.726970  -16.346680
  H     -1.863300    2.696550  -16.516180
  H     -2.001060    1.948280  -13.229350

 Total Charge           Charge          ....    0
 Multiplicity           Mult            ....    1
 Number of Electrons    NEL             ....  516
 Basis Dimension        Dim             .... 1057

ORBITAL ENERGIES
----------------

  NO   OCC          E(Eh)            E(eV)
   0   2.0000    -482.881736    -13139.8801
   1   2.0000     -88.982829     -2421.3459
   2   2.0000     -88.970786     -2421.0182
   3   2.0000     -88.946548     -2420.3586
   4   2.0000     -88.944969     -2420.3156
   5   2.0000     -88.944487     -2420.3025
   6   2.0000     -62.559454     -1702.3293
   7   2.0000     -56.393400     -1534.5424
   8   2.0000     -56.390690     -1534.4687
   9   2.0000     -56.390659     -1534.4678
  10   2.0000     -19.316714      -525.6345
  11   2.0000     -19.308476      -525.4103
  12   2.0000     -19.271028      -524.3913
  13   2.0000     -19.265577      -524.2430
  14   2.0000     -19.259011      -524.0643
  15   2.0000     -19.257020      -524.0102
  16   2.0000     -19.209251      -522.7103
  17   2.0000     -19.209181      -522.7084
  18   2.0000     -19.207229      -522.6553
  19   2.0000     -14.668518      -399.1507
  20   2.0000     -14.450519      -393.2186
  21   2.0000     -14.410534      -392.1306
  22   2.0000     -14.410312      -392.1245
  23   2.0000     -10.397990      -282.9437
  24   2.0000     -10.397122      -282.9201
  25   2.0000     -10.396255      -282.8965
  26   2.0000     -10.365224      -282.0521
  27   2.0000     -10.361698      -281.9561
  28   2.0000     -10.356053      -281.8025
  29   2.0000     -10.355976      -281.8004
  30   2.0000     -10.354492      -281.7601
  31   2.0000     -10.352389      -281.7028
  32   2.0000     -10.342532      -281.4346
  33   2.0000     -10.337288      -281.2919
  34   2.0000     -10.336273      -281.2643
  35   2.0000     -10.330797      -281.1153
  36   2.0000     -10.329551      -281.0814
  37   2.0000     -10.327527      -281.0263
  38   2.0000     -10.322718      -280.8954
  39   2.0000     -10.320621      -280.8384
  40   2.0000     -10.320094      -280.8240
  41   2.0000     -10.317383      -280.7503
  42   2.0000     -10.316472      -280.7255
  43   2.0000     -10.313284      -280.6387
  44   2.0000     -10.313225      -280.6371
  45   2.0000     -10.312996      -280.6309
  46   2.0000     -10.312013      -280.6041
  47   2.0000     -10.310071      -280.5513
  48   2.0000     -10.307506      -280.4815
  49   2.0000     -10.302925      -280.3568
  50   2.0000     -10.302480      -280.3447
  51   2.0000     -10.300167      -280.2818
  52   2.0000     -10.298186      -280.2279
  53   2.0000     -10.297944      -280.2213
  54   2.0000     -10.297819      -280.2179
  55   2.0000     -10.297736      -280.2156
  56   2.0000     -10.295012      -280.1415
  57   2.0000     -10.293048      -280.0881
  58   2.0000     -10.292354      -280.0692
  59   2.0000     -10.292155      -280.0638
  60   2.0000     -10.290548      -280.0200
  61   2.0000     -10.288638      -279.9681
  62   2.0000     -10.287298      -279.9316
  63   2.0000     -10.286892      -279.9206
  64   2.0000     -10.286467      -279.9090
  65   2.0000     -10.283604      -279.8311
  66   2.0000     -10.280816      -279.7552
  67   2.0000     -10.279758      -279.7264
  68   2.0000     -10.278965      -279.7048
  69   2.0000     -10.278054      -279.6801
  70   2.0000      -8.788884      -239.1577
  71   2.0000      -8.077796      -219.8080
  72   2.0000      -8.066797      -219.5087
  73   2.0000      -8.042321      -218.8427
  74   2.0000      -8.041382      -218.8171
  75   2.0000      -8.040977      -218.8061
  76   2.0000      -6.625168      -180.2800
  77   2.0000      -6.610634      -179.8845
  78   2.0000      -6.610422      -179.8787
  79   2.0000      -6.047132      -164.5508
  80   2.0000      -6.042812      -164.4333
  81   2.0000      -6.040108      -164.3597
  82   2.0000      -6.036494      -164.2613
  83   2.0000      -6.032213      -164.1449
  84   2.0000      -6.028012      -164.0305
  85   2.0000      -6.011783      -163.5889
  86   2.0000      -6.011126      -163.5710
  87   2.0000      -6.010658      -163.5583
  88   2.0000      -6.007639      -163.4762
  89   2.0000      -6.006926      -163.4568
  90   2.0000      -6.006540      -163.4463
  91   2.0000      -6.004086      -163.3795
  92   2.0000      -6.002159      -163.3271
  93   2.0000      -6.001965      -163.3218
  94   2.0000      -2.741041       -74.5875
  95   2.0000      -2.736961       -74.4765
  96   2.0000      -2.736820       -74.4727
  97   2.0000      -2.725253       -74.1579
  98   2.0000      -2.725244       -74.1576
  99   2.0000      -1.339655       -36.4539
 100   2.0000      -1.240207       -33.7478
 101   2.0000      -1.223925       -33.3047
 102   2.0000      -1.196474       -32.5577
 103   2.0000      -1.158890       -31.5350
 104   2.0000      -1.154805       -31.4238
 105   2.0000      -1.152726       -31.3673
 106   2.0000      -1.132944       -30.8290
 107   2.0000      -1.124175       -30.5904
 108   2.0000      -1.039596       -28.2888
 109   2.0000      -1.017835       -27.6967
 110   2.0000      -1.008412       -27.4403
 111   2.0000      -1.005104       -27.3503
 112   2.0000      -0.998615       -27.1737
 113   2.0000      -0.988949       -26.9107
 114   2.0000      -0.984796       -26.7977
 115   2.0000      -0.977932       -26.6109
 116   2.0000      -0.976783       -26.5796
 117   2.0000      -0.946208       -25.7476
 118   2.0000      -0.942111       -25.6361
 119   2.0000      -0.932084       -25.3633
 120   2.0000      -0.922830       -25.1115
 121   2.0000      -0.917252       -24.9597
 122   2.0000      -0.908619       -24.7248
 123   2.0000      -0.903590       -24.5879
 124   2.0000      -0.900860       -24.5136
 125   2.0000      -0.888314       -24.1723
 126   2.0000      -0.880686       -23.9647
 127   2.0000      -0.878421       -23.9031
 128   2.0000      -0.865327       -23.5467
 129   2.0000      -0.854994       -23.2656
 130   2.0000      -0.845784       -23.0149
 131   2.0000      -0.832951       -22.6658
 132   2.0000      -0.824584       -22.4381
 133   2.0000      -0.824136       -22.4259
 134   2.0000      -0.815417       -22.1886
 135   2.0000      -0.813177       -22.1277
 136   2.0000      -0.801606       -21.8128
 137   2.0000      -0.795376       -21.6433
 138   2.0000      -0.781432       -21.2638
 139   2.0000      -0.772316       -21.0158
 140   2.0000      -0.764269       -20.7968
 141   2.0000      -0.757116       -20.6022
 142   2.0000      -0.753777       -20.5113
 143   2.0000      -0.745010       -20.2728
 144   2.0000      -0.730227       -19.8705
 145   2.0000      -0.718272       -19.5452
 146   2.0000      -0.708511       -19.2796
 147   2.0000      -0.700384       -19.0584
 148   2.0000      -0.698138       -18.9973
 149   2.0000      -0.688705       -18.7406
 150   2.0000      -0.684409       -18.6237
 151   2.0000      -0.680122       -18.5071
 152   2.0000      -0.674447       -18.3526
 153   2.0000      -0.670005       -18.2318
 154   2.0000      -0.663021       -18.0417
 155   2.0000      -0.660674       -17.9778
 156   2.0000      -0.652521       -17.7560
 157   2.0000      -0.651334       -17.7237
 158   2.0000      -0.649022       -17.6608
 159   2.0000      -0.636692       -17.3253
 160   2.0000      -0.634079       -17.2542
 161   2.0000      -0.623134       -16.9563
 162   2.0000      -0.621777       -16.9194
 163   2.0000      -0.618825       -16.8391
 164   2.0000      -0.613861       -16.7040
 165   2.0000      -0.613223       -16.6866
 166   2.0000      -0.602094       -16.3838
 167   2.0000      -0.599560       -16.3149
 168   2.0000      -0.594076       -16.1656
 169   2.0000      -0.592082       -16.1114
 170   2.0000      -0.587751       -15.9935
 171   2.0000      -0.583608       -15.8808
 172   2.0000      -0.581258       -15.8168
 173   2.0000      -0.575986       -15.6734
 174   2.0000      -0.574892       -15.6436
 175   2.0000      -0.569512       -15.4972
 176   2.0000      -0.564185       -15.3523
 177   2.0000      -0.561519       -15.2797
 178   2.0000      -0.559033       -15.2120
 179   2.0000      -0.551778       -15.0146
 180   2.0000      -0.545987       -14.8571
 181   2.0000      -0.541701       -14.7404
 182   2.0000      -0.541325       -14.7302
 183   2.0000      -0.536850       -14.6084
 184   2.0000      -0.536064       -14.5870
 185   2.0000      -0.530347       -14.4315
 186   2.0000      -0.529019       -14.3953
 187   2.0000      -0.526627       -14.3303
 188   2.0000      -0.525314       -14.2945
 189   2.0000      -0.519710       -14.1420
 190   2.0000      -0.517113       -14.0714
 191   2.0000      -0.516439       -14.0530
 192   2.0000      -0.512708       -13.9515
 193   2.0000      -0.506092       -13.7715
 194   2.0000      -0.503009       -13.6876
 195   2.0000      -0.501643       -13.6504
 196   2.0000      -0.500997       -13.6328
 197   2.0000      -0.500573       -13.6213
 198   2.0000      -0.496638       -13.5142
 199   2.0000      -0.495581       -13.4854
 200   2.0000      -0.488997       -13.3063
 201   2.0000      -0.488510       -13.2930
 202   2.0000      -0.487707       -13.2712
 203   2.0000      -0.480680       -13.0800
 204   2.0000      -0.477904       -13.0044
 205   2.0000      -0.477056       -12.9814
 206   2.0000      -0.475759       -12.9461
 207   2.0000      -0.472079       -12.8459
 208   2.0000      -0.470791       -12.8109
 209   2.0000      -0.468503       -12.7486
 210   2.0000      -0.466301       -12.6887
 211   2.0000      -0.463244       -12.6055
 212   2.0000      -0.458098       -12.4655
 213   2.0000      -0.455684       -12.3998
 214   2.0000      -0.453247       -12.3335
 215   2.0000      -0.451389       -12.2829
 216   2.0000      -0.443934       -12.0801
 217   2.0000      -0.442967       -12.0538
 218   2.0000      -0.441118       -12.0034
 219   2.0000      -0.438991       -11.9456
 220   2.0000      -0.435991       -11.8639
 221   2.0000      -0.434339       -11.8190
 222   2.0000      -0.422889       -11.5074
 223   2.0000      -0.422365       -11.4931
 224   2.0000      -0.421728       -11.4758
 225   2.0000      -0.420978       -11.4554
 226   2.0000      -0.420232       -11.4351
 227   2.0000      -0.414536       -11.2801
 228   2.0000      -0.409294       -11.1374
 229   2.0000      -0.404999       -11.0206
 230   2.0000      -0.404133       -10.9970
 231   2.0000      -0.403327       -10.9751
 232   2.0000      -0.402350       -10.9485
 233   2.0000      -0.393353       -10.7037
 234   2.0000      -0.390851       -10.6356
 235   2.0000      -0.384795       -10.4708
 236   2.0000      -0.384336       -10.4583
 237   2.0000      -0.379387       -10.3237
 238   2.0000      -0.377535       -10.2733
 239   2.0000      -0.371112       -10.0985
 240   2.0000      -0.369713       -10.0604
 241   2.0000      -0.367777       -10.0077
 242   2.0000      -0.356692        -9.7061
 243   2.0000      -0.353075        -9.6077
 244   2.0000      -0.342393        -9.3170
 245   2.0000      -0.341804        -9.3010
 246   2.0000      -0.337242        -9.1768
 247   2.0000      -0.333107        -9.0643
 248   2.0000      -0.329531        -8.9670
 249   2.0000      -0.324252        -8.8233
 250   2.0000      -0.314506        -8.5582
 251   2.0000      -0.309723        -8.4280
 252   2.0000      -0.297307        -8.0901
 253   2.0000      -0.289246        -7.8708
 254   2.0000      -0.281249        -7.6532
 255   2.0000      -0.276902        -7.5349
 256   2.0000      -0.245083        -6.6691
 257   2.0000      -0.204574        -5.5668
 258   0.0000      -0.104009        -2.8302
 259   0.0000      -0.088106        -2.3975
 260   0.0000      -0.073507        -2.0002
 261   0.0000      -0.056971        -1.5503
 262   0.0000      -0.047654        -1.2967

MULLIKEN ATOMIC CHARGES
-----------------------
   0 C :    0.301540
   1 C :   -0.341864
   2 C :   -0.187825
   3 N :    0.148186
   4 C :   -0.200477
   5 N :    0.160839
   6 C :    0.019795
   7 C :   -0.017752
   8 C :   -0.062391
   9 C :    0.116868
  10 C :   -0.087851
  11 C :   -0.023311
  12 S :    0.184452
  13 C :   -0.123870
  14 C :    0.037552
  15 Br:    0.021540
  16 C :    0.159076
  17 O :   -0.148471
  18 C :   -0.082546
  19 C :   -0.032635
  20 C :    0.121666
  21 O :   -0.207003
  22 C :   -0.016030
  23 C :    0.183626
  24 O :   -0.141207
  25 N :   -0.163971
  26 C :    0.165520
  27 O :   -0.145553
  28 C :   -0.058807
  29 C :    0.105904
  30 C :   -0.060983
  31 C :    0.011054
  32 C :    0.164565
  33 C :    0.185746
  34 O :   -0.246808
  35 C :    0.212815
  36 C :    0.220793
  37 C :   -0.177614
  38 S :    0.109948
  39 C :   -0.165737
  40 O :   -0.252736
  41 C :   -0.090085
  42 C :    0.028339
  43 C :   -0.001822
  44 C :   -0.018946
  45 C :    0.035029
  46 C :    0.030518
  47 C :   -0.048776
  48 S :    0.092453
  49 C :   -0.033228
  50 C :    0.037499
  51 C :    0.029200
  52 C :   -0.029086
  53 S :    0.090122
  54 C :    0.047977
  55 C :   -0.225163
  56 S :    0.152575
  57 C :   -0.137053
  58 C :    0.125784
  59 C :    0.190079
  60 O :   -0.192682
  61 C :    0.251153
  62 N :    0.280183
  63 O :   -0.241216
  64 O :   -0.215879
  65 C :   -0.075492
  66 H :   -0.010647
  67 H :   -0.007366
  68 H :   -0.003014
  69 H :    0.034905
  70 H :    0.137753
  71 H :    0.022916
  72 H :    0.026289
  73 H :    0.022099
  74 H :    0.004518
  75 H :   -0.001571
  76 H :    0.033845
  77 H :   -0.010438
  78 H :   -0.008254
  79 H :   -0.012485
  80 H :   -0.011538
  81 H :   -0.012348
  82 H :   -0.021062
  83 H :    0.034120
  84 H :    0.014750
Sum of atomic charges:   -0.0000000

LOEWDIN ATOMIC CHARGES
----------------------
   0 C :    0.073757
   1 C :   -0.139254
   2 C :   -0.018058
   3 N :   -0.054440
   4 C :   -0.022908
   5 N :   -0.051466
   6 C :   -0.019049
   7 C :   -0.044542
   8 C :    0.024916
   9 C :   -0.032095
  10 C :   -0.143465
  11 C :   -0.010699
  12 S :    0.431082
  13 C :   -0.272061
  14 C :   -0.069942
  15 Br:    0.135314
  16 C :    0.087954
  17 O :   -0.134975
  18 C :   -0.077424
  19 C :    0.046629
  20 C :    0.042917
  21 O :    0.015310
  22 C :   -0.045816
  23 C :    0.090176
  24 O :   -0.147194
  25 N :   -0.002891
  26 C :    0.085402
  27 O :   -0.163166
  28 C :   -0.107044
  29 C :    0.089694
  30 C :   -0.064977
  31 C :    0.013950
  32 C :    0.003703
  33 C :    0.054790
  34 O :   -0.040331
  35 C :   -0.014328
  36 C :   -0.009284
  37 C :   -0.214714
  38 S :    0.438220
  39 C :   -0.198480
  40 O :   -0.058697
  41 C :   -0.050904
  42 C :   -0.004343
  43 C :   -0.055350
  44 C :   -0.135262
  45 C :   -0.033674
  46 C :   -0.027532
  47 C :   -0.177745
  48 S :    0.399484
  49 C :   -0.179991
  50 C :   -0.030037
  51 C :   -0.034116
  52 C :   -0.142914
  53 S :    0.407078
  54 C :   -0.085845
  55 C :   -0.197566
  56 S :    0.477702
  57 C :   -0.188683
  58 C :   -0.080975
  59 C :    0.010134
  60 O :    0.000399
  61 C :    0.025284
  62 N :    0.276867
  63 O :   -0.209091
  64 O :   -0.183939
  65 C :   -0.003669
  66 H :    0.041427
  67 H :    0.040663
  68 H :    0.038909
  69 H :    0.052085
  70 H :    0.094530
  71 H :    0.044165
  72 H :    0.045388
  73 H :    0.027908
  74 H :    0.019402
  75 H :    0.035234
  76 H :    0.028991
  77 H :    0.034126
  78 H :    0.035085
  79 H :    0.032559
  80 H :    0.032773
  81 H :    0.032797
  82 H :    0.034185
  83 H :    0.029704
  84 H :    0.048246

  Mayer bond orders larger than 0.100000
B(  0-C ,  1-C ) :   1.6299 B(  0-C ,  6-C ) :   1.0067 B(  0-C , 18-C ) :   1.0875
B(  1-C ,  2-C ) :   1.1443 B(  1-C ,  4-C ) :   1.1432 B(  2-C ,  3-N ) :   2.9678
B(  4-C ,  5-N ) :   2.9874 B(  6-C ,  7-C ) :   1.2745 B(  6-C , 11-C ) :   1.4060
B(  7-C ,  8-C ) :   1.4291 B(  7-C , 16-C ) :   0.9393 B(  8-C ,  9-C ) :   1.2458
B(  8-C , 66-H ) :   1.0167 B(  9-C , 10-C ) :   1.3060 B(  9-C , 14-C ) :   1.1598
B( 10-C , 11-C ) :   1.3319 B( 10-C , 12-S ) :   1.0845 B( 11-C , 67-H ) :   0.9808
B( 12-S , 13-C ) :   1.0854 B( 13-C , 14-C ) :   1.6201 B( 13-C , 15-Br) :   1.0175
B( 14-C , 68-H ) :   1.0010 B( 16-C , 17-O ) :   2.2190 B( 16-C , 18-C ) :   0.9372
B( 18-C , 19-C ) :   1.5683 B( 19-C , 20-C ) :   1.1940 B( 19-C , 69-H ) :   0.9363
B( 20-C , 21-O ) :   1.1096 B( 20-C , 22-C ) :   1.4148 B( 21-O , 29-C ) :   1.1720
B( 22-C , 23-C ) :   0.8638 B( 22-C , 28-C ) :   1.3357 B( 23-C , 24-O ) :   2.2391
B( 23-C , 25-N ) :   1.0910 B( 25-N , 26-C ) :   1.0726 B( 25-N , 70-H ) :   0.9156
B( 26-C , 27-O ) :   2.2628 B( 26-C , 28-C ) :   0.8887 B( 28-C , 29-C ) :   1.3182
B( 29-C , 30-C ) :   1.2425 B( 30-C , 31-C ) :   1.5439 B( 30-C , 71-H ) :   0.9469
B( 31-C , 32-C ) :   1.1831 B( 31-C , 72-H ) :   0.9609 B( 32-C , 33-C ) :   1.3849
B( 32-C , 40-O ) :   1.0437 B( 33-C , 34-O ) :   1.0923 B( 33-C , 41-C ) :   1.2147
B( 34-O , 35-C ) :   1.0339 B( 35-C , 36-C ) :   1.2018 B( 35-C , 39-C ) :   1.5671
B( 36-C , 37-C ) :   1.5701 B( 36-C , 40-O ) :   1.0526 B( 37-C , 38-S ) :   1.1400
B( 37-C , 73-H ) :   0.9717 B( 38-S , 39-C ) :   1.1506 B( 39-C , 74-H ) :   0.9586
B( 41-C , 42-C ) :   1.5484 B( 41-C , 75-H ) :   0.9673 B( 42-C , 43-C ) :   1.1879
B( 42-C , 76-H ) :   0.9702 B( 43-C , 44-C ) :   1.5033 B( 43-C , 77-H ) :   0.9873
B( 44-C , 45-C ) :   1.1688 B( 44-C , 48-S ) :   1.0511 B( 45-C , 46-C ) :   1.5579
B( 45-C , 78-H ) :   0.9996 B( 46-C , 47-C ) :   1.2120 B( 46-C , 79-H ) :   0.9952
B( 47-C , 48-S ) :   1.0583 B( 47-C , 49-C ) :   1.4676 B( 49-C , 50-C ) :   1.1981
B( 49-C , 53-S ) :   1.0473 B( 50-C , 51-C ) :   1.5810 B( 50-C , 80-H ) :   0.9939
B( 51-C , 52-C ) :   1.1463 B( 51-C , 81-H ) :   1.0006 B( 52-C , 53-S ) :   1.0491
B( 52-C , 54-C ) :   1.5890 B( 54-C , 55-C ) :   1.1582 B( 54-C , 82-H ) :   0.9458
B( 55-C , 56-S ) :   1.1324 B( 55-C , 57-C ) :   0.1075 B( 55-C , 59-C ) :   1.4184
B( 56-S , 57-C ) :   1.1855 B( 57-C , 58-C ) :   1.4250 B( 57-C , 83-H ) :   0.9766
B( 58-C , 59-C ) :   1.2358 B( 58-C , 65-C ) :   1.0703 B( 59-C , 60-O ) :   1.0897
B( 60-O , 61-C ) :   1.1181 B( 61-C , 62-N ) :   0.9184 B( 61-C , 65-C ) :   1.5704
B( 62-N , 63-O ) :   1.5120 B( 62-N , 64-O ) :   1.5132 B( 63-O , 64-O ) :   0.2709
B( 65-C , 84-H ) :   1.0252

-----------------------------------------------------------------------------
         ABSORPTION SPECTRUM VIA TRANSITION ELECTRIC DIPOLE MOMENTS
-----------------------------------------------------------------------------
State   Energy  Wavelength   fosc         T2         TX        TY        TZ
        (cm-1)    (nm)                  (au**2)     (au)      (au)      (au)
-----------------------------------------------------------------------------
   0    9417.0   1061.9   1.440840255  50.37103   0.74502  -0.36271  -7.04872
   1   12360.3    809.0   0.056861862   1.51449   0.16373  -0.66186   1.02451
   2   14775.5    676.8   0.052808846   1.17663  -0.43240  -0.00454   0.99481
   3   17131.4    583.7   0.055936833   1.07493   0.16491  -0.45037   0.91919
   4   20017.2    499.6   0.027250879   0.44818   0.17312   0.57800  -0.29004
   5   21263.9    470.3   0.244391284   3.78371  -0.15184  -0.87088  -1.73269
   6   22061.3    453.3   0.007415510   0.11066  -0.01145  -0.32472  -0.07132
   7   22279.5    448.8   0.072511411   1.07146  -0.36116  -0.05835  -0.96831
   8   23699.0    422.0   0.097679414   1.35690  -0.18091   0.80110  -0.82609
   9   24167.7    413.8   0.032578085   0.44378   0.08742   0.64795  -0.12768
  10   25862.5    386.7   0.213653837   2.71966   1.12941   0.13288  -1.19434
  11   26259.6    380.8   0.071212725   0.89278  -0.08803  -0.03898   0.93995
  12   27232.0    367.2   0.523162896   6.32460  -0.85544   2.33945   0.34613
  13   27764.9    360.2   0.067039262   0.79489   0.32685  -0.81065   0.17579
  14   28128.5    355.5   0.129931961   1.52070  -0.93506   0.80008  -0.07903
  15   28490.5    351.0   0.021422381   0.24754  -0.49050  -0.05564  -0.06210
  16   28785.2    347.4   0.289863743   3.31513   0.68449  -1.62666  -0.44788
  17   29330.9    340.9   0.028933033   0.32475  -0.09554  -0.56176   0.00669
  18   29495.8    339.0   0.173328968   1.93458   0.60822  -0.23891  -1.22783
  19   31021.2    322.4   0.050702931   0.53808  -0.26194   0.44859   0.51792
  20   31184.8    320.7   0.025104488   0.26502  -0.06769   0.48157   0.16892
  21   31400.5    318.5   0.035265611   0.36973  -0.17084  -0.43836   0.38522
  22   31626.1    316.2   0.027785293   0.28923   0.28788  -0.45162  -0.04899
  23   32009.8    312.4   0.141582729   1.45614  -0.42169   1.08358  -0.32277
  24   32284.3    309.7   0.257019184   2.62090  -1.35315   0.57185   0.68035
  25   32694.0    305.9   0.004030408   0.04058   0.15305  -0.09642  -0.08868
  26   32753.2    305.3   0.395789654   3.97820  -1.59857  -0.29961   1.15455
  27   32839.1    304.5   0.002082479   0.02088  -0.10985  -0.03983   0.08500
  28   33235.3    300.9   0.015385536   0.15240  -0.03523   0.16502  -0.35204
  29   33545.6    298.1   0.002162760   0.02123  -0.14135  -0.00754   0.03449
  30   33783.0    296.0   0.023280884   0.22687   0.36439  -0.28742   0.10714
  31   34240.1    292.1   0.035933951   0.34550  -0.05039   0.32207  -0.48911
  32   34673.6    288.4   0.030109699   0.28588   0.19469  -0.37570   0.32684
  33   34994.2    285.8   0.151802169   1.42810   0.00195  -0.51801   1.07692
  34   35241.9    283.8   0.054482999   0.50895   0.14342  -0.21273  -0.66568
  35   35477.0    281.9   0.195889330   1.81777  -0.03016   0.73819  -1.12780
  36   35755.0    279.7   0.112750121   1.03814   0.34053  -0.41633  -0.86536
  37   36151.9    276.6   0.003283310   0.02990   0.00908  -0.14418   0.09502
  38   36392.4    274.8   0.020191350   0.18265   0.03816  -0.20442  -0.37338
  39   36709.1    272.4   0.003854330   0.03457   0.02732   0.03976   0.17955
  40   36954.7    270.6   0.005976308   0.05324   0.10122  -0.14648   0.14676
  41   37110.1    269.5   0.122361952   1.08550  -0.02200   0.39424   0.96415
  42   37178.6    269.0   0.016393732   0.14516   0.35885  -0.12766  -0.00977
  43   37250.3    268.5   0.009197245   0.08128   0.25729  -0.12225   0.01191
  44   37633.4    265.7   0.217407171   1.90185   0.51241  -0.05147   1.27931
  45   37964.6    263.4   0.046648669   0.40452   0.59570   0.03857   0.21948
  46   38008.7    263.1   0.200390845   1.73568  -0.01858   0.13943  -1.30992
  47   38576.7    259.2   0.036854112   0.31451  -0.25871  -0.28385   0.40867
  48   38937.2    256.8   0.013901554   0.11754  -0.15947   0.01757  -0.30298
  49   39232.4    254.9   0.026703168   0.22407  -0.39427   0.22694  -0.13087
  50   39320.9    254.3   0.061900983   0.51826   0.62446  -0.35512   0.04691
  51   39453.5    253.5   0.024194463   0.20189  -0.04397   0.07151   0.44141
  52   39720.2    251.8   0.064653999   0.53587  -0.07697   0.67901   0.26248
  53   40084.7    249.5   0.086211774   0.70805   0.73061  -0.41415  -0.05236

FINAL SINGLE POINT ENERGY     -7259.209459825389

DIPOLE MOMENT
-------------
                                X             Y             Z
Electronic contribution:    -49.43731       6.92029     170.61383
Nuclear contribution   :     48.27696      -6.77648    -175.50463
                        -----------------------------------------
Total Dipole Moment    :     -1.16035       0.14381      -4.89080
                        -----------------------------------------
Magnitude (a.u.)       :      5.02862
Magnitude (Debye)      :     12.78174

Rotational constants in cm-1:     0.002360     0.000209     0.000199
Rotational constants in MHz :    70.751431     6.269333     5.975959

                             ****ORCA TERMINATED NORMALLY****
TOTAL RUN TIME: 0 days 0 hours 8 minutes 36 seconds 226 msec
