                         Program Version 4.2.0 -  RELEASE  -
|  1> # ORCA input file
|  2> # SCF done       -165.227289288727          0.004120577528
|  3> ! CAM-B3LYP def2-SVP def2/J RIJCOSX Grid4 TightSCF
|  4> %maxcore 5000
|  5> %tddft
|  6>     Mode sTDDFT
|  7>     Ethresh 5.0
|  8>     maxcore 5000
|  9> end
| 10>
| 11> %pal
| 12>   nprocs 6
| 13>   end
| 14> * xyz 0 1
| 15>    C       -3.81587         2.65755         1.58247
| 16>    C       -4.31156         3.76124         2.24841
| 17>    C       -3.53624         4.61093         3.05624
| 18>    N       -2.96945         5.35027         3.72955
| 19>    C       -5.63403         4.23430         2.18134
| 20>    N       -6.68867         4.69587         2.15175
| 21>    C       -2.41521         2.25350         1.57071
| 22>    C       -2.26221         1.17781         0.66393
| 23>    C       -1.04817         0.59525         0.40263
| 24>    C        0.07291         1.08685         1.08204
| 25>    C       -0.09160         2.15086         1.99727
| 26>    C       -1.31972         2.74842         2.25341
| 27>    S        1.42003         2.60333         2.72713
| 28>    C        2.23948         1.37592         1.80147
| 29>    C        1.42603         0.66083         0.98954
| 30>   Br        4.09282         1.15197         1.99326
| 31>    C       -3.57697         0.84885         0.06557
| 32>    O       -3.76354         0.08603        -0.85501
| 33>    C       -4.55052         1.73226         0.75088
| 34>    C       -5.91743         1.75027         0.61631
| 35>    C       -6.76936         0.83195        -0.03368
| 36>    C       -8.09286         1.14736        -0.32870
| 37>    O       -8.92544         0.27137        -0.97589
| 38>    C       -8.37208        -0.92313        -1.33874
| 39>    C       -7.02151        -1.24680        -1.02182
| 40>    C       -6.65785        -2.47318        -1.47032
| 41>    S       -7.96248        -3.25041        -2.29081
| 42>    C       -9.00832        -1.90847        -2.02151
| 43>    O       -6.22713        -0.39388        -0.32710
| 44>    C       -8.69574         2.40520        -0.04190
| 45>    C       -9.95457         2.75968        -0.40220
| 46>    C      -10.45012         4.05800        -0.07685
| 47>    C      -11.63948         4.59125        -0.40455
| 48>    C      -12.70755         3.89236        -1.18344
| 49>    C      -11.99873         6.00904        -0.00117
| 50>    N      -11.17499         6.58680         1.02648
| 51>    C       -9.92319         7.04285         0.77478
| 52>    C       -8.96916         7.23383         1.72390
| 53>    C       -7.66854         7.67514         1.42897
| 54>    C       -6.65036         7.75070         2.34285
| 55>    C       -5.29383         8.06616         2.09122
| 56>    C       -4.48777         7.99229         3.18563
| 57>    C       -5.16643         7.62712         4.37075
| 58>    S       -6.86198         7.38499         4.04950
| 59>    C       -4.63170         7.46778         5.63536
| 60>    C       -3.28395         7.59314         6.03145
| 61>    C       -3.08025         7.39042         7.36203
| 62>    C       -4.25941         7.10160         8.09589
| 63>    S       -5.63828         7.06839         7.01499
| 64>    C       -4.33249         6.89780         9.44960
| 65>    C       -5.48279         6.63905        10.21252
| 66>    S       -7.11164         6.47464         9.57320
| 67>    C       -7.82716         6.20899        11.11704
| 68>    C       -6.87097         6.24084        12.10532
| 69>    C       -5.56237         6.48077        11.58660
| 70>    O       -4.64699         6.51399        12.57919
| 71>    C       -5.35330         6.29934        13.72130
| 72>    N       -4.64363         6.28959        14.94148
| 73>    O       -5.29814         6.08641        15.94835
| 74>    O       -3.44626         6.48221        14.91022
| 75>    C       -6.69689         6.12631        13.51075
| 76>    H       -0.96291        -0.21458        -0.30411
| 77>    H       -1.39041         3.55980         2.95733
| 78>    H        1.76565        -0.13223         0.34936
| 79>    H       -6.42485         2.56307         1.10550
| 80>    H       -5.70754        -2.95321        -1.37093
| 81>    H      -10.01785        -1.92090        -2.37619
| 82>    H       -8.10907         3.13435         0.49207
| 83>    H      -10.57520         2.06531        -0.94497
| 84>    H       -9.75245         4.66391         0.48780
| 85>    H      -12.29734         3.10565        -1.80812
| 86>    H      -13.23970         4.59977        -1.81581
| 87>    H      -13.43409         3.44317        -0.50407
| 88>    H      -13.03900         6.02913         0.34024
| 89>    H      -11.93370         6.64711        -0.89193
| 90>    H      -11.33572         6.24181         1.96262
| 91>    H       -9.72186         7.28226        -0.26095
| 92>    H       -9.18595         6.98026         2.75252
| 93>    H       -7.43377         7.92240         0.40195
| 94>    H       -4.95399         8.32370         1.10298
| 95>    H       -3.42996         8.17918         3.17535
| 96>    H       -2.50576         7.81284         5.32453
| 97>    H       -2.12333         7.44198         7.85044
| 98>    H       -3.41106         6.95222        10.01414
| 99>    H       -8.88186         6.05021        11.19668
|100>    H       -7.43359         5.94765        14.26623
|101> *
|102>
|103>                          ****END OF INPUT****

CARTESIAN COORDINATES (ANGSTROEM)
---------------------------------
  C     -3.815870    2.657550    1.582470
  C     -4.311560    3.761240    2.248410
  C     -3.536240    4.610930    3.056240
  N     -2.969450    5.350270    3.729550
  C     -5.634030    4.234300    2.181340
  N     -6.688670    4.695870    2.151750
  C     -2.415210    2.253500    1.570710
  C     -2.262210    1.177810    0.663930
  C     -1.048170    0.595250    0.402630
  C      0.072910    1.086850    1.082040
  C     -0.091600    2.150860    1.997270
  C     -1.319720    2.748420    2.253410
  S      1.420030    2.603330    2.727130
  C      2.239480    1.375920    1.801470
  C      1.426030    0.660830    0.989540
  Br     4.092820    1.151970    1.993260
  C     -3.576970    0.848850    0.065570
  O     -3.763540    0.086030   -0.855010
  C     -4.550520    1.732260    0.750880
  C     -5.917430    1.750270    0.616310
  C     -6.769360    0.831950   -0.033680
  C     -8.092860    1.147360   -0.328700
  O     -8.925440    0.271370   -0.975890
  C     -8.372080   -0.923130   -1.338740
  C     -7.021510   -1.246800   -1.021820
  C     -6.657850   -2.473180   -1.470320
  S     -7.962480   -3.250410   -2.290810
  C     -9.008320   -1.908470   -2.021510
  O     -6.227130   -0.393880   -0.327100
  C     -8.695740    2.405200   -0.041900
  C     -9.954570    2.759680   -0.402200
  C    -10.450120    4.058000   -0.076850
  C    -11.639480    4.591250   -0.404550
  C    -12.707550    3.892360   -1.183440
  C    -11.998730    6.009040   -0.001170
  N    -11.174990    6.586800    1.026480
  C     -9.923190    7.042850    0.774780
  C     -8.969160    7.233830    1.723900
  C     -7.668540    7.675140    1.428970
  C     -6.650360    7.750700    2.342850
  C     -5.293830    8.066160    2.091220
  C     -4.487770    7.992290    3.185630
  C     -5.166430    7.627120    4.370750
  S     -6.861980    7.384990    4.049500
  C     -4.631700    7.467780    5.635360
  C     -3.283950    7.593140    6.031450
  C     -3.080250    7.390420    7.362030
  C     -4.259410    7.101600    8.095890
  S     -5.638280    7.068390    7.014990
  C     -4.332490    6.897800    9.449600
  C     -5.482790    6.639050   10.212520
  S     -7.111640    6.474640    9.573200
  C     -7.827160    6.208990   11.117040
  C     -6.870970    6.240840   12.105320
  C     -5.562370    6.480770   11.586600
  O     -4.646990    6.513990   12.579190
  C     -5.353300    6.299340   13.721300
  N     -4.643630    6.289590   14.941480
  O     -5.298140    6.086410   15.948350
  O     -3.446260    6.482210   14.910220
  C     -6.696890    6.126310   13.510750
  H     -0.962910   -0.214580   -0.304110
  H     -1.390410    3.559800    2.957330
  H      1.765650   -0.132230    0.349360
  H     -6.424850    2.563070    1.105500
  H     -5.707540   -2.953210   -1.370930
  H    -10.017850   -1.920900   -2.376190
  H     -8.109070    3.134350    0.492070
  H    -10.575200    2.065310   -0.944970
  H     -9.752450    4.663910    0.487800
  H    -12.297340    3.105650   -1.808120
  H    -13.239700    4.599770   -1.815810
  H    -13.434090    3.443170   -0.504070
  H    -13.039000    6.029130    0.340240
  H    -11.933700    6.647110   -0.891930
  H    -11.335720    6.241810    1.962620
  H     -9.721860    7.282260   -0.260950
  H     -9.185950    6.980260    2.752520
  H     -7.433770    7.922400    0.401950
  H     -4.953990    8.323700    1.102980
  H     -3.429960    8.179180    3.175350
  H     -2.505760    7.812840    5.324530
  H     -2.123330    7.441980    7.850440
  H     -3.411060    6.952220   10.014140
  H     -8.881860    6.050210   11.196680
  H     -7.433590    5.947650   14.266230

 Total Charge           Charge          ....    0
 Multiplicity           Mult            ....    1
 Number of Electrons    NEL             ....  486
 Basis Dimension        Dim             .... 1017

ORBITAL ENERGIES
----------------

  NO   OCC          E(Eh)            E(eV)
   0   2.0000    -482.884146    -13139.9456
   1   2.0000     -88.973197     -2421.0838
   2   2.0000     -88.964248     -2420.8402
   3   2.0000     -88.952609     -2420.5235
   4   2.0000     -88.923302     -2419.7261
   5   2.0000     -88.921604     -2419.6799
   6   2.0000     -62.561848     -1702.3944
   7   2.0000     -56.395800     -1534.6077
   8   2.0000     -56.393086     -1534.5339
   9   2.0000     -56.393048     -1534.5328
  10   2.0000     -19.297782      -525.1194
  11   2.0000     -19.288168      -524.8577
  12   2.0000     -19.275407      -524.5105
  13   2.0000     -19.227395      -523.2040
  14   2.0000     -19.225168      -523.1434
  15   2.0000     -19.206518      -522.6359
  16   2.0000     -14.638797      -398.3419
  17   2.0000     -14.437037      -392.8517
  18   2.0000     -14.418636      -392.3510
  19   2.0000     -14.412179      -392.1753
  20   2.0000     -10.378548      -282.4146
  21   2.0000     -10.367795      -282.1220
  22   2.0000     -10.360404      -281.9209
  23   2.0000     -10.360181      -281.9149
  24   2.0000     -10.356971      -281.8275
  25   2.0000     -10.349515      -281.6246
  26   2.0000     -10.345475      -281.5147
  27   2.0000     -10.340162      -281.3701
  28   2.0000     -10.337138      -281.2878
  29   2.0000     -10.324894      -280.9547
  30   2.0000     -10.322525      -280.8902
  31   2.0000     -10.321265      -280.8559
  32   2.0000     -10.320791      -280.8430
  33   2.0000     -10.317714      -280.7593
  34   2.0000     -10.315739      -280.7055
  35   2.0000     -10.314237      -280.6646
  36   2.0000     -10.305005      -280.4134
  37   2.0000     -10.304561      -280.4014
  38   2.0000     -10.303887      -280.3830
  39   2.0000     -10.302954      -280.3576
  40   2.0000     -10.298567      -280.2382
  41   2.0000     -10.297863      -280.2191
  42   2.0000     -10.297765      -280.2164
  43   2.0000     -10.297052      -280.1970
  44   2.0000     -10.297001      -280.1956
  45   2.0000     -10.295176      -280.1460
  46   2.0000     -10.294507      -280.1278
  47   2.0000     -10.293664      -280.1048
  48   2.0000     -10.291744      -280.0526
  49   2.0000     -10.290570      -280.0206
  50   2.0000     -10.287897      -279.9479
  51   2.0000     -10.286931      -279.9216
  52   2.0000     -10.286076      -279.8984
  53   2.0000     -10.283495      -279.8281
  54   2.0000     -10.279261      -279.7129
  55   2.0000     -10.278170      -279.6832
  56   2.0000     -10.276237      -279.6306
  57   2.0000     -10.276200      -279.6296
  58   2.0000     -10.268718      -279.4260
  59   2.0000     -10.266431      -279.3638
  60   2.0000     -10.262000      -279.2432
  61   2.0000     -10.261840      -279.2389
  62   2.0000     -10.260325      -279.1977
  63   2.0000     -10.255695      -279.0716
  64   2.0000     -10.253302      -279.0065
  65   2.0000      -8.791263      -239.2224
  66   2.0000      -8.069211      -219.5744
  67   2.0000      -8.059962      -219.3227
  68   2.0000      -8.047058      -218.9716
  69   2.0000      -8.019401      -218.2190
  70   2.0000      -8.017871      -218.1774
  71   2.0000      -6.627562      -180.3451
  72   2.0000      -6.612985      -179.9485
  73   2.0000      -6.612811      -179.9437
  74   2.0000      -6.038927      -164.3275
  75   2.0000      -6.034611      -164.2101
  76   2.0000      -6.030428      -164.0963
  77   2.0000      -6.029474      -164.0703
  78   2.0000      -6.025263      -163.9557
  79   2.0000      -6.021675      -163.8581
  80   2.0000      -6.016410      -163.7148
  81   2.0000      -6.012015      -163.5952
  82   2.0000      -6.009466      -163.5259
  83   2.0000      -5.989179      -162.9738
  84   2.0000      -5.987561      -162.9298
  85   2.0000      -5.985090      -162.8626
  86   2.0000      -5.983658      -162.8236
  87   2.0000      -5.980332      -162.7331
  88   2.0000      -5.978766      -162.6905
  89   2.0000      -2.743432       -74.6526
  90   2.0000      -2.739355       -74.5416
  91   2.0000      -2.739186       -74.5370
  92   2.0000      -2.727622       -74.2224
  93   2.0000      -2.727609       -74.2220
  94   2.0000      -1.309949       -35.6455
  95   2.0000      -1.217378       -33.1265
  96   2.0000      -1.207893       -32.8684
  97   2.0000      -1.177425       -32.0394
  98   2.0000      -1.125857       -30.6361
  99   2.0000      -1.121830       -30.5265
 100   2.0000      -1.041469       -28.3398
 101   2.0000      -1.020999       -27.7828
 102   2.0000      -1.012702       -27.5570
 103   2.0000      -0.994871       -27.0718
 104   2.0000      -0.993660       -27.0389
 105   2.0000      -0.986908       -26.8551
 106   2.0000      -0.975545       -26.5459
 107   2.0000      -0.968881       -26.3646
 108   2.0000      -0.949057       -25.8251
 109   2.0000      -0.945169       -25.7194
 110   2.0000      -0.937297       -25.5052
 111   2.0000      -0.922104       -25.0917
 112   2.0000      -0.916116       -24.9288
 113   2.0000      -0.905763       -24.6471
 114   2.0000      -0.898433       -24.4476
 115   2.0000      -0.885162       -24.0865
 116   2.0000      -0.883150       -24.0317
 117   2.0000      -0.876375       -23.8474
 118   2.0000      -0.872047       -23.7296
 119   2.0000      -0.855577       -23.2814
 120   2.0000      -0.848945       -23.1010
 121   2.0000      -0.832599       -22.6562
 122   2.0000      -0.831234       -22.6190
 123   2.0000      -0.826609       -22.4932
 124   2.0000      -0.821905       -22.3652
 125   2.0000      -0.819240       -22.2927
 126   2.0000      -0.806577       -21.9481
 127   2.0000      -0.796816       -21.6825
 128   2.0000      -0.792847       -21.5745
 129   2.0000      -0.779160       -21.2020
 130   2.0000      -0.768895       -20.9227
 131   2.0000      -0.762464       -20.7477
 132   2.0000      -0.755925       -20.5698
 133   2.0000      -0.744999       -20.2724
 134   2.0000      -0.734687       -19.9919
 135   2.0000      -0.713207       -19.4074
 136   2.0000      -0.708386       -19.2762
 137   2.0000      -0.701043       -19.0763
 138   2.0000      -0.692656       -18.8481
 139   2.0000      -0.687139       -18.6980
 140   2.0000      -0.685148       -18.6438
 141   2.0000      -0.682876       -18.5820
 142   2.0000      -0.673971       -18.3397
 143   2.0000      -0.664851       -18.0915
 144   2.0000      -0.657639       -17.8953
 145   2.0000      -0.653949       -17.7949
 146   2.0000      -0.650591       -17.7035
 147   2.0000      -0.630619       -17.1600
 148   2.0000      -0.625335       -17.0162
 149   2.0000      -0.623722       -16.9723
 150   2.0000      -0.622015       -16.9259
 151   2.0000      -0.619359       -16.8536
 152   2.0000      -0.611319       -16.6348
 153   2.0000      -0.608975       -16.5710
 154   2.0000      -0.606987       -16.5170
 155   2.0000      -0.601410       -16.3652
 156   2.0000      -0.595937       -16.2163
 157   2.0000      -0.592884       -16.1332
 158   2.0000      -0.585554       -15.9337
 159   2.0000      -0.578207       -15.7338
 160   2.0000      -0.577577       -15.7167
 161   2.0000      -0.575224       -15.6526
 162   2.0000      -0.568316       -15.4647
 163   2.0000      -0.567096       -15.4315
 164   2.0000      -0.565319       -15.3831
 165   2.0000      -0.559803       -15.2330
 166   2.0000      -0.559038       -15.2122
 167   2.0000      -0.546092       -14.8599
 168   2.0000      -0.545141       -14.8341
 169   2.0000      -0.544083       -14.8052
 170   2.0000      -0.537460       -14.6250
 171   2.0000      -0.534748       -14.5512
 172   2.0000      -0.530611       -14.4387
 173   2.0000      -0.528221       -14.3736
 174   2.0000      -0.526109       -14.3162
 175   2.0000      -0.521576       -14.1928
 176   2.0000      -0.519525       -14.1370
 177   2.0000      -0.516481       -14.0542
 178   2.0000      -0.512968       -13.9586
 179   2.0000      -0.509092       -13.8531
 180   2.0000      -0.506159       -13.7733
 181   2.0000      -0.501042       -13.6341
 182   2.0000      -0.498375       -13.5615
 183   2.0000      -0.496045       -13.4981
 184   2.0000      -0.491383       -13.3712
 185   2.0000      -0.490164       -13.3380
 186   2.0000      -0.488478       -13.2922
 187   2.0000      -0.485955       -13.2235
 188   2.0000      -0.484181       -13.1752
 189   2.0000      -0.481412       -13.0999
 190   2.0000      -0.478372       -13.0172
 191   2.0000      -0.474814       -12.9204
 192   2.0000      -0.473659       -12.8889
 193   2.0000      -0.472748       -12.8641
 194   2.0000      -0.469755       -12.7827
 195   2.0000      -0.467260       -12.7148
 196   2.0000      -0.460462       -12.5298
 197   2.0000      -0.457696       -12.4545
 198   2.0000      -0.455800       -12.4029
 199   2.0000      -0.454437       -12.3659
 200   2.0000      -0.449268       -12.2252
 201   2.0000      -0.444851       -12.1050
 202   2.0000      -0.444198       -12.0872
 203   2.0000      -0.440350       -11.9825
 204   2.0000      -0.439127       -11.9493
 205   2.0000      -0.436415       -11.8755
 206   2.0000      -0.435779       -11.8581
 207   2.0000      -0.433221       -11.7886
 208   2.0000      -0.431114       -11.7312
 209   2.0000      -0.427366       -11.6292
 210   2.0000      -0.427227       -11.6254
 211   2.0000      -0.420723       -11.4485
 212   2.0000      -0.419880       -11.4255
 213   2.0000      -0.417725       -11.3669
 214   2.0000      -0.415989       -11.3196
 215   2.0000      -0.413139       -11.2421
 216   2.0000      -0.409146       -11.1334
 217   2.0000      -0.406481       -11.0609
 218   2.0000      -0.395125       -10.7519
 219   2.0000      -0.389015       -10.5856
 220   2.0000      -0.386739       -10.5237
 221   2.0000      -0.381227       -10.3737
 222   2.0000      -0.375202       -10.2098
 223   2.0000      -0.373567       -10.1653
 224   2.0000      -0.370051       -10.0696
 225   2.0000      -0.365573        -9.9477
 226   2.0000      -0.361491        -9.8367
 227   2.0000      -0.359909        -9.7936
 228   2.0000      -0.354975        -9.6594
 229   2.0000      -0.332985        -9.0610
 230   2.0000      -0.331043        -9.0081
 231   2.0000      -0.327826        -8.9206
 232   2.0000      -0.314564        -8.5597
 233   2.0000      -0.312328        -8.4989
 234   2.0000      -0.308594        -8.3973
 235   2.0000      -0.307238        -8.3604
 236   2.0000      -0.300800        -8.1852
 237   2.0000      -0.296198        -8.0600
 238   2.0000      -0.290986        -7.9181
 239   2.0000      -0.284274        -7.7355
 240   2.0000      -0.254908        -6.9364
 241   2.0000      -0.245525        -6.6811
 242   2.0000      -0.183785        -5.0011
 243   0.0000      -0.096768        -2.6332
 244   0.0000      -0.058930        -1.6036
 245   0.0000      -0.055053        -1.4981
 246   0.0000      -0.038325        -1.0429
 247   0.0000      -0.022116        -0.6018

MULLIKEN ATOMIC CHARGES
-----------------------
   0 C :    0.303503
   1 C :   -0.367545
   2 C :   -0.151083
   3 N :    0.131311
   4 C :   -0.159489
   5 N :    0.135224
   6 C :    0.016896
   7 C :   -0.009111
   8 C :   -0.079185
   9 C :    0.120270
  10 C :   -0.089625
  11 C :   -0.024446
  12 S :    0.182449
  13 C :   -0.121781
  14 C :    0.036457
  15 Br:    0.021891
  16 C :    0.119725
  17 O :   -0.130213
  18 C :   -0.053271
  19 C :   -0.077566
  20 C :    0.164942
  21 C :    0.206075
  22 O :   -0.239787
  23 C :    0.205391
  24 C :    0.227487
  25 C :   -0.166590
  26 S :    0.115059
  27 C :   -0.167012
  28 O :   -0.219765
  29 C :   -0.082934
  30 C :    0.046634
  31 C :   -0.010997
  32 C :   -0.205318
  33 C :    0.082193
  34 C :    0.191933
  35 N :   -0.151251
  36 C :    0.036130
  37 C :    0.009753
  38 C :   -0.006765
  39 C :   -0.024347
  40 C :    0.028060
  41 C :    0.028196
  42 C :   -0.040751
  43 S :    0.059606
  44 C :   -0.052598
  45 C :    0.065162
  46 C :    0.012570
  47 C :   -0.014554
  48 S :    0.042964
  49 C :   -0.033403
  50 C :   -0.177928
  51 S :    0.128426
  52 C :   -0.149714
  53 C :    0.134783
  54 C :    0.178840
  55 O :   -0.186130
  56 C :    0.229347
  57 N :    0.276138
  58 O :   -0.257886
  59 O :   -0.237146
  60 C :   -0.078752
  61 H :   -0.012157
  62 H :   -0.007255
  63 H :   -0.004104
  64 H :    0.004856
  65 H :    0.033636
  66 H :    0.025048
  67 H :    0.012990
  68 H :    0.000236
  69 H :    0.013230
  70 H :    0.025665
  71 H :    0.020939
  72 H :    0.040109
  73 H :    0.021644
  74 H :    0.034504
  75 H :    0.121093
  76 H :    0.002473
  77 H :   -0.013132
  78 H :   -0.028215
  79 H :   -0.025132
  80 H :   -0.017804
  81 H :   -0.016771
  82 H :   -0.022027
  83 H :   -0.007214
  84 H :    0.020836
  85 H :    0.006078
Sum of atomic charges:   -0.0000000

LOEWDIN ATOMIC CHARGES
----------------------
   0 C :    0.080663
   1 C :   -0.152340
   2 C :   -0.008442
   3 N :   -0.056733
   4 C :   -0.011792
   5 N :   -0.059666
   6 C :   -0.023197
   7 C :   -0.047182
   8 C :    0.018222
   9 C :   -0.032127
  10 C :   -0.145440
  11 C :   -0.010316
  12 S :    0.430161
  13 C :   -0.271628
  14 C :   -0.071147
  15 Br:    0.135328
  16 C :    0.072962
  17 O :   -0.134440
  18 C :   -0.092906
  19 C :    0.047135
  20 C :    0.005007
  21 C :    0.078680
  22 O :   -0.036044
  23 C :   -0.013420
  24 C :   -0.005159
  25 C :   -0.200320
  26 S :    0.442368
  27 C :   -0.206460
  28 O :   -0.032535
  29 C :   -0.051701
  30 C :    0.022331
  31 C :   -0.060491
  32 C :   -0.023027
  33 C :   -0.048347
  34 C :    0.037579
  35 N :   -0.007206
  36 C :    0.039847
  37 C :   -0.108880
  38 C :   -0.029276
  39 C :   -0.171948
  40 C :   -0.031391
  41 C :   -0.044639
  42 C :   -0.163282
  43 S :    0.366775
  44 C :   -0.197674
  45 C :   -0.016566
  46 C :   -0.053448
  47 C :   -0.142307
  48 S :    0.351861
  49 C :   -0.099382
  50 C :   -0.195074
  51 S :    0.462312
  52 C :   -0.211799
  53 C :   -0.084937
  54 C :    0.008429
  55 O :   -0.001049
  56 C :    0.020131
  57 N :    0.272601
  58 O :   -0.218529
  59 O :   -0.198116
  60 C :   -0.012530
  61 H :    0.039621
  62 H :    0.040108
  63 H :    0.038424
  64 H :    0.044035
  65 H :    0.033795
  66 H :    0.029512
  67 H :    0.039236
  68 H :    0.027794
  69 H :    0.035950
  70 H :    0.033278
  71 H :    0.033614
  72 H :    0.043543
  73 H :    0.032469
  74 H :    0.038326
  75 H :    0.080340
  76 H :    0.026332
  77 H :    0.019327
  78 H :    0.028031
  79 H :    0.028679
  80 H :    0.029260
  81 H :    0.031179
  82 H :    0.029585
  83 H :    0.041110
  84 H :    0.023143
  85 H :    0.043809

  Mayer bond orders larger than 0.100000
B(  0-C ,  1-C ) :   1.5853 B(  0-C ,  6-C ) :   1.0023 B(  0-C , 18-C ) :   1.0980
B(  1-C ,  2-C ) :   1.1608 B(  1-C ,  4-C ) :   1.1676 B(  2-C ,  3-N ) :   2.9054
B(  4-C ,  5-N ) :   2.8944 B(  6-C ,  7-C ) :   1.2737 B(  6-C , 11-C ) :   1.4052
B(  7-C ,  8-C ) :   1.4319 B(  7-C , 16-C ) :   0.9256 B(  8-C ,  9-C ) :   1.2414
B(  8-C , 61-H ) :   1.0172 B(  9-C , 10-C ) :   1.3094 B(  9-C , 14-C ) :   1.1636
B( 10-C , 11-C ) :   1.3309 B( 10-C , 12-S ) :   1.0823 B( 11-C , 62-H ) :   0.9811
B( 12-S , 13-C ) :   1.0876 B( 13-C , 14-C ) :   1.6168 B( 13-C , 15-Br) :   1.0177
B( 14-C , 63-H ) :   1.0012 B( 16-C , 17-O ) :   2.2807 B( 16-C , 18-C ) :   0.9220
B( 18-C , 19-C ) :   1.5424 B( 19-C , 20-C ) :   1.2403 B( 19-C , 64-H ) :   0.9165
B( 20-C , 21-C ) :   1.3627 B( 20-C , 28-O ) :   1.0924 B( 21-C , 22-O ) :   1.1144
B( 21-C , 29-C ) :   1.1485 B( 22-O , 23-C ) :   1.0248 B( 23-C , 24-C ) :   1.2053
B( 23-C , 27-C ) :   1.5696 B( 24-C , 25-C ) :   1.5743 B( 24-C , 28-O ) :   1.0596
B( 25-C , 26-S ) :   1.1403 B( 25-C , 65-H ) :   0.9705 B( 26-S , 27-C ) :   1.1501
B( 27-C , 66-H ) :   0.9730 B( 29-C , 30-C ) :   1.6624 B( 29-C , 67-H ) :   0.9567
B( 30-C , 31-C ) :   1.0965 B( 30-C , 68-H ) :   0.9852 B( 31-C , 32-C ) :   1.7612
B( 31-C , 69-H ) :   0.9638 B( 32-C , 33-C ) :   1.0806 B( 32-C , 34-C ) :   0.9895
B( 33-C , 70-H ) :   0.9513 B( 33-C , 71-H ) :   0.9536 B( 33-C , 72-H ) :   0.9458
B( 34-C , 35-N ) :   1.0607 B( 34-C , 73-H ) :   0.9447 B( 34-C , 74-H ) :   0.9192
B( 35-N , 36-C ) :   1.1920 B( 35-N , 75-H ) :   0.9405 B( 36-C , 37-C ) :   1.6168
B( 36-C , 76-H ) :   0.9683 B( 37-C , 38-C ) :   1.1681 B( 37-C , 77-H ) :   0.9582
B( 38-C , 39-C ) :   1.5869 B( 38-C , 78-H ) :   0.9791 B( 39-C , 40-C ) :   1.1418
B( 39-C , 43-S ) :   1.0093 B( 40-C , 41-C ) :   1.5847 B( 40-C , 79-H ) :   1.0012
B( 41-C , 42-C ) :   1.1830 B( 41-C , 80-H ) :   0.9954 B( 42-C , 43-S ) :   1.0652
B( 42-C , 44-C ) :   1.5101 B( 44-C , 45-C ) :   1.2000 B( 44-C , 48-S ) :   1.0204
B( 45-C , 46-C ) :   1.5822 B( 45-C , 81-H ) :   0.9885 B( 46-C , 47-C ) :   1.1444
B( 46-C , 82-H ) :   1.0014 B( 47-C , 48-S ) :   1.0442 B( 47-C , 49-C ) :   1.5527
B( 49-C , 50-C ) :   1.1785 B( 49-C , 83-H ) :   0.9741 B( 50-C , 51-S ) :   1.1112
B( 50-C , 52-C ) :   0.1084 B( 50-C , 54-C ) :   1.4398 B( 51-S , 52-C ) :   1.1689
B( 52-C , 53-C ) :   1.4123 B( 52-C , 84-H ) :   0.9768 B( 53-C , 54-C ) :   1.2302
B( 53-C , 60-C ) :   1.0642 B( 54-C , 55-O ) :   1.1122 B( 55-O , 56-C ) :   1.1297
B( 56-C , 57-N ) :   0.9229 B( 56-C , 60-C ) :   1.5646 B( 57-N , 58-O ) :   1.5275
B( 57-N , 59-O ) :   1.5118 B( 58-O , 59-O ) :   0.2754 B( 60-C , 85-H ) :   1.0250

-----------------------------------------------------------------------------
         ABSORPTION SPECTRUM VIA TRANSITION ELECTRIC DIPOLE MOMENTS
-----------------------------------------------------------------------------
State   Energy  Wavelength   fosc         T2         TX        TY        TZ
        (cm-1)    (nm)                  (au**2)     (au)      (au)      (au)
-----------------------------------------------------------------------------
   0    5199.7   1923.2   0.000313555   0.01985  -0.06809  -0.01724  -0.12214
   1   14197.4    704.4   0.499558382  11.58386   0.26680  -0.05410   3.39260
   2   14693.9    680.6   0.141870308   3.17857  -0.22550   0.36697  -1.73004
   3   17171.9    582.3   0.269949964   5.17537  -2.25562  -0.20622  -0.21215
   4   18244.6    548.1   1.032596528  18.63252  -2.44483  -0.04067  -3.55720
   5   19051.7    524.9   0.022893005   0.39559  -0.44892  -0.14436  -0.41619
   6   23071.8    433.4   0.002849573   0.04066  -0.02152  -0.10575   0.17034
   7   24623.9    406.1   0.012016635   0.16066  -0.09652   0.31610   0.22677
   8   25242.9    396.2   0.027501485   0.35867  -0.56249  -0.18157   0.09645
   9   26239.3    381.1   0.037114675   0.46566   0.37881  -0.24104  -0.51387
  10   27058.8    369.6   0.451853440   5.49750   2.11510  -0.99354   0.19166
  11   27410.9    364.8   0.084326715   1.01278  -0.32345   0.95087   0.06329
  12   27966.1    357.6   0.087745889   1.03293  -0.80550   0.60518   0.13362
  13   28619.2    349.4   0.005195026   0.05976   0.11378  -0.07147   0.20422
  14   29000.7    344.8   0.095203302   1.08073  -0.67570  -0.48613  -0.62277
  15   29240.6    342.0   0.113127174   1.27367   1.04157   0.36468   0.23623
  16   29431.0    339.8   0.087574040   0.97960   0.97750  -0.08495   0.12986
  17   29560.5    338.3   0.168391557   1.87536   1.33771   0.15883   0.24632
  18   30080.6    332.4   0.003091614   0.03384   0.00896   0.02212  -0.18239
  19   30242.7    330.7   0.030066071   0.32729   0.24720   0.26165  -0.44465
  20   30341.0    329.6   0.009394481   0.10193  -0.11575  -0.08951   0.28377
  21   30765.0    325.0   0.558733682   5.97893   2.15507   0.67082  -0.94053
  22   31048.0    322.1   0.088043852   0.93356  -0.94598   0.06199   0.18662
  23   31663.4    315.8   0.205316292   2.13473   1.37598  -0.22014  -0.43925
  24   32991.8    303.1   0.036845859   0.36767  -0.42533   0.41636   0.11580
  25   33206.2    301.1   0.539657647   5.35026   1.84284  -1.36466  -0.30317
  26   33232.3    300.9   0.147087558   1.45710   1.10097  -0.35973   0.33994
  27   33835.8    295.5   0.065934504   0.64152   0.36353   0.45651   0.54860
  28   34103.2    293.2   0.050602924   0.48849   0.55094  -0.19415   0.38375
  29   34775.8    287.6   0.003013218   0.02853  -0.03025  -0.10151  -0.13155
  30   35130.5    284.7   0.005706659   0.05348   0.05235   0.22383   0.02521
  31   35242.2    283.8   0.110855287   1.03554  -0.21578  -0.95923  -0.26240
  32   35520.0    281.5   0.009343348   0.08660   0.11768   0.13339   0.23442
  33   36413.5    274.6   0.308961357   2.79330   0.72503   0.00433   1.50586
  34   36679.3    272.6   0.132989541   1.19364   0.62233   0.01299   0.89787
  35   37170.9    269.0   0.017621662   0.15607  -0.37885  -0.05052  -0.09997
  36   37336.8    267.8   0.117028321   1.03188  -0.82767   0.58887  -0.00820
  37   37814.3    264.5   0.010729113   0.09341   0.11910  -0.04622   0.27764
  38   38365.5    260.7   0.053386850   0.45811  -0.49642  -0.13208  -0.44072
  39   38514.6    259.6   0.006270229   0.05360  -0.02132  -0.12623   0.19289
  40   38774.0    257.9   0.181781137   1.54342  -0.65468  -0.83890  -0.64115
  41   38814.0    257.6   0.013352428   0.11325   0.07940  -0.28203  -0.16555
  42   38901.5    257.1   0.001291871   0.01093   0.08766  -0.03085  -0.04792
  43   39326.9    254.3   0.000025771   0.00022   0.01170  -0.00218   0.00861
  44   39336.4    254.2   0.012373270   0.10355   0.27760   0.16274  -0.00252
  45   39583.2    252.6   0.014533064   0.12087  -0.30813  -0.12270   0.10427
  46   39647.1    252.2   0.039330456   0.32658   0.12526   0.19384   0.52280

FINAL SINGLE POINT ENERGY     -6961.225436084930

DIPOLE MOMENT
-------------
                                X             Y             Z
Electronic contribution:    141.43142     -44.00239      14.52555
Nuclear contribution   :   -144.12460      42.28081     -19.97226
                        -----------------------------------------
Total Dipole Moment    :     -2.69318      -1.72158      -5.44671
                        -----------------------------------------
Magnitude (a.u.)       :      6.31535
Magnitude (Debye)      :     16.05235

Rotational constants in cm-1:     0.000801     0.000543     0.000380
Rotational constants in MHz :    24.005006    16.277104    11.398648

                             ****ORCA TERMINATED NORMALLY****
TOTAL RUN TIME: 0 days 0 hours 7 minutes 39 seconds 978 msec
