                         Program Version 4.2.0 -  RELEASE  -
|  1> # ORCA input file
|  2> # SCF done       -155.095304146590          0.000493771216
|  3> ! CAM-B3LYP def2-SVP def2/J RIJCOSX Grid4 TightSCF
|  4> %maxcore 5000
|  5> %tddft
|  6>     Mode sTDDFT
|  7>     Ethresh 5.0
|  8>     maxcore 5000
|  9> end
| 10>
| 11> %pal
| 12>   nprocs 6
| 13>   end
| 14> * xyz 0 1
| 15>    C       -3.22681         1.16707        -2.04517
| 16>    C       -2.08803         1.91015        -2.25185
| 17>    C       -0.83649         1.35873        -2.59001
| 18>    N        0.20985         0.97434        -2.86851
| 19>    C       -1.99051         3.31213        -2.15501
| 20>    N       -1.82184         4.44761        -2.09249
| 21>    C       -3.30720        -0.28860        -2.14136
| 22>    C       -4.63209        -0.69063        -1.84161
| 23>    C       -5.03160        -2.00371        -1.85047
| 24>    C       -4.07528        -2.97310        -2.17368
| 25>    C       -2.75495        -2.56428        -2.47164
| 26>    C       -2.35130        -1.23388        -2.46074
| 27>    S       -1.73524        -3.92109        -2.84581
| 28>    C       -3.08009        -5.00359        -2.60089
| 29>    C       -4.23323        -4.38389        -2.25588
| 30>   Br       -2.83491        -6.85020        -2.82400
| 31>    C       -5.43933         0.50719        -1.54498
| 32>    O       -6.62090         0.52085        -1.23885
| 33>    C       -4.54164         1.65112        -1.69405
| 34>    C       -4.90921         2.97031        -1.54404
| 35>    C       -6.14786         3.52255        -1.22314
| 36>    S       -7.66075         2.69728        -0.86861
| 37>    C       -8.53051         4.18418        -0.62485
| 38>    C       -7.68746         5.28379        -0.81344
| 39>    C       -6.36878         4.90003        -1.13822
| 40>    S       -5.37669         6.29649        -1.34535
| 41>    C       -6.80189         7.26149        -0.98182
| 42>    N       -7.88366         6.62924        -0.73708
| 43>    C       -9.90164         4.17488        -0.28443
| 44>    C      -10.64340         5.30284        -0.14537
| 45>    C      -12.01912         5.28370         0.22183
| 46>    C      -12.83347         6.35072         0.34763
| 47>    C      -12.46268         7.76364         0.04256
| 48>    C      -14.27989         6.14990         0.73098
| 49>    N      -15.11975         6.16032        -0.44873
| 50>    C      -15.61664         7.29531        -0.98750
| 51>    C      -16.10897         7.38962        -2.25285
| 52>    C      -16.68746         8.55798        -2.77534
| 53>    C      -17.22564         8.66606        -4.03232
| 54>    C      -17.79208         9.81586        -4.62949
| 55>    C      -18.26019         9.62236        -5.89492
| 56>    C      -18.09890         8.30382        -6.37078
| 57>    S      -17.31370         7.31473        -5.15968
| 58>    C      -18.49233         7.78880        -7.59199
| 59>    C      -19.11403         8.45304        -8.66684
| 60>    C      -19.39158         7.64771        -9.73213
| 61>    C      -19.01294         6.29427        -9.56817
| 62>    S      -18.26791         6.09604        -7.99058
| 63>    C      -19.22407         5.31044       -10.50618
| 64>    C      -18.93878         3.94232       -10.49371
| 65>    S      -19.43834         3.02141       -11.91509
| 66>    C      -18.85763         1.49596       -11.31270
| 67>    C      -18.29288         1.69811       -10.05752
| 68>    C      -18.33652         3.04930        -9.60301
| 69>    N      -17.74352         3.04454        -8.38399
| 70>    N      -17.33744         1.81434        -8.03750
| 71>    C      -17.64874         0.99455        -9.00860
| 72>    C      -18.97397         0.27384       -12.03309
| 73>    C      -19.53568         0.14482       -13.23867
| 74>    H       -6.04910        -2.27598        -1.61766
| 75>    H       -1.33258        -0.97603        -2.69642
| 76>    H       -5.15805        -4.89795        -2.06746
| 77>    H       -4.14127         3.71847        -1.70342
| 78>    H       -6.72776         8.33124        -0.97493
| 79>    H      -10.35137         3.20075        -0.14288
| 80>    H      -10.15350         6.25024        -0.31010
| 81>    H      -12.42828         4.30347         0.44018
| 82>    H      -11.43838         7.85520        -0.30072
| 83>    H      -12.59089         8.38369         0.93050
| 84>    H      -13.12346         8.15782        -0.73231
| 85>    H      -14.61752         6.95096         1.39343
| 86>    H      -14.41679         5.19138         1.23866
| 87>    H      -14.97323         5.39198        -1.08949
| 88>    H      -15.66983         8.14251        -0.31654
| 89>    H      -16.06491         6.52365        -2.90054
| 90>    H      -16.71039         9.44145        -2.15035
| 91>    H      -17.83558        10.75342        -4.10318
| 92>    H      -18.72169        10.38755        -6.49305
| 93>    H      -19.33973         9.50360        -8.62981
| 94>    H      -19.86484         7.98483       -10.63759
| 95>    H      -19.70965         5.65288       -11.41269
| 96>    H      -17.58972         3.81381        -7.75432
| 97>    H      -17.41327        -0.04808        -8.94126
| 98>    H      -18.56263        -0.58922       -11.52497
| 99>    H      -19.94825         0.99502       -13.75626
|100>    H      -19.59494        -0.80669       -13.73505
|101> *
|102>
|103>                          ****END OF INPUT****

CARTESIAN COORDINATES (ANGSTROEM)
---------------------------------
  C     -3.226810    1.167070   -2.045170
  C     -2.088030    1.910150   -2.251850
  C     -0.836490    1.358730   -2.590010
  N      0.209850    0.974340   -2.868510
  C     -1.990510    3.312130   -2.155010
  N     -1.821840    4.447610   -2.092490
  C     -3.307200   -0.288600   -2.141360
  C     -4.632090   -0.690630   -1.841610
  C     -5.031600   -2.003710   -1.850470
  C     -4.075280   -2.973100   -2.173680
  C     -2.754950   -2.564280   -2.471640
  C     -2.351300   -1.233880   -2.460740
  S     -1.735240   -3.921090   -2.845810
  C     -3.080090   -5.003590   -2.600890
  C     -4.233230   -4.383890   -2.255880
  Br    -2.834910   -6.850200   -2.824000
  C     -5.439330    0.507190   -1.544980
  O     -6.620900    0.520850   -1.238850
  C     -4.541640    1.651120   -1.694050
  C     -4.909210    2.970310   -1.544040
  C     -6.147860    3.522550   -1.223140
  S     -7.660750    2.697280   -0.868610
  C     -8.530510    4.184180   -0.624850
  C     -7.687460    5.283790   -0.813440
  C     -6.368780    4.900030   -1.138220
  S     -5.376690    6.296490   -1.345350
  C     -6.801890    7.261490   -0.981820
  N     -7.883660    6.629240   -0.737080
  C     -9.901640    4.174880   -0.284430
  C    -10.643400    5.302840   -0.145370
  C    -12.019120    5.283700    0.221830
  C    -12.833470    6.350720    0.347630
  C    -12.462680    7.763640    0.042560
  C    -14.279890    6.149900    0.730980
  N    -15.119750    6.160320   -0.448730
  C    -15.616640    7.295310   -0.987500
  C    -16.108970    7.389620   -2.252850
  C    -16.687460    8.557980   -2.775340
  C    -17.225640    8.666060   -4.032320
  C    -17.792080    9.815860   -4.629490
  C    -18.260190    9.622360   -5.894920
  C    -18.098900    8.303820   -6.370780
  S    -17.313700    7.314730   -5.159680
  C    -18.492330    7.788800   -7.591990
  C    -19.114030    8.453040   -8.666840
  C    -19.391580    7.647710   -9.732130
  C    -19.012940    6.294270   -9.568170
  S    -18.267910    6.096040   -7.990580
  C    -19.224070    5.310440  -10.506180
  C    -18.938780    3.942320  -10.493710
  S    -19.438340    3.021410  -11.915090
  C    -18.857630    1.495960  -11.312700
  C    -18.292880    1.698110  -10.057520
  C    -18.336520    3.049300   -9.603010
  N    -17.743520    3.044540   -8.383990
  N    -17.337440    1.814340   -8.037500
  C    -17.648740    0.994550   -9.008600
  C    -18.973970    0.273840  -12.033090
  C    -19.535680    0.144820  -13.238670
  H     -6.049100   -2.275980   -1.617660
  H     -1.332580   -0.976030   -2.696420
  H     -5.158050   -4.897950   -2.067460
  H     -4.141270    3.718470   -1.703420
  H     -6.727760    8.331240   -0.974930
  H    -10.351370    3.200750   -0.142880
  H    -10.153500    6.250240   -0.310100
  H    -12.428280    4.303470    0.440180
  H    -11.438380    7.855200   -0.300720
  H    -12.590890    8.383690    0.930500
  H    -13.123460    8.157820   -0.732310
  H    -14.617520    6.950960    1.393430
  H    -14.416790    5.191380    1.238660
  H    -14.973230    5.391980   -1.089490
  H    -15.669830    8.142510   -0.316540
  H    -16.064910    6.523650   -2.900540
  H    -16.710390    9.441450   -2.150350
  H    -17.835580   10.753420   -4.103180
  H    -18.721690   10.387550   -6.493050
  H    -19.339730    9.503600   -8.629810
  H    -19.864840    7.984830  -10.637590
  H    -19.709650    5.652880  -11.412690
  H    -17.589720    3.813810   -7.754320
  H    -17.413270   -0.048080   -8.941260
  H    -18.562630   -0.589220  -11.524970
  H    -19.948250    0.995020  -13.756260
  H    -19.594940   -0.806690  -13.735050

 Total Charge           Charge          ....    0
 Multiplicity           Mult            ....    1
 Number of Electrons    NEL             ....  478
 Basis Dimension        Dim             .... 1003

ORBITAL ENERGIES
----------------

  NO   OCC          E(Eh)            E(eV)
   0   2.0000    -482.883468    -13139.9272
   1   2.0000     -88.976214     -2421.1659
   2   2.0000     -88.972842     -2421.0741
   3   2.0000     -88.972245     -2421.0579
   4   2.0000     -88.945584     -2420.3324
   5   2.0000     -88.935392     -2420.0550
   6   2.0000     -88.929545     -2419.8960
   7   2.0000     -62.561183     -1702.3763
   8   2.0000     -56.395130     -1534.5895
   9   2.0000     -56.392419     -1534.5157
  10   2.0000     -56.392385     -1534.5148
  11   2.0000     -19.217866      -522.9447
  12   2.0000     -14.461797      -393.5255
  13   2.0000     -14.443275      -393.0215
  14   2.0000     -14.429949      -392.6589
  15   2.0000     -14.421970      -392.4418
  16   2.0000     -14.413117      -392.2008
  17   2.0000     -14.409121      -392.0921
  18   2.0000     -10.365634      -282.0632
  19   2.0000     -10.356321      -281.8098
  20   2.0000     -10.349479      -281.6237
  21   2.0000     -10.337370      -281.2941
  22   2.0000     -10.335129      -281.2332
  23   2.0000     -10.323513      -280.9171
  24   2.0000     -10.322765      -280.8967
  25   2.0000     -10.322691      -280.8947
  26   2.0000     -10.322243      -280.8825
  27   2.0000     -10.322017      -280.8764
  28   2.0000     -10.320573      -280.8371
  29   2.0000     -10.320108      -280.8244
  30   2.0000     -10.316489      -280.7259
  31   2.0000     -10.316281      -280.7203
  32   2.0000     -10.312820      -280.6261
  33   2.0000     -10.304452      -280.3984
  34   2.0000     -10.304313      -280.3946
  35   2.0000     -10.302027      -280.3324
  36   2.0000     -10.300752      -280.2977
  37   2.0000     -10.298476      -280.2358
  38   2.0000     -10.297770      -280.2166
  39   2.0000     -10.296474      -280.1813
  40   2.0000     -10.295826      -280.1637
  41   2.0000     -10.294472      -280.1268
  42   2.0000     -10.294303      -280.1222
  43   2.0000     -10.293019      -280.0873
  44   2.0000     -10.292655      -280.0774
  45   2.0000     -10.291199      -280.0378
  46   2.0000     -10.290857      -280.0285
  47   2.0000     -10.290051      -280.0065
  48   2.0000     -10.289058      -279.9795
  49   2.0000     -10.286235      -279.9027
  50   2.0000     -10.281939      -279.7858
  51   2.0000     -10.279095      -279.7084
  52   2.0000     -10.278005      -279.6787
  53   2.0000     -10.274887      -279.5939
  54   2.0000     -10.274619      -279.5866
  55   2.0000     -10.272953      -279.5412
  56   2.0000     -10.272399      -279.5262
  57   2.0000     -10.271860      -279.5115
  58   2.0000     -10.270100      -279.4636
  59   2.0000     -10.268723      -279.4262
  60   2.0000     -10.263916      -279.2953
  61   2.0000     -10.259256      -279.1686
  62   2.0000     -10.257059      -279.1088
  63   2.0000      -8.790613      -239.2047
  64   2.0000      -8.072189      -219.6554
  65   2.0000      -8.068842      -219.5643
  66   2.0000      -8.064959      -219.4587
  67   2.0000      -8.040488      -218.7928
  68   2.0000      -8.031666      -218.5527
  69   2.0000      -8.025773      -218.3924
  70   2.0000      -6.626906      -180.3273
  71   2.0000      -6.612352      -179.9313
  72   2.0000      -6.612151      -179.9258
  73   2.0000      -6.041533      -164.3985
  74   2.0000      -6.038543      -164.3171
  75   2.0000      -6.037459      -164.2876
  76   2.0000      -6.034484      -164.2066
  77   2.0000      -6.034249      -164.2003
  78   2.0000      -6.033899      -164.1907
  79   2.0000      -6.030056      -164.0862
  80   2.0000      -6.029913      -164.0823
  81   2.0000      -6.027077      -164.0051
  82   2.0000      -6.009853      -163.5364
  83   2.0000      -6.005747      -163.4247
  84   2.0000      -6.002586      -163.3387
  85   2.0000      -6.001430      -163.3072
  86   2.0000      -5.997588      -163.2027
  87   2.0000      -5.995524      -163.1465
  88   2.0000      -5.992459      -163.0631
  89   2.0000      -5.991615      -163.0401
  90   2.0000      -5.986616      -162.9041
  91   2.0000      -2.742783       -74.6349
  92   2.0000      -2.738679       -74.5233
  93   2.0000      -2.738556       -74.5199
  94   2.0000      -2.726976       -74.2048
  95   2.0000      -2.726965       -74.2045
  96   2.0000      -1.132421       -30.8147
  97   2.0000      -1.126414       -30.6513
  98   2.0000      -1.082559       -29.4579
  99   2.0000      -1.045310       -28.4443
 100   2.0000      -1.019674       -27.7468
 101   2.0000      -1.009939       -27.4818
 102   2.0000      -0.990422       -26.9508
 103   2.0000      -0.990038       -26.9403
 104   2.0000      -0.985041       -26.8043
 105   2.0000      -0.980704       -26.6863
 106   2.0000      -0.968233       -26.3470
 107   2.0000      -0.957117       -26.0445
 108   2.0000      -0.941355       -25.6156
 109   2.0000      -0.934622       -25.4324
 110   2.0000      -0.919786       -25.0286
 111   2.0000      -0.905754       -24.6468
 112   2.0000      -0.905204       -24.6319
 113   2.0000      -0.896441       -24.3934
 114   2.0000      -0.892722       -24.2922
 115   2.0000      -0.882718       -24.0200
 116   2.0000      -0.880662       -23.9640
 117   2.0000      -0.874425       -23.7943
 118   2.0000      -0.862585       -23.4721
 119   2.0000      -0.858213       -23.3532
 120   2.0000      -0.840041       -22.8587
 121   2.0000      -0.834345       -22.7037
 122   2.0000      -0.828803       -22.5529
 123   2.0000      -0.826622       -22.4935
 124   2.0000      -0.825123       -22.4527
 125   2.0000      -0.815669       -22.1955
 126   2.0000      -0.808319       -21.9955
 127   2.0000      -0.798044       -21.7159
 128   2.0000      -0.790259       -21.5040
 129   2.0000      -0.777083       -21.1455
 130   2.0000      -0.759055       -20.6549
 131   2.0000      -0.753040       -20.4912
 132   2.0000      -0.746862       -20.3231
 133   2.0000      -0.721953       -19.6453
 134   2.0000      -0.717680       -19.5291
 135   2.0000      -0.710035       -19.3210
 136   2.0000      -0.699753       -19.0412
 137   2.0000      -0.693929       -18.8828
 138   2.0000      -0.688670       -18.7397
 139   2.0000      -0.686558       -18.6822
 140   2.0000      -0.678111       -18.4523
 141   2.0000      -0.675864       -18.3912
 142   2.0000      -0.666898       -18.1472
 143   2.0000      -0.659716       -17.9518
 144   2.0000      -0.656583       -17.8665
 145   2.0000      -0.647834       -17.6285
 146   2.0000      -0.643838       -17.5197
 147   2.0000      -0.631317       -17.1790
 148   2.0000      -0.626670       -17.0526
 149   2.0000      -0.620651       -16.8888
 150   2.0000      -0.617165       -16.7939
 151   2.0000      -0.612351       -16.6629
 152   2.0000      -0.605347       -16.4723
 153   2.0000      -0.598094       -16.2750
 154   2.0000      -0.591331       -16.0909
 155   2.0000      -0.588046       -16.0015
 156   2.0000      -0.587090       -15.9755
 157   2.0000      -0.579599       -15.7717
 158   2.0000      -0.575479       -15.6596
 159   2.0000      -0.572384       -15.5754
 160   2.0000      -0.564110       -15.3502
 161   2.0000      -0.558999       -15.2111
 162   2.0000      -0.551849       -15.0166
 163   2.0000      -0.550379       -14.9766
 164   2.0000      -0.546339       -14.8666
 165   2.0000      -0.541891       -14.7456
 166   2.0000      -0.538373       -14.6499
 167   2.0000      -0.534922       -14.5560
 168   2.0000      -0.533314       -14.5122
 169   2.0000      -0.531595       -14.4654
 170   2.0000      -0.528255       -14.3746
 171   2.0000      -0.524368       -14.2688
 172   2.0000      -0.520058       -14.1515
 173   2.0000      -0.518655       -14.1133
 174   2.0000      -0.513894       -13.9838
 175   2.0000      -0.509895       -13.8750
 176   2.0000      -0.508410       -13.8346
 177   2.0000      -0.506146       -13.7729
 178   2.0000      -0.503703       -13.7065
 179   2.0000      -0.495312       -13.4781
 180   2.0000      -0.494593       -13.4586
 181   2.0000      -0.492415       -13.3993
 182   2.0000      -0.491845       -13.3838
 183   2.0000      -0.483229       -13.1493
 184   2.0000      -0.481931       -13.1140
 185   2.0000      -0.479915       -13.0592
 186   2.0000      -0.473414       -12.8822
 187   2.0000      -0.471697       -12.8355
 188   2.0000      -0.468651       -12.7526
 189   2.0000      -0.465476       -12.6662
 190   2.0000      -0.462615       -12.5884
 191   2.0000      -0.459751       -12.5105
 192   2.0000      -0.457963       -12.4618
 193   2.0000      -0.456776       -12.4295
 194   2.0000      -0.455328       -12.3901
 195   2.0000      -0.451287       -12.2801
 196   2.0000      -0.450612       -12.2618
 197   2.0000      -0.446223       -12.1423
 198   2.0000      -0.445124       -12.1124
 199   2.0000      -0.442865       -12.0510
 200   2.0000      -0.440386       -11.9835
 201   2.0000      -0.440150       -11.9771
 202   2.0000      -0.438613       -11.9353
 203   2.0000      -0.436898       -11.8886
 204   2.0000      -0.436175       -11.8689
 205   2.0000      -0.432521       -11.7695
 206   2.0000      -0.425265       -11.5720
 207   2.0000      -0.422889       -11.5074
 208   2.0000      -0.421160       -11.4604
 209   2.0000      -0.419792       -11.4231
 210   2.0000      -0.413391       -11.2489
 211   2.0000      -0.410188       -11.1618
 212   2.0000      -0.409574       -11.1451
 213   2.0000      -0.409249       -11.1362
 214   2.0000      -0.402352       -10.9485
 215   2.0000      -0.399349       -10.8668
 216   2.0000      -0.390126       -10.6159
 217   2.0000      -0.387227       -10.5370
 218   2.0000      -0.385055       -10.4779
 219   2.0000      -0.372880       -10.1466
 220   2.0000      -0.371626       -10.1125
 221   2.0000      -0.370425       -10.0798
 222   2.0000      -0.364223        -9.9110
 223   2.0000      -0.347962        -9.4685
 224   2.0000      -0.345716        -9.4074
 225   2.0000      -0.333969        -9.0878
 226   2.0000      -0.333424        -9.0729
 227   2.0000      -0.332628        -9.0513
 228   2.0000      -0.323685        -8.8079
 229   2.0000      -0.323240        -8.7958
 230   2.0000      -0.316282        -8.6065
 231   2.0000      -0.312340        -8.4992
 232   2.0000      -0.310437        -8.4474
 233   2.0000      -0.300299        -8.1715
 234   2.0000      -0.291027        -7.9192
 235   2.0000      -0.283985        -7.7276
 236   2.0000      -0.254828        -6.9342
 237   2.0000      -0.238937        -6.5018
 238   2.0000      -0.182325        -4.9613
 239   0.0000      -0.095714        -2.6045
 240   0.0000      -0.063540        -1.7290
 241   0.0000      -0.060226        -1.6388
 242   0.0000      -0.038027        -1.0348
 243   0.0000      -0.014500        -0.3946

MULLIKEN ATOMIC CHARGES
-----------------------
   0 C :    0.332002
   1 C :   -0.361317
   2 C :   -0.186938
   3 N :    0.147013
   4 C :   -0.187760
   5 N :    0.136669
   6 C :    0.007921
   7 C :   -0.011970
   8 C :   -0.073190
   9 C :    0.117353
  10 C :   -0.092120
  11 C :   -0.019809
  12 S :    0.185713
  13 C :   -0.124090
  14 C :    0.038474
  15 Br:    0.021208
  16 C :    0.163960
  17 O :   -0.188165
  18 C :   -0.108948
  19 C :   -0.029161
  20 C :   -0.143458
  21 S :    0.218264
  22 C :   -0.120177
  23 C :    0.092572
  24 C :   -0.027023
  25 S :    0.136696
  26 C :    0.015262
  27 N :   -0.050644
  28 C :    0.000702
  29 C :    0.028502
  30 C :    0.010941
  31 C :   -0.174078
  32 C :    0.091389
  33 C :    0.196754
  34 N :   -0.141493
  35 C :    0.046151
  36 C :   -0.025833
  37 C :   -0.009351
  38 C :   -0.036771
  39 C :    0.039195
  40 C :    0.010386
  41 C :   -0.039491
  42 S :    0.046178
  43 C :   -0.039383
  44 C :    0.023239
  45 C :    0.021462
  46 C :   -0.026205
  47 S :    0.009587
  48 C :    0.025240
  49 C :   -0.213944
  50 S :    0.114026
  51 C :   -0.116907
  52 C :    0.006179
  53 C :    0.171052
  54 N :   -0.051616
  55 N :   -0.062495
  56 C :   -0.010202
  57 C :    0.010141
  58 C :   -0.030913
  59 H :   -0.012402
  60 H :   -0.007392
  61 H :   -0.004311
  62 H :    0.000901
  63 H :    0.049674
  64 H :   -0.022650
  65 H :    0.015304
  66 H :   -0.026606
  67 H :    0.021775
  68 H :    0.024709
  69 H :    0.039704
  70 H :    0.013679
  71 H :    0.016324
  72 H :    0.120738
  73 H :    0.001458
  74 H :   -0.012983
  75 H :   -0.025663
  76 H :   -0.022075
  77 H :   -0.021616
  78 H :   -0.019411
  79 H :   -0.019589
  80 H :   -0.026791
  81 H :    0.136864
  82 H :   -0.011407
  83 H :   -0.011051
  84 H :    0.019408
  85 H :    0.022626
Sum of atomic charges:   -0.0000000

LOEWDIN ATOMIC CHARGES
----------------------
   0 C :    0.077754
   1 C :   -0.151040
   2 C :   -0.018558
   3 N :   -0.060187
   4 C :   -0.020792
   5 N :   -0.061182
   6 C :   -0.019683
   7 C :   -0.049693
   8 C :    0.020424
   9 C :   -0.034043
  10 C :   -0.144713
  11 C :   -0.009669
  12 S :    0.432004
  13 C :   -0.272401
  14 C :   -0.070606
  15 Br:    0.134808
  16 C :    0.084478
  17 O :   -0.174538
  18 C :   -0.118765
  19 C :    0.050650
  20 C :   -0.213692
  21 S :    0.523185
  22 C :   -0.144322
  23 C :   -0.081838
  24 C :   -0.173183
  25 S :    0.416896
  26 C :   -0.096142
  27 N :   -0.084962
  28 C :   -0.054918
  29 C :    0.018144
  30 C :   -0.054897
  31 C :   -0.018092
  32 C :   -0.049192
  33 C :    0.046805
  34 N :    0.002618
  35 C :    0.037650
  36 C :   -0.120007
  37 C :   -0.039860
  38 C :   -0.174185
  39 C :   -0.031884
  40 C :   -0.050928
  41 C :   -0.175130
  42 S :    0.347746
  43 C :   -0.192652
  44 C :   -0.040787
  45 C :   -0.043536
  46 C :   -0.157295
  47 S :    0.358490
  48 C :   -0.086275
  49 C :   -0.200203
  50 S :    0.442151
  51 C :   -0.178627
  52 C :   -0.089802
  53 C :   -0.025773
  54 N :    0.085075
  55 N :   -0.054804
  56 C :   -0.046718
  57 C :   -0.038440
  58 C :   -0.055074
  59 H :    0.040120
  60 H :    0.040899
  61 H :    0.038384
  62 H :    0.045312
  63 H :    0.022922
  64 H :    0.028174
  65 H :    0.030672
  66 H :    0.024613
  67 H :    0.034777
  68 H :    0.037534
  69 H :    0.041239
  70 H :    0.030064
  71 H :    0.028952
  72 H :    0.080667
  73 H :    0.025588
  74 H :    0.018730
  75 H :    0.028914
  76 H :    0.029756
  77 H :    0.028410
  78 H :    0.030137
  79 H :    0.030367
  80 H :    0.032428
  81 H :    0.055002
  82 H :    0.019301
  83 H :    0.034766
  84 H :    0.017370
  85 H :    0.025107

  Mayer bond orders larger than 0.100000
B(  0-C ,  1-C ) :   1.6000 B(  0-C ,  6-C ) :   0.9949 B(  0-C , 18-C ) :   1.0981
B(  1-C ,  2-C ) :   1.1501 B(  1-C ,  4-C ) :   1.1528 B(  2-C ,  3-N ) :   2.9643
B(  4-C ,  5-N ) :   2.9491 B(  6-C ,  7-C ) :   1.2751 B(  6-C , 11-C ) :   1.4193
B(  7-C ,  8-C ) :   1.4282 B(  7-C , 16-C ) :   0.9549 B(  8-C ,  9-C ) :   1.2403
B(  8-C , 59-H ) :   1.0165 B(  9-C , 10-C ) :   1.3126 B(  9-C , 14-C ) :   1.1609
B( 10-C , 11-C ) :   1.3236 B( 10-C , 12-S ) :   1.0852 B( 11-C , 60-H ) :   0.9787
B( 12-S , 13-C ) :   1.0875 B( 13-C , 14-C ) :   1.6192 B( 13-C , 15-Br) :   1.0177
B( 14-C , 61-H ) :   1.0003 B( 16-C , 17-O ) :   2.1193 B( 16-C , 18-C ) :   0.9910
B( 18-C , 19-C ) :   1.4727 B( 19-C , 20-C ) :   1.3290 B( 19-C , 62-H ) :   0.9362
B( 20-C , 21-S ) :   1.0681 B( 20-C , 24-C ) :   1.3686 B( 21-S , 22-C ) :   1.1437
B( 22-C , 23-C ) :   1.3231 B( 22-C , 28-C ) :   1.1444 B( 23-C , 24-C ) :   1.3163
B( 23-C , 27-N ) :   1.2928 B( 24-C , 25-S ) :   1.1030 B( 25-S , 26-C ) :   1.0920
B( 25-S , 27-N ) :   0.1020 B( 26-C , 27-N ) :   1.7734 B( 26-C , 63-H ) :   0.9640
B( 28-C , 29-C ) :   1.6583 B( 28-C , 64-H ) :   0.9683 B( 29-C , 30-C ) :   1.1119
B( 29-C , 65-H ) :   0.9532 B( 30-C , 31-C ) :   1.7335 B( 30-C , 66-H ) :   0.9773
B( 31-C , 32-C ) :   1.0813 B( 31-C , 33-C ) :   1.0304 B( 32-C , 67-H ) :   0.9518
B( 32-C , 68-H ) :   0.9435 B( 32-C , 69-H ) :   0.9387 B( 33-C , 34-N ) :   1.0200
B( 33-C , 70-H ) :   0.9319 B( 33-C , 71-H ) :   0.9442 B( 34-N , 35-C ) :   1.2197
B( 34-N , 72-H ) :   0.9366 B( 35-C , 36-C ) :   1.5912 B( 35-C , 73-H ) :   0.9648
B( 36-C , 37-C ) :   1.1747 B( 36-C , 74-H ) :   0.9625 B( 37-C , 38-C ) :   1.5825
B( 37-C , 75-H ) :   0.9773 B( 38-C , 39-C ) :   1.1514 B( 38-C , 42-S ) :   1.0116
B( 39-C , 40-C ) :   1.5808 B( 39-C , 76-H ) :   0.9975 B( 40-C , 41-C ) :   1.1981
B( 40-C , 77-H ) :   0.9934 B( 41-C , 42-S ) :   1.0469 B( 41-C , 43-C ) :   1.4935
B( 43-C , 44-C ) :   1.2068 B( 43-C , 47-S ) :   1.0339 B( 44-C , 45-C ) :   1.5706
B( 44-C , 78-H ) :   0.9910 B( 45-C , 46-C ) :   1.1633 B( 45-C , 79-H ) :   0.9982
B( 46-C , 47-S ) :   1.0141 B( 46-C , 48-C ) :   1.5875 B( 48-C , 49-C ) :   1.2098
B( 48-C , 80-H ) :   0.9290 B( 49-C , 50-S ) :   1.1035 B( 49-C , 51-C ) :   0.1105
B( 49-C , 53-C ) :   1.3374 B( 50-S , 51-C ) :   1.1241 B( 51-C , 52-C ) :   1.3432
B( 51-C , 57-C ) :   1.1625 B( 52-C , 53-C ) :   1.2568 B( 52-C , 56-C ) :   1.1553
B( 53-C , 54-N ) :   1.1481 B( 54-N , 55-N ) :   1.1385 B( 54-N , 81-H ) :   0.9340
B( 55-N , 56-C ) :   1.7345 B( 56-C , 82-H ) :   0.9979 B( 57-C , 58-C ) :   1.8848
B( 57-C , 83-H ) :   0.9633 B( 58-C , 84-H ) :   0.9571 B( 58-C , 85-H ) :   0.9512

-----------------------------------------------------------------------------
         ABSORPTION SPECTRUM VIA TRANSITION ELECTRIC DIPOLE MOMENTS
-----------------------------------------------------------------------------
State   Energy  Wavelength   fosc         T2         TX        TY        TZ
        (cm-1)    (nm)                  (au**2)     (au)      (au)      (au)
-----------------------------------------------------------------------------
   0   10175.6    982.7   0.213665894   6.91272   2.09521  -0.04729   1.58763
   1   13737.2    727.9   1.128967641  27.05566  -1.58000  -2.65692  -4.18331
   2   18793.4    532.1   0.632902487  11.08685   2.36111  -2.21816  -0.76926
   3   19074.5    524.3   0.948433149  16.36928  -3.11827   2.39165   0.96214
   4   21246.4    470.7   0.019704399   0.30532  -0.15831  -0.10948  -0.51795
   5   22346.2    447.5   0.012279571   0.18091  -0.01596  -0.16800   0.39042
   6   23524.0    425.1   0.008019169   0.11223  -0.08367  -0.08982   0.31170
   7   25098.5    398.4   0.178479895   2.34108   0.76518  -1.31059   0.19478
   8   25811.2    387.4   0.513363282   6.54776   0.86515  -1.99337   1.35121
   9   27673.1    361.4   0.348549146   4.14650  -0.07780   2.01544   0.28008
  10   29213.9    342.3   0.003672605   0.04139  -0.10520   0.08415   0.15245
  11   29460.0    339.4   0.058235389   0.65077   0.27850  -0.56612   0.50272
  12   29592.0    337.9   0.040768310   0.45355   0.61777  -0.20882  -0.16824
  13   30104.5    332.2   0.001717894   0.01879  -0.02911  -0.12740   0.04134
  14   30254.6    330.5   0.040622442   0.44203  -0.58702  -0.28765   0.12125
  15   30911.5    323.5   0.066307587   0.70619  -0.46035  -0.70156  -0.04555
  16   31478.6    317.7   0.057298510   0.59924  -0.68332  -0.31674   0.17888
  17   31908.5    313.4   0.010753016   0.11094   0.29775   0.14014   0.05148
  18   32268.1    309.9   0.001215868   0.01240   0.00576   0.10916  -0.02137
  19   32694.8    305.9   0.007534612   0.07587   0.12310   0.20479   0.13703
  20   33152.3    301.6   0.691871050   6.87047  -1.30761  -2.26246   0.20473
  21   33384.3    299.5   0.003889575   0.03836  -0.11680  -0.15186   0.04064
  22   33518.2    298.3   0.048006611   0.47152  -0.25469  -0.62800  -0.11076
  23   33855.6    295.4   0.032012777   0.31129   0.25322  -0.49714  -0.00466
  24   34290.0    291.6   0.000454557   0.00436   0.06472  -0.00910   0.00964
  25   34462.2    290.2   0.045095586   0.43079  -0.17330   0.56656  -0.28243
  26   34600.9    289.0   0.029391826   0.27965   0.05694  -0.39308   0.34914
  27   35294.7    283.3   0.021252697   0.19824  -0.11264   0.35082  -0.24994
  28   35696.3    280.1   0.005415234   0.04994   0.01638  -0.11176   0.19283
  29   36182.8    276.4   0.188814941   1.71795   0.58734  -0.26709   1.14090
  30   37606.3    265.9   0.046635754   0.40826   0.57353  -0.20876  -0.18903
  31   37633.1    265.7   0.012995350   0.11368   0.30594  -0.14010  -0.02133
  32   37846.4    264.2   0.019906042   0.17316   0.17284  -0.07369   0.37128
  33   38512.0    259.7   0.025020790   0.21389  -0.18450  -0.25694  -0.33738
  34   38908.2    257.0   0.013436725   0.11369  -0.24199   0.00714   0.23470
  35   39125.4    255.6   0.078497978   0.66050   0.04653  -0.57742  -0.57002
  36   39284.0    254.6   0.210631280   1.76516   1.31887  -0.09825  -0.12681
  37   39366.6    254.0   0.014331696   0.11985   0.04988  -0.34258   0.00225
  38   39435.3    253.6   0.040787920   0.34050  -0.46641  -0.09998   0.33611
  39   39753.3    251.6   0.078613288   0.65103  -0.01490  -0.79980  -0.10547
  40   40198.4    248.8   0.000675194   0.00553  -0.03214   0.01001   0.06630
  41   40228.4    248.6   0.029808534   0.24394   0.44170  -0.18787  -0.11638

FINAL SINGLE POINT ENERGY     -7094.281369837232

DIPOLE MOMENT
-------------
                                X             Y             Z
Electronic contribution:    154.58838    -142.51829      13.06883
Nuclear contribution   :   -156.49259     143.39327     -11.01430
                        -----------------------------------------
Total Dipole Moment    :     -1.90421       0.87498       2.05453
                        -----------------------------------------
Magnitude (a.u.)       :      2.93474
Magnitude (Debye)      :      7.45952

Rotational constants in cm-1:     0.000939     0.000273     0.000226
Rotational constants in MHz :    28.151068     8.196909     6.768680

                             ****ORCA TERMINATED NORMALLY****
TOTAL RUN TIME: 0 days 0 hours 7 minutes 16 seconds 426 msec
