                         Program Version 4.2.0 -  RELEASE  -
|  1> # ORCA input file
|  2> # SCF done       -170.165094222720          0.000677537927
|  3> ! CAM-B3LYP def2-SVP def2/J RIJCOSX Grid4 TightSCF
|  4> %maxcore 5000
|  5> %tddft
|  6>     Mode sTDDFT
|  7>     Ethresh 5.0
|  8>     maxcore 5000
|  9> end
| 10>
| 11> %pal
| 12>   nprocs 6
| 13>   end
| 14> * xyz 0 1
| 15>    C       -1.09068         0.51162         2.64730
| 16>    C       -1.40998        -0.82319         2.78593
| 17>    C       -0.53435        -1.79460         3.30530
| 18>    N        0.12768        -2.63805         3.71987
| 19>    C       -2.63612        -1.41905         2.43585
| 20>    N       -3.59896        -1.99382         2.18046
| 21>    C        0.19408         1.10551         3.01981
| 22>    C        0.15273         2.48954         2.72627
| 23>    C        1.21102         3.33006         2.96331
| 24>    C        2.37152         2.77795         3.51886
| 25>    C        2.40361         1.39561         3.80874
| 26>    C        1.33020         0.54441         3.56830
| 27>    S        3.93132         0.92027         4.48929
| 28>    C        4.49707         2.56568         4.37476
| 29>    C        3.59166         3.42716         3.85546
| 30>   Br        6.23138         2.99050         4.95257
| 31>    C       -1.17067         2.82346         2.15352
| 32>    O       -1.53502         3.92751         1.79233
| 33>    C       -1.92122         1.55774         2.12334
| 34>    C       -3.22374         1.42633         1.66145
| 35>    C       -3.99536         2.45602         1.15453
| 36>    C       -5.30249         2.27727         0.71337
| 37>    C       -6.15636         3.25755         0.18458
| 38>    C       -7.40056         2.78726        -0.15972
| 39>    C       -7.56823         1.41941         0.08653
| 40>    S       -6.11665         0.73070         0.76151
| 41>    C       -8.70751         0.63669        -0.14007
| 42>    C       -9.94389         1.03934        -0.65204
| 43>    C      -10.86159         0.01543        -0.73981
| 44>    C      -10.37670        -1.21973        -0.30464
| 45>    S       -8.72032        -1.06562         0.22700
| 46>    C      -11.06909        -2.43661        -0.28045
| 47>    C      -10.53283        -3.62553         0.13357
| 48>    C      -11.21238        -4.84954         0.14690
| 49>    C      -10.69135        -6.08959         0.52099
| 50>    C      -11.58709        -7.13078         0.41089
| 51>    C      -12.84612        -6.73807        -0.04802
| 52>    S      -12.88103        -5.01836        -0.34020
| 53>    C      -13.96762        -7.54362        -0.27825
| 54>    C      -14.06359        -8.93440        -0.15835
| 55>    C      -15.30322        -9.42896        -0.48035
| 56>    C      -16.23343        -8.44665        -0.85619
| 57>    S      -15.48928        -6.86583        -0.79545
| 58>    C      -17.55076        -8.68111        -1.22830
| 59>    C      -18.51659        -7.75064        -1.56507
| 60>    S      -18.24921        -6.03025        -1.53268
| 61>    C      -19.89306        -5.65434        -1.96245
| 62>    C      -20.62139        -6.84016        -2.20258
| 63>    C      -19.85569        -8.01895        -1.96292
| 64>    C      -20.43029        -9.28174        -2.14373
| 65>    C      -21.72730        -9.37080        -2.57810
| 66>    F      -22.28893       -10.57780        -2.75603
| 67>    C      -22.47003        -8.21217        -2.86441
| 68>    F      -23.72430        -8.33291        -3.33223
| 69>    C      -21.93523        -6.96481        -2.68663
| 70>    C      -20.25792        -4.29127        -1.97232
| 71>    C      -21.50956        -3.76161        -1.94039
| 72>    C      -21.74137        -2.35630        -1.92409
| 73>    C      -22.95116        -1.76466        -1.85913
| 74>    C      -24.24454        -2.51218        -1.78027
| 75>    C      -23.07497        -0.26485        -1.87605
| 76>    N      -23.86805         0.18642        -0.75729
| 77>    C      -24.60944         1.34361        -0.81828
| 78>    C      -25.02285         2.04000         0.23382
| 79>    H        1.14814         4.38106         2.72835
| 80>    H        1.40652        -0.50271         3.80831
| 81>    H        3.77353         4.47706         3.71442
| 82>    H       -3.67942         0.44444         1.69870
| 83>    H       -3.57688         3.45030         1.09465
| 84>    H       -5.83938         4.27878         0.07053
| 85>    H       -8.18055         3.39707        -0.57883
| 86>    H      -10.14516         2.05411        -0.94351
| 87>    H      -11.86492         0.13524        -1.10892
| 88>    H      -12.09623        -2.41633        -0.62363
| 89>    H       -9.50375        -3.64510         0.46985
| 90>    H       -9.67600        -6.20070         0.85775
| 91>    H      -11.35383        -8.15115         0.65503
| 92>    H      -13.23447        -9.54473         0.15001
| 93>    H      -15.56259       -10.47243        -0.45175
| 94>    H      -17.84978        -9.72049        -1.24506
| 95>    H      -19.87539       -10.18688        -1.96000
| 96>    H      -22.52277        -6.10469        -2.95583
| 97>    H      -19.42080        -3.60317        -1.93957
| 98>    H      -22.37058        -4.40625        -1.88511
| 99>    H      -20.85933        -1.72969        -1.97672
|100>    H      -24.19832        -3.31315        -1.04560
|101>    H      -24.48448        -2.95546        -2.74759
|102>    H      -25.04712        -1.83348        -1.50370
|103>    H      -23.59692         0.03672        -2.79198
|104>    H      -22.07494         0.19622        -1.89203
|105>    H      -23.46930        -0.01413         0.14908
|106>    H      -24.89726         1.62744        -1.82227
|107>    H      -24.74806         1.76699         1.23817
|108>    H      -25.66357         2.89288         0.11903
|109> *
|110>
|111>                          ****END OF INPUT****

CARTESIAN COORDINATES (ANGSTROEM)
---------------------------------
  C     -1.090680    0.511620    2.647300
  C     -1.409980   -0.823190    2.785930
  C     -0.534350   -1.794600    3.305300
  N      0.127680   -2.638050    3.719870
  C     -2.636120   -1.419050    2.435850
  N     -3.598960   -1.993820    2.180460
  C      0.194080    1.105510    3.019810
  C      0.152730    2.489540    2.726270
  C      1.211020    3.330060    2.963310
  C      2.371520    2.777950    3.518860
  C      2.403610    1.395610    3.808740
  C      1.330200    0.544410    3.568300
  S      3.931320    0.920270    4.489290
  C      4.497070    2.565680    4.374760
  C      3.591660    3.427160    3.855460
  Br     6.231380    2.990500    4.952570
  C     -1.170670    2.823460    2.153520
  O     -1.535020    3.927510    1.792330
  C     -1.921220    1.557740    2.123340
  C     -3.223740    1.426330    1.661450
  C     -3.995360    2.456020    1.154530
  C     -5.302490    2.277270    0.713370
  C     -6.156360    3.257550    0.184580
  C     -7.400560    2.787260   -0.159720
  C     -7.568230    1.419410    0.086530
  S     -6.116650    0.730700    0.761510
  C     -8.707510    0.636690   -0.140070
  C     -9.943890    1.039340   -0.652040
  C    -10.861590    0.015430   -0.739810
  C    -10.376700   -1.219730   -0.304640
  S     -8.720320   -1.065620    0.227000
  C    -11.069090   -2.436610   -0.280450
  C    -10.532830   -3.625530    0.133570
  C    -11.212380   -4.849540    0.146900
  C    -10.691350   -6.089590    0.520990
  C    -11.587090   -7.130780    0.410890
  C    -12.846120   -6.738070   -0.048020
  S    -12.881030   -5.018360   -0.340200
  C    -13.967620   -7.543620   -0.278250
  C    -14.063590   -8.934400   -0.158350
  C    -15.303220   -9.428960   -0.480350
  C    -16.233430   -8.446650   -0.856190
  S    -15.489280   -6.865830   -0.795450
  C    -17.550760   -8.681110   -1.228300
  C    -18.516590   -7.750640   -1.565070
  S    -18.249210   -6.030250   -1.532680
  C    -19.893060   -5.654340   -1.962450
  C    -20.621390   -6.840160   -2.202580
  C    -19.855690   -8.018950   -1.962920
  C    -20.430290   -9.281740   -2.143730
  C    -21.727300   -9.370800   -2.578100
  F    -22.288930  -10.577800   -2.756030
  C    -22.470030   -8.212170   -2.864410
  F    -23.724300   -8.332910   -3.332230
  C    -21.935230   -6.964810   -2.686630
  C    -20.257920   -4.291270   -1.972320
  C    -21.509560   -3.761610   -1.940390
  C    -21.741370   -2.356300   -1.924090
  C    -22.951160   -1.764660   -1.859130
  C    -24.244540   -2.512180   -1.780270
  C    -23.074970   -0.264850   -1.876050
  N    -23.868050    0.186420   -0.757290
  C    -24.609440    1.343610   -0.818280
  C    -25.022850    2.040000    0.233820
  H      1.148140    4.381060    2.728350
  H      1.406520   -0.502710    3.808310
  H      3.773530    4.477060    3.714420
  H     -3.679420    0.444440    1.698700
  H     -3.576880    3.450300    1.094650
  H     -5.839380    4.278780    0.070530
  H     -8.180550    3.397070   -0.578830
  H    -10.145160    2.054110   -0.943510
  H    -11.864920    0.135240   -1.108920
  H    -12.096230   -2.416330   -0.623630
  H     -9.503750   -3.645100    0.469850
  H     -9.676000   -6.200700    0.857750
  H    -11.353830   -8.151150    0.655030
  H    -13.234470   -9.544730    0.150010
  H    -15.562590  -10.472430   -0.451750
  H    -17.849780   -9.720490   -1.245060
  H    -19.875390  -10.186880   -1.960000
  H    -22.522770   -6.104690   -2.955830
  H    -19.420800   -3.603170   -1.939570
  H    -22.370580   -4.406250   -1.885110
  H    -20.859330   -1.729690   -1.976720
  H    -24.198320   -3.313150   -1.045600
  H    -24.484480   -2.955460   -2.747590
  H    -25.047120   -1.833480   -1.503700
  H    -23.596920    0.036720   -2.791980
  H    -22.074940    0.196220   -1.892030
  H    -23.469300   -0.014130    0.149080
  H    -24.897260    1.627440   -1.822270
  H    -24.748060    1.766990    1.238170
  H    -25.663570    2.892880    0.119030

 Total Charge           Charge          ....    0
 Multiplicity           Mult            ....    1
 Number of Electrons    NEL             ....  514
 Basis Dimension        Dim             .... 1088

ORBITAL ENERGIES
----------------

  NO   OCC          E(Eh)            E(eV)
   0   2.0000    -482.867209    -13139.4847
   1   2.0000     -88.986117     -2421.4353
   2   2.0000     -88.972668     -2421.0694
   3   2.0000     -88.966023     -2420.8886
   4   2.0000     -88.956709     -2420.6351
   5   2.0000     -88.952524     -2420.5212
   6   2.0000     -88.945883     -2420.3405
   7   2.0000     -62.544893     -1701.9331
   8   2.0000     -56.378816     -1534.1456
   9   2.0000     -56.376153     -1534.0731
  10   2.0000     -56.376109     -1534.0719
  11   2.0000     -24.801858      -674.8929
  12   2.0000     -24.799654      -674.8329
  13   2.0000     -19.182068      -521.9706
  14   2.0000     -14.418963      -392.3599
  15   2.0000     -14.383701      -391.4004
  16   2.0000     -14.381460      -391.3394
  17   2.0000     -10.384814      -282.5852
  18   2.0000     -10.382473      -282.5215
  19   2.0000     -10.336380      -281.2672
  20   2.0000     -10.334900      -281.2269
  21   2.0000     -10.332577      -281.1637
  22   2.0000     -10.332123      -281.1514
  23   2.0000     -10.327971      -281.0384
  24   2.0000     -10.326253      -280.9916
  25   2.0000     -10.325675      -280.9759
  26   2.0000     -10.325172      -280.9622
  27   2.0000     -10.323033      -280.9040
  28   2.0000     -10.316045      -280.7139
  29   2.0000     -10.314223      -280.6643
  30   2.0000     -10.313291      -280.6389
  31   2.0000     -10.311735      -280.5966
  32   2.0000     -10.311094      -280.5791
  33   2.0000     -10.307575      -280.4834
  34   2.0000     -10.306961      -280.4667
  35   2.0000     -10.305937      -280.4388
  36   2.0000     -10.305931      -280.4386
  37   2.0000     -10.305408      -280.4244
  38   2.0000     -10.305233      -280.4196
  39   2.0000     -10.301908      -280.3292
  40   2.0000     -10.301824      -280.3269
  41   2.0000     -10.300902      -280.3018
  42   2.0000     -10.300493      -280.2907
  43   2.0000     -10.300180      -280.2821
  44   2.0000     -10.299271      -280.2574
  45   2.0000     -10.297557      -280.2108
  46   2.0000     -10.296721      -280.1880
  47   2.0000     -10.293652      -280.1045
  48   2.0000     -10.293544      -280.1016
  49   2.0000     -10.293436      -280.0986
  50   2.0000     -10.290614      -280.0218
  51   2.0000     -10.288618      -279.9675
  52   2.0000     -10.287654      -279.9413
  53   2.0000     -10.287500      -279.9371
  54   2.0000     -10.286925      -279.9215
  55   2.0000     -10.281073      -279.7622
  56   2.0000     -10.279850      -279.7289
  57   2.0000     -10.278409      -279.6897
  58   2.0000     -10.276730      -279.6440
  59   2.0000     -10.276290      -279.6321
  60   2.0000     -10.275213      -279.6028
  61   2.0000     -10.273761      -279.5633
  62   2.0000     -10.273312      -279.5510
  63   2.0000     -10.271598      -279.5044
  64   2.0000     -10.262188      -279.2483
  65   2.0000     -10.255459      -279.0652
  66   2.0000     -10.255115      -279.0559
  67   2.0000     -10.236076      -278.5378
  68   2.0000      -8.774300      -238.7608
  69   2.0000      -8.081019      -219.8957
  70   2.0000      -8.068567      -219.5569
  71   2.0000      -8.062230      -219.3844
  72   2.0000      -8.052884      -219.1301
  73   2.0000      -8.048525      -219.0115
  74   2.0000      -8.041731      -218.8266
  75   2.0000      -6.610459      -179.8797
  76   2.0000      -6.596079      -179.4884
  77   2.0000      -6.595946      -179.4848
  78   2.0000      -6.050112      -164.6319
  79   2.0000      -6.045953      -164.5187
  80   2.0000      -6.043612      -164.4551
  81   2.0000      -6.038187      -164.3074
  82   2.0000      -6.033987      -164.1931
  83   2.0000      -6.031739      -164.1320
  84   2.0000      -6.029922      -164.0825
  85   2.0000      -6.027722      -164.0227
  86   2.0000      -6.023626      -163.9112
  87   2.0000      -6.022371      -163.8770
  88   2.0000      -6.018295      -163.7661
  89   2.0000      -6.018224      -163.7642
  90   2.0000      -6.014334      -163.6584
  91   2.0000      -6.013967      -163.6484
  92   2.0000      -6.011216      -163.5735
  93   2.0000      -6.009740      -163.5333
  94   2.0000      -6.007169      -163.4634
  95   2.0000      -6.003213      -163.3557
  96   2.0000      -2.726385       -74.1887
  97   2.0000      -2.722297       -74.0775
  98   2.0000      -2.722199       -74.0748
  99   2.0000      -2.710761       -73.7635
 100   2.0000      -2.710752       -73.7633
 101   2.0000      -1.322364       -35.9834
 102   2.0000      -1.307541       -35.5800
 103   2.0000      -1.095064       -29.7982
 104   2.0000      -1.023800       -27.8590
 105   2.0000      -1.022335       -27.8191
 106   2.0000      -1.014221       -27.5983
 107   2.0000      -1.000852       -27.2346
 108   2.0000      -0.995448       -27.0875
 109   2.0000      -0.993017       -27.0214
 110   2.0000      -0.982980       -26.7482
 111   2.0000      -0.975807       -26.5531
 112   2.0000      -0.962297       -26.1854
 113   2.0000      -0.961177       -26.1550
 114   2.0000      -0.958478       -26.0815
 115   2.0000      -0.936948       -25.4956
 116   2.0000      -0.921249       -25.0685
 117   2.0000      -0.916069       -24.9275
 118   2.0000      -0.913014       -24.8444
 119   2.0000      -0.892724       -24.2923
 120   2.0000      -0.885772       -24.1031
 121   2.0000      -0.880092       -23.9485
 122   2.0000      -0.875300       -23.8181
 123   2.0000      -0.867077       -23.5944
 124   2.0000      -0.862435       -23.4680
 125   2.0000      -0.858746       -23.3677
 126   2.0000      -0.853676       -23.2297
 127   2.0000      -0.849764       -23.1233
 128   2.0000      -0.847799       -23.0698
 129   2.0000      -0.840490       -22.8709
 130   2.0000      -0.834554       -22.7094
 131   2.0000      -0.826758       -22.4972
 132   2.0000      -0.822666       -22.3859
 133   2.0000      -0.814319       -22.1588
 134   2.0000      -0.803272       -21.8581
 135   2.0000      -0.800259       -21.7761
 136   2.0000      -0.785831       -21.3836
 137   2.0000      -0.772625       -21.0242
 138   2.0000      -0.762292       -20.7430
 139   2.0000      -0.753307       -20.4985
 140   2.0000      -0.749637       -20.3987
 141   2.0000      -0.732223       -19.9248
 142   2.0000      -0.726730       -19.7753
 143   2.0000      -0.717064       -19.5123
 144   2.0000      -0.712383       -19.3849
 145   2.0000      -0.695661       -18.9299
 146   2.0000      -0.688940       -18.7470
 147   2.0000      -0.682986       -18.5850
 148   2.0000      -0.679606       -18.4930
 149   2.0000      -0.671785       -18.2802
 150   2.0000      -0.668203       -18.1827
 151   2.0000      -0.660319       -17.9682
 152   2.0000      -0.653757       -17.7896
 153   2.0000      -0.648805       -17.6549
 154   2.0000      -0.641992       -17.4695
 155   2.0000      -0.639277       -17.3956
 156   2.0000      -0.635301       -17.2874
 157   2.0000      -0.630264       -17.1504
 158   2.0000      -0.628461       -17.1013
 159   2.0000      -0.627338       -17.0707
 160   2.0000      -0.625350       -17.0166
 161   2.0000      -0.619006       -16.8440
 162   2.0000      -0.613108       -16.6835
 163   2.0000      -0.605240       -16.4694
 164   2.0000      -0.604128       -16.4392
 165   2.0000      -0.602876       -16.4051
 166   2.0000      -0.594797       -16.1852
 167   2.0000      -0.588474       -16.0132
 168   2.0000      -0.587658       -15.9910
 169   2.0000      -0.581967       -15.8361
 170   2.0000      -0.571293       -15.5457
 171   2.0000      -0.569426       -15.4949
 172   2.0000      -0.566675       -15.4200
 173   2.0000      -0.564985       -15.3740
 174   2.0000      -0.560057       -15.2399
 175   2.0000      -0.555377       -15.1126
 176   2.0000      -0.552082       -15.0229
 177   2.0000      -0.549430       -14.9508
 178   2.0000      -0.543150       -14.7799
 179   2.0000      -0.539119       -14.6702
 180   2.0000      -0.535603       -14.5745
 181   2.0000      -0.528569       -14.3831
 182   2.0000      -0.523690       -14.2503
 183   2.0000      -0.521026       -14.1778
 184   2.0000      -0.517908       -14.0930
 185   2.0000      -0.515561       -14.0291
 186   2.0000      -0.512260       -13.9393
 187   2.0000      -0.510630       -13.8949
 188   2.0000      -0.509150       -13.8547
 189   2.0000      -0.508387       -13.8339
 190   2.0000      -0.506392       -13.7796
 191   2.0000      -0.503837       -13.7101
 192   2.0000      -0.501583       -13.6488
 193   2.0000      -0.500971       -13.6321
 194   2.0000      -0.498690       -13.5700
 195   2.0000      -0.496737       -13.5169
 196   2.0000      -0.489394       -13.3171
 197   2.0000      -0.484785       -13.1917
 198   2.0000      -0.484342       -13.1796
 199   2.0000      -0.483335       -13.1522
 200   2.0000      -0.482517       -13.1300
 201   2.0000      -0.482411       -13.1271
 202   2.0000      -0.479566       -13.0497
 203   2.0000      -0.476962       -12.9788
 204   2.0000      -0.474029       -12.8990
 205   2.0000      -0.471044       -12.8178
 206   2.0000      -0.467272       -12.7151
 207   2.0000      -0.466920       -12.7055
 208   2.0000      -0.465422       -12.6648
 209   2.0000      -0.461239       -12.5510
 210   2.0000      -0.460174       -12.5220
 211   2.0000      -0.458334       -12.4719
 212   2.0000      -0.454679       -12.3724
 213   2.0000      -0.451671       -12.2906
 214   2.0000      -0.448845       -12.2137
 215   2.0000      -0.443805       -12.0765
 216   2.0000      -0.440852       -11.9962
 217   2.0000      -0.439722       -11.9654
 218   2.0000      -0.438779       -11.9398
 219   2.0000      -0.435595       -11.8532
 220   2.0000      -0.433428       -11.7942
 221   2.0000      -0.432299       -11.7635
 222   2.0000      -0.431765       -11.7489
 223   2.0000      -0.424437       -11.5495
 224   2.0000      -0.422197       -11.4886
 225   2.0000      -0.419628       -11.4187
 226   2.0000      -0.414992       -11.2925
 227   2.0000      -0.414593       -11.2816
 228   2.0000      -0.412657       -11.2290
 229   2.0000      -0.411474       -11.1968
 230   2.0000      -0.400817       -10.9068
 231   2.0000      -0.398768       -10.8510
 232   2.0000      -0.397810       -10.8250
 233   2.0000      -0.395897       -10.7729
 234   2.0000      -0.392621       -10.6838
 235   2.0000      -0.389286       -10.5930
 236   2.0000      -0.380082       -10.3426
 237   2.0000      -0.376456       -10.2439
 238   2.0000      -0.367802       -10.0084
 239   2.0000      -0.360479        -9.8091
 240   2.0000      -0.356864        -9.7108
 241   2.0000      -0.354527        -9.6472
 242   2.0000      -0.346586        -9.4311
 243   2.0000      -0.341140        -9.2829
 244   2.0000      -0.337844        -9.1932
 245   2.0000      -0.332459        -9.0467
 246   2.0000      -0.328849        -8.9484
 247   2.0000      -0.322333        -8.7711
 248   2.0000      -0.317380        -8.6364
 249   2.0000      -0.302969        -8.2442
 250   2.0000      -0.296668        -8.0727
 251   2.0000      -0.289728        -7.8839
 252   2.0000      -0.272127        -7.4050
 253   2.0000      -0.268635        -7.3099
 254   2.0000      -0.265167        -7.2156
 255   2.0000      -0.236078        -6.4240
 256   2.0000      -0.191856        -5.2207
 257   0.0000      -0.130406        -3.5485
 258   0.0000      -0.079842        -2.1726
 259   0.0000      -0.052132        -1.4186
 260   0.0000      -0.036355        -0.9893
 261   0.0000      -0.019682        -0.5356

MULLIKEN ATOMIC CHARGES
-----------------------
   0 C :    0.330824
   1 C :   -0.378672
   2 C :   -0.189807
   3 N :    0.123578
   4 C :   -0.188173
   5 N :    0.118540
   6 C :    0.013030
   7 C :   -0.003920
   8 C :   -0.085358
   9 C :    0.119144
  10 C :   -0.092536
  11 C :   -0.031700
  12 S :    0.172203
  13 C :   -0.123639
  14 C :    0.034366
  15 Br:    0.005192
  16 C :    0.131213
  17 O :   -0.173492
  18 C :   -0.095213
  19 C :   -0.046948
  20 C :   -0.023519
  21 C :    0.002846
  22 C :    0.015568
  23 C :    0.033727
  24 C :   -0.051985
  25 S :    0.111000
  26 C :   -0.023476
  27 C :    0.003725
  28 C :    0.039376
  29 C :   -0.047372
  30 S :    0.118481
  31 C :    0.019939
  32 C :   -0.011238
  33 C :   -0.021944
  34 C :    0.024982
  35 C :    0.022388
  36 C :   -0.050057
  37 S :    0.096244
  38 C :   -0.020005
  39 C :    0.019634
  40 C :    0.031010
  41 C :   -0.050644
  42 S :    0.087104
  43 C :   -0.003541
  44 C :   -0.091403
  45 S :    0.141026
  46 C :   -0.098929
  47 C :    0.129207
  48 C :    0.139142
  49 C :   -0.122580
  50 C :    0.230624
  51 F :   -0.174993
  52 C :    0.224983
  53 F :   -0.177269
  54 C :   -0.119067
  55 C :    0.038190
  56 C :   -0.004384
  57 C :    0.003255
  58 C :   -0.212933
  59 C :    0.091448
  60 C :    0.235063
  61 N :   -0.209296
  62 C :    0.048264
  63 C :   -0.083901
  64 H :   -0.020080
  65 H :   -0.012861
  66 H :   -0.009457
  67 H :    0.008435
  68 H :    0.011455
  69 H :   -0.007742
  70 H :   -0.013589
  71 H :   -0.013580
  72 H :   -0.012432
  73 H :   -0.004916
  74 H :    0.006229
  75 H :   -0.001063
  76 H :   -0.007228
  77 H :   -0.008577
  78 H :   -0.005283
  79 H :   -0.007831
  80 H :   -0.008427
  81 H :   -0.009402
  82 H :   -0.013539
  83 H :   -0.008621
  84 H :   -0.027976
  85 H :    0.032141
  86 H :    0.028326
  87 H :    0.027672
  88 H :    0.017859
  89 H :   -0.001172
  90 H :    0.108219
  91 H :   -0.001302
  92 H :   -0.005126
  93 H :    0.012548
Sum of atomic charges:   -0.0000000

LOEWDIN ATOMIC CHARGES
----------------------
   0 C :    0.070108
   1 C :   -0.169345
   2 C :   -0.019386
   3 N :   -0.082321
   4 C :   -0.020533
   5 N :   -0.080714
   6 C :   -0.015376
   7 C :   -0.047024
   8 C :    0.012785
   9 C :   -0.039280
  10 C :   -0.147441
  11 C :   -0.017815
  12 S :    0.421675
  13 C :   -0.278317
  14 C :   -0.071570
  15 Br:    0.122586
  16 C :    0.078988
  17 O :   -0.167009
  18 C :   -0.117868
  19 C :    0.036507
  20 C :   -0.074512
  21 C :   -0.111318
  22 C :   -0.053753
  23 C :   -0.018396
  24 C :   -0.201033
  25 S :    0.420491
  26 C :   -0.149783
  27 C :   -0.053099
  28 C :   -0.023910
  29 C :   -0.168518
  30 S :    0.418038
  31 C :   -0.027030
  32 C :   -0.068269
  33 C :   -0.131368
  34 C :   -0.042355
  35 C :   -0.023633
  36 C :   -0.188737
  37 S :    0.398904
  38 C :   -0.159359
  39 C :   -0.047453
  40 C :   -0.021308
  41 C :   -0.171287
  42 S :    0.394354
  43 C :   -0.045422
  44 C :   -0.186469
  45 S :    0.472140
  46 C :   -0.153390
  47 C :   -0.047772
  48 C :   -0.030601
  49 C :   -0.038318
  50 C :    0.066791
  51 F :   -0.053344
  52 C :    0.061985
  53 F :   -0.056222
  54 C :   -0.035525
  55 C :   -0.054276
  56 C :   -0.008957
  57 C :   -0.057369
  58 C :   -0.017416
  59 C :   -0.056062
  60 C :    0.043757
  61 N :   -0.043289
  62 C :    0.019843
  63 C :   -0.152110
  64 H :    0.036866
  65 H :    0.038951
  66 H :    0.036170
  67 H :    0.029302
  68 H :    0.036803
  69 H :    0.035503
  70 H :    0.031842
  71 H :    0.031681
  72 H :    0.033848
  73 H :    0.029954
  74 H :    0.033319
  75 H :    0.038393
  76 H :    0.034530
  77 H :    0.034327
  78 H :    0.036132
  79 H :    0.041996
  80 H :    0.040476
  81 H :    0.040252
  82 H :    0.029633
  83 H :    0.025493
  84 H :    0.024695
  85 H :    0.035041
  86 H :    0.038435
  87 H :    0.033800
  88 H :    0.033364
  89 H :    0.014378
  90 H :    0.072414
  91 H :    0.022534
  92 H :    0.013985
  93 H :    0.022596

  Mayer bond orders larger than 0.100000
B(  0-C ,  1-C ) :   1.5481 B(  0-C ,  6-C ) :   0.9783 B(  0-C , 18-C ) :   1.1515
B(  1-C ,  2-C ) :   1.1559 B(  1-C ,  4-C ) :   1.1588 B(  2-C ,  3-N ) :   2.9549
B(  4-C ,  5-N ) :   2.9518 B(  6-C ,  7-C ) :   1.2812 B(  6-C , 11-C ) :   1.4280
B(  7-C ,  8-C ) :   1.4343 B(  7-C , 16-C ) :   0.9312 B(  8-C ,  9-C ) :   1.2324
B(  8-C , 64-H ) :   1.0164 B(  9-C , 10-C ) :   1.3256 B(  9-C , 14-C ) :   1.1585
B( 10-C , 11-C ) :   1.3109 B( 10-C , 12-S ) :   1.0807 B( 11-C , 65-H ) :   0.9792
B( 12-S , 13-C ) :   1.0841 B( 13-C , 14-C ) :   1.6221 B( 13-C , 15-Br) :   1.0079
B( 14-C , 66-H ) :   1.0001 B( 16-C , 17-O ) :   2.1770 B( 16-C , 18-C ) :   0.9806
B( 18-C , 19-C ) :   1.4007 B( 19-C , 20-C ) :   1.3387 B( 19-C , 67-H ) :   0.9440
B( 20-C , 21-C ) :   1.3288 B( 20-C , 68-H ) :   0.9789 B( 21-C , 22-C ) :   1.2497
B( 21-C , 25-S ) :   1.0975 B( 22-C , 23-C ) :   1.4511 B( 22-C , 69-H ) :   1.0025
B( 23-C , 24-C ) :   1.3034 B( 23-C , 70-H ) :   0.9947 B( 24-C , 25-S ) :   1.0670
B( 24-C , 26-C ) :   1.3308 B( 26-C , 27-C ) :   1.3046 B( 26-C , 30-S ) :   1.1045
B( 27-C , 28-C ) :   1.4468 B( 27-C , 71-H ) :   0.9960 B( 28-C , 29-C ) :   1.2716
B( 28-C , 72-H ) :   1.0001 B( 29-C , 30-S ) :   1.0599 B( 29-C , 31-C ) :   1.3852
B( 31-C , 32-C ) :   1.3566 B( 31-C , 73-H ) :   0.9712 B( 32-C , 33-C ) :   1.3752
B( 32-C , 74-H ) :   0.9722 B( 33-C , 34-C ) :   1.2697 B( 33-C , 37-S ) :   1.0813
B( 34-C , 35-C ) :   1.4507 B( 34-C , 75-H ) :   1.0017 B( 35-C , 36-C ) :   1.3019
B( 35-C , 76-H ) :   0.9961 B( 36-C , 37-S ) :   1.0646 B( 36-C , 38-C ) :   1.3554
B( 38-C , 39-C ) :   1.2773 B( 38-C , 42-S ) :   1.0833 B( 39-C , 40-C ) :   1.4884
B( 39-C , 77-H ) :   0.9944 B( 40-C , 41-C ) :   1.2250 B( 40-C , 78-H ) :   1.0012
B( 41-C , 42-S ) :   1.0467 B( 41-C , 43-C ) :   1.4414 B( 43-C , 44-C ) :   1.3238
B( 43-C , 79-H ) :   0.9613 B( 44-C , 45-S ) :   1.0947 B( 44-C , 48-C ) :   1.2310
B( 45-S , 46-C ) :   1.1605 B( 46-C , 47-C ) :   1.2928 B( 46-C , 55-C ) :   1.1635
B( 47-C , 48-C ) :   1.2480 B( 47-C , 54-C ) :   1.1752 B( 48-C , 49-C ) :   1.2096
B( 49-C , 50-C ) :   1.4619 B( 49-C , 54-C ) :   0.1098 B( 49-C , 80-H ) :   0.9982
B( 50-C , 51-F ) :   1.1334 B( 50-C , 52-C ) :   1.1838 B( 52-C , 53-F ) :   1.1312
B( 52-C , 54-C ) :   1.4786 B( 54-C , 81-H ) :   0.9958 B( 55-C , 56-C ) :   1.6390
B( 55-C , 82-H ) :   0.9544 B( 56-C , 57-C ) :   1.1346 B( 56-C , 83-H ) :   0.9669
B( 57-C , 58-C ) :   1.7256 B( 57-C , 84-H ) :   0.9772 B( 58-C , 59-C ) :   1.0735
B( 58-C , 60-C ) :   1.0508 B( 59-C , 85-H ) :   0.9462 B( 59-C , 86-H ) :   0.9443
B( 59-C , 87-H ) :   0.9448 B( 60-C , 61-N ) :   0.9911 B( 60-C , 88-H ) :   0.9211
B( 60-C , 89-H ) :   0.9342 B( 61-N , 62-C ) :   1.1385 B( 61-N , 90-H ) :   0.9468
B( 62-C , 63-C ) :   1.9139 B( 62-C , 91-H ) :   0.9603 B( 63-C , 92-H ) :   0.9610
B( 63-C , 93-H ) :   0.9530

-----------------------------------------------------------------------------
         ABSORPTION SPECTRUM VIA TRANSITION ELECTRIC DIPOLE MOMENTS
-----------------------------------------------------------------------------
State   Energy  Wavelength   fosc         T2         TX        TY        TZ
        (cm-1)    (nm)                  (au**2)     (au)      (au)      (au)
-----------------------------------------------------------------------------
   0    2280.1   4385.8   0.262407454  37.88751   5.48730   2.55302   1.12212
   1   10496.2    952.7   0.028941185   0.90774   0.93666   0.06802   0.16054
   2   13762.5    726.6   0.072886479   1.74351   0.17177   1.24436   0.40693
   3   16903.9    591.6   0.001689570   0.03291  -0.11432  -0.10959  -0.08847
   4   19777.1    505.6   0.680192067  11.32256  -1.72957   2.79061  -0.73732
   5   20205.4    494.9   0.080499265   1.31160  -0.61514   0.87351  -0.41253
   6   20628.9    484.8   0.250731649   4.00136  -1.00555   1.66483  -0.46751
   7   22079.8    452.9   0.289912850   4.32263  -1.89060   0.68970  -0.52210
   8   22647.4    441.6   0.526952231   7.66000  -0.50341   2.68655  -0.43474
   9   23391.8    427.5   0.009148099   0.12875  -0.21109   0.28445  -0.05724
  10   25162.7    397.4   0.000009907   0.00013   0.01040   0.00413   0.00210
  11   25883.2    386.4   0.009595309   0.12204  -0.24253   0.16697  -0.18800
  12   26249.7    381.0   0.219051291   2.74724   1.48597   0.00027   0.73427
  13   27020.2    370.1   0.052075679   0.63449  -0.05497   0.79365  -0.03972
  14   27509.0    363.5   0.019565670   0.23415  -0.43877   0.16379  -0.12166
  15   28080.8    356.1   0.047608644   0.55815   0.31226  -0.65439   0.18005
  16   28438.2    351.6   0.068409366   0.79193  -0.75880  -0.11883  -0.44949
  17   28741.2    347.9   0.054075070   0.61940  -0.34663   0.65889   0.25517
  18   29198.2    342.5   0.002811016   0.03169   0.02429  -0.16959  -0.04842
  19   29276.2    341.6   0.006480251   0.07287   0.07769  -0.15056  -0.21016
  20   29837.5    335.1   0.127295647   1.40452  -0.42967   1.10152   0.08094
  21   30576.5    327.0   0.140863084   1.51665  -0.68976  -0.94303  -0.38932
  22   30800.5    324.7   0.011575211   0.12372  -0.21796   0.25575  -0.10396
  23   31208.7    320.4   0.234633731   2.47509  -1.38470  -0.54824  -0.50708
  24   31392.2    318.6   0.161294466   1.69150   1.17030   0.42564   0.37514
  25   31518.0    317.3   0.000840238   0.00878  -0.06529  -0.05046  -0.04436
  26   31684.1    315.6   0.202932635   2.10856  -1.13796  -0.79769  -0.42105
  27   32307.7    309.5   0.060490300   0.61639  -0.59988   0.46491  -0.20099
  28   32549.1    307.2   0.003205372   0.03242  -0.08955   0.10654  -0.11424
  29   33108.1    302.0   0.063982860   0.63622   0.66050   0.38907   0.22040
  30   33212.5    301.1   0.009902677   0.09816   0.24165   0.18675   0.06990
  31   33819.7    295.7   0.050774988   0.49426  -0.52538  -0.46510  -0.04386
  32   34605.6    289.0   0.007489544   0.07125  -0.17385   0.15930  -0.12511
  33   34809.3    287.3   0.002628966   0.02486  -0.06904   0.06590  -0.12552
  34   35257.4    283.6   0.000027080   0.00025  -0.00049  -0.01147  -0.01100
  35   35543.4    281.3   0.325457193   3.01447   1.03705   1.38776   0.11453
  36   36400.2    274.7   0.069169910   0.62559   0.27543  -0.73020  -0.12859
  37   36497.2    274.0   0.012468847   0.11247  -0.32223  -0.08524   0.03710
  38   36903.6    271.0   0.078140676   0.69708  -0.33328  -0.76238  -0.06911
  39   37214.3    268.7   0.036697801   0.32464  -0.20806  -0.53003  -0.02041
  40   37362.7    267.6   0.004137838   0.03646   0.18038  -0.05152  -0.03562
  41   38210.9    261.7   0.003648458   0.03143   0.00483  -0.17084  -0.04716
  42   38397.8    260.4   0.013653362   0.11706  -0.30064   0.14348  -0.07804
  43   38813.7    257.6   0.013141806   0.11147   0.13658   0.30433   0.01402
  44   39024.7    256.2   0.099328444   0.83793  -0.23222   0.88129  -0.08562
  45   39352.1    254.1   0.069510225   0.58151   0.22660  -0.66730   0.29133
  46   39540.5    252.9   0.054212818   0.45137  -0.17874   0.62946  -0.15232
  47   39748.4    251.6   0.019557873   0.16199  -0.00312  -0.40040   0.04071
  48   40008.8    249.9   0.004561905   0.03754  -0.09176   0.16047   0.05804
  49   40143.5    249.1   0.026833642   0.22006   0.18476  -0.34119   0.26365

FINAL SINGLE POINT ENERGY     -7359.851146631275

DIPOLE MOMENT
-------------
                                X             Y             Z
Electronic contribution:    264.30847      25.24808      58.51088
Nuclear contribution   :   -271.73064     -26.69550     -60.71768
                        -----------------------------------------
Total Dipole Moment    :     -7.42217      -1.44743      -2.20680
                        -----------------------------------------
Magnitude (a.u.)       :      7.87741
Magnitude (Debye)      :     20.02278

Rotational constants in cm-1:     0.001817     0.000150     0.000140
Rotational constants in MHz :    54.468651     4.489546     4.182958

                             ****ORCA TERMINATED NORMALLY****
TOTAL RUN TIME: 0 days 0 hours 9 minutes 33 seconds 401 msec
