                         Program Version 4.2.0 -  RELEASE  -
|  1> # ORCA input file
|  2> # SCF done       -190.548722778495          0.000416785773
|  3> ! CAM-B3LYP def2-SVP def2/J RIJCOSX Grid4 TightSCF
|  4> %maxcore 5000
|  5> %tddft
|  6>     Mode sTDDFT
|  7>     Ethresh 5.0
|  8>     maxcore 5000
|  9> end
| 10>
| 11> %pal
| 12>   nprocs 6
| 13>   end
| 14> * xyz 0 1
| 15>    C        5.45753       -11.55857       -14.40998
| 16>    C        6.42757       -12.01700       -13.60907
| 17>    C        7.59224       -12.78103       -13.95725
| 18>    C        8.39052       -13.10105       -12.91425
| 19>    C        7.93517       -12.62174       -11.65450
| 20>    S        6.43674       -11.73827       -11.85994
| 21>    C        8.50418       -12.77181       -10.41438
| 22>    C        9.69927       -13.44625       -10.05919
| 23>    C        9.97801       -13.40362        -8.72993
| 24>    C        9.02395       -12.69424        -7.95282
| 25>    S        7.75087       -12.08229        -8.98710
| 26>    C        9.04127       -12.48370        -6.59849
| 27>    C        8.04296       -11.75951        -5.92708
| 28>    O        7.00098       -11.23793        -6.63778
| 29>    C        7.86095       -11.42377        -4.59402
| 30>    C        8.42919       -11.54937        -3.25511
| 31>    O        9.42752       -12.09780        -2.85951
| 32>    N        7.52373       -10.85722        -2.45046
| 33>    C        6.43441       -10.29948        -3.12044
| 34>    O        5.55065        -9.66938        -2.59659
| 35>    C        6.66273       -10.67262        -4.51527
| 36>    C        6.15229       -10.57436        -5.79962
| 37>    C        4.99607        -9.95206        -6.31627
| 38>    C        4.68474        -9.99667        -7.64181
| 39>    C        3.55865        -9.41897        -8.24781
| 40>    S        2.33020        -8.50291        -7.39758
| 41>    C        1.36634        -8.21406        -8.82239
| 42>    C        1.98103        -8.80595        -9.92750
| 43>    C        3.19735        -9.46663        -9.59166
| 44>    N        3.68317        -9.98819       -10.74049
| 45>    N        2.87439        -9.71154       -11.77654
| 46>    C        1.86126        -9.01594       -11.32702
| 47>    C        0.16017        -7.48034        -8.70749
| 48>    C       -0.67403        -7.21816        -9.73808
| 49>    C       -1.94450        -6.54715        -9.58217
| 50>    C       -2.68795        -6.75375        -8.45388
| 51>    S       -4.22577        -5.99566        -8.44964
| 52>    C       -3.89261        -5.32587       -10.01556
| 53>    C       -2.63187        -5.68410       -10.52040
| 54>    C       -2.22420        -5.14282       -11.76297
| 55>    C       -0.85838        -5.48622       -12.29766
| 56>    C       -0.90588        -6.72835       -13.19256
| 57>    C       -3.07381        -4.31290       -12.48640
| 58>    C       -2.64704        -3.74604       -13.81491
| 59>    C       -1.99527        -2.36942       -13.64861
| 60>    C       -4.34987        -3.97222       -11.97660
| 61>    C       -5.42642        -3.18221       -12.54153
| 62>    C       -6.53614        -3.19414       -11.73383
| 63>    S       -6.35673        -4.06234       -10.27584
| 64>    C       -4.74118        -4.50774       -10.74040
| 65>    C       -5.43678        -2.40486       -13.74995
| 66>    C       -6.55270        -2.16656       -14.48513
| 67>    C       -6.50491        -1.36503       -15.64762
| 68>    C       -7.57828        -1.06251       -16.43867
| 69>    C       -7.56328        -0.27662       -17.65725
| 70>    C       -6.46129         0.22163       -18.30542
| 71>    C       -6.51639         0.97760       -19.49483
| 72>    N       -6.49156         1.59938       -20.45970
| 73>    C       -5.12207         0.04181       -17.90250
| 74>    N       -4.00669        -0.06921       -17.65009
| 75>    C       -8.94337        -0.13315       -18.10903
| 76>    C       -9.79017        -0.84134       -17.22185
| 77>    C       -8.97770        -1.45680       -16.15331
| 78>    O       -9.39525        -2.12974       -15.23339
| 79>    C      -11.15258        -0.90062       -17.38468
| 80>    C      -11.70950        -0.22603       -18.47596
| 81>    C      -10.85675         0.48134       -19.35644
| 82>    C       -9.47848         0.53958       -19.19231
| 83>    S      -11.75141         1.24498       -20.63594
| 84>    C      -13.23767         0.61357       -19.97823
| 85>    C      -13.07519        -0.13236       -18.85977
| 86>   Br      -14.86329         0.99553       -20.83232
| 87>    H        5.48872       -11.74764       -15.46856
| 88>    H        4.62659       -10.99345       -14.02738
| 89>    H        7.77736       -13.05748       -14.98002
| 90>    H        9.30024       -13.66913       -12.99653
| 91>    H       10.31303       -13.93925       -10.79188
| 92>    H       10.83862       -13.85636        -8.27031
| 93>    H        9.84633       -12.87937        -5.99993
| 94>    H        7.64789       -10.76710        -1.45249
| 95>    H        4.36632        -9.44010        -5.60436
| 96>    H        5.35302       -10.52775        -8.30861
| 97>    H        4.52413       -10.52242       -10.88732
| 98>    H        1.09496        -8.69748       -12.00305
| 99>    H       -0.06925        -7.10790        -7.71842
|100>    H       -0.41403        -7.58538       -10.71564
|101>    H       -2.42318        -7.37683        -7.62216
|102>    H       -0.45116        -4.65192       -12.86644
|103>    H       -0.18112        -5.65537       -11.46017
|104>    H        0.09667        -6.99429       -13.52162
|105>    H       -1.51669        -6.54713       -14.07392
|106>    H       -1.34366        -7.57327       -12.66484
|107>    H       -3.52014        -3.67617       -14.46465
|108>    H       -1.94409        -4.41040       -14.31246
|109>    H       -2.62116        -1.70622       -13.05529
|110>    H       -1.82029        -1.91305       -14.62039
|111>    H       -1.04068        -2.45918       -13.13489
|112>    H       -7.45320        -2.66633       -11.91000
|113>    H       -4.51435        -1.94634       -14.07183
|114>    H       -7.49802        -2.61226       -14.21773
|115>    H       -5.53374        -0.97064       -15.91855
|116>    H      -11.76955        -1.45001       -16.69095
|117>    H       -8.87371         1.09346       -19.89053
|118>    H      -13.88359        -0.59770       -18.32598
|119> *
|120>
|121>                          ****END OF INPUT****

CARTESIAN COORDINATES (ANGSTROEM)
---------------------------------
  C      5.457530  -11.558570  -14.409980
  C      6.427570  -12.017000  -13.609070
  C      7.592240  -12.781030  -13.957250
  C      8.390520  -13.101050  -12.914250
  C      7.935170  -12.621740  -11.654500
  S      6.436740  -11.738270  -11.859940
  C      8.504180  -12.771810  -10.414380
  C      9.699270  -13.446250  -10.059190
  C      9.978010  -13.403620   -8.729930
  C      9.023950  -12.694240   -7.952820
  S      7.750870  -12.082290   -8.987100
  C      9.041270  -12.483700   -6.598490
  C      8.042960  -11.759510   -5.927080
  O      7.000980  -11.237930   -6.637780
  C      7.860950  -11.423770   -4.594020
  C      8.429190  -11.549370   -3.255110
  O      9.427520  -12.097800   -2.859510
  N      7.523730  -10.857220   -2.450460
  C      6.434410  -10.299480   -3.120440
  O      5.550650   -9.669380   -2.596590
  C      6.662730  -10.672620   -4.515270
  C      6.152290  -10.574360   -5.799620
  C      4.996070   -9.952060   -6.316270
  C      4.684740   -9.996670   -7.641810
  C      3.558650   -9.418970   -8.247810
  S      2.330200   -8.502910   -7.397580
  C      1.366340   -8.214060   -8.822390
  C      1.981030   -8.805950   -9.927500
  C      3.197350   -9.466630   -9.591660
  N      3.683170   -9.988190  -10.740490
  N      2.874390   -9.711540  -11.776540
  C      1.861260   -9.015940  -11.327020
  C      0.160170   -7.480340   -8.707490
  C     -0.674030   -7.218160   -9.738080
  C     -1.944500   -6.547150   -9.582170
  C     -2.687950   -6.753750   -8.453880
  S     -4.225770   -5.995660   -8.449640
  C     -3.892610   -5.325870  -10.015560
  C     -2.631870   -5.684100  -10.520400
  C     -2.224200   -5.142820  -11.762970
  C     -0.858380   -5.486220  -12.297660
  C     -0.905880   -6.728350  -13.192560
  C     -3.073810   -4.312900  -12.486400
  C     -2.647040   -3.746040  -13.814910
  C     -1.995270   -2.369420  -13.648610
  C     -4.349870   -3.972220  -11.976600
  C     -5.426420   -3.182210  -12.541530
  C     -6.536140   -3.194140  -11.733830
  S     -6.356730   -4.062340  -10.275840
  C     -4.741180   -4.507740  -10.740400
  C     -5.436780   -2.404860  -13.749950
  C     -6.552700   -2.166560  -14.485130
  C     -6.504910   -1.365030  -15.647620
  C     -7.578280   -1.062510  -16.438670
  C     -7.563280   -0.276620  -17.657250
  C     -6.461290    0.221630  -18.305420
  C     -6.516390    0.977600  -19.494830
  N     -6.491560    1.599380  -20.459700
  C     -5.122070    0.041810  -17.902500
  N     -4.006690   -0.069210  -17.650090
  C     -8.943370   -0.133150  -18.109030
  C     -9.790170   -0.841340  -17.221850
  C     -8.977700   -1.456800  -16.153310
  O     -9.395250   -2.129740  -15.233390
  C    -11.152580   -0.900620  -17.384680
  C    -11.709500   -0.226030  -18.475960
  C    -10.856750    0.481340  -19.356440
  C     -9.478480    0.539580  -19.192310
  S    -11.751410    1.244980  -20.635940
  C    -13.237670    0.613570  -19.978230
  C    -13.075190   -0.132360  -18.859770
  Br   -14.863290    0.995530  -20.832320
  H      5.488720  -11.747640  -15.468560
  H      4.626590  -10.993450  -14.027380
  H      7.777360  -13.057480  -14.980020
  H      9.300240  -13.669130  -12.996530
  H     10.313030  -13.939250  -10.791880
  H     10.838620  -13.856360   -8.270310
  H      9.846330  -12.879370   -5.999930
  H      7.647890  -10.767100   -1.452490
  H      4.366320   -9.440100   -5.604360
  H      5.353020  -10.527750   -8.308610
  H      4.524130  -10.522420  -10.887320
  H      1.094960   -8.697480  -12.003050
  H     -0.069250   -7.107900   -7.718420
  H     -0.414030   -7.585380  -10.715640
  H     -2.423180   -7.376830   -7.622160
  H     -0.451160   -4.651920  -12.866440
  H     -0.181120   -5.655370  -11.460170
  H      0.096670   -6.994290  -13.521620
  H     -1.516690   -6.547130  -14.073920
  H     -1.343660   -7.573270  -12.664840
  H     -3.520140   -3.676170  -14.464650
  H     -1.944090   -4.410400  -14.312460
  H     -2.621160   -1.706220  -13.055290
  H     -1.820290   -1.913050  -14.620390
  H     -1.040680   -2.459180  -13.134890
  H     -7.453200   -2.666330  -11.910000
  H     -4.514350   -1.946340  -14.071830
  H     -7.498020   -2.612260  -14.217730
  H     -5.533740   -0.970640  -15.918550
  H    -11.769550   -1.450010  -16.690950
  H     -8.873710    1.093460  -19.890530
  H    -13.883590   -0.597700  -18.325980

 Total Charge           Charge          ....    0
 Multiplicity           Mult            ....    1
 Number of Electrons    NEL             ....  566
 Basis Dimension        Dim             .... 1210

ORBITAL ENERGIES
----------------

  NO   OCC          E(Eh)            E(eV)
   0   2.0000    -482.885619    -13139.9857
   1   2.0000     -88.975327     -2421.1417
   2   2.0000     -88.965826     -2420.8832
   3   2.0000     -88.965194     -2420.8660
   4   2.0000     -88.958929     -2420.6955
   5   2.0000     -88.953360     -2420.5440
   6   2.0000     -88.949726     -2420.4451
   7   2.0000     -62.563328     -1702.4347
   8   2.0000     -56.397281     -1534.6480
   9   2.0000     -56.394562     -1534.5741
  10   2.0000     -56.394530     -1534.5732
  11   2.0000     -19.298849      -525.1484
  12   2.0000     -19.215724      -522.8864
  13   2.0000     -19.195463      -522.3351
  14   2.0000     -19.195235      -522.3289
  15   2.0000     -14.479597      -394.0099
  16   2.0000     -14.441145      -392.9635
  17   2.0000     -14.439570      -392.9207
  18   2.0000     -14.416080      -392.2815
  19   2.0000     -14.413368      -392.2077
  20   2.0000     -10.385097      -282.5929
  21   2.0000     -10.384811      -282.5851
  22   2.0000     -10.366274      -282.0806
  23   2.0000     -10.358944      -281.8812
  24   2.0000     -10.350232      -281.6441
  25   2.0000     -10.350189      -281.6430
  26   2.0000     -10.340388      -281.3763
  27   2.0000     -10.339759      -281.3591
  28   2.0000     -10.325171      -280.9622
  29   2.0000     -10.321644      -280.8662
  30   2.0000     -10.319261      -280.8014
  31   2.0000     -10.317950      -280.7657
  32   2.0000     -10.317442      -280.7519
  33   2.0000     -10.317356      -280.7495
  34   2.0000     -10.316618      -280.7294
  35   2.0000     -10.315660      -280.7034
  36   2.0000     -10.313238      -280.6375
  37   2.0000     -10.311921      -280.6016
  38   2.0000     -10.310863      -280.5729
  39   2.0000     -10.307413      -280.4790
  40   2.0000     -10.307355      -280.4774
  41   2.0000     -10.307277      -280.4753
  42   2.0000     -10.306945      -280.4662
  43   2.0000     -10.305671      -280.4316
  44   2.0000     -10.304960      -280.4122
  45   2.0000     -10.304504      -280.3998
  46   2.0000     -10.300879      -280.3012
  47   2.0000     -10.300419      -280.2887
  48   2.0000     -10.299004      -280.2502
  49   2.0000     -10.298423      -280.2343
  50   2.0000     -10.296603      -280.1848
  51   2.0000     -10.295378      -280.1515
  52   2.0000     -10.294844      -280.1369
  53   2.0000     -10.294774      -280.1350
  54   2.0000     -10.293802      -280.1086
  55   2.0000     -10.293253      -280.0936
  56   2.0000     -10.291191      -280.0375
  57   2.0000     -10.290196      -280.0105
  58   2.0000     -10.289628      -279.9950
  59   2.0000     -10.289305      -279.9862
  60   2.0000     -10.288602      -279.9671
  61   2.0000     -10.287933      -279.9489
  62   2.0000     -10.287203      -279.9290
  63   2.0000     -10.286571      -279.9118
  64   2.0000     -10.282383      -279.7979
  65   2.0000     -10.281930      -279.7855
  66   2.0000     -10.281241      -279.7668
  67   2.0000     -10.280056      -279.7346
  68   2.0000     -10.279183      -279.7108
  69   2.0000     -10.278184      -279.6836
  70   2.0000     -10.276639      -279.6416
  71   2.0000     -10.275502      -279.6106
  72   2.0000     -10.271273      -279.4956
  73   2.0000     -10.271015      -279.4885
  74   2.0000     -10.265519      -279.3390
  75   2.0000     -10.261884      -279.2401
  76   2.0000      -8.792753      -239.2630
  77   2.0000      -8.071305      -219.6314
  78   2.0000      -8.062051      -219.3796
  79   2.0000      -8.059931      -219.3219
  80   2.0000      -8.055233      -219.1940
  81   2.0000      -8.049600      -219.0407
  82   2.0000      -8.045045      -218.9168
  83   2.0000      -6.629060      -180.3859
  84   2.0000      -6.614480      -179.9892
  85   2.0000      -6.614291      -179.9840
  86   2.0000      -6.041018      -164.3844
  87   2.0000      -6.036704      -164.2671
  88   2.0000      -6.032522      -164.1533
  89   2.0000      -6.031437      -164.1238
  90   2.0000      -6.029168      -164.0620
  91   2.0000      -6.027181      -164.0079
  92   2.0000      -6.025100      -163.9513
  93   2.0000      -6.024680      -163.9399
  94   2.0000      -6.023953      -163.9201
  95   2.0000      -6.022237      -163.8734
  96   2.0000      -6.020494      -163.8260
  97   2.0000      -6.019389      -163.7959
  98   2.0000      -6.016939      -163.7292
  99   2.0000      -6.015727      -163.6962
 100   2.0000      -6.015015      -163.6769
 101   2.0000      -6.010653      -163.5582
 102   2.0000      -6.010179      -163.5453
 103   2.0000      -6.005853      -163.4276
 104   2.0000      -2.744924       -74.6932
 105   2.0000      -2.740852       -74.5824
 106   2.0000      -2.740681       -74.5777
 107   2.0000      -2.729109       -74.2628
 108   2.0000      -2.729094       -74.2624
 109   2.0000      -1.215202       -33.0673
 110   2.0000      -1.144392       -31.1405
 111   2.0000      -1.139521       -31.0079
 112   2.0000      -1.129953       -30.7476
 113   2.0000      -1.118639       -30.4397
 114   2.0000      -1.027210       -27.9518
 115   2.0000      -1.022131       -27.8136
 116   2.0000      -1.012907       -27.5626
 117   2.0000      -1.011552       -27.5257
 118   2.0000      -1.001042       -27.2397
 119   2.0000      -0.993496       -27.0344
 120   2.0000      -0.988429       -26.8965
 121   2.0000      -0.987135       -26.8613
 122   2.0000      -0.981424       -26.7059
 123   2.0000      -0.978411       -26.6239
 124   2.0000      -0.943768       -25.6812
 125   2.0000      -0.934213       -25.4212
 126   2.0000      -0.929858       -25.3027
 127   2.0000      -0.923887       -25.1402
 128   2.0000      -0.918601       -24.9964
 129   2.0000      -0.909204       -24.7407
 130   2.0000      -0.907714       -24.7001
 131   2.0000      -0.904157       -24.6034
 132   2.0000      -0.893678       -24.3182
 133   2.0000      -0.888290       -24.1716
 134   2.0000      -0.885345       -24.0915
 135   2.0000      -0.875224       -23.8161
 136   2.0000      -0.871655       -23.7190
 137   2.0000      -0.866760       -23.5858
 138   2.0000      -0.855389       -23.2763
 139   2.0000      -0.854374       -23.2487
 140   2.0000      -0.850422       -23.1412
 141   2.0000      -0.844844       -22.9894
 142   2.0000      -0.829829       -22.5808
 143   2.0000      -0.828866       -22.5546
 144   2.0000      -0.824611       -22.4388
 145   2.0000      -0.821909       -22.3653
 146   2.0000      -0.806584       -21.9483
 147   2.0000      -0.793050       -21.5800
 148   2.0000      -0.791127       -21.5277
 149   2.0000      -0.772960       -21.0333
 150   2.0000      -0.763998       -20.7895
 151   2.0000      -0.756309       -20.5802
 152   2.0000      -0.754529       -20.5318
 153   2.0000      -0.750121       -20.4118
 154   2.0000      -0.734160       -19.9775
 155   2.0000      -0.729813       -19.8592
 156   2.0000      -0.721128       -19.6229
 157   2.0000      -0.715385       -19.4666
 158   2.0000      -0.711104       -19.3501
 159   2.0000      -0.703303       -19.1378
 160   2.0000      -0.700588       -19.0640
 161   2.0000      -0.698115       -18.9967
 162   2.0000      -0.693502       -18.8712
 163   2.0000      -0.691385       -18.8135
 164   2.0000      -0.685389       -18.6504
 165   2.0000      -0.683310       -18.5938
 166   2.0000      -0.673127       -18.3167
 167   2.0000      -0.663692       -18.0600
 168   2.0000      -0.656438       -17.8626
 169   2.0000      -0.655610       -17.8401
 170   2.0000      -0.649138       -17.6639
 171   2.0000      -0.644364       -17.5340
 172   2.0000      -0.635738       -17.2993
 173   2.0000      -0.631626       -17.1874
 174   2.0000      -0.624490       -16.9932
 175   2.0000      -0.620212       -16.8768
 176   2.0000      -0.617414       -16.8007
 177   2.0000      -0.608584       -16.5604
 178   2.0000      -0.605567       -16.4783
 179   2.0000      -0.603864       -16.4320
 180   2.0000      -0.595824       -16.2132
 181   2.0000      -0.594105       -16.1664
 182   2.0000      -0.591155       -16.0861
 183   2.0000      -0.580511       -15.7965
 184   2.0000      -0.578521       -15.7424
 185   2.0000      -0.573343       -15.6014
 186   2.0000      -0.572923       -15.5900
 187   2.0000      -0.565617       -15.3912
 188   2.0000      -0.556047       -15.1308
 189   2.0000      -0.554375       -15.0853
 190   2.0000      -0.552126       -15.0241
 191   2.0000      -0.548752       -14.9323
 192   2.0000      -0.546085       -14.8597
 193   2.0000      -0.544742       -14.8232
 194   2.0000      -0.542396       -14.7593
 195   2.0000      -0.539444       -14.6790
 196   2.0000      -0.538970       -14.6661
 197   2.0000      -0.537939       -14.6381
 198   2.0000      -0.535755       -14.5786
 199   2.0000      -0.532052       -14.4779
 200   2.0000      -0.530596       -14.4383
 201   2.0000      -0.526774       -14.3343
 202   2.0000      -0.521742       -14.1973
 203   2.0000      -0.517502       -14.0820
 204   2.0000      -0.516684       -14.0597
 205   2.0000      -0.515668       -14.0320
 206   2.0000      -0.510745       -13.8981
 207   2.0000      -0.508387       -13.8339
 208   2.0000      -0.506564       -13.7843
 209   2.0000      -0.504953       -13.7405
 210   2.0000      -0.501946       -13.6587
 211   2.0000      -0.501828       -13.6554
 212   2.0000      -0.498573       -13.5669
 213   2.0000      -0.497725       -13.5438
 214   2.0000      -0.496013       -13.4972
 215   2.0000      -0.493399       -13.4261
 216   2.0000      -0.493296       -13.4233
 217   2.0000      -0.492184       -13.3930
 218   2.0000      -0.491729       -13.3806
 219   2.0000      -0.490272       -13.3410
 220   2.0000      -0.485263       -13.2047
 221   2.0000      -0.476208       -12.9583
 222   2.0000      -0.473442       -12.8830
 223   2.0000      -0.470726       -12.8091
 224   2.0000      -0.470027       -12.7901
 225   2.0000      -0.465601       -12.6697
 226   2.0000      -0.465479       -12.6663
 227   2.0000      -0.464515       -12.6401
 228   2.0000      -0.463773       -12.6199
 229   2.0000      -0.461545       -12.5593
 230   2.0000      -0.458680       -12.4813
 231   2.0000      -0.457201       -12.4411
 232   2.0000      -0.453960       -12.3529
 233   2.0000      -0.452764       -12.3203
 234   2.0000      -0.451717       -12.2918
 235   2.0000      -0.449211       -12.2237
 236   2.0000      -0.448286       -12.1985
 237   2.0000      -0.447724       -12.1832
 238   2.0000      -0.442938       -12.0530
 239   2.0000      -0.441969       -12.0266
 240   2.0000      -0.438678       -11.9370
 241   2.0000      -0.438466       -11.9313
 242   2.0000      -0.436370       -11.8742
 243   2.0000      -0.431661       -11.7461
 244   2.0000      -0.430360       -11.7107
 245   2.0000      -0.429000       -11.6737
 246   2.0000      -0.427425       -11.6308
 247   2.0000      -0.426672       -11.6103
 248   2.0000      -0.425050       -11.5662
 249   2.0000      -0.423607       -11.5269
 250   2.0000      -0.422546       -11.4981
 251   2.0000      -0.413070       -11.2402
 252   2.0000      -0.407014       -11.0754
 253   2.0000      -0.405052       -11.0220
 254   2.0000      -0.401346       -10.9212
 255   2.0000      -0.399567       -10.8728
 256   2.0000      -0.395490       -10.7618
 257   2.0000      -0.387447       -10.5430
 258   2.0000      -0.384679       -10.4677
 259   2.0000      -0.378004       -10.2860
 260   2.0000      -0.374966       -10.2033
 261   2.0000      -0.370391       -10.0788
 262   2.0000      -0.367759       -10.0072
 263   2.0000      -0.367522       -10.0008
 264   2.0000      -0.360959        -9.8222
 265   2.0000      -0.354949        -9.6587
 266   2.0000      -0.348558        -9.4847
 267   2.0000      -0.346735        -9.4351
 268   2.0000      -0.344425        -9.3723
 269   2.0000      -0.342191        -9.3115
 270   2.0000      -0.335000        -9.1158
 271   2.0000      -0.330776        -9.0009
 272   2.0000      -0.330546        -8.9946
 273   2.0000      -0.324892        -8.8408
 274   2.0000      -0.317600        -8.6423
 275   2.0000      -0.315177        -8.5764
 276   2.0000      -0.306355        -8.3363
 277   2.0000      -0.298820        -8.1313
 278   2.0000      -0.292923        -7.9709
 279   2.0000      -0.276985        -7.5372
 280   2.0000      -0.266857        -7.2616
 281   2.0000      -0.243511        -6.6263
 282   2.0000      -0.215083        -5.8527
 283   0.0000      -0.091340        -2.4855
 284   0.0000      -0.082059        -2.2329
 285   0.0000      -0.063734        -1.7343
 286   0.0000      -0.059175        -1.6102
 287   0.0000      -0.019477        -0.5300

MULLIKEN ATOMIC CHARGES
-----------------------
   0 C :   -0.025893
   1 C :   -0.052036
   2 C :    0.051754
   3 C :    0.032740
   4 C :   -0.042928
   5 S :    0.013419
   6 C :   -0.028830
   7 C :    0.033085
   8 C :    0.027087
   9 C :    0.003172
  10 S :    0.072153
  11 C :   -0.043259
  12 C :    0.092525
  13 O :   -0.253559
  14 C :   -0.028833
  15 C :    0.150365
  16 O :   -0.152807
  17 N :   -0.168016
  18 C :    0.154396
  19 O :   -0.150562
  20 C :   -0.035536
  21 C :    0.104714
  22 C :   -0.057302
  23 C :    0.003783
  24 C :   -0.149731
  25 S :    0.148813
  26 C :   -0.110656
  27 C :    0.009481
  28 C :    0.158833
  29 N :   -0.042583
  30 N :   -0.051542
  31 C :   -0.007626
  32 C :    0.039521
  33 C :   -0.019596
  34 C :    0.073865
  35 C :   -0.116903
  36 S :    0.135206
  37 C :   -0.147272
  38 C :    0.114035
  39 C :   -0.118488
  40 C :    0.017205
  41 C :    0.028849
  42 C :   -0.117063
  43 C :    0.009995
  44 C :    0.038692
  45 C :    0.126872
  46 C :    0.070464
  47 C :   -0.101356
  48 S :    0.153813
  49 C :   -0.154280
  50 C :    0.000966
  51 C :   -0.016048
  52 C :   -0.040088
  53 C :   -0.063325
  54 C :    0.331154
  55 C :   -0.352779
  56 C :   -0.184913
  57 N :    0.147682
  58 C :   -0.189451
  59 N :    0.138347
  60 C :    0.011161
  61 C :   -0.014202
  62 C :    0.142340
  63 O :   -0.156040
  64 C :   -0.071269
  65 C :    0.115897
  66 C :   -0.091550
  67 C :   -0.019968
  68 S :    0.186048
  69 C :   -0.124209
  70 C :    0.041325
  71 Br:    0.023363
  72 H :    0.025147
  73 H :    0.036091
  74 H :   -0.005935
  75 H :   -0.007366
  76 H :   -0.011407
  77 H :   -0.005931
  78 H :    0.006827
  79 H :    0.133311
  80 H :    0.008609
  81 H :   -0.003633
  82 H :    0.130159
  83 H :   -0.016090
  84 H :   -0.020462
  85 H :   -0.018383
  86 H :    0.025100
  87 H :    0.002535
  88 H :    0.015151
  89 H :    0.032050
  90 H :    0.011010
  91 H :    0.020746
  92 H :    0.013632
  93 H :    0.001691
  94 H :    0.016986
  95 H :    0.032391
  96 H :    0.010241
  97 H :    0.039576
  98 H :    0.013722
  99 H :    0.025361
 100 H :    0.007136
 101 H :   -0.011215
 102 H :   -0.005928
 103 H :   -0.003747
Sum of atomic charges:   -0.0000000

LOEWDIN ATOMIC CHARGES
----------------------
   0 C :   -0.058672
   1 C :   -0.140541
   2 C :   -0.024582
   3 C :   -0.026828
   4 C :   -0.168263
   5 S :    0.355996
   6 C :   -0.187419
   7 C :   -0.025282
   8 C :   -0.033551
   9 C :   -0.130502
  10 S :    0.386731
  11 C :   -0.077973
  12 C :    0.062355
  13 O :   -0.006969
  14 C :   -0.101161
  15 C :    0.081453
  16 O :   -0.170945
  17 N :   -0.009990
  18 C :    0.082575
  19 O :   -0.169298
  20 C :   -0.105946
  21 C :    0.074944
  22 C :   -0.068484
  23 C :   -0.013807
  24 C :   -0.219256
  25 S :    0.460593
  26 C :   -0.153167
  27 C :   -0.098774
  28 C :   -0.007739
  29 N :    0.089883
  30 N :   -0.055652
  31 C :   -0.042113
  32 C :   -0.045547
  33 C :   -0.010645
  34 C :   -0.061847
  35 C :   -0.162677
  36 S :    0.420624
  37 C :   -0.177372
  38 C :   -0.040015
  39 C :   -0.016413
  40 C :   -0.031690
  41 C :   -0.051677
  42 C :   -0.019093
  43 C :   -0.033052
  44 C :   -0.051404
  45 C :   -0.039484
  46 C :   -0.071550
  47 C :   -0.143464
  48 S :    0.439630
  49 C :   -0.177595
  50 C :    0.042125
  51 C :   -0.038796
  52 C :    0.072419
  53 C :   -0.102250
  54 C :    0.077628
  55 C :   -0.144513
  56 C :   -0.018429
  57 N :   -0.056198
  58 C :   -0.018584
  59 N :   -0.058876
  60 C :   -0.021083
  61 C :   -0.050261
  62 C :    0.084996
  63 O :   -0.149574
  64 C :    0.021193
  65 C :   -0.032606
  66 C :   -0.143983
  67 C :   -0.009696
  68 S :    0.432332
  69 C :   -0.271465
  70 C :   -0.070378
  71 Br:    0.136619
  72 H :    0.031600
  73 H :    0.030780
  74 H :    0.036055
  75 H :    0.034915
  76 H :    0.032377
  77 H :    0.036106
  78 H :    0.049620
  79 H :    0.091544
  80 H :    0.038771
  81 H :    0.030666
  82 H :    0.051676
  83 H :    0.018464
  84 H :    0.028446
  85 H :    0.029424
  86 H :    0.024389
  87 H :    0.028018
  88 H :    0.030509
  89 H :    0.026310
  90 H :    0.026043
  91 H :    0.021935
  92 H :    0.028821
  93 H :    0.027601
  94 H :    0.021939
  95 H :    0.031032
  96 H :    0.025869
  97 H :    0.030750
  98 H :    0.037513
  99 H :    0.032284
 100 H :    0.041170
 101 H :    0.040553
 102 H :    0.041098
 103 H :    0.038755

  Mayer bond orders larger than 0.100000
B(  0-C ,  1-C ) :   1.8706 B(  0-C , 72-H ) :   0.9506 B(  0-C , 73-H ) :   0.9338
B(  1-C ,  2-C ) :   1.0831 B(  1-C ,  5-S ) :   0.9964 B(  2-C ,  3-C ) :   1.6623
B(  2-C , 74-H ) :   0.9925 B(  3-C ,  4-C ) :   1.1560 B(  3-C , 75-H ) :   0.9908
B(  4-C ,  5-S ) :   1.0474 B(  4-C ,  6-C ) :   1.5504 B(  6-C ,  7-C ) :   1.1719
B(  6-C , 10-S ) :   1.0142 B(  7-C ,  8-C ) :   1.6070 B(  7-C , 76-H ) :   0.9946
B(  8-C ,  9-C ) :   1.1357 B(  8-C , 77-H ) :   1.0006 B(  9-C , 10-S ) :   1.0573
B(  9-C , 11-C ) :   1.5358 B( 11-C , 12-C ) :   1.2245 B( 11-C , 78-H ) :   0.9661
B( 12-C , 13-O ) :   1.1041 B( 12-C , 14-C ) :   1.3689 B( 13-O , 21-C ) :   1.1254
B( 14-C , 15-C ) :   0.8923 B( 14-C , 20-C ) :   1.2770 B( 15-C , 16-O ) :   2.2626
B( 15-C , 17-N ) :   1.0750 B( 17-N , 18-C ) :   1.0734 B( 17-N , 79-H ) :   0.9150
B( 18-C , 19-O ) :   2.2661 B( 18-C , 20-C ) :   0.8869 B( 20-C , 21-C ) :   1.3691
B( 21-C , 22-C ) :   1.2198 B( 22-C , 23-C ) :   1.5479 B( 22-C , 80-H ) :   0.9650
B( 23-C , 24-C ) :   1.2045 B( 23-C , 81-H ) :   0.9854 B( 24-C , 25-S ) :   1.0748
B( 24-C , 26-C ) :   0.1077 B( 24-C , 28-C ) :   1.3477 B( 25-S , 26-C ) :   1.1583
B( 26-C , 27-C ) :   1.3209 B( 26-C , 32-C ) :   1.1412 B( 27-C , 28-C ) :   1.2498
B( 27-C , 31-C ) :   1.1554 B( 28-C , 29-N ) :   1.1749 B( 29-N , 30-N ) :   1.1456
B( 29-N , 82-H ) :   0.9307 B( 30-N , 31-C ) :   1.7359 B( 31-C , 83-H ) :   0.9901
B( 32-C , 33-C ) :   1.7188 B( 32-C , 84-H ) :   0.9617 B( 33-C , 34-C ) :   1.0352
B( 33-C , 85-H ) :   0.9532 B( 34-C , 35-C ) :   1.6010 B( 34-C , 38-C ) :   1.1398
B( 35-C , 36-S ) :   1.1207 B( 35-C , 86-H ) :   0.9614 B( 36-S , 37-C ) :   1.0804
B( 37-C , 38-C ) :   1.3703 B( 37-C , 49-C ) :   1.3815 B( 38-C , 39-C ) :   1.2681
B( 39-C , 40-C ) :   1.0621 B( 39-C , 42-C ) :   1.5099 B( 40-C , 41-C ) :   1.1117
B( 40-C , 87-H ) :   0.9080 B( 40-C , 88-H ) :   0.9199 B( 41-C , 89-H ) :   0.9627
B( 41-C , 90-H ) :   0.9526 B( 41-C , 91-H ) :   0.9569 B( 42-C , 43-C ) :   1.0589
B( 42-C , 45-C ) :   1.2711 B( 43-C , 44-C ) :   1.1118 B( 43-C , 92-H ) :   0.9229
B( 43-C , 93-H ) :   0.9082 B( 44-C , 94-H ) :   0.9590 B( 44-C , 95-H ) :   0.9653
B( 44-C , 96-H ) :   0.9548 B( 45-C , 46-C ) :   1.1334 B( 45-C , 49-C ) :   1.3761
B( 46-C , 47-C ) :   1.5741 B( 46-C , 50-C ) :   1.0244 B( 47-C , 48-S ) :   1.1519
B( 47-C , 97-H ) :   0.9599 B( 48-S , 49-C ) :   1.0720 B( 50-C , 51-C ) :   1.6145
B( 50-C , 98-H ) :   0.9679 B( 51-C , 52-C ) :   1.1548 B( 51-C , 99-H ) :   0.9830
B( 52-C , 53-C ) :   1.5319 B( 52-C ,100-H ) :   0.9620 B( 53-C , 54-C ) :   1.0678
B( 53-C , 62-C ) :   0.9488 B( 54-C , 55-C ) :   1.6218 B( 54-C , 60-C ) :   1.0037
B( 55-C , 56-C ) :   1.1415 B( 55-C , 58-C ) :   1.1491 B( 56-C , 57-N ) :   2.9675
B( 58-C , 59-N ) :   2.9628 B( 60-C , 61-C ) :   1.2748 B( 60-C , 67-C ) :   1.4079
B( 61-C , 62-C ) :   0.9432 B( 61-C , 64-C ) :   1.4251 B( 62-C , 63-O ) :   2.1974
B( 64-C , 65-C ) :   1.2451 B( 64-C ,101-H ) :   1.0166 B( 65-C , 66-C ) :   1.3060
B( 65-C , 70-C ) :   1.1635 B( 66-C , 67-C ) :   1.3325 B( 66-C , 68-S ) :   1.0847
B( 67-C ,102-H ) :   0.9792 B( 68-S , 69-C ) :   1.0876 B( 69-C , 70-C ) :   1.6169
B( 69-C , 71-Br) :   1.0184 B( 70-C ,103-H ) :   1.0004

-----------------------------------------------------------------------------
         ABSORPTION SPECTRUM VIA TRANSITION ELECTRIC DIPOLE MOMENTS
-----------------------------------------------------------------------------
State   Energy  Wavelength   fosc         T2         TX        TY        TZ
        (cm-1)    (nm)                  (au**2)     (au)      (au)      (au)
-----------------------------------------------------------------------------
   0   14370.3    695.9   0.563082270  12.89980   2.52481  -1.83811  -1.77384
   1   18702.7    534.7   0.344094592   6.05689   1.54120  -0.67397   1.79648
   2   20057.4    498.6   0.005433729   0.08919  -0.19147   0.12463  -0.19233
   3   21506.5    465.0   2.541991673  38.91173   3.49510  -1.83252   4.83093
   4   22393.4    446.6   0.223829675   3.29059   0.04745   1.20942  -1.35116
   5   24616.3    406.2   0.080157465   1.07200   0.86351  -0.37975  -0.42678
   6   25288.1    395.4   0.001336184   0.01740  -0.03188   0.03861  -0.12201
   7   27514.8    363.4   0.093500961   1.11873   1.04753  -0.01986   0.14498
   8   27819.3    359.5   0.004326571   0.05120  -0.22150  -0.02808  -0.03674
   9   28397.2    352.1   0.090724044   1.05177  -0.89870   0.41503   0.26805
  10   28541.4    350.4   0.137341410   1.58417   1.14523  -0.01522   0.52190
  11   28623.9    349.4   0.061396090   0.70613  -0.80636   0.14896   0.18366
  12   28915.0    345.8   0.002106315   0.02398   0.08109   0.04332   0.12462
  13   29099.4    343.6   0.080492184   0.91064   0.74779  -0.12285   0.57996
  14   30114.0    332.1   0.027745825   0.30332   0.21920   0.22216  -0.45378
  15   30191.4    331.2   0.097959901   1.06817  -0.01667  -0.18171  -1.01729
  16   30546.0    327.4   0.043959665   0.47378   0.06162  -0.04715  -0.68393
  17   31852.8    313.9   0.634076367   6.55343  -1.78121   0.98218  -1.55436
  18   32003.6    312.5   0.019297709   0.19851   0.12225  -0.22165  -0.36665
  19   32204.6    310.5   0.059374741   0.60696   0.53561  -0.17629   0.53759
  20   32870.8    304.2   0.066722920   0.66825   0.65246  -0.19415  -0.45261
  21   33309.1    300.2   0.013341147   0.13186   0.27814  -0.12513  -0.19707
  22   33477.8    298.7   0.026979715   0.26531   0.43770  -0.12731  -0.23984
  23   33497.8    298.5   0.545624105   5.36231  -2.30350  -0.23612  -0.02112
  24   34388.7    290.8   0.000085675   0.00082  -0.02012  -0.00707  -0.01911
  25   34430.2    290.4   0.009681650   0.09257   0.24544  -0.17372   0.04642
  26   34883.4    286.7   0.024503959   0.23126  -0.29028   0.11504  -0.36573
  27   35172.1    284.3   0.010363956   0.09701   0.24636  -0.13640   0.13308
  28   35633.3    280.6   0.022985318   0.21236   0.03443   0.16381   0.42935
  29   36122.7    276.8   0.096727802   0.88155   0.18713  -0.24706  -0.88628
  30   36275.2    275.7   0.000808431   0.00734  -0.04679  -0.06942   0.01812
  31   36843.4    271.4   0.017595107   0.15722  -0.32429  -0.20268   0.10477
  32   36974.8    270.5   0.109653438   0.97632   0.77960  -0.35786  -0.49038
  33   37392.3    267.4   0.172515881   1.51888  -0.51220   0.43032   1.03506
  34   37569.4    266.2   0.051986763   0.45555  -0.53806   0.14684  -0.38010
  35   37881.2    264.0   0.040274235   0.35001   0.40209  -0.21465   0.37717
  36   38047.5    262.8   0.017942768   0.15525  -0.24829   0.24223  -0.18689
  37   38210.6    261.7   0.116169007   1.00088  -0.94560   0.26603  -0.18959
  38   38966.8    256.6   0.169918888   1.43556  -0.25667   0.92369  -0.71867
  39   39048.6    256.1   0.000200898   0.00169  -0.02696  -0.02964  -0.00942
  40   39325.3    254.3   0.157440332   1.31801  -0.41785  -0.14077   1.06000
  41   39468.9    253.4   0.134163121   1.11906  -0.71634   0.30749  -0.71510
  42   39736.5    251.7   0.077066329   0.63849   0.70140  -0.27404  -0.26726
  43   39786.7    251.3   0.007679968   0.06355   0.08931   0.23204   0.04158
  44   40200.9    248.8   0.028930139   0.23691  -0.39186   0.01173   0.28848

FINAL SINGLE POINT ENERGY     -7686.740494533231

DIPOLE MOMENT
-------------
                                X             Y             Z
Electronic contribution:   -174.30783      88.09637     -82.54181
Nuclear contribution   :    173.58018     -89.50485      81.48745
                        -----------------------------------------
Total Dipole Moment    :     -0.72765      -1.40848      -1.05435
                        -----------------------------------------
Magnitude (a.u.)       :      1.90393
Magnitude (Debye)      :      4.83941

Rotational constants in cm-1:     0.001802     0.000148     0.000140
Rotational constants in MHz :    54.016033     4.431402     4.192333

                             ****ORCA TERMINATED NORMALLY****
TOTAL RUN TIME: 0 days 0 hours 9 minutes 29 seconds 95 msec
