                         Program Version 4.2.0 -  RELEASE  -
|  1> # ORCA input file
|  2> # SCF done       -176.395917192063          0.000835559736
|  3> ! CAM-B3LYP def2-SVP def2/J RIJCOSX Grid4 TightSCF
|  4> %maxcore 5000
|  5> %tddft
|  6>     Mode sTDDFT
|  7>     Ethresh 5.0
|  8>     maxcore 5000
|  9> end
| 10>
| 11> %pal
| 12>   nprocs 6
| 13>   end
| 14> * xyz 0 1
| 15>    C        2.74080         0.77480        -1.13178
| 16>    C        1.59728         0.11963        -1.57888
| 17>    C        1.44886        -1.30977        -1.44339
| 18>    N        0.30695        -1.91504        -1.82315
| 19>    C       -0.62812        -1.19139        -2.37779
| 20>    C       -0.45794         0.22737        -2.56936
| 21>    N        0.61406         0.84330        -2.15519
| 22>    C       -1.48998         0.96982        -3.20002
| 23>    N       -2.34701         1.53384        -3.70837
| 24>    C       -1.83341        -1.81787        -2.78271
| 25>    N       -2.81695        -2.29763        -3.12165
| 26>    C        2.47118        -2.09495        -0.89202
| 27>    C        3.62344        -1.43578        -0.46267
| 28>    C        3.74969         0.00457        -0.57174
| 29>    N        4.93070         0.42708        -0.09595
| 30>    S        5.76391        -0.83478         0.40967
| 31>    N        4.72222        -1.99486         0.06048
| 32>    C        2.31889        -3.53674        -0.75568
| 33>    C        2.03212        -4.38510        -1.83067
| 34>    C        1.99204        -3.89694        -3.22466
| 35>    O        2.29947        -2.81507        -3.63526
| 36>    S        1.47391        -5.22911        -4.28252
| 37>    C        1.47260        -6.42764        -2.93132
| 38>    O        1.19756        -7.57370        -3.13886
| 39>    C        1.83382        -5.75457        -1.67177
| 40>    C        1.95489        -6.41910        -0.40931
| 41>    C        2.29946        -5.54801         0.66348
| 42>    C        2.44148        -4.17327         0.47601
| 43>    C        2.70136        -3.54857         1.79112
| 44>    O        2.77400        -2.39834         2.10168
| 45>    O        2.81825        -4.56686         2.69262
| 46>    C        2.60595        -5.79029         2.09036
| 47>    O        2.71119        -6.79574         2.72893
| 48>    C        1.74269        -7.81808        -0.33651
| 49>    C        1.57823        -8.59736         0.77268
| 50>    C        1.35851        -9.97855         0.71102
| 51>    S        1.29052       -10.90389        -0.78427
| 52>    C        1.00924       -12.41925         0.03393
| 53>    C        0.96951       -12.20391         1.42006
| 54>    C        1.16358       -10.84945         1.77694
| 55>    S        1.09753       -10.67503         3.49310
| 56>    C        0.81701       -12.40767         3.57824
| 57>    N        0.77837       -13.04552         2.47055
| 58>    C        0.85552       -13.61519        -0.67326
| 59>    C        0.63472       -14.81832        -0.05027
| 60>    C        0.46042       -16.03630        -0.70121
| 61>    S        0.48828       -16.24752        -2.44577
| 62>    C        0.17971       -17.97489        -2.38219
| 63>    C        0.06790       -18.37021        -1.03435
| 64>    C        0.22464       -17.29223        -0.12820
| 65>    N        0.09309       -17.80872         1.11314
| 66>    N       -0.13398       -19.12967         1.06562
| 67>    C       -0.15384       -19.48846        -0.19561
| 68>    C        0.07350       -18.69717        -3.56504
| 69>    C       -0.19526       -20.04852        -3.64381
| 70>    C       -0.32418       -20.71858        -4.85450
| 71>    C       -0.62168       -22.06271        -4.99513
| 72>    C       -0.83597       -23.04637        -4.00430
| 73>    C       -1.13182       -24.28266        -4.49759
| 74>    C       -1.17002       -24.34441        -5.90856
| 75>    S       -0.80288       -22.77240        -6.58589
| 76>    C       -1.45753       -25.43743        -6.70070
| 77>    C       -1.77871       -26.75263        -6.26589
| 78>    C       -2.02932       -27.62437        -7.26912
| 79>    C       -1.92317       -27.05921        -8.58280
| 80>    S       -1.48084       -25.34932        -8.44546
| 81>    C       -2.11750       -27.67108        -9.75966
| 82>    H        2.83207         1.84284        -1.23562
| 83>    H        1.65979        -8.32547        -1.28743
| 84>    H        1.60262        -8.18396         1.76888
| 85>    H        0.68941       -12.87851         4.53324
| 86>    H        0.91211       -13.57113        -1.75229
| 87>    H        0.58600       -14.82863         1.03064
| 88>    H        0.14295       -17.33865         2.00175
| 89>    H       -0.32153       -20.51482        -0.45014
| 90>    H        0.20117       -18.14290        -4.48550
| 91>    H       -0.32263       -20.60051        -2.72592
| 92>    H       -0.19625       -20.14583        -5.76356
| 93>    H       -0.76799       -22.82421        -2.95484
| 94>    H       -1.32464       -25.14449        -3.88441
| 95>    H       -1.81378       -27.00516        -5.22117
| 96>    H       -2.28988       -28.65911        -7.13571
| 97>    H       -2.38796       -28.71146        -9.79910
| 98>    H       -2.01330       -27.14874       -10.69290
| 99> *
|100>
|101>                          ****END OF INPUT****

CARTESIAN COORDINATES (ANGSTROEM)
---------------------------------
  C      2.740800    0.774800   -1.131780
  C      1.597280    0.119630   -1.578880
  C      1.448860   -1.309770   -1.443390
  N      0.306950   -1.915040   -1.823150
  C     -0.628120   -1.191390   -2.377790
  C     -0.457940    0.227370   -2.569360
  N      0.614060    0.843300   -2.155190
  C     -1.489980    0.969820   -3.200020
  N     -2.347010    1.533840   -3.708370
  C     -1.833410   -1.817870   -2.782710
  N     -2.816950   -2.297630   -3.121650
  C      2.471180   -2.094950   -0.892020
  C      3.623440   -1.435780   -0.462670
  C      3.749690    0.004570   -0.571740
  N      4.930700    0.427080   -0.095950
  S      5.763910   -0.834780    0.409670
  N      4.722220   -1.994860    0.060480
  C      2.318890   -3.536740   -0.755680
  C      2.032120   -4.385100   -1.830670
  C      1.992040   -3.896940   -3.224660
  O      2.299470   -2.815070   -3.635260
  S      1.473910   -5.229110   -4.282520
  C      1.472600   -6.427640   -2.931320
  O      1.197560   -7.573700   -3.138860
  C      1.833820   -5.754570   -1.671770
  C      1.954890   -6.419100   -0.409310
  C      2.299460   -5.548010    0.663480
  C      2.441480   -4.173270    0.476010
  C      2.701360   -3.548570    1.791120
  O      2.774000   -2.398340    2.101680
  O      2.818250   -4.566860    2.692620
  C      2.605950   -5.790290    2.090360
  O      2.711190   -6.795740    2.728930
  C      1.742690   -7.818080   -0.336510
  C      1.578230   -8.597360    0.772680
  C      1.358510   -9.978550    0.711020
  S      1.290520  -10.903890   -0.784270
  C      1.009240  -12.419250    0.033930
  C      0.969510  -12.203910    1.420060
  C      1.163580  -10.849450    1.776940
  S      1.097530  -10.675030    3.493100
  C      0.817010  -12.407670    3.578240
  N      0.778370  -13.045520    2.470550
  C      0.855520  -13.615190   -0.673260
  C      0.634720  -14.818320   -0.050270
  C      0.460420  -16.036300   -0.701210
  S      0.488280  -16.247520   -2.445770
  C      0.179710  -17.974890   -2.382190
  C      0.067900  -18.370210   -1.034350
  C      0.224640  -17.292230   -0.128200
  N      0.093090  -17.808720    1.113140
  N     -0.133980  -19.129670    1.065620
  C     -0.153840  -19.488460   -0.195610
  C      0.073500  -18.697170   -3.565040
  C     -0.195260  -20.048520   -3.643810
  C     -0.324180  -20.718580   -4.854500
  C     -0.621680  -22.062710   -4.995130
  C     -0.835970  -23.046370   -4.004300
  C     -1.131820  -24.282660   -4.497590
  C     -1.170020  -24.344410   -5.908560
  S     -0.802880  -22.772400   -6.585890
  C     -1.457530  -25.437430   -6.700700
  C     -1.778710  -26.752630   -6.265890
  C     -2.029320  -27.624370   -7.269120
  C     -1.923170  -27.059210   -8.582800
  S     -1.480840  -25.349320   -8.445460
  C     -2.117500  -27.671080   -9.759660
  H      2.832070    1.842840   -1.235620
  H      1.659790   -8.325470   -1.287430
  H      1.602620   -8.183960    1.768880
  H      0.689410  -12.878510    4.533240
  H      0.912110  -13.571130   -1.752290
  H      0.586000  -14.828630    1.030640
  H      0.142950  -17.338650    2.001750
  H     -0.321530  -20.514820   -0.450140
  H      0.201170  -18.142900   -4.485500
  H     -0.322630  -20.600510   -2.725920
  H     -0.196250  -20.145830   -5.763560
  H     -0.767990  -22.824210   -2.954840
  H     -1.324640  -25.144490   -3.884410
  H     -1.813780  -27.005160   -5.221170
  H     -2.289880  -28.659110   -7.135710
  H     -2.387960  -28.711460   -9.799100
  H     -2.013300  -27.148740  -10.692900

 Total Charge           Charge          ....    0
 Multiplicity           Mult            ....    1
 Number of Electrons    NEL             ....  508
 Basis Dimension        Dim             .... 1051

ORBITAL ENERGIES
----------------

  NO   OCC          E(Eh)            E(eV)
   0   2.0000     -89.048090     -2423.1217
   1   2.0000     -88.968350     -2420.9519
   2   2.0000     -88.964599     -2420.8498
   3   2.0000     -88.963017     -2420.8068
   4   2.0000     -88.952450     -2420.5192
   5   2.0000     -88.949804     -2420.4472
   6   2.0000     -88.947461     -2420.3835
   7   2.0000     -19.289576      -524.8961
   8   2.0000     -19.240121      -523.5503
   9   2.0000     -19.240038      -523.5481
  10   2.0000     -19.237617      -523.4822
  11   2.0000     -19.236565      -523.4536
  12   2.0000     -14.487843      -394.2342
  13   2.0000     -14.461755      -393.5244
  14   2.0000     -14.459491      -393.4628
  15   2.0000     -14.451068      -393.2336
  16   2.0000     -14.450920      -393.2295
  17   2.0000     -14.439592      -392.9213
  18   2.0000     -14.427961      -392.6048
  19   2.0000     -14.425750      -392.5446
  20   2.0000     -14.424531      -392.5114
  21   2.0000     -10.433031      -283.8972
  22   2.0000     -10.429854      -283.8108
  23   2.0000     -10.403252      -283.0869
  24   2.0000     -10.402928      -283.0781
  25   2.0000     -10.381059      -282.4830
  26   2.0000     -10.379346      -282.4364
  27   2.0000     -10.346503      -281.5427
  28   2.0000     -10.344771      -281.4955
  29   2.0000     -10.342313      -281.4286
  30   2.0000     -10.341089      -281.3953
  31   2.0000     -10.340177      -281.3705
  32   2.0000     -10.334489      -281.2158
  33   2.0000     -10.326999      -281.0119
  34   2.0000     -10.326524      -280.9990
  35   2.0000     -10.325530      -280.9720
  36   2.0000     -10.323601      -280.9195
  37   2.0000     -10.323162      -280.9075
  38   2.0000     -10.321881      -280.8726
  39   2.0000     -10.321801      -280.8705
  40   2.0000     -10.321066      -280.8505
  41   2.0000     -10.320893      -280.8458
  42   2.0000     -10.320716      -280.8409
  43   2.0000     -10.320285      -280.8292
  44   2.0000     -10.318896      -280.7914
  45   2.0000     -10.318674      -280.7854
  46   2.0000     -10.317292      -280.7478
  47   2.0000     -10.316580      -280.7284
  48   2.0000     -10.313440      -280.6430
  49   2.0000     -10.307781      -280.4890
  50   2.0000     -10.307524      -280.4820
  51   2.0000     -10.306666      -280.4586
  52   2.0000     -10.305526      -280.4276
  53   2.0000     -10.301316      -280.3131
  54   2.0000     -10.299702      -280.2692
  55   2.0000     -10.299100      -280.2527
  56   2.0000     -10.295697      -280.1602
  57   2.0000     -10.294235      -280.1204
  58   2.0000     -10.292559      -280.0748
  59   2.0000     -10.292162      -280.0640
  60   2.0000     -10.292052      -280.0610
  61   2.0000     -10.287433      -279.9353
  62   2.0000     -10.285690      -279.8879
  63   2.0000     -10.281937      -279.7857
  64   2.0000     -10.281900      -279.7847
  65   2.0000     -10.280639      -279.7504
  66   2.0000     -10.271139      -279.4919
  67   2.0000      -8.139269      -221.4808
  68   2.0000      -8.064453      -219.4449
  69   2.0000      -8.059338      -219.3057
  70   2.0000      -8.057780      -219.2633
  71   2.0000      -8.048952      -219.0231
  72   2.0000      -8.046806      -218.9647
  73   2.0000      -8.046559      -218.9580
  74   2.0000      -6.110031      -166.2624
  75   2.0000      -6.102740      -166.0640
  76   2.0000      -6.102215      -166.0497
  77   2.0000      -6.033845      -164.1893
  78   2.0000      -6.029780      -164.0787
  79   2.0000      -6.028713      -164.0496
  80   2.0000      -6.027166      -164.0075
  81   2.0000      -6.026078      -163.9779
  82   2.0000      -6.024644      -163.9389
  83   2.0000      -6.023128      -163.8976
  84   2.0000      -6.021356      -163.8494
  85   2.0000      -6.019682      -163.8039
  86   2.0000      -6.018704      -163.7773
  87   2.0000      -6.016348      -163.7132
  88   2.0000      -6.015685      -163.6951
  89   2.0000      -6.014658      -163.6672
  90   2.0000      -6.012423      -163.6063
  91   2.0000      -6.012395      -163.6056
  92   2.0000      -6.009817      -163.5354
  93   2.0000      -6.007824      -163.4812
  94   2.0000      -6.007149      -163.4628
  95   2.0000      -1.240766       -33.7630
  96   2.0000      -1.165707       -31.7205
  97   2.0000      -1.165012       -31.7016
  98   2.0000      -1.161530       -31.6068
  99   2.0000      -1.148788       -31.2601
 100   2.0000      -1.141680       -31.0667
 101   2.0000      -1.125986       -30.6396
 102   2.0000      -1.117873       -30.4189
 103   2.0000      -1.075331       -29.2612
 104   2.0000      -1.045774       -28.4569
 105   2.0000      -1.015146       -27.6235
 106   2.0000      -1.009416       -27.4676
 107   2.0000      -1.002954       -27.2918
 108   2.0000      -1.000532       -27.2259
 109   2.0000      -0.992398       -27.0045
 110   2.0000      -0.987613       -26.8743
 111   2.0000      -0.981042       -26.6955
 112   2.0000      -0.979993       -26.6670
 113   2.0000      -0.975067       -26.5329
 114   2.0000      -0.948501       -25.8100
 115   2.0000      -0.932786       -25.3824
 116   2.0000      -0.925755       -25.1911
 117   2.0000      -0.916196       -24.9309
 118   2.0000      -0.913113       -24.8471
 119   2.0000      -0.903692       -24.5907
 120   2.0000      -0.892165       -24.2770
 121   2.0000      -0.889853       -24.2141
 122   2.0000      -0.881198       -23.9786
 123   2.0000      -0.870587       -23.6899
 124   2.0000      -0.860422       -23.4133
 125   2.0000      -0.858218       -23.3533
 126   2.0000      -0.854303       -23.2468
 127   2.0000      -0.846121       -23.0241
 128   2.0000      -0.832352       -22.6495
 129   2.0000      -0.830721       -22.6051
 130   2.0000      -0.826162       -22.4810
 131   2.0000      -0.817560       -22.2469
 132   2.0000      -0.803144       -21.8547
 133   2.0000      -0.795858       -21.6564
 134   2.0000      -0.792822       -21.5738
 135   2.0000      -0.780359       -21.2346
 136   2.0000      -0.764218       -20.7954
 137   2.0000      -0.757077       -20.6011
 138   2.0000      -0.745082       -20.2747
 139   2.0000      -0.741112       -20.1667
 140   2.0000      -0.725985       -19.7551
 141   2.0000      -0.719928       -19.5902
 142   2.0000      -0.710345       -19.3295
 143   2.0000      -0.706126       -19.2147
 144   2.0000      -0.702655       -19.1202
 145   2.0000      -0.700936       -19.0734
 146   2.0000      -0.700434       -19.0598
 147   2.0000      -0.690991       -18.8028
 148   2.0000      -0.684562       -18.6279
 149   2.0000      -0.681229       -18.5372
 150   2.0000      -0.672181       -18.2910
 151   2.0000      -0.652121       -17.7451
 152   2.0000      -0.647433       -17.6176
 153   2.0000      -0.644179       -17.5290
 154   2.0000      -0.639351       -17.3976
 155   2.0000      -0.636223       -17.3125
 156   2.0000      -0.631011       -17.1707
 157   2.0000      -0.629695       -17.1349
 158   2.0000      -0.627236       -17.0680
 159   2.0000      -0.622454       -16.9378
 160   2.0000      -0.619202       -16.8493
 161   2.0000      -0.612994       -16.6804
 162   2.0000      -0.608131       -16.5481
 163   2.0000      -0.607257       -16.5243
 164   2.0000      -0.600570       -16.3423
 165   2.0000      -0.593937       -16.1619
 166   2.0000      -0.587259       -15.9801
 167   2.0000      -0.580207       -15.7882
 168   2.0000      -0.576603       -15.6902
 169   2.0000      -0.572649       -15.5826
 170   2.0000      -0.566454       -15.4140
 171   2.0000      -0.560213       -15.2442
 172   2.0000      -0.559075       -15.2132
 173   2.0000      -0.552438       -15.0326
 174   2.0000      -0.550725       -14.9860
 175   2.0000      -0.549571       -14.9546
 176   2.0000      -0.549426       -14.9506
 177   2.0000      -0.545319       -14.8389
 178   2.0000      -0.543877       -14.7996
 179   2.0000      -0.539272       -14.6743
 180   2.0000      -0.536872       -14.6090
 181   2.0000      -0.534428       -14.5425
 182   2.0000      -0.534415       -14.5422
 183   2.0000      -0.531171       -14.4539
 184   2.0000      -0.528979       -14.3943
 185   2.0000      -0.525745       -14.3063
 186   2.0000      -0.524358       -14.2685
 187   2.0000      -0.519628       -14.1398
 188   2.0000      -0.512075       -13.9343
 189   2.0000      -0.508912       -13.8482
 190   2.0000      -0.506702       -13.7881
 191   2.0000      -0.505641       -13.7592
 192   2.0000      -0.504914       -13.7394
 193   2.0000      -0.501356       -13.6426
 194   2.0000      -0.497195       -13.5294
 195   2.0000      -0.495206       -13.4752
 196   2.0000      -0.490268       -13.3409
 197   2.0000      -0.484707       -13.1896
 198   2.0000      -0.482396       -13.1267
 199   2.0000      -0.481366       -13.0986
 200   2.0000      -0.479074       -13.0363
 201   2.0000      -0.476984       -12.9794
 202   2.0000      -0.474392       -12.9089
 203   2.0000      -0.470574       -12.8050
 204   2.0000      -0.467952       -12.7336
 205   2.0000      -0.466450       -12.6928
 206   2.0000      -0.463681       -12.6174
 207   2.0000      -0.459700       -12.5091
 208   2.0000      -0.453598       -12.3430
 209   2.0000      -0.453000       -12.3268
 210   2.0000      -0.452406       -12.3106
 211   2.0000      -0.450366       -12.2551
 212   2.0000      -0.449764       -12.2387
 213   2.0000      -0.442414       -12.0387
 214   2.0000      -0.441467       -12.0129
 215   2.0000      -0.438537       -11.9332
 216   2.0000      -0.435919       -11.8620
 217   2.0000      -0.434763       -11.8305
 218   2.0000      -0.434650       -11.8274
 219   2.0000      -0.431923       -11.7532
 220   2.0000      -0.428697       -11.6654
 221   2.0000      -0.419849       -11.4247
 222   2.0000      -0.417622       -11.3641
 223   2.0000      -0.415700       -11.3118
 224   2.0000      -0.414272       -11.2729
 225   2.0000      -0.413112       -11.2414
 226   2.0000      -0.411272       -11.1913
 227   2.0000      -0.409349       -11.1390
 228   2.0000      -0.405832       -11.0433
 229   2.0000      -0.398827       -10.8526
 230   2.0000      -0.391565       -10.6550
 231   2.0000      -0.387716       -10.5503
 232   2.0000      -0.381816       -10.3897
 233   2.0000      -0.371578       -10.1111
 234   2.0000      -0.370454       -10.0806
 235   2.0000      -0.367892       -10.0109
 236   2.0000      -0.366005        -9.9595
 237   2.0000      -0.365600        -9.9485
 238   2.0000      -0.359447        -9.7810
 239   2.0000      -0.358967        -9.7680
 240   2.0000      -0.353353        -9.6152
 241   2.0000      -0.346598        -9.4314
 242   2.0000      -0.344871        -9.3844
 243   2.0000      -0.344590        -9.3768
 244   2.0000      -0.338668        -9.2156
 245   2.0000      -0.337329        -9.1792
 246   2.0000      -0.332442        -9.0462
 247   2.0000      -0.320269        -8.7150
 248   2.0000      -0.316927        -8.6240
 249   2.0000      -0.314470        -8.5572
 250   2.0000      -0.299126        -8.1396
 251   2.0000      -0.277469        -7.5503
 252   2.0000      -0.242015        -6.5856
 253   2.0000      -0.203629        -5.5410
 254   0.0000      -0.115709        -3.1486
 255   0.0000      -0.101561        -2.7636
 256   0.0000      -0.091184        -2.4813
 257   0.0000      -0.070501        -1.9184
 258   0.0000      -0.046585        -1.2676

MULLIKEN ATOMIC CHARGES
-----------------------
   0 C :   -0.095686
   1 C :    0.025827
   2 C :   -0.037336
   3 N :    0.052398
   4 C :   -0.129307
   5 C :   -0.148703
   6 N :    0.061194
   7 C :   -0.197453
   8 N :    0.233327
   9 C :   -0.204201
  10 N :    0.243964
  11 C :    0.055531
  12 C :   -0.005375
  13 C :    0.120572
  14 N :   -0.267480
  15 S :    0.564999
  16 N :   -0.270433
  17 C :   -0.035587
  18 C :    0.052780
  19 C :    0.044666
  20 O :   -0.139089
  21 S :    0.030602
  22 C :    0.030684
  23 O :   -0.130749
  24 C :    0.018622
  25 C :    0.115148
  26 C :   -0.096944
  27 C :   -0.044593
  28 C :    0.234074
  29 O :   -0.113464
  30 O :   -0.224151
  31 C :    0.233644
  32 O :   -0.119060
  33 C :   -0.116653
  34 C :    0.053453
  35 C :   -0.189400
  36 S :    0.148612
  37 C :   -0.107042
  38 C :    0.065792
  39 C :    0.004757
  40 S :    0.120171
  41 C :    0.011981
  42 N :   -0.056121
  43 C :   -0.023521
  44 C :   -0.005589
  45 C :   -0.130282
  46 S :    0.134194
  47 C :   -0.079477
  48 C :    0.011468
  49 C :    0.143656
  50 N :   -0.033048
  51 N :   -0.060938
  52 C :   -0.017597
  53 C :    0.017771
  54 C :    0.022171
  55 C :    0.029235
  56 C :   -0.043032
  57 C :    0.021781
  58 C :    0.027132
  59 C :   -0.055339
  60 S :    0.102851
  61 C :   -0.058928
  62 C :    0.026449
  63 C :    0.061488
  64 C :   -0.072067
  65 S :    0.091754
  66 C :   -0.019479
  67 H :   -0.013440
  68 H :    0.012974
  69 H :    0.007941
  70 H :    0.041514
  71 H :   -0.021479
  72 H :   -0.006112
  73 H :    0.142003
  74 H :   -0.001301
  75 H :   -0.021063
  76 H :   -0.024042
  77 H :   -0.015768
  78 H :   -0.012044
  79 H :   -0.010969
  80 H :   -0.008354
  81 H :   -0.006983
  82 H :    0.025158
  83 H :    0.027343
Sum of atomic charges:   -0.0000000

LOEWDIN ATOMIC CHARGES
----------------------
   0 C :    0.012555
   1 C :   -0.007985
   2 C :    0.002849
   3 N :   -0.001944
   4 C :   -0.023042
   5 C :   -0.027285
   6 N :    0.005885
   7 C :   -0.035055
   8 N :   -0.003453
   9 C :   -0.036568
  10 N :   -0.002281
  11 C :   -0.009464
  12 C :   -0.034384
  13 C :   -0.043140
  14 N :   -0.284261
  15 S :    0.709880
  16 N :   -0.291976
  17 C :    0.009061
  18 C :   -0.029430
  19 C :   -0.047775
  20 O :   -0.125150
  21 S :    0.313104
  22 C :   -0.035116
  23 O :   -0.114144
  24 C :   -0.065874
  25 C :    0.041712
  26 C :   -0.064336
  27 C :   -0.024592
  28 C :    0.105493
  29 O :   -0.108181
  30 O :   -0.052323
  31 C :    0.115968
  32 O :   -0.107202
  33 C :   -0.085856
  34 C :    0.018632
  35 C :   -0.213986
  36 S :    0.455701
  37 C :   -0.135453
  38 C :   -0.086545
  39 C :   -0.179548
  40 S :    0.402354
  41 C :   -0.103940
  42 N :   -0.087410
  43 C :   -0.082921
  44 C :   -0.005228
  45 C :   -0.215751
  46 S :    0.442963
  47 C :   -0.136013
  48 C :   -0.104163
  49 C :   -0.005373
  50 N :    0.097984
  51 N :   -0.058740
  52 C :   -0.039659
  53 C :   -0.060204
  54 C :   -0.002831
  55 C :   -0.062812
  56 C :   -0.136650
  57 C :   -0.044507
  58 C :   -0.018700
  59 C :   -0.187939
  60 S :    0.384063
  61 C :   -0.167754
  62 C :   -0.027973
  63 C :   -0.023858
  64 C :   -0.140820
  65 S :    0.363393
  66 C :   -0.063065
  67 H :    0.050409
  68 H :    0.022498
  69 H :    0.031074
  70 H :    0.019731
  71 H :    0.022988
  72 H :    0.033614
  73 H :    0.090825
  74 H :    0.018769
  75 H :    0.029747
  76 H :    0.027267
  77 H :    0.030424
  78 H :    0.031704
  79 H :    0.033149
  80 H :    0.033514
  81 H :    0.035432
  82 H :    0.031126
  83 H :    0.028794

  Mayer bond orders larger than 0.100000
B(  0-C ,  1-C ) :   1.2789 B(  0-C , 11-C ) :   0.1525 B(  0-C , 13-C ) :   1.1700
B(  0-C , 67-H ) :   1.0664 B(  1-C ,  2-C ) :   1.1297 B(  1-C ,  6-N ) :   1.3402
B(  2-C ,  3-N ) :   1.4295 B(  2-C , 11-C ) :   1.3648 B(  3-N ,  4-C ) :   1.7453
B(  4-C ,  5-C ) :   1.1796 B(  4-C ,  9-C ) :   1.1518 B(  5-C ,  6-N ) :   1.7917
B(  5-C ,  7-C ) :   1.1464 B(  7-C ,  8-N ) :   3.0519 B(  9-C , 10-N ) :   3.0509
B( 11-C , 12-C ) :   1.3303 B( 11-C , 17-C ) :   0.9283 B( 12-C , 13-C ) :   1.1143
B( 12-C , 16-N ) :   1.4904 B( 13-C , 14-N ) :   1.4406 B( 14-N , 15-S ) :   1.3323
B( 14-N , 16-N ) :   0.1644 B( 15-S , 16-N ) :   1.3059 B( 17-C , 18-C ) :   1.4266
B( 17-C , 27-C ) :   1.4168 B( 18-C , 19-C ) :   0.8280 B( 18-C , 24-C ) :   1.3412
B( 19-C , 20-O ) :   2.1642 B( 19-C , 21-S ) :   1.0446 B( 20-O , 21-S ) :   0.1099
B( 21-S , 22-C ) :   1.0228 B( 22-C , 23-O ) :   2.1329 B( 22-C , 24-C ) :   0.8683
B( 24-C , 25-C ) :   1.2765 B( 25-C , 26-C ) :   1.2161 B( 25-C , 33-C ) :   1.2475
B( 26-C , 27-C ) :   1.3780 B( 26-C , 31-C ) :   0.9233 B( 27-C , 28-C ) :   0.8876
B( 28-C , 29-O ) :   2.2443 B( 28-C , 30-O ) :   1.0718 B( 30-O , 31-C ) :   1.0476
B( 31-C , 32-O ) :   2.1829 B( 33-C , 34-C ) :   1.5035 B( 33-C , 68-H ) :   0.9489
B( 34-C , 35-C ) :   1.2765 B( 34-C , 69-H ) :   0.9514 B( 35-C , 36-S ) :   1.0645
B( 35-C , 39-C ) :   1.4126 B( 36-S , 37-C ) :   1.1429 B( 37-C , 38-C ) :   1.3273
B( 37-C , 43-C ) :   1.2346 B( 38-C , 39-C ) :   1.2969 B( 38-C , 42-N ) :   1.2924
B( 39-C , 40-S ) :   1.0741 B( 40-S , 41-C ) :   1.0911 B( 40-S , 42-N ) :   0.1034
B( 41-C , 42-N ) :   1.7664 B( 41-C , 70-H ) :   0.9647 B( 43-C , 44-C ) :   1.5094
B( 43-C , 71-H ) :   0.9621 B( 44-C , 45-C ) :   1.2731 B( 44-C , 72-H ) :   0.9584
B( 45-C , 46-S ) :   1.0524 B( 45-C , 49-C ) :   1.3004 B( 46-S , 47-C ) :   1.1427
B( 47-C , 48-C ) :   1.2546 B( 47-C , 53-C ) :   1.2321 B( 48-C , 49-C ) :   1.2771
B( 48-C , 52-C ) :   1.1720 B( 49-C , 50-N ) :   1.1833 B( 50-N , 51-N ) :   1.1354
B( 50-N , 73-H ) :   0.9470 B( 51-N , 52-C ) :   1.7344 B( 52-C , 74-H ) :   0.9944
B( 53-C , 54-C ) :   1.5282 B( 53-C , 75-H ) :   0.9673 B( 54-C , 55-C ) :   1.2715
B( 54-C , 76-H ) :   0.9701 B( 55-C , 56-C ) :   1.4648 B( 55-C , 77-H ) :   0.9706
B( 56-C , 57-C ) :   1.1774 B( 56-C , 60-S ) :   1.0560 B( 57-C , 58-C ) :   1.5885
B( 57-C , 78-H ) :   0.9909 B( 58-C , 59-C ) :   1.1942 B( 58-C , 79-H ) :   0.9922
B( 59-C , 60-S ) :   1.0439 B( 59-C , 61-C ) :   1.5191 B( 61-C , 62-C ) :   1.1611
B( 61-C , 65-S ) :   1.0597 B( 62-C , 63-C ) :   1.6534 B( 62-C , 80-H ) :   0.9925
B( 63-C , 64-C ) :   1.0823 B( 63-C , 81-H ) :   0.9928 B( 64-C , 65-S ) :   1.0066
B( 64-C , 66-C ) :   1.8599 B( 66-C , 82-H ) :   0.9507 B( 66-C , 83-H ) :   0.9423

-----------------------------------------------------------------------------
         ABSORPTION SPECTRUM VIA TRANSITION ELECTRIC DIPOLE MOMENTS
-----------------------------------------------------------------------------
State   Energy  Wavelength   fosc         T2         TX        TY        TZ
        (cm-1)    (nm)                  (au**2)     (au)      (au)      (au)
-----------------------------------------------------------------------------
   0    9514.0   1051.1   2.167458789  75.00067   1.31992   8.15210   2.60803
   1   11534.7    866.9   0.473633517  13.51796  -0.66569  -2.92819  -2.12145
   2   12576.3    795.1   0.010202188   0.26706  -0.07233   0.10084  -0.50166
   3   17378.0    575.4   0.070728351   1.33989   0.02298  -0.47563   1.05505
   4   17897.2    558.7   0.292464242   5.37977  -0.13351   1.05263  -2.06250
   5   19361.2    516.5   0.036740287   0.62472   0.03847   0.21252   0.76031
   6   21622.7    462.5   0.025305131   0.38528   0.07684   0.06385   0.61261
   7   22396.2    446.5   0.079069497   1.16228  -0.03723   1.07629  -0.04990
   8   22876.9    437.1   0.023263465   0.33478  -0.22937  -0.51757   0.11950
   9   24625.4    406.1   0.003952148   0.05284  -0.01374  -0.19947  -0.11340
  10   25042.1    399.3   0.115980329   1.52472   0.27099   1.09225  -0.50821
  11   25927.7    385.7   0.034783749   0.44166   0.18277   0.58807  -0.24985
  12   26617.2    375.7   0.020345421   0.25164   0.07264   0.45720  -0.19321
  13   26983.4    370.6   0.013101534   0.15985  -0.10601  -0.38437  -0.02943
  14   27278.9    366.6   0.004750667   0.05733   0.08301   0.02995  -0.22259
  15   27623.8    362.0   0.003991083   0.04756   0.04366  -0.20269   0.06765
  16   28083.0    356.1   0.062760566   0.73573  -0.13983  -0.80859  -0.24972
  17   28894.0    346.1   0.021153189   0.24101  -0.19634  -0.07454  -0.44374
  18   29361.7    340.6   0.226686086   2.54167   1.49870   0.08378   0.53715
  19   29495.4    339.0   0.000937660   0.01047   0.04332   0.07919  -0.04814
  20   30155.6    331.6   0.016592118   0.18114   0.22900  -0.09752   0.34523
  21   30739.2    325.3   0.008498133   0.09101   0.00930   0.11200  -0.27997
  22   30899.0    323.6   0.018855085   0.20089   0.19554   0.08863   0.39345
  23   31426.2    318.2   0.075052117   0.78623   0.70909  -0.29848   0.44083
  24   31557.0    316.9   0.008251940   0.08609  -0.08654  -0.19397   0.20242
  25   31872.7    313.7   0.034091784   0.35213   0.20375  -0.18931   0.52419
  26   32021.1    312.3   0.027152587   0.27916   0.16378  -0.11740  -0.48842
  27   32371.4    308.9   0.005680436   0.05777  -0.01617  -0.23980  -0.00133
  28   32463.6    308.0   0.069303136   0.70280  -0.11270  -0.62552   0.54665
  29   32544.9    307.3   0.033714875   0.34105  -0.04854  -0.04501   0.58023
  30   33206.2    301.1   0.009949354   0.09864  -0.10380  -0.12618  -0.26822
  31   33684.0    296.9   0.000728420   0.00712  -0.05876   0.02131   0.05667
  32   33735.2    296.4   0.000038575   0.00038   0.01578  -0.00387  -0.01060
  33   33768.3    296.1   0.016294762   0.15886   0.18219  -0.35447   0.00445
  34   33929.9    294.7   0.004251484   0.04125  -0.10516   0.16816   0.04378
  35   34170.8    292.6   0.003115655   0.03002  -0.08375   0.02343   0.14985
  36   34550.3    289.4   0.060713739   0.57851  -0.71863   0.00034  -0.24916
  37   34597.0    289.0   0.026745018   0.25450   0.43216  -0.11680   0.23258
  38   34667.9    288.5   0.008868164   0.08421   0.16793   0.12431  -0.20140
  39   35275.0    283.5   0.016867619   0.15742   0.26957   0.29067  -0.01620
  40   35743.9    279.8   0.008268425   0.07615  -0.04370   0.07444  -0.26211
  41   35810.5    279.2   0.022647234   0.20820  -0.16506  -0.41158  -0.10750
  42   35961.6    278.1   0.002843523   0.02603  -0.12477   0.10063   0.01838
  43   36066.3    277.3   0.059894165   0.54671   0.22946   0.38560  -0.58768
  44   36308.4    275.4   0.036640588   0.33222  -0.44985  -0.20372   0.29725
  45   36496.9    274.0   0.004233156   0.03818  -0.16647  -0.04415   0.09231
  46   36636.7    273.0   0.009145544   0.08218  -0.23198   0.12475  -0.11316
  47   37011.0    270.2   0.047186669   0.41972  -0.17056   0.57004  -0.25630
  48   37058.6    269.8   0.003763922   0.03344   0.10456   0.14555  -0.03632
  49   37270.3    268.3   0.022219796   0.19627   0.06879  -0.21817   0.37939
  50   37537.3    266.4   0.005038214   0.04419  -0.16697   0.12725   0.01072
  51   37750.9    264.9   0.035077756   0.30590  -0.46626   0.13834  -0.26337
  52   37911.6    263.8   0.015862965   0.13775  -0.08425   0.31083  -0.18448
  53   38146.2    262.1   0.069660702   0.60119   0.16413   0.75652   0.04386
  54   38356.4    260.7   0.001586294   0.01362   0.05332  -0.08181   0.06387
  55   38570.3    259.3   0.014408989   0.12299  -0.15111   0.05901  -0.31092
  56   38769.5    257.9   0.025074324   0.21292  -0.00017   0.45696   0.06406
  57   39001.5    256.4   0.251252527   2.12082   1.30732   0.22258   0.60182
  58   39090.8    255.8   0.000579065   0.00488   0.01588  -0.06618  -0.01566
  59   39302.3    254.4   0.020154693   0.16882   0.07984   0.39715  -0.06873
  60   39668.0    252.1   0.476531211   3.95481  -1.81406   0.23819  -0.77928
  61   39854.0    250.9   0.432345583   3.57137   1.78555   0.03300   0.61813
  62   40019.9    249.9   0.004613557   0.03795  -0.11584   0.06316  -0.14333

FINAL SINGLE POINT ENERGY     -5415.124571737029

DIPOLE MOMENT
-------------
                                X             Y             Z
Electronic contribution:     17.95596     113.22529      16.53717
Nuclear contribution   :    -16.72631    -119.13204     -15.96191
                        -----------------------------------------
Total Dipole Moment    :      1.22965      -5.90675       0.57526
                        -----------------------------------------
Magnitude (a.u.)       :      6.06075
Magnitude (Debye)      :     15.40520

Rotational constants in cm-1:     0.001898     0.000197     0.000185
Rotational constants in MHz :    56.894465     5.910938     5.542240

                             ****ORCA TERMINATED NORMALLY****
TOTAL RUN TIME: 0 days 0 hours 13 minutes 33 seconds 132 msec
