                         Program Version 4.2.0 -  RELEASE  -
|  1> # ORCA input file
|  2> # SCF done       -218.320517236947          0.000646070316
|  3> ! CAM-B3LYP def2-SVP def2/J RIJCOSX Grid4 TightSCF
|  4> %maxcore 5000
|  5> %tddft
|  6>     Mode sTDDFT
|  7>     Ethresh 5.0
|  8>     maxcore 5000
|  9> end
| 10>
| 11> %pal
| 12>   nprocs 6
| 13>   end
| 14> * xyz 0 1
| 15>    C       -2.72909        -2.38730         1.19283
| 16>    C       -2.08696        -2.49437         2.39940
| 17>    C       -1.19449        -3.53625         2.72793
| 18>    N       -0.46831        -4.36285         3.05514
| 19>    C       -2.19367        -1.57044         3.46043
| 20>    N       -2.21330        -0.85192         4.35613
| 21>    C       -2.54330        -3.27331         0.05133
| 22>    C       -3.25096        -2.74068        -1.05334
| 23>    C       -3.26900        -3.34661        -2.28604
| 24>    C       -2.55508        -4.53987        -2.43530
| 25>    C       -1.85468        -5.06889        -1.32422
| 26>    C       -1.83485        -4.45366        -0.07863
| 27>    S       -1.04932        -6.55484        -1.72595
| 28>    C       -1.65426        -6.44650        -3.35792
| 29>    C       -2.42026        -5.35443        -3.59242
| 30>   Br       -1.22101        -7.78657        -4.59567
| 31>    C       -3.93523        -1.49638        -0.65302
| 32>    O       -4.64046        -0.81218        -1.36248
| 33>    C       -3.64214        -1.33102         0.79228
| 34>    C       -4.27247        -0.48322         1.66038
| 35>    C       -5.10869         0.61605         1.37848
| 36>    C       -5.25518         1.39753         0.23988
| 37>    C       -6.20164         2.39868         0.41167
| 38>    C       -6.79464         2.38850         1.69321
| 39>    S       -6.15033         1.17772         2.69422
| 40>    C       -7.78521         3.40145         1.73888
| 41>    C       -7.81589         4.05258         0.49476
| 42>    C       -6.80100         3.47061        -0.36836
| 43>    C       -6.45924         3.87864        -1.62360
| 44>    C       -5.41955         3.27940        -2.36767
| 45>    N       -4.56561         2.82302        -2.98099
| 46>    C       -7.10576         4.96521        -2.25102
| 47>    N       -7.62619         5.85341        -2.75633
| 48>    C       -8.79426         5.04409         0.42682
| 49>    C       -9.51224         5.15438         1.60139
| 50>    S       -8.95867         4.00926         2.81258
| 51>    C      -10.60074         6.06480         1.88355
| 52>    C      -11.58371         5.74363         2.82475
| 53>    F      -11.47221         4.54532         3.44972
| 54>    C      -12.67069         6.55307         3.11726
| 55>    O      -13.64932         6.28424         4.01113
| 56>    C      -13.57582         5.19998         4.91566
| 57>    C      -12.80985         7.77525         2.41609
| 58>    C      -11.79568         8.11982         1.51009
| 59>    C      -10.70316         7.31080         1.21492
| 60>    O       -9.69847         7.60435         0.36752
| 61>    C       -9.71342         8.74897        -0.46878
| 62>    F      -11.87517         9.33075         0.91555
| 63>    C      -13.95707         8.61852         2.64892
| 64>    C      -14.38484         9.71158         1.91257
| 65>    C      -15.53441        10.29367         2.44332
| 66>    C      -15.98954         9.63946         3.59993
| 67>    S      -15.02083         8.29861         4.00910
| 68>    C      -17.15053        10.30719         4.06129
| 69>    C      -17.43381        11.38085         3.19392
| 70>    C      -16.42624        11.40335         2.14409
| 71>    C      -16.34752        12.27209         1.09644
| 72>    C      -15.33066        12.19057         0.12092
| 73>    N      -14.51487        12.12633        -0.68194
| 74>    C      -17.29161        13.30372         0.90458
| 75>    N      -18.05994        14.13810         0.73781
| 76>    C      -18.57181        12.08670         3.56687
| 77>    C      -19.14285        11.59139         4.73079
| 78>    S      -18.26891        10.18297         5.33479
| 79>    C      -20.33518        12.06019         5.32594
| 80>    C      -20.83950        11.82292         6.56782
| 81>    C      -20.24921        11.29739         7.78021
| 82>    C      -18.95442        11.48057         8.19229
| 83>    C      -18.45267        11.02736         9.42824
| 84>    N      -17.99511        10.65713        10.41365
| 85>    C      -18.01198        12.22923         7.45789
| 86>    N      -17.23520        12.86831         6.90470
| 87>    C      -21.34049        10.81794         8.62038
| 88>    C      -22.56711        11.26624         8.06732
| 89>    C      -22.29947        11.99199         6.80854
| 90>    O      -23.09242        12.55549         6.09144
| 91>    C      -23.77834        11.01320         8.66402
| 92>    C      -23.77901        10.27444         9.85221
| 93>    C      -22.54939         9.81945        10.38696
| 94>    C      -21.32272        10.08343         9.78997
| 95>    S      -22.78447         8.91640        11.85187
| 96>    C      -24.50672         9.16359        11.73299
| 97>    C      -24.88829         9.88259        10.65066
| 98>   Br      -25.63641         8.44506        13.04577
| 99>    H       -3.81648        -2.91269        -3.10794
|100>    H       -1.29078        -4.89857         0.73764
|101>    H       -2.87311        -5.13117        -4.54111
|102>    H       -4.16185        -0.69129         2.71856
|103>    H       -4.69448         1.22944        -0.66011
|104>    H       -8.99513         5.63889        -0.44233
|105>    H      -12.65284         5.22299         5.49817
|106>    H      -13.66425         4.24051         4.40239
|107>    H      -14.42778         5.33505         5.58028
|108>    H      -10.61143         8.78643        -1.08776
|109>    H       -8.83976         8.63067        -1.10827
|110>    H       -9.62333         9.67286         0.10534
|111>    H      -13.90049        10.06931         1.02489
|112>    H      -18.96980        12.94061         3.04887
|113>    H      -20.98743        12.62552         4.66624
|114>    H      -24.69725        11.37429         8.22968
|115>    H      -20.41003         9.71386        10.22781
|116>    H      -25.90956        10.12742        10.42278
|117> *
|118>
|119>                          ****END OF INPUT****

CARTESIAN COORDINATES (ANGSTROEM)
---------------------------------
  C     -2.729090   -2.387300    1.192830
  C     -2.086960   -2.494370    2.399400
  C     -1.194490   -3.536250    2.727930
  N     -0.468310   -4.362850    3.055140
  C     -2.193670   -1.570440    3.460430
  N     -2.213300   -0.851920    4.356130
  C     -2.543300   -3.273310    0.051330
  C     -3.250960   -2.740680   -1.053340
  C     -3.269000   -3.346610   -2.286040
  C     -2.555080   -4.539870   -2.435300
  C     -1.854680   -5.068890   -1.324220
  C     -1.834850   -4.453660   -0.078630
  S     -1.049320   -6.554840   -1.725950
  C     -1.654260   -6.446500   -3.357920
  C     -2.420260   -5.354430   -3.592420
  Br    -1.221010   -7.786570   -4.595670
  C     -3.935230   -1.496380   -0.653020
  O     -4.640460   -0.812180   -1.362480
  C     -3.642140   -1.331020    0.792280
  C     -4.272470   -0.483220    1.660380
  C     -5.108690    0.616050    1.378480
  C     -5.255180    1.397530    0.239880
  C     -6.201640    2.398680    0.411670
  C     -6.794640    2.388500    1.693210
  S     -6.150330    1.177720    2.694220
  C     -7.785210    3.401450    1.738880
  C     -7.815890    4.052580    0.494760
  C     -6.801000    3.470610   -0.368360
  C     -6.459240    3.878640   -1.623600
  C     -5.419550    3.279400   -2.367670
  N     -4.565610    2.823020   -2.980990
  C     -7.105760    4.965210   -2.251020
  N     -7.626190    5.853410   -2.756330
  C     -8.794260    5.044090    0.426820
  C     -9.512240    5.154380    1.601390
  S     -8.958670    4.009260    2.812580
  C    -10.600740    6.064800    1.883550
  C    -11.583710    5.743630    2.824750
  F    -11.472210    4.545320    3.449720
  C    -12.670690    6.553070    3.117260
  O    -13.649320    6.284240    4.011130
  C    -13.575820    5.199980    4.915660
  C    -12.809850    7.775250    2.416090
  C    -11.795680    8.119820    1.510090
  C    -10.703160    7.310800    1.214920
  O     -9.698470    7.604350    0.367520
  C     -9.713420    8.748970   -0.468780
  F    -11.875170    9.330750    0.915550
  C    -13.957070    8.618520    2.648920
  C    -14.384840    9.711580    1.912570
  C    -15.534410   10.293670    2.443320
  C    -15.989540    9.639460    3.599930
  S    -15.020830    8.298610    4.009100
  C    -17.150530   10.307190    4.061290
  C    -17.433810   11.380850    3.193920
  C    -16.426240   11.403350    2.144090
  C    -16.347520   12.272090    1.096440
  C    -15.330660   12.190570    0.120920
  N    -14.514870   12.126330   -0.681940
  C    -17.291610   13.303720    0.904580
  N    -18.059940   14.138100    0.737810
  C    -18.571810   12.086700    3.566870
  C    -19.142850   11.591390    4.730790
  S    -18.268910   10.182970    5.334790
  C    -20.335180   12.060190    5.325940
  C    -20.839500   11.822920    6.567820
  C    -20.249210   11.297390    7.780210
  C    -18.954420   11.480570    8.192290
  C    -18.452670   11.027360    9.428240
  N    -17.995110   10.657130   10.413650
  C    -18.011980   12.229230    7.457890
  N    -17.235200   12.868310    6.904700
  C    -21.340490   10.817940    8.620380
  C    -22.567110   11.266240    8.067320
  C    -22.299470   11.991990    6.808540
  O    -23.092420   12.555490    6.091440
  C    -23.778340   11.013200    8.664020
  C    -23.779010   10.274440    9.852210
  C    -22.549390    9.819450   10.386960
  C    -21.322720   10.083430    9.789970
  S    -22.784470    8.916400   11.851870
  C    -24.506720    9.163590   11.732990
  C    -24.888290    9.882590   10.650660
  Br   -25.636410    8.445060   13.045770
  H     -3.816480   -2.912690   -3.107940
  H     -1.290780   -4.898570    0.737640
  H     -2.873110   -5.131170   -4.541110
  H     -4.161850   -0.691290    2.718560
  H     -4.694480    1.229440   -0.660110
  H     -8.995130    5.638890   -0.442330
  H    -12.652840    5.222990    5.498170
  H    -13.664250    4.240510    4.402390
  H    -14.427780    5.335050    5.580280
  H    -10.611430    8.786430   -1.087760
  H     -8.839760    8.630670   -1.108270
  H     -9.623330    9.672860    0.105340
  H    -13.900490   10.069310    1.024890
  H    -18.969800   12.940610    3.048870
  H    -20.987430   12.625520    4.666240
  H    -24.697250   11.374290    8.229680
  H    -20.410030    9.713860   10.227810
  H    -25.909560   10.127420   10.422780

 Total Charge           Charge          ....    0
 Multiplicity           Mult            ....    1
 Number of Electrons    NEL             ....  662
 Basis Dimension        Dim             .... 1326

ORBITAL ENERGIES
----------------

  NO   OCC          E(Eh)            E(eV)
   0   2.0000    -482.888951    -13140.0764
   1   2.0000    -482.886826    -13140.0186
   2   2.0000     -88.998282     -2421.7664
   3   2.0000     -88.997171     -2421.7361
   4   2.0000     -88.995564     -2421.6924
   5   2.0000     -88.992931     -2421.6208
   6   2.0000     -88.979569     -2421.2572
   7   2.0000     -88.977115     -2421.1904
   8   2.0000     -62.566677     -1702.5258
   9   2.0000     -62.564550     -1702.4680
  10   2.0000     -56.400631     -1534.7392
  11   2.0000     -56.398503     -1534.6813
  12   2.0000     -56.397909     -1534.6651
  13   2.0000     -56.397874     -1534.6642
  14   2.0000     -56.395782     -1534.6072
  15   2.0000     -56.395750     -1534.6064
  16   2.0000     -24.820845      -675.4095
  17   2.0000     -24.812024      -675.1695
  18   2.0000     -19.287510      -524.8398
  19   2.0000     -19.271994      -524.4176
  20   2.0000     -19.220590      -523.0188
  21   2.0000     -19.218100      -522.9511
  22   2.0000     -14.435604      -392.8127
  23   2.0000     -14.432165      -392.7192
  24   2.0000     -14.431940      -392.7131
  25   2.0000     -14.431332      -392.6965
  26   2.0000     -14.420953      -392.4141
  27   2.0000     -14.418362      -392.3436
  28   2.0000     -14.418070      -392.3356
  29   2.0000     -14.416713      -392.2987
  30   2.0000     -10.388919      -282.6969
  31   2.0000     -10.386237      -282.6239
  32   2.0000     -10.374803      -282.3127
  33   2.0000     -10.373111      -282.2667
  34   2.0000     -10.372313      -282.2450
  35   2.0000     -10.369973      -282.1813
  36   2.0000     -10.369137      -282.1586
  37   2.0000     -10.366933      -282.0986
  38   2.0000     -10.362596      -281.9806
  39   2.0000     -10.360457      -281.9224
  40   2.0000     -10.356747      -281.8214
  41   2.0000     -10.355253      -281.7808
  42   2.0000     -10.348411      -281.5946
  43   2.0000     -10.348361      -281.5932
  44   2.0000     -10.348111      -281.5864
  45   2.0000     -10.347498      -281.5697
  46   2.0000     -10.345765      -281.5226
  47   2.0000     -10.344380      -281.4849
  48   2.0000     -10.343733      -281.4673
  49   2.0000     -10.336851      -281.2800
  50   2.0000     -10.336530      -281.2713
  51   2.0000     -10.336069      -281.2587
  52   2.0000     -10.335795      -281.2513
  53   2.0000     -10.332436      -281.1599
  54   2.0000     -10.332088      -281.1504
  55   2.0000     -10.331859      -281.1442
  56   2.0000     -10.330935      -281.1190
  57   2.0000     -10.330258      -281.1006
  58   2.0000     -10.330198      -281.0990
  59   2.0000     -10.329731      -281.0863
  60   2.0000     -10.329649      -281.0840
  61   2.0000     -10.328847      -281.0622
  62   2.0000     -10.328015      -281.0396
  63   2.0000     -10.327620      -281.0288
  64   2.0000     -10.327559      -281.0272
  65   2.0000     -10.326524      -280.9990
  66   2.0000     -10.323521      -280.9173
  67   2.0000     -10.321100      -280.8514
  68   2.0000     -10.320350      -280.8310
  69   2.0000     -10.319633      -280.8115
  70   2.0000     -10.315590      -280.7015
  71   2.0000     -10.313578      -280.6467
  72   2.0000     -10.311679      -280.5951
  73   2.0000     -10.311014      -280.5769
  74   2.0000     -10.310656      -280.5672
  75   2.0000     -10.310206      -280.5550
  76   2.0000     -10.310188      -280.5545
  77   2.0000     -10.310149      -280.5534
  78   2.0000     -10.309460      -280.5347
  79   2.0000     -10.308769      -280.5159
  80   2.0000     -10.307750      -280.4881
  81   2.0000     -10.306953      -280.4664
  82   2.0000     -10.305583      -280.4292
  83   2.0000     -10.303472      -280.3717
  84   2.0000     -10.303440      -280.3709
  85   2.0000     -10.303046      -280.3601
  86   2.0000     -10.302783      -280.3530
  87   2.0000     -10.301336      -280.3136
  88   2.0000     -10.300427      -280.2889
  89   2.0000     -10.298115      -280.2260
  90   2.0000     -10.297419      -280.2070
  91   2.0000     -10.294445      -280.1261
  92   2.0000      -8.796113      -239.3544
  93   2.0000      -8.793990      -239.2966
  94   2.0000      -8.093187      -220.2268
  95   2.0000      -8.091354      -220.1769
  96   2.0000      -8.089972      -220.1393
  97   2.0000      -8.085861      -220.0275
  98   2.0000      -8.075636      -219.7492
  99   2.0000      -8.073145      -219.6814
 100   2.0000      -6.632444      -180.4780
 101   2.0000      -6.630316      -180.4201
 102   2.0000      -6.617824      -180.0801
 103   2.0000      -6.617643      -180.0752
 104   2.0000      -6.615718      -180.0228
 105   2.0000      -6.615508      -180.0171
 106   2.0000      -6.062307      -164.9638
 107   2.0000      -6.060583      -164.9168
 108   2.0000      -6.059250      -164.8806
 109   2.0000      -6.058170      -164.8512
 110   2.0000      -6.056351      -164.8017
 111   2.0000      -6.055680      -164.7834
 112   2.0000      -6.055338      -164.7741
 113   2.0000      -6.054896      -164.7621
 114   2.0000      -6.053838      -164.7333
 115   2.0000      -6.052377      -164.6936
 116   2.0000      -6.050621      -164.6458
 117   2.0000      -6.048389      -164.5850
 118   2.0000      -6.045326      -164.5017
 119   2.0000      -6.042840      -164.4340
 120   2.0000      -6.041043      -164.3851
 121   2.0000      -6.038550      -164.3173
 122   2.0000      -6.036845      -164.2709
 123   2.0000      -6.034355      -164.2032
 124   2.0000      -2.748288       -74.7847
 125   2.0000      -2.746149       -74.7265
 126   2.0000      -2.744221       -74.6741
 127   2.0000      -2.744063       -74.6698
 128   2.0000      -2.742100       -74.6163
 129   2.0000      -2.741945       -74.6121
 130   2.0000      -2.732459       -74.3540
 131   2.0000      -2.732440       -74.3535
 132   2.0000      -2.730340       -74.2963
 133   2.0000      -2.730314       -74.2956
 134   2.0000      -1.334583       -36.3159
 135   2.0000      -1.327030       -36.1103
 136   2.0000      -1.191537       -32.4234
 137   2.0000      -1.176471       -32.0134
 138   2.0000      -1.136420       -30.9236
 139   2.0000      -1.133900       -30.8550
 140   2.0000      -1.051947       -28.6249
 141   2.0000      -1.049658       -28.5627
 142   2.0000      -1.028137       -27.9770
 143   2.0000      -1.026100       -27.9216
 144   2.0000      -1.025093       -27.8942
 145   2.0000      -1.024307       -27.8728
 146   2.0000      -1.017883       -27.6980
 147   2.0000      -1.015517       -27.6336
 148   2.0000      -1.010939       -27.5091
 149   2.0000      -1.009949       -27.4821
 150   2.0000      -1.008666       -27.4472
 151   2.0000      -1.005168       -27.3520
 152   2.0000      -0.997965       -27.1560
 153   2.0000      -0.996222       -27.1086
 154   2.0000      -0.994223       -27.0542
 155   2.0000      -0.992242       -27.0003
 156   2.0000      -0.988364       -26.8948
 157   2.0000      -0.966600       -26.3025
 158   2.0000      -0.961373       -26.1603
 159   2.0000      -0.946761       -25.7627
 160   2.0000      -0.945356       -25.7244
 161   2.0000      -0.929736       -25.2994
 162   2.0000      -0.922089       -25.0913
 163   2.0000      -0.912896       -24.8412
 164   2.0000      -0.910443       -24.7744
 165   2.0000      -0.908735       -24.7279
 166   2.0000      -0.897321       -24.4173
 167   2.0000      -0.891767       -24.2662
 168   2.0000      -0.890402       -24.2291
 169   2.0000      -0.887736       -24.1565
 170   2.0000      -0.877642       -23.8819
 171   2.0000      -0.875548       -23.8249
 172   2.0000      -0.873805       -23.7774
 173   2.0000      -0.864375       -23.5208
 174   2.0000      -0.861677       -23.4474
 175   2.0000      -0.859153       -23.3787
 176   2.0000      -0.854898       -23.2630
 177   2.0000      -0.833584       -22.6830
 178   2.0000      -0.832451       -22.6522
 179   2.0000      -0.831145       -22.6166
 180   2.0000      -0.822878       -22.3916
 181   2.0000      -0.804109       -21.8809
 182   2.0000      -0.795181       -21.6380
 183   2.0000      -0.789193       -21.4750
 184   2.0000      -0.781645       -21.2696
 185   2.0000      -0.778212       -21.1762
 186   2.0000      -0.768375       -20.9086
 187   2.0000      -0.762896       -20.7594
 188   2.0000      -0.758737       -20.6463
 189   2.0000      -0.747257       -20.3339
 190   2.0000      -0.727485       -19.7959
 191   2.0000      -0.723179       -19.6787
 192   2.0000      -0.716922       -19.5084
 193   2.0000      -0.706709       -19.2305
 194   2.0000      -0.705633       -19.2013
 195   2.0000      -0.700484       -19.0611
 196   2.0000      -0.695484       -18.9251
 197   2.0000      -0.694943       -18.9104
 198   2.0000      -0.691483       -18.8162
 199   2.0000      -0.689287       -18.7565
 200   2.0000      -0.685862       -18.6632
 201   2.0000      -0.677894       -18.4464
 202   2.0000      -0.672923       -18.3112
 203   2.0000      -0.667385       -18.1605
 204   2.0000      -0.661514       -18.0007
 205   2.0000      -0.660419       -17.9709
 206   2.0000      -0.650968       -17.7137
 207   2.0000      -0.645565       -17.5667
 208   2.0000      -0.641072       -17.4445
 209   2.0000      -0.636317       -17.3151
 210   2.0000      -0.633808       -17.2468
 211   2.0000      -0.629267       -17.1232
 212   2.0000      -0.627516       -17.0756
 213   2.0000      -0.624735       -16.9999
 214   2.0000      -0.621630       -16.9154
 215   2.0000      -0.620415       -16.8824
 216   2.0000      -0.618168       -16.8212
 217   2.0000      -0.609755       -16.5923
 218   2.0000      -0.603985       -16.4353
 219   2.0000      -0.602908       -16.4060
 220   2.0000      -0.601125       -16.3575
 221   2.0000      -0.595861       -16.2142
 222   2.0000      -0.590429       -16.0664
 223   2.0000      -0.589590       -16.0435
 224   2.0000      -0.582532       -15.8515
 225   2.0000      -0.577057       -15.7025
 226   2.0000      -0.572838       -15.5877
 227   2.0000      -0.568876       -15.4799
 228   2.0000      -0.566833       -15.4243
 229   2.0000      -0.555988       -15.1292
 230   2.0000      -0.554285       -15.0829
 231   2.0000      -0.553270       -15.0552
 232   2.0000      -0.552038       -15.0217
 233   2.0000      -0.551071       -14.9954
 234   2.0000      -0.548969       -14.9382
 235   2.0000      -0.546806       -14.8794
 236   2.0000      -0.545222       -14.8363
 237   2.0000      -0.543739       -14.7959
 238   2.0000      -0.541354       -14.7310
 239   2.0000      -0.539359       -14.6767
 240   2.0000      -0.534184       -14.5359
 241   2.0000      -0.531622       -14.4662
 242   2.0000      -0.528494       -14.3810
 243   2.0000      -0.522622       -14.2213
 244   2.0000      -0.521399       -14.1880
 245   2.0000      -0.518736       -14.1155
 246   2.0000      -0.517484       -14.0814
 247   2.0000      -0.514512       -14.0006
 248   2.0000      -0.513686       -13.9781
 249   2.0000      -0.511861       -13.9284
 250   2.0000      -0.510850       -13.9009
 251   2.0000      -0.509526       -13.8649
 252   2.0000      -0.507916       -13.8211
 253   2.0000      -0.506156       -13.7732
 254   2.0000      -0.505348       -13.7512
 255   2.0000      -0.502463       -13.6727
 256   2.0000      -0.500437       -13.6176
 257   2.0000      -0.499724       -13.5982
 258   2.0000      -0.498466       -13.5640
 259   2.0000      -0.494670       -13.4607
 260   2.0000      -0.493676       -13.4336
 261   2.0000      -0.492706       -13.4072
 262   2.0000      -0.491214       -13.3666
 263   2.0000      -0.487690       -13.2707
 264   2.0000      -0.480266       -13.0687
 265   2.0000      -0.479702       -13.0534
 266   2.0000      -0.476554       -12.9677
 267   2.0000      -0.474044       -12.8994
 268   2.0000      -0.469111       -12.7651
 269   2.0000      -0.466038       -12.6815
 270   2.0000      -0.463646       -12.6164
 271   2.0000      -0.463008       -12.5991
 272   2.0000      -0.462646       -12.5892
 273   2.0000      -0.460734       -12.5372
 274   2.0000      -0.459973       -12.5165
 275   2.0000      -0.458776       -12.4839
 276   2.0000      -0.457400       -12.4465
 277   2.0000      -0.454639       -12.3714
 278   2.0000      -0.453510       -12.3406
 279   2.0000      -0.451694       -12.2912
 280   2.0000      -0.450906       -12.2698
 281   2.0000      -0.449562       -12.2332
 282   2.0000      -0.449448       -12.2301
 283   2.0000      -0.446707       -12.1555
 284   2.0000      -0.445568       -12.1245
 285   2.0000      -0.443779       -12.0758
 286   2.0000      -0.443224       -12.0607
 287   2.0000      -0.443196       -12.0600
 288   2.0000      -0.442332       -12.0365
 289   2.0000      -0.442147       -12.0314
 290   2.0000      -0.440854       -11.9962
 291   2.0000      -0.440750       -11.9934
 292   2.0000      -0.435564       -11.8523
 293   2.0000      -0.432205       -11.7609
 294   2.0000      -0.431524       -11.7424
 295   2.0000      -0.429699       -11.6927
 296   2.0000      -0.429086       -11.6760
 297   2.0000      -0.427404       -11.6303
 298   2.0000      -0.425886       -11.5889
 299   2.0000      -0.425265       -11.5721
 300   2.0000      -0.420090       -11.4312
 301   2.0000      -0.414777       -11.2866
 302   2.0000      -0.414353       -11.2751
 303   2.0000      -0.413936       -11.2638
 304   2.0000      -0.410452       -11.1690
 305   2.0000      -0.406990       -11.0747
 306   2.0000      -0.400050       -10.8859
 307   2.0000      -0.398494       -10.8436
 308   2.0000      -0.393226       -10.7002
 309   2.0000      -0.390262       -10.6196
 310   2.0000      -0.387264       -10.5380
 311   2.0000      -0.379450       -10.3254
 312   2.0000      -0.378393       -10.2966
 313   2.0000      -0.376239       -10.2380
 314   2.0000      -0.366033        -9.9603
 315   2.0000      -0.358548        -9.7566
 316   2.0000      -0.354772        -9.6538
 317   2.0000      -0.349833        -9.5194
 318   2.0000      -0.344506        -9.3745
 319   2.0000      -0.341445        -9.2912
 320   2.0000      -0.332263        -9.0413
 321   2.0000      -0.326740        -8.8910
 322   2.0000      -0.325008        -8.8439
 323   2.0000      -0.319502        -8.6941
 324   2.0000      -0.317626        -8.6431
 325   2.0000      -0.316549        -8.6137
 326   2.0000      -0.302575        -8.2335
 327   2.0000      -0.298234        -8.1154
 328   2.0000      -0.295549        -8.0423
 329   2.0000      -0.277515        -7.5516
 330   2.0000      -0.257541        -7.0080
 331   0.0000      -0.116694        -3.1754
 332   0.0000      -0.111027        -3.0212
 333   0.0000      -0.090647        -2.4666
 334   0.0000      -0.090054        -2.4505
 335   0.0000      -0.065043        -1.7699

MULLIKEN ATOMIC CHARGES
-----------------------
   0 C :    0.296505
   1 C :   -0.345657
   2 C :   -0.183336
   3 N :    0.147633
   4 C :   -0.201984
   5 N :    0.158493
   6 C :    0.016648
   7 C :   -0.019160
   8 C :   -0.069448
   9 C :    0.119755
  10 C :   -0.090566
  11 C :   -0.020857
  12 S :    0.187950
  13 C :   -0.124140
  14 C :    0.039781
  15 Br:    0.025444
  16 C :    0.151139
  17 O :   -0.150240
  18 C :   -0.091436
  19 C :    0.028919
  20 C :   -0.118047
  21 C :    0.038161
  22 C :   -0.023037
  23 C :   -0.083544
  24 S :    0.205382
  25 C :   -0.101924
  26 C :    0.009196
  27 C :    0.302949
  28 C :   -0.295606
  29 C :   -0.187398
  30 N :    0.185957
  31 C :   -0.186812
  32 N :    0.169302
  33 C :   -0.003149
  34 C :   -0.093298
  35 S :    0.211978
  36 C :    0.002204
  37 C :    0.117688
  38 F :   -0.195760
  39 C :    0.138120
  40 O :   -0.346727
  41 C :    0.185566
  42 C :    0.057447
  43 C :    0.103608
  44 C :    0.141541
  45 O :   -0.311928
  46 C :    0.177970
  47 F :   -0.184305
  48 C :   -0.092610
  49 C :   -0.045870
  50 C :    0.016447
  51 C :   -0.088760
  52 S :    0.209361
  53 C :   -0.082118
  54 C :    0.026517
  55 C :    0.301720
  56 C :   -0.296147
  57 C :   -0.189534
  58 N :    0.176776
  59 C :   -0.191922
  60 N :    0.176473
  61 C :    0.002875
  62 C :   -0.090958
  63 S :    0.201453
  64 C :    0.044951
  65 C :   -0.136260
  66 C :    0.244853
  67 C :   -0.328592
  68 C :   -0.175876
  69 N :    0.156591
  70 C :   -0.211328
  71 N :    0.174853
  72 C :    0.006515
  73 C :   -0.001349
  74 C :    0.139594
  75 O :   -0.140223
  76 C :   -0.070124
  77 C :    0.114670
  78 C :   -0.086683
  79 C :   -0.022593
  80 S :    0.185114
  81 C :   -0.125807
  82 C :    0.040319
  83 Br:    0.025779
  84 H :   -0.007093
  85 H :   -0.006060
  86 H :   -0.001994
  87 H :    0.021435
  88 H :    0.032724
  89 H :    0.009094
  90 H :    0.036600
  91 H :    0.040383
  92 H :    0.039757
  93 H :    0.037240
  94 H :    0.049852
  95 H :    0.035980
  96 H :    0.014103
  97 H :    0.018617
  98 H :    0.033753
  99 H :   -0.007693
 100 H :   -0.003999
 101 H :   -0.001788
Sum of atomic charges:   -0.0000000

LOEWDIN ATOMIC CHARGES
----------------------
   0 C :    0.075933
   1 C :   -0.142807
   2 C :   -0.018446
   3 N :   -0.053150
   4 C :   -0.025329
   5 N :   -0.053136
   6 C :   -0.021566
   7 C :   -0.050491
   8 C :    0.023921
   9 C :   -0.031903
  10 C :   -0.143645
  11 C :   -0.009348
  12 S :    0.433597
  13 C :   -0.271076
  14 C :   -0.069522
  15 Br:    0.138307
  16 C :    0.084706
  17 O :   -0.137954
  18 C :   -0.096442
  19 C :    0.043195
  20 C :   -0.179225
  21 C :    0.024661
  22 C :   -0.074961
  23 C :   -0.157383
  24 S :    0.493437
  25 C :   -0.194835
  26 C :   -0.061738
  27 C :    0.079378
  28 C :   -0.097920
  29 C :   -0.020320
  30 N :   -0.021214
  31 C :   -0.012145
  32 N :   -0.036711
  33 C :   -0.016888
  34 C :   -0.154072
  35 S :    0.495569
  36 C :   -0.076870
  37 C :    0.047071
  38 F :   -0.063893
  39 C :    0.021468
  40 O :   -0.105537
  41 C :    0.083060
  42 C :   -0.068316
  43 C :    0.055877
  44 C :    0.037201
  45 O :   -0.083639
  46 C :    0.082484
  47 F :   -0.044960
  48 C :   -0.154489
  49 C :   -0.026366
  50 C :   -0.061637
  51 C :   -0.199175
  52 S :    0.514175
  53 C :   -0.147860
  54 C :   -0.073899
  55 C :    0.081086
  56 C :   -0.100669
  57 C :   -0.016701
  58 N :   -0.031275
  59 C :   -0.017306
  60 N :   -0.030061
  61 C :    0.015929
  62 C :   -0.180563
  63 S :    0.508840
  64 C :    0.052461
  65 C :   -0.104126
  66 C :    0.061087
  67 C :   -0.147923
  68 C :   -0.020804
  69 N :   -0.051915
  70 C :   -0.038509
  71 N :   -0.047457
  72 C :   -0.018331
  73 C :   -0.052306
  74 C :    0.083349
  75 O :   -0.141171
  76 C :    0.023809
  77 C :   -0.033012
  78 C :   -0.143360
  79 C :   -0.012918
  80 S :    0.432014
  81 C :   -0.271681
  82 C :   -0.069368
  83 Br:    0.138325
  84 H :    0.042262
  85 H :    0.041104
  86 H :    0.039482
  87 H :    0.043796
  88 H :    0.045314
  89 H :    0.038978
  90 H :    0.021560
  91 H :    0.022005
  92 H :    0.028409
  93 H :    0.021346
  94 H :    0.032166
  95 H :    0.019926
  96 H :    0.036257
  97 H :    0.047308
  98 H :    0.055409
  99 H :    0.042118
 100 H :    0.040513
 101 H :    0.039428

  Mayer bond orders larger than 0.100000
B(  0-C ,  1-C ) :   1.6350 B(  0-C ,  6-C ) :   1.0056 B(  0-C , 18-C ) :   1.0721
B(  1-C ,  2-C ) :   1.1405 B(  1-C ,  4-C ) :   1.1395 B(  2-C ,  3-N ) :   2.9718
B(  4-C ,  5-N ) :   2.9929 B(  6-C ,  7-C ) :   1.2725 B(  6-C , 11-C ) :   1.4071
B(  7-C ,  8-C ) :   1.4251 B(  7-C , 16-C ) :   0.9466 B(  8-C ,  9-C ) :   1.2421
B(  8-C , 84-H ) :   1.0176 B(  9-C , 10-C ) :   1.3042 B(  9-C , 14-C ) :   1.1637
B( 10-C , 11-C ) :   1.3315 B( 10-C , 12-S ) :   1.0869 B( 11-C , 85-H ) :   0.9811
B( 12-S , 13-C ) :   1.0868 B( 13-C , 14-C ) :   1.6182 B( 13-C , 15-Br) :   1.0195
B( 14-C , 86-H ) :   1.0002 B( 16-C , 17-O ) :   2.1965 B( 16-C , 18-C ) :   0.9444
B( 18-C , 19-C ) :   1.5977 B( 19-C , 20-C ) :   1.1968 B( 19-C , 87-H ) :   0.9268
B( 20-C , 21-C ) :   1.4102 B( 20-C , 24-S ) :   1.0732 B( 21-C , 22-C ) :   1.3350
B( 21-C , 88-H ) :   0.9747 B( 22-C , 23-C ) :   1.3878 B( 22-C , 27-C ) :   0.9939
B( 23-C , 24-S ) :   1.1684 B( 23-C , 25-C ) :   1.1957 B( 25-C , 26-C ) :   1.4228
B( 25-C , 35-S ) :   1.1196 B( 26-C , 27-C ) :   1.0003 B( 26-C , 33-C ) :   1.2827
B( 27-C , 28-C ) :   1.7156 B( 28-C , 29-C ) :   1.1335 B( 28-C , 31-C ) :   1.1374
B( 29-C , 30-N ) :   2.9955 B( 31-C , 32-N ) :   2.9876 B( 33-C , 34-C ) :   1.4739
B( 33-C , 89-H ) :   0.9962 B( 34-C , 35-S ) :   1.1187 B( 34-C , 36-C ) :   1.0580
B( 36-C , 37-C ) :   1.3129 B( 36-C , 42-C ) :   0.1175 B( 36-C , 44-C ) :   1.3335
B( 37-C , 38-F ) :   1.0985 B( 37-C , 39-C ) :   1.2935 B( 39-C , 40-O ) :   1.1335
B( 39-C , 42-C ) :   1.3085 B( 40-O , 41-C ) :   0.9130 B( 41-C , 90-H ) :   0.9766
B( 41-C , 91-H ) :   0.9785 B( 41-C , 92-H ) :   0.9761 B( 42-C , 43-C ) :   1.2944
B( 42-C , 48-C ) :   1.1055 B( 43-C , 44-C ) :   1.2782 B( 43-C , 47-F ) :   1.0996
B( 44-C , 45-O ) :   1.2070 B( 45-O , 46-C ) :   0.9096 B( 46-C , 93-H ) :   0.9763
B( 46-C , 94-H ) :   0.9762 B( 46-C , 95-H ) :   0.9778 B( 48-C , 49-C ) :   1.4543
B( 48-C , 52-S ) :   1.1170 B( 49-C , 50-C ) :   1.2943 B( 49-C , 96-H ) :   0.9921
B( 50-C , 51-C ) :   1.4204 B( 50-C , 55-C ) :   0.9987 B( 51-C , 52-S ) :   1.0906
B( 51-C , 53-C ) :   1.2041 B( 53-C , 54-C ) :   1.3994 B( 53-C , 63-S ) :   1.1623
B( 54-C , 55-C ) :   0.9907 B( 54-C , 61-C ) :   1.3062 B( 55-C , 56-C ) :   1.7133
B( 56-C , 57-C ) :   1.1374 B( 56-C , 59-C ) :   1.1333 B( 57-C , 58-N ) :   2.9902
B( 59-C , 60-N ) :   2.9941 B( 61-C , 62-C ) :   1.3944 B( 61-C , 97-H ) :   1.0017
B( 62-C , 63-S ) :   1.0794 B( 62-C , 64-C ) :   1.1549 B( 64-C , 65-C ) :   1.6297
B( 64-C , 98-H ) :   0.9459 B( 65-C , 66-C ) :   1.0388 B( 65-C , 74-C ) :   0.9415
B( 66-C , 67-C ) :   1.6477 B( 66-C , 72-C ) :   1.0173 B( 67-C , 68-C ) :   1.1338
B( 67-C , 70-C ) :   1.1540 B( 68-C , 69-N ) :   2.9929 B( 70-C , 71-N ) :   3.0240
B( 72-C , 73-C ) :   1.2761 B( 72-C , 79-C ) :   1.4127 B( 73-C , 74-C ) :   0.9207
B( 73-C , 76-C ) :   1.4269 B( 74-C , 75-O ) :   2.2707 B( 76-C , 77-C ) :   1.2505
B( 76-C , 99-H ) :   1.0171 B( 77-C , 78-C ) :   1.3074 B( 77-C , 82-C ) :   1.1622
B( 78-C , 79-C ) :   1.3259 B( 78-C , 80-S ) :   1.0841 B( 79-C ,100-H ) :   0.9855
B( 80-S , 81-C ) :   1.0864 B( 81-C , 82-C ) :   1.6200 B( 81-C , 83-Br) :   1.0200
B( 82-C ,101-H ) :   1.0008

-----------------------------------------------------------------------------
         ABSORPTION SPECTRUM VIA TRANSITION ELECTRIC DIPOLE MOMENTS
-----------------------------------------------------------------------------
State   Energy  Wavelength   fosc         T2         TX        TY        TZ
        (cm-1)    (nm)                  (au**2)     (au)      (au)      (au)
-----------------------------------------------------------------------------
   0   13967.4    716.0   0.656424791  15.47192  -2.97105   2.23265   1.28842
   1   14747.0    678.1   0.062344778   1.39179  -0.49097   0.97500  -0.44733
   2   20190.6    495.3   1.173407553  19.13265  -3.14176   2.00260   2.29163
   3   21601.5    462.9   0.915994495  13.96000   2.05729  -2.96846   0.95700
   4   22821.5    438.2   0.042978559   0.61999  -0.50709   0.59642  -0.08445
   5   23600.4    423.7   0.007972808   0.11122  -0.00944   0.23289   0.23851
   6   25873.6    386.5   0.100375945   1.27717  -0.57615  -0.78170   0.57807
   7   26125.6    382.8   0.048849244   0.61556  -0.50806  -0.44789  -0.39602
   8   26162.1    382.2   0.047816343   0.60170   0.53810  -0.27304  -0.48744
   9   27321.1    366.0   0.011857008   0.14287   0.12015  -0.07392  -0.35067
  10   27602.2    362.3   0.372102058   4.43807  -1.16018   1.29917   1.18500
  11   27959.9    357.7   0.521923435   6.14534   2.23988  -0.48872  -0.94309
  12   28247.4    354.0   0.008267176   0.09635  -0.21658  -0.20830  -0.07781
  13   28626.5    349.3   0.023185957   0.26664   0.11580  -0.18087   0.46960
  14   29055.9    344.2   0.065056999   0.73712   0.24257  -0.80767   0.16107
  15   29382.9    340.3   0.027771201   0.31115   0.14967   0.53576   0.04144
  16   29561.4    338.3   0.058546483   0.65201  -0.20542  -0.67015   0.40088
  17   29864.9    334.8   0.064529586   0.71133   0.49951   0.36775  -0.57148
  18   30234.9    330.7   0.165646918   1.80364   1.16942  -0.60160  -0.27234
  19   30590.3    326.9   0.265036331   2.85232   0.04320  -1.44934   0.86595
  20   30861.2    324.0   0.163645566   1.74569  -0.03260   1.32054  -0.02811
  21   31051.2    322.0   0.846595731   8.97580   0.71821  -0.22078  -2.90021
  22   31298.0    319.5   0.054380938   0.57201   0.35140   0.02084  -0.66940
  23   31720.5    315.3   0.454952785   4.72173  -2.09920   0.08587   0.55471
  24   32111.2    311.4   0.230529664   2.36344   0.49453  -1.14674   0.89659
  25   32640.5    306.4   0.084992344   0.85723   0.61333  -0.63190  -0.28596
  26   32808.5    304.8   0.302173163   3.03211  -0.34472   0.88086   1.46198
  27   33068.4    302.4   0.212633375   2.11687  -0.30133  -1.19080   0.77978
  28   33122.7    301.9   0.156483571   1.55531   1.24295  -0.10167   0.00709
  29   33471.2    298.8   0.037565392   0.36948   0.60331   0.01077  -0.07338
  30   33695.1    296.8   0.093132566   0.90994   0.53909   0.46179  -0.63723
  31   33731.9    296.5   0.045363054   0.44273  -0.52625   0.36524  -0.17996
  32   34315.0    291.4   0.015147201   0.14532  -0.04040   0.32425  -0.19635
  33   34447.8    290.3   0.045198650   0.43196  -0.02996   0.35237  -0.55398
  34   34593.4    289.1   0.018097745   0.17223  -0.07280  -0.39828  -0.09111
  35   34815.1    287.2   0.348079344   3.29145  -0.38509  -0.80793   1.57810
  36   34895.5    286.6   0.220885663   2.08388  -0.48520  -0.21071  -1.34316
  37   35067.9    285.2   0.007868868   0.07387   0.22949   0.03437  -0.14151
  38   35664.7    280.4   0.211053847   1.94819  -0.46649  -0.48346   1.22345
  39   35876.3    278.7   0.064412872   0.59107   0.16547   0.36275  -0.65735
  40   36134.0    276.7   0.018873737   0.17196  -0.16457  -0.36975   0.09033
  41   36247.9    275.9   0.087601111   0.79561  -0.83451   0.02205  -0.31421
  42   36643.1    272.9   0.047696422   0.42852  -0.55022  -0.26224   0.23877
  43   36894.2    271.0   0.014269642   0.12733  -0.30532  -0.17855  -0.04724
  44   37101.4    269.5   0.040893660   0.36286   0.23122  -0.42441  -0.35954
  45   37303.6    268.1   0.067393960   0.59477  -0.48880   0.31408   0.50715
  46   37617.2    265.8   0.104562461   0.91509  -0.92621   0.19404   0.13993
  47   37810.0    264.5   0.024777759   0.21574   0.37759   0.02129   0.26965
  48   38207.0    261.7   0.008132486   0.07007   0.13648   0.18880   0.12571
  49   38582.8    259.2   0.006511282   0.05556   0.13683  -0.07988  -0.17451
  50   38593.4    259.1   0.050614744   0.43176  -0.31655   0.37615  -0.43596
  51   38965.9    256.6   0.036623379   0.30942  -0.42810   0.02258   0.35446
  52   39234.3    254.9   0.010909906   0.09154   0.18059  -0.11859   0.21182
  53   39298.8    254.5   0.063473934   0.53173   0.54919  -0.45969   0.13713
  54   39568.8    252.7   0.094473569   0.78602   0.46675  -0.74607   0.10747
  55   39589.1    252.6   0.024326501   0.20229  -0.11942  -0.13786   0.41113
  56   40069.5    249.6   0.107430691   0.88265   0.46260  -0.42377   0.69934
  57   40147.8    249.1   0.055133701   0.45210  -0.36372   0.42166  -0.37684
  58   40302.6    248.1   0.127753693   1.04356   0.46025  -0.42579   0.80649

FINAL SINGLE POINT ENERGY    -10844.032087765840

DIPOLE MOMENT
-------------
                                X             Y             Z
Electronic contribution:    -24.33128     -96.86515      29.33559
Nuclear contribution   :     21.68495      94.37014     -28.88640
                        -----------------------------------------
Total Dipole Moment    :     -2.64633      -2.49501       0.44919
                        -----------------------------------------
Magnitude (a.u.)       :      3.66468
Magnitude (Debye)      :      9.31489

Rotational constants in cm-1:     0.000947     0.000109     0.000102
Rotational constants in MHz :    28.387176     3.270899     3.046211

                             ****ORCA TERMINATED NORMALLY****
TOTAL RUN TIME: 0 days 0 hours 12 minutes 43 seconds 873 msec
