                         Program Version 4.2.0 -  RELEASE  -
|  1> # ORCA input file
|  2> # SCF done       -184.607991334495          0.004291758494
|  3> ! CAM-B3LYP def2-SVP def2/J RIJCOSX Grid4 TightSCF
|  4> %maxcore 5000
|  5> %tddft
|  6>     Mode sTDDFT
|  7>     Ethresh 5.0
|  8>     maxcore 5000
|  9> end
| 10>
| 11> %pal
| 12>   nprocs 6
| 13>   end
| 14> * xyz 0 1
| 15>    C        2.05448         8.44110        12.37798
| 16>    C        2.68282         9.48171        11.76650
| 17>    C        2.26445         9.62054        10.42852
| 18>    C        1.31389         8.65242        10.06549
| 19>    S        0.92883         7.60084        11.35782
| 20>    C        0.94985         8.86162         8.71163
| 21>    C        1.67427         9.96178         8.22045
| 22>    C        2.50834        10.48505         9.29478
| 23>    C        3.29251        11.60726         9.24778
| 24>    C        3.39804        12.40162         8.08942
| 25>    N        3.48168        13.06690         7.15833
| 26>    C        4.01185        12.07056        10.36712
| 27>    N        4.60007        12.45932        11.27239
| 28>    C        1.37545        10.26099         6.89312
| 29>    C        0.42847         9.40138         6.36166
| 30>    S       -0.12672         8.21865         7.54690
| 31>    C       -0.09450         9.40770         5.03655
| 32>    C       -1.08787         8.55143         4.62129
| 33>    C       -1.64173         8.53448         3.34347
| 34>    C       -1.16895         9.47166         2.31398
| 35>    C       -0.18429        10.37984         2.50009
| 36>    S        0.64171        10.60414         3.97747
| 37>    C       -1.98597         9.23861         1.17622
| 38>    C       -2.92952         8.25671         1.47480
| 39>    C       -3.80260         8.00863         0.39221
| 40>    C       -3.50613         8.79458        -0.67540
| 41>    S       -2.16402         9.85966        -0.41680
| 42>    C       -2.71774         7.78693         2.81960
| 43>    C       -3.55715         6.80602         3.39214
| 44>    C       -3.38134         6.03826         4.50085
| 45>    C       -4.36898         5.13050         4.97619
| 46>    C       -4.11225         4.20031         5.96228
| 47>    C       -5.02999         3.27252         6.44947
| 48>    C       -6.40290         3.23113         5.94205
| 49>    C       -6.89056         4.05746         4.99243
| 50>    S       -5.96101         5.27777         4.23399
| 51>    C       -7.03762         2.17384         6.64658
| 52>    C       -6.13699         1.57372         7.52731
| 53>    C       -6.75719         0.53754         8.26469
| 54>    C       -8.06330         0.38154         7.92226
| 55>    S       -8.60663         1.47797         6.70160
| 56>    C       -4.86322         2.24803         7.41096
| 57>    C       -3.66379         1.96678         8.09507
| 58>    C       -3.45710         0.87031         8.87842
| 59>    C       -2.29424         0.55389         9.62432
| 60>    C       -1.17042         1.34285         9.76933
| 61>    C       -0.06851         1.02118        10.55403
| 62>    C       -0.01805        -0.22335        11.32734
| 63>    C       -0.98846        -1.16290        11.32722
| 64>    S       -2.43423        -1.01291        10.42363
| 65>    C        1.21562        -0.18268        12.03037
| 66>    C        1.89525         1.00138        11.73999
| 67>    C        3.14919         1.04929        12.39321
| 68>    C        3.36967        -0.05882        13.14796
| 69>    S        2.08118        -1.21223        13.09951
| 70>    C        1.10366         1.77196        10.81091
| 71>    C        1.42718         3.01410        10.22890
| 72>    C        2.41303         3.84537        10.67252
| 73>    C        2.82876         5.03553        10.04015
| 74>    C        2.50568         5.53404         8.78179
| 75>    C        3.19288         6.70540         8.48716
| 76>    C        4.03752         7.13222         9.53054
| 77>    S        4.00404         6.05853        10.86552
| 78>    C        4.70208         8.30608         9.11912
| 79>    C        4.30168         8.61429         7.80153
| 80>    C        3.36172         7.61403         7.35733
| 81>    C        2.79769         7.48805         6.11361
| 82>    C        3.09254         8.37381         5.06146
| 83>    N        3.31053         9.05966         4.16770
| 84>    C        1.87189         6.47812         5.79500
| 85>    N        1.09101         5.68263         5.51746
| 86>    C        4.95445         9.75740         7.30055
| 87>    C        5.79359        10.29939         8.22504
| 88>    S        5.85885         9.41230         9.72322
| 89>    H        2.18010         8.10420        13.38752
| 90>    H        3.40786        10.11006        12.25173
| 91>    H        1.82368        11.05639         6.32571
| 92>    H       -1.47310         7.86699         5.36419
| 93>    H        0.13932        11.04952         1.71822
| 94>    H       -4.60621         7.29388         0.39615
| 95>    H       -4.00098         8.82209        -1.62684
| 96>    H       -4.46550         6.63690         2.82398
| 97>    H       -2.44787         6.04855         5.04330
| 98>    H       -3.10594         4.19434         6.35940
| 99>    H       -7.90838         4.00218         4.63990
|100>    H       -6.29224        -0.06644         9.02196
|101>    H       -8.76438        -0.32633         8.32007
|102>    H       -2.85992         2.67699         7.95892
|103>    H       -4.24641         0.13713         8.94467
|104>    H       -1.16649         2.28767         9.24501
|105>    H       -0.91891        -2.07196        11.90338
|106>    H        3.87139         1.84055        12.31049
|107>    H        4.23135        -0.28417        13.74560
|108>    H        0.83815         3.31864         9.37436
|109>    H        2.92545         3.60308        11.59129
|110>    H        1.81969         5.04220         8.11677
|111>    H        4.80205        10.17188         6.32021
|112>    H        6.41454        11.16714         8.12264
|113> *
|114>
|115>                          ****END OF INPUT****

CARTESIAN COORDINATES (ANGSTROEM)
---------------------------------
  C      2.054480    8.441100   12.377980
  C      2.682820    9.481710   11.766500
  C      2.264450    9.620540   10.428520
  C      1.313890    8.652420   10.065490
  S      0.928830    7.600840   11.357820
  C      0.949850    8.861620    8.711630
  C      1.674270    9.961780    8.220450
  C      2.508340   10.485050    9.294780
  C      3.292510   11.607260    9.247780
  C      3.398040   12.401620    8.089420
  N      3.481680   13.066900    7.158330
  C      4.011850   12.070560   10.367120
  N      4.600070   12.459320   11.272390
  C      1.375450   10.260990    6.893120
  C      0.428470    9.401380    6.361660
  S     -0.126720    8.218650    7.546900
  C     -0.094500    9.407700    5.036550
  C     -1.087870    8.551430    4.621290
  C     -1.641730    8.534480    3.343470
  C     -1.168950    9.471660    2.313980
  C     -0.184290   10.379840    2.500090
  S      0.641710   10.604140    3.977470
  C     -1.985970    9.238610    1.176220
  C     -2.929520    8.256710    1.474800
  C     -3.802600    8.008630    0.392210
  C     -3.506130    8.794580   -0.675400
  S     -2.164020    9.859660   -0.416800
  C     -2.717740    7.786930    2.819600
  C     -3.557150    6.806020    3.392140
  C     -3.381340    6.038260    4.500850
  C     -4.368980    5.130500    4.976190
  C     -4.112250    4.200310    5.962280
  C     -5.029990    3.272520    6.449470
  C     -6.402900    3.231130    5.942050
  C     -6.890560    4.057460    4.992430
  S     -5.961010    5.277770    4.233990
  C     -7.037620    2.173840    6.646580
  C     -6.136990    1.573720    7.527310
  C     -6.757190    0.537540    8.264690
  C     -8.063300    0.381540    7.922260
  S     -8.606630    1.477970    6.701600
  C     -4.863220    2.248030    7.410960
  C     -3.663790    1.966780    8.095070
  C     -3.457100    0.870310    8.878420
  C     -2.294240    0.553890    9.624320
  C     -1.170420    1.342850    9.769330
  C     -0.068510    1.021180   10.554030
  C     -0.018050   -0.223350   11.327340
  C     -0.988460   -1.162900   11.327220
  S     -2.434230   -1.012910   10.423630
  C      1.215620   -0.182680   12.030370
  C      1.895250    1.001380   11.739990
  C      3.149190    1.049290   12.393210
  C      3.369670   -0.058820   13.147960
  S      2.081180   -1.212230   13.099510
  C      1.103660    1.771960   10.810910
  C      1.427180    3.014100   10.228900
  C      2.413030    3.845370   10.672520
  C      2.828760    5.035530   10.040150
  C      2.505680    5.534040    8.781790
  C      3.192880    6.705400    8.487160
  C      4.037520    7.132220    9.530540
  S      4.004040    6.058530   10.865520
  C      4.702080    8.306080    9.119120
  C      4.301680    8.614290    7.801530
  C      3.361720    7.614030    7.357330
  C      2.797690    7.488050    6.113610
  C      3.092540    8.373810    5.061460
  N      3.310530    9.059660    4.167700
  C      1.871890    6.478120    5.795000
  N      1.091010    5.682630    5.517460
  C      4.954450    9.757400    7.300550
  C      5.793590   10.299390    8.225040
  S      5.858850    9.412300    9.723220
  H      2.180100    8.104200   13.387520
  H      3.407860   10.110060   12.251730
  H      1.823680   11.056390    6.325710
  H     -1.473100    7.866990    5.364190
  H      0.139320   11.049520    1.718220
  H     -4.606210    7.293880    0.396150
  H     -4.000980    8.822090   -1.626840
  H     -4.465500    6.636900    2.823980
  H     -2.447870    6.048550    5.043300
  H     -3.105940    4.194340    6.359400
  H     -7.908380    4.002180    4.639900
  H     -6.292240   -0.066440    9.021960
  H     -8.764380   -0.326330    8.320070
  H     -2.859920    2.676990    7.958920
  H     -4.246410    0.137130    8.944670
  H     -1.166490    2.287670    9.245010
  H     -0.918910   -2.071960   11.903380
  H      3.871390    1.840550   12.310490
  H      4.231350   -0.284170   13.745600
  H      0.838150    3.318640    9.374360
  H      2.925450    3.603080   11.591290
  H      1.819690    5.042200    8.116770
  H      4.802050   10.171880    6.320210
  H      6.414540   11.167140    8.122640

 Total Charge           Charge          ....    0
 Multiplicity           Mult            ....    1
 Number of Electrons    NEL             ....  572
 Basis Dimension        Dim             .... 1196

ORBITAL ENERGIES
----------------

  NO   OCC          E(Eh)            E(eV)
   0   2.0000     -88.986566     -2421.4476
   1   2.0000     -88.979817     -2421.2639
   2   2.0000     -88.979075     -2421.2437
   3   2.0000     -88.974173     -2421.1103
   4   2.0000     -88.973149     -2421.0825
   5   2.0000     -88.967565     -2420.9305
   6   2.0000     -88.967207     -2420.9208
   7   2.0000     -88.952610     -2420.5236
   8   2.0000     -88.951595     -2420.4960
   9   2.0000     -88.951302     -2420.4880
  10   2.0000     -14.422466      -392.4553
  11   2.0000     -14.419303      -392.3692
  12   2.0000     -14.418962      -392.3599
  13   2.0000     -14.418885      -392.3578
  14   2.0000     -10.351075      -281.6671
  15   2.0000     -10.349789      -281.6321
  16   2.0000     -10.340625      -281.3827
  17   2.0000     -10.340404      -281.3767
  18   2.0000     -10.329138      -281.0701
  19   2.0000     -10.328366      -281.0491
  20   2.0000     -10.326499      -280.9983
  21   2.0000     -10.326231      -280.9910
  22   2.0000     -10.324873      -280.9541
  23   2.0000     -10.323520      -280.9173
  24   2.0000     -10.323261      -280.9102
  25   2.0000     -10.321414      -280.8600
  26   2.0000     -10.321320      -280.8574
  27   2.0000     -10.321224      -280.8548
  28   2.0000     -10.320641      -280.8389
  29   2.0000     -10.320176      -280.8263
  30   2.0000     -10.316693      -280.7315
  31   2.0000     -10.316454      -280.7250
  32   2.0000     -10.313612      -280.6476
  33   2.0000     -10.313294      -280.6390
  34   2.0000     -10.307512      -280.4817
  35   2.0000     -10.306057      -280.4421
  36   2.0000     -10.301250      -280.3113
  37   2.0000     -10.296449      -280.1806
  38   2.0000     -10.296395      -280.1791
  39   2.0000     -10.294655      -280.1318
  40   2.0000     -10.294170      -280.1186
  41   2.0000     -10.293341      -280.0961
  42   2.0000     -10.293098      -280.0894
  43   2.0000     -10.292266      -280.0668
  44   2.0000     -10.291873      -280.0561
  45   2.0000     -10.291531      -280.0468
  46   2.0000     -10.291508      -280.0462
  47   2.0000     -10.291212      -280.0381
  48   2.0000     -10.291192      -280.0376
  49   2.0000     -10.290033      -280.0060
  50   2.0000     -10.286862      -279.9197
  51   2.0000     -10.284371      -279.8520
  52   2.0000     -10.284244      -279.8485
  53   2.0000     -10.283904      -279.8393
  54   2.0000     -10.283019      -279.8152
  55   2.0000     -10.282877      -279.8113
  56   2.0000     -10.281478      -279.7732
  57   2.0000     -10.280867      -279.7566
  58   2.0000     -10.280825      -279.7555
  59   2.0000     -10.279643      -279.7233
  60   2.0000     -10.279231      -279.7121
  61   2.0000     -10.279123      -279.7092
  62   2.0000     -10.276546      -279.6390
  63   2.0000     -10.273014      -279.5429
  64   2.0000     -10.271616      -279.5049
  65   2.0000     -10.271566      -279.5035
  66   2.0000     -10.271036      -279.4891
  67   2.0000     -10.270684      -279.4795
  68   2.0000     -10.270297      -279.4690
  69   2.0000     -10.270294      -279.4689
  70   2.0000     -10.269673      -279.4520
  71   2.0000     -10.268818      -279.4288
  72   2.0000     -10.267398      -279.3901
  73   2.0000     -10.265127      -279.3283
  74   2.0000      -8.080060      -219.8696
  75   2.0000      -8.074194      -219.7100
  76   2.0000      -8.073484      -219.6907
  77   2.0000      -8.068261      -219.5485
  78   2.0000      -8.067965      -219.5405
  79   2.0000      -8.063171      -219.4100
  80   2.0000      -8.062624      -219.3952
  81   2.0000      -8.048210      -219.0029
  82   2.0000      -8.046925      -218.9680
  83   2.0000      -8.046688      -218.9615
  84   2.0000      -6.049491      -164.6150
  85   2.0000      -6.045367      -164.5028
  86   2.0000      -6.043599      -164.4547
  87   2.0000      -6.042881      -164.4352
  88   2.0000      -6.042182      -164.4161
  89   2.0000      -6.039090      -164.3320
  90   2.0000      -6.038443      -164.3144
  91   2.0000      -6.037587      -164.2911
  92   2.0000      -6.037548      -164.2900
  93   2.0000      -6.036652      -164.2656
  94   2.0000      -6.035864      -164.2442
  95   2.0000      -6.033485      -164.1795
  96   2.0000      -6.032856      -164.1624
  97   2.0000      -6.032615      -164.1558
  98   2.0000      -6.032095      -164.1417
  99   2.0000      -6.030556      -164.0998
 100   2.0000      -6.029917      -164.0824
 101   2.0000      -6.028167      -164.0348
 102   2.0000      -6.027620      -164.0199
 103   2.0000      -6.025178      -163.9534
 104   2.0000      -6.024606      -163.9379
 105   2.0000      -6.017599      -163.7472
 106   2.0000      -6.016342      -163.7130
 107   2.0000      -6.016161      -163.7081
 108   2.0000      -6.013395      -163.6328
 109   2.0000      -6.012139      -163.5986
 110   2.0000      -6.011926      -163.5928
 111   2.0000      -6.010267      -163.5477
 112   2.0000      -6.009030      -163.5140
 113   2.0000      -6.008650      -163.5037
 114   2.0000      -1.041853       -28.3503
 115   2.0000      -1.028366       -27.9833
 116   2.0000      -1.014862       -27.6158
 117   2.0000      -1.011920       -27.5358
 118   2.0000      -1.003027       -27.2938
 119   2.0000      -1.000753       -27.2319
 120   2.0000      -0.999139       -27.1880
 121   2.0000      -0.998936       -27.1824
 122   2.0000      -0.997715       -27.1492
 123   2.0000      -0.991323       -26.9753
 124   2.0000      -0.982458       -26.7340
 125   2.0000      -0.967391       -26.3240
 126   2.0000      -0.966772       -26.3072
 127   2.0000      -0.965734       -26.2789
 128   2.0000      -0.947151       -25.7733
 129   2.0000      -0.944902       -25.7121
 130   2.0000      -0.928773       -25.2732
 131   2.0000      -0.924051       -25.1447
 132   2.0000      -0.920127       -25.0379
 133   2.0000      -0.908796       -24.7296
 134   2.0000      -0.902897       -24.5691
 135   2.0000      -0.900159       -24.4946
 136   2.0000      -0.890221       -24.2241
 137   2.0000      -0.880448       -23.9582
 138   2.0000      -0.872435       -23.7402
 139   2.0000      -0.863870       -23.5071
 140   2.0000      -0.859195       -23.3799
 141   2.0000      -0.856635       -23.3102
 142   2.0000      -0.852545       -23.1989
 143   2.0000      -0.845292       -23.0016
 144   2.0000      -0.841159       -22.8891
 145   2.0000      -0.835225       -22.7276
 146   2.0000      -0.832672       -22.6582
 147   2.0000      -0.829339       -22.5675
 148   2.0000      -0.816376       -22.2147
 149   2.0000      -0.804891       -21.9022
 150   2.0000      -0.800510       -21.7830
 151   2.0000      -0.798048       -21.7160
 152   2.0000      -0.784884       -21.3578
 153   2.0000      -0.776666       -21.1342
 154   2.0000      -0.772491       -21.0206
 155   2.0000      -0.767556       -20.8863
 156   2.0000      -0.761205       -20.7134
 157   2.0000      -0.755669       -20.5628
 158   2.0000      -0.736328       -20.0365
 159   2.0000      -0.726896       -19.7798
 160   2.0000      -0.726263       -19.7626
 161   2.0000      -0.724371       -19.7111
 162   2.0000      -0.701511       -19.0891
 163   2.0000      -0.693699       -18.8765
 164   2.0000      -0.692272       -18.8377
 165   2.0000      -0.689273       -18.7561
 166   2.0000      -0.678749       -18.4697
 167   2.0000      -0.671208       -18.2645
 168   2.0000      -0.668520       -18.1914
 169   2.0000      -0.665145       -18.0995
 170   2.0000      -0.659347       -17.9417
 171   2.0000      -0.657608       -17.8944
 172   2.0000      -0.653591       -17.7851
 173   2.0000      -0.644399       -17.5350
 174   2.0000      -0.641335       -17.4516
 175   2.0000      -0.637621       -17.3506
 176   2.0000      -0.630692       -17.1620
 177   2.0000      -0.623945       -16.9784
 178   2.0000      -0.620452       -16.8834
 179   2.0000      -0.616657       -16.7801
 180   2.0000      -0.616266       -16.7695
 181   2.0000      -0.611530       -16.6406
 182   2.0000      -0.607215       -16.5232
 183   2.0000      -0.604150       -16.4398
 184   2.0000      -0.602189       -16.3864
 185   2.0000      -0.596600       -16.2343
 186   2.0000      -0.587266       -15.9803
 187   2.0000      -0.578819       -15.7505
 188   2.0000      -0.576320       -15.6825
 189   2.0000      -0.570405       -15.5215
 190   2.0000      -0.568644       -15.4736
 191   2.0000      -0.565492       -15.3878
 192   2.0000      -0.561687       -15.2843
 193   2.0000      -0.557442       -15.1688
 194   2.0000      -0.551483       -15.0066
 195   2.0000      -0.550983       -14.9930
 196   2.0000      -0.546877       -14.8813
 197   2.0000      -0.541288       -14.7292
 198   2.0000      -0.537014       -14.6129
 199   2.0000      -0.531848       -14.4723
 200   2.0000      -0.530003       -14.4221
 201   2.0000      -0.525161       -14.2904
 202   2.0000      -0.517928       -14.0935
 203   2.0000      -0.514839       -14.0095
 204   2.0000      -0.510845       -13.9008
 205   2.0000      -0.510260       -13.8849
 206   2.0000      -0.508298       -13.8315
 207   2.0000      -0.506535       -13.7835
 208   2.0000      -0.505071       -13.7437
 209   2.0000      -0.504395       -13.7253
 210   2.0000      -0.502564       -13.6755
 211   2.0000      -0.501219       -13.6389
 212   2.0000      -0.501079       -13.6350
 213   2.0000      -0.498251       -13.5581
 214   2.0000      -0.496133       -13.5005
 215   2.0000      -0.489540       -13.3211
 216   2.0000      -0.488208       -13.2848
 217   2.0000      -0.487407       -13.2630
 218   2.0000      -0.483863       -13.1666
 219   2.0000      -0.480682       -13.0800
 220   2.0000      -0.473496       -12.8845
 221   2.0000      -0.468341       -12.7442
 222   2.0000      -0.467614       -12.7244
 223   2.0000      -0.466704       -12.6997
 224   2.0000      -0.464578       -12.6418
 225   2.0000      -0.462121       -12.5750
 226   2.0000      -0.460732       -12.5371
 227   2.0000      -0.459098       -12.4927
 228   2.0000      -0.458314       -12.4713
 229   2.0000      -0.454920       -12.3790
 230   2.0000      -0.453605       -12.3432
 231   2.0000      -0.452494       -12.3130
 232   2.0000      -0.450285       -12.2529
 233   2.0000      -0.448665       -12.2088
 234   2.0000      -0.447952       -12.1894
 235   2.0000      -0.447226       -12.1696
 236   2.0000      -0.446894       -12.1606
 237   2.0000      -0.444724       -12.1015
 238   2.0000      -0.440541       -11.9877
 239   2.0000      -0.438201       -11.9240
 240   2.0000      -0.436622       -11.8811
 241   2.0000      -0.435291       -11.8449
 242   2.0000      -0.433708       -11.8018
 243   2.0000      -0.432884       -11.7794
 244   2.0000      -0.430529       -11.7153
 245   2.0000      -0.429283       -11.6814
 246   2.0000      -0.427934       -11.6447
 247   2.0000      -0.426396       -11.6028
 248   2.0000      -0.425959       -11.5909
 249   2.0000      -0.423558       -11.5256
 250   2.0000      -0.422106       -11.4861
 251   2.0000      -0.420594       -11.4449
 252   2.0000      -0.418682       -11.3929
 253   2.0000      -0.417917       -11.3721
 254   2.0000      -0.416696       -11.3389
 255   2.0000      -0.415580       -11.3085
 256   2.0000      -0.413956       -11.2643
 257   2.0000      -0.412639       -11.2285
 258   2.0000      -0.410267       -11.1639
 259   2.0000      -0.408471       -11.1151
 260   2.0000      -0.405581       -11.0364
 261   2.0000      -0.398939       -10.8557
 262   2.0000      -0.393447       -10.7062
 263   2.0000      -0.392451       -10.6791
 264   2.0000      -0.388665       -10.5761
 265   2.0000      -0.388220       -10.5640
 266   2.0000      -0.376231       -10.2378
 267   2.0000      -0.360106        -9.7990
 268   2.0000      -0.351583        -9.5671
 269   2.0000      -0.346022        -9.4157
 270   2.0000      -0.343992        -9.3605
 271   2.0000      -0.337257        -9.1772
 272   2.0000      -0.331081        -9.0092
 273   2.0000      -0.322779        -8.7833
 274   2.0000      -0.320209        -8.7133
 275   2.0000      -0.318682        -8.6718
 276   2.0000      -0.310344        -8.4449
 277   2.0000      -0.305863        -8.3229
 278   2.0000      -0.287588        -7.8257
 279   2.0000      -0.281332        -7.6554
 280   2.0000      -0.278890        -7.5890
 281   2.0000      -0.274006        -7.4561
 282   2.0000      -0.262992        -7.1564
 283   2.0000      -0.244461        -6.6521
 284   2.0000      -0.222057        -6.0425
 285   2.0000      -0.201921        -5.4945
 286   0.0000      -0.095277        -2.5926
 287   0.0000      -0.092181        -2.5084
 288   0.0000      -0.073019        -1.9869
 289   0.0000      -0.053899        -1.4667
 290   0.0000      -0.035260        -0.9595

MULLIKEN ATOMIC CHARGES
-----------------------
   0 C :   -0.073085
   1 C :    0.015589
   2 C :   -0.015460
   3 C :   -0.114030
   4 S :    0.183815
   5 C :   -0.091700
   6 C :    0.026873
   7 C :    0.292010
   8 C :   -0.298630
   9 C :   -0.211345
  10 N :    0.176122
  11 C :   -0.226606
  12 N :    0.180676
  13 C :   -0.061295
  14 C :   -0.082609
  15 S :    0.162081
  16 C :   -0.029732
  17 C :   -0.078701
  18 C :    0.061095
  19 C :    0.050546
  20 C :   -0.116404
  21 S :    0.169436
  22 C :   -0.106314
  23 C :    0.045310
  24 C :    0.003239
  25 C :   -0.068661
  26 S :    0.126247
  27 C :    0.091802
  28 C :   -0.032614
  29 C :   -0.040373
  30 C :   -0.026142
  31 C :   -0.053240
  32 C :    0.066716
  33 C :    0.063253
  34 C :   -0.119109
  35 S :    0.107101
  36 C :   -0.117082
  37 C :    0.054189
  38 C :   -0.009419
  39 C :   -0.071343
  40 S :    0.123759
  41 C :    0.074421
  42 C :    0.006079
  43 C :    0.013261
  44 C :   -0.058020
  45 C :   -0.047798
  46 C :    0.071894
  47 C :    0.059061
  48 C :   -0.129333
  49 S :    0.126636
  50 C :   -0.120867
  51 C :    0.059779
  52 C :   -0.012128
  53 C :   -0.068429
  54 S :    0.121924
  55 C :    0.067517
  56 C :   -0.018782
  57 C :    0.006482
  58 C :   -0.046014
  59 C :   -0.082936
  60 C :    0.022489
  61 C :   -0.111316
  62 S :    0.165784
  63 C :   -0.104510
  64 C :   -0.040930
  65 C :    0.313781
  66 C :   -0.321312
  67 C :   -0.206164
  68 N :    0.179561
  69 C :   -0.207072
  70 N :    0.170832
  71 C :    0.033941
  72 C :   -0.092073
  73 S :    0.179574
  74 H :    0.032489
  75 H :    0.007122
  76 H :    0.024645
  77 H :   -0.016894
  78 H :    0.040153
  79 H :   -0.015222
  80 H :    0.025068
  81 H :   -0.006018
  82 H :    0.001271
  83 H :   -0.022394
  84 H :    0.032651
  85 H :   -0.012451
  86 H :    0.023362
  87 H :   -0.032088
  88 H :   -0.038226
  89 H :   -0.035115
  90 H :    0.031746
  91 H :   -0.017247
  92 H :    0.022921
  93 H :   -0.025812
  94 H :   -0.037059
  95 H :   -0.003321
  96 H :    0.014467
  97 H :    0.044658
Sum of atomic charges:   -0.0000000

LOEWDIN ATOMIC CHARGES
----------------------
   0 C :   -0.177854
   1 C :   -0.044917
   2 C :   -0.070601
   3 C :   -0.183221
   4 S :    0.480214
   5 C :   -0.174528
   6 C :   -0.056427
   7 C :    0.067425
   8 C :   -0.115102
   9 C :   -0.018791
  10 N :   -0.049674
  11 C :   -0.026587
  12 N :   -0.048568
  13 C :   -0.044757
  14 C :   -0.173826
  15 S :    0.483073
  16 C :   -0.183975
  17 C :   -0.022931
  18 C :   -0.014344
  19 C :   -0.048309
  20 C :   -0.137462
  21 S :    0.504503
  22 C :   -0.203564
  23 C :   -0.039246
  24 C :   -0.066031
  25 C :   -0.165037
  26 S :    0.418818
  27 C :   -0.056360
  28 C :   -0.018319
  29 C :   -0.063931
  30 C :   -0.146861
  31 C :   -0.033964
  32 C :   -0.010057
  33 C :   -0.052493
  34 C :   -0.143597
  35 S :    0.455249
  36 C :   -0.202163
  37 C :   -0.038408
  38 C :   -0.068748
  39 C :   -0.169573
  40 S :    0.421264
  41 C :   -0.061094
  42 C :    0.006047
  43 C :   -0.082747
  44 C :   -0.146720
  45 C :   -0.036138
  46 C :   -0.003822
  47 C :   -0.051158
  48 C :   -0.147625
  49 S :    0.452707
  50 C :   -0.206065
  51 C :   -0.036258
  52 C :   -0.069941
  53 C :   -0.168243
  54 S :    0.418031
  55 C :   -0.072030
  56 C :    0.005396
  57 C :   -0.086816
  58 C :   -0.145405
  59 C :   -0.058243
  60 C :   -0.054900
  61 C :   -0.205207
  62 S :    0.462092
  63 C :   -0.164302
  64 C :   -0.078898
  65 C :    0.073812
  66 C :   -0.122666
  67 C :   -0.021470
  68 N :   -0.054993
  69 C :   -0.020998
  70 N :   -0.059437
  71 C :   -0.036131
  72 C :   -0.171695
  73 S :    0.477172
  74 H :    0.025907
  75 H :    0.040115
  76 H :    0.034530
  77 H :    0.026903
  78 H :    0.039188
  79 H :    0.029835
  80 H :    0.022909
  81 H :    0.018559
  82 H :    0.032169
  83 H :    0.035510
  84 H :    0.035065
  85 H :    0.027536
  86 H :    0.022588
  87 H :    0.025317
  88 H :    0.020647
  89 H :    0.032003
  90 H :    0.034659
  91 H :    0.027095
  92 H :    0.022168
  93 H :    0.026026
  94 H :    0.022622
  95 H :    0.033834
  96 H :    0.042449
  97 H :    0.029791

  Mayer bond orders larger than 0.100000
B(  0-C ,  1-C ) :   1.5439 B(  0-C ,  4-S ) :   1.1445 B(  0-C , 74-H ) :   0.9645
B(  1-C ,  2-C ) :   1.2662 B(  1-C , 75-H ) :   1.0006 B(  2-C ,  3-C ) :   1.4343
B(  2-C ,  7-C ) :   1.0285 B(  3-C ,  4-S ) :   1.1223 B(  3-C ,  5-C ) :   1.2213
B(  5-C ,  6-C ) :   1.4237 B(  5-C , 15-S ) :   1.1052 B(  6-C ,  7-C ) :   0.9907
B(  6-C , 13-C ) :   1.3150 B(  7-C ,  8-C ) :   1.6877 B(  8-C ,  9-C ) :   1.1312
B(  8-C , 11-C ) :   1.1405 B(  9-C , 10-N ) :   2.9825 B( 11-C , 12-N ) :   3.0042
B( 13-C , 14-C ) :   1.4113 B( 13-C , 76-H ) :   0.9847 B( 14-C , 15-S ) :   1.1057
B( 14-C , 16-C ) :   1.1732 B( 16-C , 17-C ) :   1.5025 B( 16-C , 21-S ) :   1.0777
B( 17-C , 18-C ) :   1.2580 B( 17-C , 77-H ) :   0.9646 B( 18-C , 19-C ) :   1.0580
B( 18-C , 27-C ) :   1.3646 B( 19-C , 20-C ) :   1.5882 B( 19-C , 22-C ) :   1.1852
B( 20-C , 21-S ) :   1.1648 B( 20-C , 78-H ) :   0.9417 B( 22-C , 23-C ) :   1.4382
B( 22-C , 26-S ) :   1.0715 B( 23-C , 24-C ) :   1.2156 B( 23-C , 27-C ) :   1.1066
B( 24-C , 25-C ) :   1.5897 B( 24-C , 79-H ) :   0.9963 B( 25-C , 26-S ) :   1.1532
B( 25-C , 80-H ) :   0.9658 B( 27-C , 28-C ) :   1.1894 B( 28-C , 29-C ) :   1.5804
B( 28-C , 81-H ) :   0.9397 B( 29-C , 30-C ) :   1.1593 B( 29-C , 82-H ) :   0.9861
B( 30-C , 31-C ) :   1.5036 B( 30-C , 35-S ) :   1.0487 B( 31-C , 32-C ) :   1.2268
B( 31-C , 83-H ) :   0.9773 B( 32-C , 33-C ) :   1.0572 B( 32-C , 41-C ) :   1.3506
B( 33-C , 34-C ) :   1.6070 B( 33-C , 36-C ) :   1.1752 B( 34-C , 35-S ) :   1.1394
B( 34-C , 84-H ) :   0.9413 B( 36-C , 37-C ) :   1.4629 B( 36-C , 40-S ) :   1.0776
B( 37-C , 38-C ) :   1.2086 B( 37-C , 41-C ) :   1.0696 B( 38-C , 39-C ) :   1.5857
B( 38-C , 85-H ) :   0.9977 B( 39-C , 40-S ) :   1.1563 B( 39-C , 86-H ) :   0.9654
B( 41-C , 42-C ) :   1.2187 B( 42-C , 43-C ) :   1.6154 B( 42-C , 87-H ) :   0.9517
B( 43-C , 44-C ) :   1.1278 B( 43-C , 88-H ) :   0.9599 B( 44-C , 45-C ) :   1.5069
B( 44-C , 49-S ) :   1.0652 B( 45-C , 46-C ) :   1.2717 B( 45-C , 89-H ) :   0.9634
B( 46-C , 47-C ) :   1.0535 B( 46-C , 55-C ) :   1.3371 B( 47-C , 48-C ) :   1.6057
B( 47-C , 50-C ) :   1.1808 B( 48-C , 49-S ) :   1.1395 B( 48-C , 90-H ) :   0.9409
B( 50-C , 51-C ) :   1.4545 B( 50-C , 54-S ) :   1.0731 B( 51-C , 52-C ) :   1.2104
B( 51-C , 55-C ) :   1.0849 B( 52-C , 53-C ) :   1.5846 B( 52-C , 91-H ) :   0.9979
B( 53-C , 54-S ) :   1.1564 B( 53-C , 92-H ) :   0.9654 B( 55-C , 56-C ) :   1.2017
B( 56-C , 57-C ) :   1.6073 B( 56-C , 93-H ) :   0.9606 B( 57-C , 58-C ) :   1.1347
B( 57-C , 94-H ) :   0.9625 B( 58-C , 59-C ) :   1.4161 B( 58-C , 62-S ) :   1.1106
B( 59-C , 60-C ) :   1.3087 B( 59-C , 95-H ) :   0.9953 B( 60-C , 61-C ) :   1.4156
B( 60-C , 65-C ) :   0.9951 B( 61-C , 62-S ) :   1.0884 B( 61-C , 63-C ) :   1.2404
B( 63-C , 64-C ) :   1.4014 B( 63-C , 73-S ) :   1.1224 B( 64-C , 65-C ) :   1.0208
B( 64-C , 71-C ) :   1.2805 B( 65-C , 66-C ) :   1.6820 B( 66-C , 67-C ) :   1.1459
B( 66-C , 69-C ) :   1.1523 B( 67-C , 68-N ) :   2.9503 B( 69-C , 70-N ) :   2.9646
B( 71-C , 72-C ) :   1.5094 B( 71-C , 96-H ) :   1.0006 B( 72-C , 73-S ) :   1.1268
B( 72-C , 97-H ) :   0.9678

-----------------------------------------------------------------------------
         ABSORPTION SPECTRUM VIA TRANSITION ELECTRIC DIPOLE MOMENTS
-----------------------------------------------------------------------------
State   Energy  Wavelength   fosc         T2         TX        TY        TZ
        (cm-1)    (nm)                  (au**2)     (au)      (au)      (au)
-----------------------------------------------------------------------------
   0    8723.4   1146.3   0.055444906   2.09244  -1.00335  -1.01294  -0.24426
   1    9739.5   1026.7   0.029263364   0.98915   0.85565   0.46613  -0.19931
   2   12393.4    806.9   0.054357299   1.44392   0.80024   0.79196   0.41991
   3   13296.6    752.1   0.130184117   3.22324   0.37941   1.66993   0.53911
   4   14253.2    701.6   0.434492011  10.03563   0.87459  -2.41939   1.84859
   5   17425.8    573.9   0.052022047   0.98281   0.45950   0.85182   0.21463
   6   18100.5    552.5   0.079593515   1.44764  -0.09424   1.01732  -0.63547
   7   18509.3    540.3   0.481631401   8.56645  -2.03584  -2.08651  -0.26128
   8   18976.7    527.0   0.640613028  11.11352   3.08416   0.64731   1.08742
   9   20082.2    498.0   0.121232700   1.98740   0.95185   0.20526   1.01944
  10   21006.8    476.0   0.024291375   0.38069   0.05639  -0.56736   0.23581
  11   21543.9    464.2   0.097550105   1.49066  -0.78731   0.89768  -0.25488
  12   21855.6    457.5   0.289291184   4.35761  -1.62341  -1.30940   0.08744
  13   22406.1    446.3   0.257872755   3.78891   0.43385   1.49293  -1.17126
  14   23206.4    430.9   0.016670118   0.23649   0.45665  -0.10286   0.13182
  15   23460.1    426.3   0.247575881   3.47420   0.02467  -0.60895   1.76147
  16   24300.3    411.5   0.030752314   0.41662  -0.02416   0.37798   0.52266
  17   24952.7    400.8   0.091561632   1.20801   1.02201  -0.39660  -0.07890
  18   25352.3    394.4   0.030438173   0.39525  -0.11080  -0.12406   0.60629
  19   26018.5    384.3   0.099404697   1.25777   0.39919   0.62039  -0.84471
  20   26423.5    378.5   0.600427062   7.48075  -0.53671   1.51967  -2.20981
  21   26633.5    375.5   0.063052882   0.77938  -0.06051   0.65169  -0.59247
  22   27213.8    367.5   0.176799799   2.13879   0.88451   1.16169  -0.08313
  23   27515.7    363.4   0.381670927   4.56650  -0.05741   1.86757  -1.03700
  24   27663.3    361.5   0.078363031   0.93257  -0.40460   0.39066   0.78502
  25   27892.8    358.5   0.036389585   0.42950  -0.49145  -0.37708  -0.21397
  26   28114.8    355.7   0.108596080   1.27161  -1.05254  -0.19835  -0.35274
  27   28571.9    350.0   0.027989549   0.32250   0.09554   0.28266   0.48320
  28   28804.5    347.2   0.122318341   1.39800   0.90498   0.74981  -0.12962
  29   29152.7    343.0   0.045080124   0.50908  -0.28534   0.21105  -0.61897
  30   29747.1    336.2   0.049006278   0.54235  -0.63339   0.16208  -0.33897
  31   29930.1    334.1   0.022124678   0.24336   0.46828  -0.15484  -0.00996
  32   30202.5    331.1   0.392790589   4.28148  -0.61483  -1.69422   1.01640
  33   30398.6    329.0   0.009485397   0.10273   0.12087   0.26956  -0.12432
  34   30713.7    325.6   0.185863691   1.99222  -0.63936   0.81048  -0.96258
  35   30832.3    324.3   0.048401407   0.51681   0.51681   0.25700   0.42855
  36   31416.3    318.3   0.007199681   0.07545   0.25481   0.07102  -0.07400
  37   31542.8    317.0   0.328788854   3.43156  -1.16690  -0.33034  -1.40028
  38   31770.9    314.8   0.008540364   0.08850   0.01103   0.27824   0.10467
  39   31915.9    313.3   0.089330587   0.92144   0.45500   0.62888  -0.56474
  40   32112.4    311.4   0.118568090   1.21554   0.16619   0.74871  -0.79206
  41   32261.6    310.0   0.176745649   1.80359   0.54834   1.06750  -0.60279
  42   32454.8    308.1   0.007858866   0.07972  -0.20841  -0.00945  -0.19025
  43   32700.9    305.8   0.322137417   3.24308  -0.47002   0.46368  -1.67546
  44   33383.6    299.5   0.184096994   1.81547   1.01687   0.80580  -0.36350
  45   33675.9    296.9   0.182498018   1.78408   0.83926   0.87753   0.55648
  46   33995.3    294.2   0.412900214   3.99854   1.50291   1.27044  -0.35467
  47   34254.6    291.9   0.030569254   0.29379  -0.24027   0.33367   0.35317
  48   34367.0    291.0   0.338764271   3.24512   0.69165   1.00813   1.32303
  49   34930.0    286.3   0.217501307   2.04993  -0.79881  -1.17692   0.16336
  50   35433.3    282.2   0.605459833   5.62535   1.34849   0.07030   1.94987
  51   35455.0    282.0   0.154595187   1.43547   0.71002  -0.26820   0.92704
  52   35668.1    280.4   0.108516627   1.00159  -0.71697  -0.66420  -0.21535
  53   35920.5    278.4   0.054210358   0.49684  -0.35312  -0.48270   0.37302
  54   36062.2    277.3   0.022002495   0.20086  -0.25000  -0.21349  -0.30460
  55   36145.7    276.7   0.014064960   0.12810  -0.16721   0.30034   0.09969
  56   36344.6    275.1   0.224669976   2.03508   0.44194  -0.16678   1.34609
  57   36675.6    272.7   0.064329226   0.57744  -0.43343   0.24822  -0.57268
  58   36920.1    270.9   0.065380160   0.58299   0.34827  -0.57449   0.36284
  59   37099.1    269.5   0.026926962   0.23895  -0.28601  -0.32936  -0.22061
  60   37197.3    268.8   0.077681241   0.68751  -0.04767   0.68366  -0.46674
  61   37310.2    268.0   0.024699797   0.21794  -0.11835  -0.10965   0.43808
  62   37504.3    266.6   0.025966695   0.22794  -0.17075   0.30964  -0.32078
  63   37575.3    266.1   0.115719117   1.01386  -0.35436  -0.89893   0.28321
  64   37589.8    266.0   0.055381859   0.48503   0.48363   0.37123   0.33664
  65   38296.2    261.1   0.158120119   1.35927  -0.28443   0.47425  -1.02638
  66   38426.9    260.2   0.077858052   0.66703  -0.08939   0.33051  -0.74148
  67   38526.2    259.6   0.128006923   1.09384   0.10085  -0.40618   0.95848
  68   38772.1    257.9   0.059199157   0.50266  -0.04979  -0.25194   0.66084
  69   38872.1    257.3   0.018439832   0.15617  -0.16657  -0.15335   0.32389
  70   38990.4    256.5   0.084507936   0.71354  -0.32641   0.02308  -0.77875
  71   39205.5    255.1   0.056658134   0.47576  -0.65556  -0.02952  -0.21244
  72   39363.8    254.0   0.100562271   0.84103  -0.82380  -0.04286  -0.40068
  73   39605.4    252.5   0.028926304   0.24044  -0.18676  -0.38949   0.23208
  74   39711.2    251.8   0.066264612   0.54934  -0.64421  -0.29810  -0.21326
  75   39929.9    250.4   0.029559510   0.24371   0.40925   0.22356   0.16201
  76   40092.1    249.4   0.015962115   0.13107  -0.13035   0.24523  -0.23225
  77   40236.4    248.5   0.010530106   0.08616   0.26974  -0.11510  -0.01217
  78   40323.9    248.0   0.003347665   0.02733  -0.01063  -0.13390  -0.09638

FINAL SINGLE POINT ENERGY     -6497.067102631985

DIPOLE MOMENT
-------------
                                X             Y             Z
Electronic contribution:     13.11879      18.77234       1.18428
Nuclear contribution   :    -14.54429     -20.45658      -0.35626
                        -----------------------------------------
Total Dipole Moment    :     -1.42550      -1.68423       0.82802
                        -----------------------------------------
Magnitude (a.u.)       :      2.35676
Magnitude (Debye)      :      5.99041

Rotational constants in cm-1:     0.000744     0.000636     0.000377
Rotational constants in MHz :    22.297638    19.074589    11.301529

                             ****ORCA TERMINATED NORMALLY****
TOTAL RUN TIME: 0 days 0 hours 19 minutes 25 seconds 882 msec
