                         Program Version 4.2.0 -  RELEASE  -
|  1> # ORCA input file
|  2> # SCF done       -162.701988027997          0.000472129289
|  3> ! CAM-B3LYP def2-SVP def2/J RIJCOSX Grid4 TightSCF
|  4> %maxcore 5000
|  5> %tddft
|  6>     Mode sTDDFT
|  7>     Ethresh 5.0
|  8>     maxcore 5000
|  9> end
| 10>
| 11> %pal
| 12>   nprocs 6
| 13>   end
| 14> * xyz 0 1
| 15>    C        7.88500        -2.80803         4.95187
| 16>    C        9.10073        -2.30713         4.49071
| 17>    C        9.54938        -2.94532         3.35619
| 18>    S       11.02390        -2.56728         2.51914
| 19>    C       10.92979        -3.70210         1.10773
| 20>    S        8.45937        -4.19330         2.85403
| 21>    C        7.38102        -3.84300         4.18561
| 22>    C        6.18072        -4.58207         4.30159
| 23>    C        5.25973        -4.42201         5.29073
| 24>    C        4.02888        -5.11505         5.38909
| 25>    C        3.32785        -5.32144         6.55274
| 26>    C        2.25649        -6.22850         6.28220
| 27>    C        1.31958        -6.66956         7.22291
| 28>    N        0.55702        -7.03957         7.99860
| 29>    C        2.29711        -6.60104         4.94779
| 30>    C        3.34739        -5.88933         4.32289
| 31>    C        3.54276        -5.76101         2.95426
| 32>    C        3.13790        -6.70157         1.89388
| 33>    C        3.26029        -6.03421         0.69023
| 34>    C        3.76332        -4.72551         0.94048
| 35>    C        3.96387        -4.57257         2.30343
| 36>    C        4.01636        -3.76199        -0.04069
| 37>    N        4.22877        -2.98399        -0.85952
| 38>    C        2.86236        -8.08187         1.99975
| 39>    C        3.13649        -8.86788         3.08004
| 40>    C        2.86851       -10.25139         3.19892
| 41>    C        2.30821       -11.04863         2.21269
| 42>    C        2.07396       -12.40477         2.33198
| 43>    C        2.37108       -13.13762         3.55774
| 44>    C        2.90915       -12.57036         4.66183
| 45>    S        3.32217       -10.91099         4.76034
| 46>    C        2.03142       -14.49317         3.28013
| 47>    C        1.59844       -14.62400         1.95824
| 48>    C        1.26435       -15.96248         1.65033
| 49>    C        1.44914       -16.78521         2.71566
| 50>    S        2.03551       -15.98196         4.13120
| 51>    C        1.61300       -13.32405         1.33666
| 52>    C        1.38490       -12.95622         0.01194
| 53>    C        1.19841       -13.79205        -1.06826
| 54>    C        1.25749       -13.39135        -2.40602
| 55>    C        0.73738       -14.11022        -3.47471
| 56>    C        0.79955       -13.30022        -4.62967
| 57>    C        0.36783       -13.68257        -5.90617
| 58>    N        0.01143       -13.99890        -6.95098
| 59>    C        1.36586       -12.06378        -4.30336
| 60>    C        1.73163       -12.08722        -2.94900
| 61>    C        2.53144       -11.15169        -2.29774
| 62>    C        2.64758        -9.71903        -2.61883
| 63>    C        3.59097        -9.18688        -1.77550
| 64>    C        4.10266       -10.23214        -0.93653
| 65>    C        3.45735       -11.41395        -1.25077
| 66>    C        5.03592       -10.06042         0.08799
| 67>    N        5.75877        -9.91269         0.97046
| 68>    C        1.79776        -9.02382        -3.53115
| 69>    C        2.01568        -7.76450        -3.96941
| 70>    C        1.18790        -7.07304        -4.91462
| 71>    C        0.25700        -7.70440        -5.78226
| 72>    C       -0.31328        -6.85647        -6.68092
| 73>    S       -1.49414        -7.30584        -7.88511
| 74>    C       -1.72916        -5.72993        -8.75329
| 75>    S        0.27395        -5.22976        -6.49112
| 76>    C        1.29297        -5.70958        -5.16716
| 77>    C        2.05144        -4.69081        -4.49392
| 78>    C        2.38010        -4.69749        -3.20320
| 79>    H        7.38295        -2.42556         5.82164
| 80>    H        9.64446        -1.50404         4.95340
| 81>    H       11.81780        -3.52269         0.51043
| 82>    H       10.03606        -3.48693         0.52895
| 83>    H       10.91678        -4.72764         1.46582
| 84>    H        6.01263        -5.32726         3.53615
| 85>    H        5.48998        -3.76503         6.11976
| 86>    H        3.55824        -4.91959         7.52152
| 87>    H        1.56975        -7.21169         4.44749
| 88>    H        3.05360        -6.43824        -0.28299
| 89>    H        4.25973        -3.66408         2.79235
| 90>    H        2.46479        -8.53158         1.09845
| 91>    H        3.61967        -8.41728         3.93571
| 92>    H        2.06397       -10.56261         1.28000
| 93>    H        3.13390       -13.13281         5.55401
| 94>    H        0.90078       -16.31569         0.70323
| 95>    H        1.27457       -17.84219         2.76432
| 96>    H        1.41771       -11.89587        -0.19297
| 97>    H        0.96821       -14.83439        -0.89510
| 98>    H        0.30233       -15.09109        -3.42969
| 99>    H        1.61593       -11.29991        -5.01479
|100>    H        3.91000        -8.16325        -1.71798
|101>    H        3.68912       -12.37987        -0.84405
|102>    H        0.91368        -9.55171        -3.85839
|103>    H        2.89368        -7.22934        -3.63608
|104>    H        0.03256        -8.75472        -5.76965
|105>    H       -2.44802        -5.92206        -9.54305
|106>    H       -0.78366        -5.40287        -9.17622
|107>    H       -2.11823        -4.98724        -8.06253
|108>    H        2.32152        -3.83980        -5.10727
|109>    H        2.05448        -5.48010        -2.53910
|110>    H        2.95672        -3.90105        -2.76632
|111> *
|112>
|113>                          ****END OF INPUT****

CARTESIAN COORDINATES (ANGSTROEM)
---------------------------------
  C      7.885000   -2.808030    4.951870
  C      9.100730   -2.307130    4.490710
  C      9.549380   -2.945320    3.356190
  S     11.023900   -2.567280    2.519140
  C     10.929790   -3.702100    1.107730
  S      8.459370   -4.193300    2.854030
  C      7.381020   -3.843000    4.185610
  C      6.180720   -4.582070    4.301590
  C      5.259730   -4.422010    5.290730
  C      4.028880   -5.115050    5.389090
  C      3.327850   -5.321440    6.552740
  C      2.256490   -6.228500    6.282200
  C      1.319580   -6.669560    7.222910
  N      0.557020   -7.039570    7.998600
  C      2.297110   -6.601040    4.947790
  C      3.347390   -5.889330    4.322890
  C      3.542760   -5.761010    2.954260
  C      3.137900   -6.701570    1.893880
  C      3.260290   -6.034210    0.690230
  C      3.763320   -4.725510    0.940480
  C      3.963870   -4.572570    2.303430
  C      4.016360   -3.761990   -0.040690
  N      4.228770   -2.983990   -0.859520
  C      2.862360   -8.081870    1.999750
  C      3.136490   -8.867880    3.080040
  C      2.868510  -10.251390    3.198920
  C      2.308210  -11.048630    2.212690
  C      2.073960  -12.404770    2.331980
  C      2.371080  -13.137620    3.557740
  C      2.909150  -12.570360    4.661830
  S      3.322170  -10.910990    4.760340
  C      2.031420  -14.493170    3.280130
  C      1.598440  -14.624000    1.958240
  C      1.264350  -15.962480    1.650330
  C      1.449140  -16.785210    2.715660
  S      2.035510  -15.981960    4.131200
  C      1.613000  -13.324050    1.336660
  C      1.384900  -12.956220    0.011940
  C      1.198410  -13.792050   -1.068260
  C      1.257490  -13.391350   -2.406020
  C      0.737380  -14.110220   -3.474710
  C      0.799550  -13.300220   -4.629670
  C      0.367830  -13.682570   -5.906170
  N      0.011430  -13.998900   -6.950980
  C      1.365860  -12.063780   -4.303360
  C      1.731630  -12.087220   -2.949000
  C      2.531440  -11.151690   -2.297740
  C      2.647580   -9.719030   -2.618830
  C      3.590970   -9.186880   -1.775500
  C      4.102660  -10.232140   -0.936530
  C      3.457350  -11.413950   -1.250770
  C      5.035920  -10.060420    0.087990
  N      5.758770   -9.912690    0.970460
  C      1.797760   -9.023820   -3.531150
  C      2.015680   -7.764500   -3.969410
  C      1.187900   -7.073040   -4.914620
  C      0.257000   -7.704400   -5.782260
  C     -0.313280   -6.856470   -6.680920
  S     -1.494140   -7.305840   -7.885110
  C     -1.729160   -5.729930   -8.753290
  S      0.273950   -5.229760   -6.491120
  C      1.292970   -5.709580   -5.167160
  C      2.051440   -4.690810   -4.493920
  C      2.380100   -4.697490   -3.203200
  H      7.382950   -2.425560    5.821640
  H      9.644460   -1.504040    4.953400
  H     11.817800   -3.522690    0.510430
  H     10.036060   -3.486930    0.528950
  H     10.916780   -4.727640    1.465820
  H      6.012630   -5.327260    3.536150
  H      5.489980   -3.765030    6.119760
  H      3.558240   -4.919590    7.521520
  H      1.569750   -7.211690    4.447490
  H      3.053600   -6.438240   -0.282990
  H      4.259730   -3.664080    2.792350
  H      2.464790   -8.531580    1.098450
  H      3.619670   -8.417280    3.935710
  H      2.063970  -10.562610    1.280000
  H      3.133900  -13.132810    5.554010
  H      0.900780  -16.315690    0.703230
  H      1.274570  -17.842190    2.764320
  H      1.417710  -11.895870   -0.192970
  H      0.968210  -14.834390   -0.895100
  H      0.302330  -15.091090   -3.429690
  H      1.615930  -11.299910   -5.014790
  H      3.910000   -8.163250   -1.717980
  H      3.689120  -12.379870   -0.844050
  H      0.913680   -9.551710   -3.858390
  H      2.893680   -7.229340   -3.636080
  H      0.032560   -8.754720   -5.769650
  H     -2.448020   -5.922060   -9.543050
  H     -0.783660   -5.402870   -9.176220
  H     -2.118230   -4.987240   -8.062530
  H      2.321520   -3.839800   -5.107270
  H      2.054480   -5.480100   -2.539100
  H      2.956720   -3.901050   -2.766320

 Total Charge           Charge          ....    0
 Multiplicity           Mult            ....    1
 Number of Electrons    NEL             ....  480
 Basis Dimension        Dim             .... 1080

ORBITAL ENERGIES
----------------

  NO   OCC          E(Eh)            E(eV)
   0   2.0000     -88.991908     -2421.5929
   1   2.0000     -88.971187     -2421.0291
   2   2.0000     -88.968728     -2420.9622
   3   2.0000     -88.947874     -2420.3947
   4   2.0000     -88.947623     -2420.3879
   5   2.0000     -88.926146     -2419.8034
   6   2.0000     -14.415376      -392.2623
   7   2.0000     -14.413974      -392.2242
   8   2.0000     -14.401882      -391.8951
   9   2.0000     -14.396434      -391.7469
  10   2.0000     -10.341100      -281.3956
  11   2.0000     -10.340987      -281.3926
  12   2.0000     -10.333766      -281.1961
  13   2.0000     -10.329870      -281.0901
  14   2.0000     -10.326509      -280.9986
  15   2.0000     -10.325942      -280.9832
  16   2.0000     -10.320254      -280.8284
  17   2.0000     -10.314006      -280.6584
  18   2.0000     -10.313658      -280.6489
  19   2.0000     -10.313127      -280.6344
  20   2.0000     -10.310449      -280.5616
  21   2.0000     -10.309661      -280.5401
  22   2.0000     -10.308964      -280.5212
  23   2.0000     -10.308947      -280.5207
  24   2.0000     -10.308903      -280.5195
  25   2.0000     -10.307712      -280.4871
  26   2.0000     -10.307707      -280.4870
  27   2.0000     -10.304849      -280.4092
  28   2.0000     -10.304772      -280.4071
  29   2.0000     -10.303557      -280.3740
  30   2.0000     -10.303217      -280.3648
  31   2.0000     -10.301588      -280.3205
  32   2.0000     -10.300608      -280.2938
  33   2.0000     -10.300130      -280.2808
  34   2.0000     -10.299819      -280.2723
  35   2.0000     -10.299580      -280.2658
  36   2.0000     -10.297816      -280.2178
  37   2.0000     -10.297695      -280.2145
  38   2.0000     -10.297551      -280.2106
  39   2.0000     -10.297182      -280.2006
  40   2.0000     -10.294955      -280.1400
  41   2.0000     -10.294747      -280.1343
  42   2.0000     -10.294428      -280.1256
  43   2.0000     -10.293041      -280.0879
  44   2.0000     -10.292794      -280.0812
  45   2.0000     -10.292341      -280.0688
  46   2.0000     -10.291888      -280.0565
  47   2.0000     -10.290068      -280.0070
  48   2.0000     -10.288757      -279.9713
  49   2.0000     -10.286921      -279.9214
  50   2.0000     -10.286784      -279.9176
  51   2.0000     -10.286020      -279.8968
  52   2.0000     -10.282623      -279.8044
  53   2.0000     -10.276827      -279.6467
  54   2.0000     -10.273840      -279.5654
  55   2.0000     -10.271976      -279.5147
  56   2.0000     -10.271168      -279.4927
  57   2.0000     -10.271046      -279.4894
  58   2.0000     -10.268655      -279.4243
  59   2.0000     -10.267166      -279.3838
  60   2.0000     -10.266783      -279.3734
  61   2.0000     -10.265565      -279.3402
  62   2.0000     -10.258593      -279.1505
  63   2.0000     -10.254290      -279.0334
  64   2.0000      -8.087173      -220.0632
  65   2.0000      -8.066556      -219.5021
  66   2.0000      -8.064262      -219.4397
  67   2.0000      -8.043501      -218.8748
  68   2.0000      -8.043372      -218.8713
  69   2.0000      -8.021827      -218.2850
  70   2.0000      -6.056463      -164.8047
  71   2.0000      -6.051973      -164.6826
  72   2.0000      -6.049543      -164.6164
  73   2.0000      -6.036002      -164.2480
  74   2.0000      -6.033640      -164.1837
  75   2.0000      -6.031711      -164.1312
  76   2.0000      -6.029409      -164.0686
  77   2.0000      -6.028544      -164.0450
  78   2.0000      -6.026345      -163.9852
  79   2.0000      -6.013715      -163.6415
  80   2.0000      -6.013011      -163.6223
  81   2.0000      -6.009592      -163.5293
  82   2.0000      -6.008699      -163.5050
  83   2.0000      -6.005358      -163.4141
  84   2.0000      -6.003167      -163.3545
  85   2.0000      -5.992309      -163.0590
  86   2.0000      -5.988216      -162.9477
  87   2.0000      -5.981351      -162.7608
  88   2.0000      -1.021200       -27.7883
  89   2.0000      -1.017639       -27.6914
  90   2.0000      -1.004445       -27.3323
  91   2.0000      -0.999314       -27.1927
  92   2.0000      -0.996818       -27.1248
  93   2.0000      -0.992637       -27.0110
  94   2.0000      -0.988014       -26.8852
  95   2.0000      -0.986674       -26.8488
  96   2.0000      -0.980859       -26.6905
  97   2.0000      -0.978130       -26.6163
  98   2.0000      -0.976206       -26.5639
  99   2.0000      -0.961359       -26.1599
 100   2.0000      -0.945116       -25.7179
 101   2.0000      -0.925360       -25.1803
 102   2.0000      -0.923185       -25.1211
 103   2.0000      -0.902747       -24.5650
 104   2.0000      -0.900231       -24.4965
 105   2.0000      -0.898409       -24.4469
 106   2.0000      -0.886347       -24.1187
 107   2.0000      -0.880774       -23.9671
 108   2.0000      -0.876087       -23.8395
 109   2.0000      -0.860416       -23.4131
 110   2.0000      -0.858195       -23.3527
 111   2.0000      -0.854558       -23.2537
 112   2.0000      -0.851178       -23.1617
 113   2.0000      -0.839859       -22.8537
 114   2.0000      -0.836038       -22.7498
 115   2.0000      -0.828733       -22.5510
 116   2.0000      -0.824213       -22.4280
 117   2.0000      -0.808785       -22.0081
 118   2.0000      -0.805536       -21.9197
 119   2.0000      -0.799812       -21.7640
 120   2.0000      -0.798500       -21.7283
 121   2.0000      -0.785610       -21.3775
 122   2.0000      -0.777484       -21.1564
 123   2.0000      -0.772277       -21.0147
 124   2.0000      -0.751971       -20.4622
 125   2.0000      -0.748025       -20.3548
 126   2.0000      -0.737807       -20.0768
 127   2.0000      -0.728648       -19.8275
 128   2.0000      -0.724106       -19.7039
 129   2.0000      -0.714090       -19.4314
 130   2.0000      -0.710212       -19.3258
 131   2.0000      -0.702091       -19.1049
 132   2.0000      -0.693425       -18.8691
 133   2.0000      -0.692443       -18.8423
 134   2.0000      -0.679776       -18.4977
 135   2.0000      -0.674595       -18.3566
 136   2.0000      -0.665079       -18.0977
 137   2.0000      -0.651140       -17.7184
 138   2.0000      -0.650569       -17.7029
 139   2.0000      -0.643378       -17.5072
 140   2.0000      -0.640900       -17.4398
 141   2.0000      -0.637099       -17.3363
 142   2.0000      -0.627609       -17.0781
 143   2.0000      -0.624404       -16.9909
 144   2.0000      -0.621931       -16.9236
 145   2.0000      -0.612257       -16.6604
 146   2.0000      -0.603064       -16.4102
 147   2.0000      -0.599226       -16.3058
 148   2.0000      -0.596678       -16.2364
 149   2.0000      -0.592973       -16.1356
 150   2.0000      -0.591117       -16.0851
 151   2.0000      -0.587831       -15.9957
 152   2.0000      -0.582275       -15.8445
 153   2.0000      -0.577925       -15.7261
 154   2.0000      -0.575625       -15.6636
 155   2.0000      -0.567803       -15.4507
 156   2.0000      -0.560945       -15.2641
 157   2.0000      -0.540746       -14.7145
 158   2.0000      -0.538843       -14.6627
 159   2.0000      -0.532367       -14.4864
 160   2.0000      -0.530686       -14.4407
 161   2.0000      -0.528957       -14.3937
 162   2.0000      -0.527764       -14.3612
 163   2.0000      -0.527019       -14.3409
 164   2.0000      -0.525643       -14.3035
 165   2.0000      -0.523205       -14.2371
 166   2.0000      -0.521450       -14.1894
 167   2.0000      -0.519582       -14.1386
 168   2.0000      -0.514950       -14.0125
 169   2.0000      -0.512742       -13.9524
 170   2.0000      -0.511340       -13.9143
 171   2.0000      -0.511016       -13.9054
 172   2.0000      -0.507973       -13.8226
 173   2.0000      -0.503098       -13.6900
 174   2.0000      -0.499836       -13.6012
 175   2.0000      -0.497483       -13.5372
 176   2.0000      -0.497002       -13.5241
 177   2.0000      -0.494720       -13.4620
 178   2.0000      -0.494038       -13.4435
 179   2.0000      -0.490471       -13.3464
 180   2.0000      -0.487520       -13.2661
 181   2.0000      -0.486505       -13.2385
 182   2.0000      -0.485831       -13.2201
 183   2.0000      -0.483949       -13.1689
 184   2.0000      -0.481562       -13.1040
 185   2.0000      -0.478246       -13.0137
 186   2.0000      -0.476313       -12.9611
 187   2.0000      -0.474831       -12.9208
 188   2.0000      -0.468354       -12.7446
 189   2.0000      -0.467425       -12.7193
 190   2.0000      -0.464785       -12.6475
 191   2.0000      -0.464026       -12.6268
 192   2.0000      -0.459670       -12.5083
 193   2.0000      -0.458512       -12.4767
 194   2.0000      -0.454421       -12.3654
 195   2.0000      -0.450912       -12.2699
 196   2.0000      -0.447927       -12.1887
 197   2.0000      -0.445341       -12.1183
 198   2.0000      -0.444086       -12.0842
 199   2.0000      -0.442744       -12.0477
 200   2.0000      -0.438891       -11.9428
 201   2.0000      -0.437349       -11.9009
 202   2.0000      -0.436719       -11.8837
 203   2.0000      -0.434208       -11.8154
 204   2.0000      -0.433560       -11.7978
 205   2.0000      -0.430088       -11.7033
 206   2.0000      -0.429661       -11.6917
 207   2.0000      -0.428146       -11.6504
 208   2.0000      -0.425930       -11.5901
 209   2.0000      -0.425073       -11.5668
 210   2.0000      -0.416598       -11.3362
 211   2.0000      -0.415830       -11.3153
 212   2.0000      -0.414095       -11.2681
 213   2.0000      -0.412151       -11.2152
 214   2.0000      -0.411718       -11.2034
 215   2.0000      -0.406605       -11.0643
 216   2.0000      -0.405818       -11.0429
 217   2.0000      -0.401828       -10.9343
 218   2.0000      -0.399678       -10.8758
 219   2.0000      -0.394991       -10.7482
 220   2.0000      -0.386437       -10.5155
 221   2.0000      -0.381557       -10.3827
 222   2.0000      -0.374090       -10.1795
 223   2.0000      -0.366788        -9.9808
 224   2.0000      -0.364042        -9.9061
 225   2.0000      -0.355865        -9.6836
 226   2.0000      -0.343613        -9.3502
 227   2.0000      -0.337507        -9.1840
 228   2.0000      -0.328125        -8.9287
 229   2.0000      -0.321069        -8.7367
 230   2.0000      -0.315292        -8.5795
 231   2.0000      -0.313873        -8.5409
 232   2.0000      -0.309766        -8.4291
 233   2.0000      -0.301636        -8.2079
 234   2.0000      -0.295649        -8.0450
 235   2.0000      -0.272320        -7.4102
 236   2.0000      -0.261582        -7.1180
 237   2.0000      -0.247499        -6.7348
 238   2.0000      -0.236955        -6.4479
 239   2.0000      -0.221956        -6.0397
 240   0.0000      -0.134192        -3.6516
 241   0.0000      -0.117259        -3.1908
 242   0.0000      -0.068278        -1.8579
 243   0.0000      -0.047861        -1.3024
 244   0.0000      -0.036588        -0.9956

MULLIKEN ATOMIC CHARGES
-----------------------
   0 C :    0.033039
   1 C :    0.038497
   2 C :   -0.136644
   3 S :    0.021562
   4 C :   -0.101364
   5 S :    0.125544
   6 C :   -0.120095
   7 C :    0.060851
   8 C :   -0.026736
   9 C :    0.091740
  10 C :   -0.032204
  11 C :   -0.092131
  12 C :   -0.124543
  13 N :    0.138334
  14 C :   -0.053846
  15 C :    0.048009
  16 C :    0.030394
  17 C :    0.079011
  18 C :   -0.006177
  19 C :   -0.100830
  20 C :   -0.033798
  21 C :   -0.085448
  22 N :    0.113067
  23 C :    0.022003
  24 C :    0.024633
  25 C :   -0.070798
  26 C :   -0.027021
  27 C :    0.072030
  28 C :    0.064577
  29 C :   -0.125265
  30 S :    0.177739
  31 C :   -0.114129
  32 C :    0.058239
  33 C :   -0.003020
  34 C :   -0.064997
  35 S :    0.140553
  36 C :    0.084440
  37 C :   -0.032655
  38 C :   -0.011300
  39 C :    0.097777
  40 C :   -0.054447
  41 C :   -0.082315
  42 C :   -0.126132
  43 N :    0.138102
  44 C :   -0.069136
  45 C :    0.056299
  46 C :    0.039028
  47 C :    0.089073
  48 C :   -0.059255
  49 C :   -0.138486
  50 C :   -0.072178
  51 C :   -0.133856
  52 N :    0.118554
  53 C :   -0.034022
  54 C :   -0.040389
  55 C :    0.134573
  56 C :   -0.009893
  57 C :   -0.130776
  58 S :    0.003131
  59 C :   -0.097117
  60 S :    0.095918
  61 C :   -0.146098
  62 C :    0.012844
  63 C :   -0.055237
  64 H :   -0.008979
  65 H :   -0.008240
  66 H :    0.073704
  67 H :    0.079235
  68 H :    0.077011
  69 H :    0.017041
  70 H :   -0.012677
  71 H :   -0.016404
  72 H :    0.004946
  73 H :   -0.029593
  74 H :    0.011291
  75 H :   -0.000761
  76 H :    0.009751
  77 H :   -0.007354
  78 H :    0.042133
  79 H :   -0.007801
  80 H :    0.031933
  81 H :    0.007545
  82 H :   -0.032785
  83 H :   -0.026135
  84 H :   -0.007263
  85 H :   -0.025380
  86 H :    0.000066
  87 H :   -0.010153
  88 H :   -0.009419
  89 H :   -0.021277
  90 H :    0.067193
  91 H :    0.070155
  92 H :    0.070612
  93 H :   -0.000051
  94 H :    0.023746
  95 H :    0.040691
Sum of atomic charges:   -0.0000000

LOEWDIN ATOMIC CHARGES
----------------------
   0 C :   -0.031360
   1 C :   -0.090601
   2 C :   -0.308983
   3 S :    0.314239
   4 C :   -0.158508
   5 S :    0.435743
   6 C :   -0.192876
   7 C :   -0.016537
   8 C :   -0.025458
   9 C :   -0.014870
  10 C :   -0.029735
  11 C :   -0.040363
  12 C :   -0.028255
  13 N :   -0.041754
  14 C :   -0.032072
  15 C :    0.047614
  16 C :    0.030119
  17 C :   -0.034145
  18 C :    0.009276
  19 C :   -0.068754
  20 C :    0.001636
  21 C :   -0.018445
  22 N :   -0.051875
  23 C :    0.013986
  24 C :   -0.047165
  25 C :   -0.140175
  26 C :   -0.010658
  27 C :    0.014406
  28 C :   -0.048143
  29 C :   -0.139147
  30 S :    0.495304
  31 C :   -0.198654
  32 C :   -0.037568
  33 C :   -0.063122
  34 C :   -0.159579
  35 S :    0.434741
  36 C :   -0.053878
  37 C :    0.014455
  38 C :   -0.012682
  39 C :    0.003553
  40 C :   -0.056225
  41 C :   -0.032439
  42 C :   -0.025632
  43 N :   -0.045709
  44 C :   -0.057410
  45 C :    0.034769
  46 C :    0.010316
  47 C :   -0.039111
  48 C :   -0.024854
  49 C :   -0.097132
  50 C :   -0.020640
  51 C :   -0.032751
  52 N :   -0.081929
  53 C :   -0.034879
  54 C :   -0.011444
  55 C :   -0.051950
  56 C :   -0.092423
  57 C :   -0.311770
  58 S :    0.293288
  59 C :   -0.162258
  60 S :    0.416475
  61 C :   -0.182900
  62 C :   -0.043580
  63 C :   -0.048599
  64 H :    0.031599
  65 H :    0.032272
  66 H :    0.038490
  67 H :    0.028517
  68 H :    0.026810
  69 H :    0.033944
  70 H :    0.034683
  71 H :    0.030531
  72 H :    0.034418
  73 H :    0.029570
  74 H :    0.037551
  75 H :    0.037164
  76 H :    0.029741
  77 H :    0.039433
  78 H :    0.039511
  79 H :    0.030552
  80 H :    0.026402
  81 H :    0.036115
  82 H :    0.033985
  83 H :    0.026107
  84 H :    0.030140
  85 H :    0.020877
  86 H :    0.032022
  87 H :    0.026633
  88 H :    0.028376
  89 H :    0.026530
  90 H :    0.035381
  91 H :    0.024231
  92 H :    0.023591
  93 H :    0.029716
  94 H :    0.017254
  95 H :    0.026930

  Mayer bond orders larger than 0.100000
B(  0-C ,  1-C ) :   1.3190 B(  0-C ,  6-C ) :   1.4756 B(  0-C , 64-H ) :   0.9916
B(  1-C ,  2-C ) :   1.5033 B(  1-C , 65-H ) :   0.9932 B(  2-C ,  3-S ) :   1.0454
B(  2-C ,  5-S ) :   1.1401 B(  3-S ,  4-C ) :   1.0113 B(  4-C , 66-H ) :   0.9722
B(  4-C , 67-H ) :   0.9647 B(  4-C , 68-H ) :   0.9641 B(  5-S ,  6-C ) :   1.0955
B(  6-C ,  7-C ) :   1.1658 B(  7-C ,  8-C ) :   1.6079 B(  7-C , 69-H ) :   0.9490
B(  8-C ,  9-C ) :   1.1751 B(  8-C , 70-H ) :   0.9665 B(  9-C , 10-C ) :   1.5244
B(  9-C , 15-C ) :   1.0197 B( 10-C , 11-C ) :   1.1423 B( 10-C , 71-H ) :   1.0236
B( 11-C , 12-C ) :   1.0639 B( 11-C , 14-C ) :   1.5252 B( 12-C , 13-N ) :   3.0338
B( 14-C , 15-C ) :   1.1769 B( 14-C , 72-H ) :   1.0187 B( 15-C , 16-C ) :   1.4035
B( 16-C , 17-C ) :   1.0440 B( 16-C , 20-C ) :   1.1538 B( 17-C , 18-C ) :   1.5096
B( 17-C , 23-C ) :   1.1712 B( 18-C , 19-C ) :   1.1476 B( 18-C , 73-H ) :   1.0180
B( 19-C , 20-C ) :   1.5345 B( 19-C , 21-C ) :   1.0718 B( 20-C , 74-H ) :   1.0134
B( 21-C , 22-N ) :   2.9449 B( 23-C , 24-C ) :   1.6285 B( 23-C , 75-H ) :   0.9511
B( 24-C , 25-C ) :   1.1458 B( 24-C , 76-H ) :   0.9511 B( 25-C , 26-C ) :   1.4611
B( 25-C , 30-S ) :   1.0977 B( 26-C , 27-C ) :   1.3292 B( 26-C , 77-H ) :   0.9613
B( 27-C , 28-C ) :   1.0791 B( 27-C , 36-C ) :   1.2544 B( 28-C , 29-C ) :   1.5839
B( 28-C , 31-C ) :   1.1690 B( 29-C , 30-S ) :   1.1602 B( 29-C , 78-H ) :   0.9408
B( 31-C , 32-C ) :   1.4507 B( 31-C , 35-S ) :   1.0867 B( 32-C , 33-C ) :   1.2198
B( 32-C , 36-C ) :   1.0675 B( 33-C , 34-C ) :   1.5865 B( 33-C , 79-H ) :   1.0009
B( 34-C , 35-S ) :   1.1587 B( 34-C , 80-H ) :   0.9643 B( 36-C , 37-C ) :   1.3138
B( 37-C , 38-C ) :   1.4045 B( 37-C , 81-H ) :   0.9380 B( 38-C , 39-C ) :   1.2944
B( 38-C , 82-H ) :   0.9678 B( 39-C , 40-C ) :   1.3886 B( 39-C , 45-C ) :   1.0048
B( 40-C , 41-C ) :   1.2595 B( 40-C , 83-H ) :   1.0231 B( 41-C , 42-C ) :   1.0531
B( 41-C , 44-C ) :   1.4071 B( 42-C , 43-N ) :   3.0401 B( 44-C , 45-C ) :   1.2813
B( 44-C , 84-H ) :   1.0189 B( 45-C , 46-C ) :   1.3108 B( 46-C , 47-C ) :   1.1024
B( 46-C , 50-C ) :   1.1487 B( 47-C , 48-C ) :   1.5396 B( 47-C , 53-C ) :   1.0731
B( 48-C , 49-C ) :   1.1507 B( 48-C , 85-H ) :   1.0073 B( 49-C , 50-C ) :   1.5211
B( 49-C , 51-C ) :   1.0707 B( 50-C , 86-H ) :   1.0102 B( 51-C , 52-N ) :   3.0076
B( 53-C , 54-C ) :   1.7037 B( 53-C , 87-H ) :   0.9621 B( 54-C , 55-C ) :   1.0902
B( 54-C , 88-H ) :   0.9726 B( 55-C , 56-C ) :   1.2329 B( 55-C , 61-C ) :   1.4810
B( 56-C , 57-C ) :   1.5854 B( 56-C , 89-H ) :   0.9904 B( 57-C , 58-S ) :   1.0204
B( 57-C , 60-S ) :   1.1054 B( 58-S , 59-C ) :   1.0139 B( 59-C , 90-H ) :   0.9730
B( 59-C , 91-H ) :   0.9659 B( 59-C , 92-H ) :   0.9650 B( 60-S , 61-C ) :   1.0945
B( 61-C , 62-C ) :   1.0828 B( 62-C , 63-C ) :   1.9316 B( 62-C , 93-H ) :   0.9528
B( 63-C , 94-H ) :   0.9565 B( 63-C , 95-H ) :   0.9363

-----------------------------------------------------------------------------
         ABSORPTION SPECTRUM VIA TRANSITION ELECTRIC DIPOLE MOMENTS
-----------------------------------------------------------------------------
State   Energy  Wavelength   fosc         T2         TX        TY        TZ
        (cm-1)    (nm)                  (au**2)     (au)      (au)      (au)
-----------------------------------------------------------------------------
   0    4193.1   2384.9   0.080628597   6.33040   0.59323   0.66831   2.35198
   1    5951.8   1680.2   0.120376822   6.65835  -1.31026  -2.21924   0.12865
   2    7713.3   1296.5   0.023260042   0.99276  -0.89672  -0.32197  -0.29151
   3    8574.2   1166.3   0.035519373   1.36379  -0.83445   0.75773   0.30548
   4   10680.1    936.3   0.002481335   0.07649  -0.02464  -0.04457  -0.27183
   5   13543.5    738.4   0.006927140   0.16838   0.38560  -0.13980   0.01243
   6   14773.9    676.9   0.006012248   0.13397  -0.21041   0.15812  -0.25436
   7   16057.6    622.8   0.126027408   2.58380   0.33601   1.42977   0.65319
   8   17150.2    583.1   0.007774370   0.14924   0.05834   0.34568  -0.16228
   9   18271.8    547.3   0.025511582   0.45965  -0.16113   0.60817   0.25263
  10   18416.5    543.0   0.235380212   4.20763   0.41633   1.64150   1.15748
  11   20040.1    499.0   0.186755965   3.06796  -1.47344  -0.77987   0.53733
  12   20497.4    487.9   0.022885394   0.36757   0.07804   0.40207   0.44701
  13   21583.1    463.3   0.066315750   1.01153   0.16974   0.70472   0.69720
  14   22241.1    449.6   0.028977938   0.42893  -0.21100  -0.26743  -0.55937
  15   22677.0    441.0   0.184437835   2.67757   0.27846  -0.68780   1.45841
  16   23894.5    418.5   0.093863334   1.29322   0.43043   1.05119   0.05428
  17   24537.1    407.5   0.064715012   0.86828  -0.45363   0.12814  -0.80379
  18   24963.2    400.6   0.230009793   3.03335  -0.34431  -1.38214  -1.00224
  19   25323.4    394.9   0.034344781   0.44649   0.45199  -0.46045   0.17373
  20   25706.6    389.0   0.151942942   1.94586   1.08424   0.10521   0.87133
  21   26402.4    378.8   0.294260224   3.66914   0.64185   1.80065   0.12178
  22   27055.5    369.6   0.010559942   0.12849  -0.05278  -0.14838   0.32201
  23   28049.9    356.5   0.105356279   1.23653   0.21653   1.05116   0.29105
  24   28182.7    354.8   0.047809802   0.55848  -0.72003  -0.10602   0.16971
  25   28261.0    353.8   0.086010776   1.00194   0.11900   0.65943  -0.74359
  26   28389.3    352.2   0.151875274   1.76120  -0.64959  -1.06689   0.44830
  27   28615.3    349.5   0.076901232   0.88473  -0.51529   0.44757  -0.64721
  28   29195.6    342.5   0.017503782   0.19737   0.24747  -0.32402   0.17647
  29   29272.9    341.6   0.004097903   0.04609  -0.05240   0.16813  -0.12278
  30   29695.8    336.7   0.027341478   0.30311  -0.42470  -0.10325   0.33478
  31   29922.2    334.2   0.116674168   1.28368  -0.30280   0.59899   0.91280
  32   30409.6    328.8   0.421156601   4.55940  -1.64469  -0.40549   1.29999
  33   30923.9    323.4   0.056157597   0.59785   0.55166   0.30167  -0.45001
  34   31435.7    318.1   0.410030819   4.29408  -1.60022  -1.31250   0.10343
  35   31781.5    314.6   0.008890668   0.09209  -0.25540  -0.09671  -0.13234
  36   31877.4    313.7   0.191799997   1.98080   0.90236   0.70408  -0.81904
  37   32243.1    310.1   0.184724365   1.88609   0.14037   1.00862   0.92146
  38   32596.7    306.8   0.067460644   0.68132  -0.30072  -0.24337  -0.72915
  39   32703.2    305.8   0.659414732   6.63811  -0.24422   0.76971  -2.44663
  40   32866.7    304.3   0.199974135   2.00306  -0.19756  -1.40137  -0.01345
  41   33039.9    302.7   0.154312675   1.53758   0.71951  -0.32363   0.95664
  42   33300.6    300.3   0.612645972   6.05666   0.53726   1.12410  -2.12236
  43   34339.6    291.2   0.079974548   0.76671  -0.07995  -0.83175  -0.26176
  44   34544.9    289.5   0.134275692   1.27964   0.81214   0.70439   0.35202
  45   34917.9    286.4   0.427216908   4.02787   0.29312  -0.90528   1.76704
  46   35195.7    284.1   0.060911528   0.56975   0.14029   0.51939  -0.52944
  47   35568.2    281.2   0.178069585   1.64818   0.44776  -0.68618   0.98836
  48   35671.3    280.3   0.042182284   0.38930  -0.06592   0.51161  -0.35102
  49   36122.3    276.8   0.050597685   0.46114  -0.15205  -0.07051   0.65806
  50   36508.4    273.9   0.073804509   0.66553   0.19688  -0.70572   0.35878
  51   37060.3    269.8   0.055961193   0.49711  -0.15133  -0.59437   0.34776
  52   37579.9    266.1   0.012846065   0.11254   0.28915  -0.03292  -0.16687
  53   37830.4    264.3   0.148828260   1.29515   0.04158   1.02996  -0.48229
  54   37933.2    263.6   0.080569084   0.69924   0.50669   0.64696  -0.15474
  55   38153.0    262.1   0.086573418   0.74702   0.45719  -0.45241   0.57734
  56   38260.5    261.4   0.038520262   0.33145  -0.34650  -0.37870  -0.26071
  57   38299.8    261.1   0.024600963   0.21146   0.21939   0.40290   0.03160
  58   38677.3    258.5   0.007526627   0.06406   0.13764   0.19446   0.08546
  59   39116.8    255.6   0.020533709   0.17281  -0.15908  -0.02955  -0.38293
  60   39220.4    255.0   0.002047392   0.01719  -0.08921   0.07786   0.05626
  61   39493.7    253.2   0.209293020   1.74462  -0.85558   0.34821  -0.94411
  62   39670.2    252.1   0.118822149   0.98607  -0.59355   0.20330  -0.76970
  63   39798.0    251.3   0.211558622   1.75003   0.79706   0.03681   1.05517
  64   40046.0    249.7   0.076710972   0.63063   0.62308  -0.07990   0.48581

FINAL SINGLE POINT ENERGY     -4681.133295265165

DIPOLE MOMENT
-------------
                                X             Y             Z
Electronic contribution:     -1.98646     -18.22998      20.56792
Nuclear contribution   :      3.47292      18.54671     -18.20083
                        -----------------------------------------
Total Dipole Moment    :      1.48646       0.31673       2.36709
                        -----------------------------------------
Magnitude (a.u.)       :      2.81301
Magnitude (Debye)      :      7.15010

Rotational constants in cm-1:     0.000918     0.000652     0.000446
Rotational constants in MHz :    27.515612    19.545782    13.373270

                             ****ORCA TERMINATED NORMALLY****
TOTAL RUN TIME: 0 days 0 hours 19 minutes 31 seconds 27 msec
