                         Program Version 4.2.0 -  RELEASE  -
|  1> # ORCA input file
|  2> # SCF done       -150.281659245620          0.000492118440
|  3> ! CAM-B3LYP def2-SVP def2/J RIJCOSX Grid4 TightSCF
|  4> %maxcore 5000
|  5> %tddft
|  6>     Mode sTDDFT
|  7>     Ethresh 5.0
|  8>     maxcore 5000
|  9> end
| 10>
| 11> %pal
| 12>   nprocs 6
| 13>   end
| 14> * xyz 0 1
| 15>    C       -1.21790         4.88337        -2.42771
| 16>    O       -2.16441         3.94534        -2.37741
| 17>    C       -1.91385         3.17556        -1.30120
| 18>    C       -0.80731         3.60907        -0.64984
| 19>    C       -0.32989         4.74216        -1.38175
| 20>    C        0.82612         5.51723        -1.05027
| 21>    C        1.27470         6.58402        -1.75188
| 22>    C        2.42817         7.35759        -1.43601
| 23>    C        3.24548         7.16989        -0.36504
| 24>    C        4.39750         7.92662        -0.06244
| 25>    C        5.25125         7.75314         1.02010
| 26>    C        6.29047         8.71710         0.93218
| 27>    C        6.06935         9.52498        -0.25442
| 28>    O        6.69513        10.45116        -0.71979
| 29>    N        4.90407         8.98289        -0.79719
| 30>    C        7.12861         8.52446         2.00658
| 31>    O        6.67141         7.49504         2.76732
| 32>    C        5.49594         6.96380         2.20398
| 33>    O        4.91461         6.04364         2.70469
| 34>    C        8.30238         9.23401         2.33588
| 35>    S        8.83618        10.52337         1.30889
| 36>    C       10.22346        10.82920         2.32325
| 37>    C       10.24344         9.95639         3.40850
| 38>    C        9.15993         9.05126         3.41907
| 39>    C        8.92279         8.05452         4.38816
| 40>    N        8.72317         7.23793         5.16584
| 41>    C       11.29865         9.96459         4.46931
| 42>    F       11.38039        11.15674         5.09648
| 43>    F       11.10446         9.05981         5.42639
| 44>    F       12.52761         9.71913         3.96856
| 45>    C       11.10755        11.86898         1.92756
| 46>    S       12.56956        12.30975         2.79230
| 47>    C       12.90940        13.52251         1.64876
| 48>    C       11.94192        13.59093         0.64110
| 49>    C       10.92675        12.66238         0.79491
| 50>    C       12.34893        14.66997        -0.28350
| 51>    O       11.80549        15.06372        -1.28271
| 52>    C       13.64129        15.20073         0.30691
| 53>    C       13.93195        14.49430         1.44476
| 54>    C       14.33559        16.25965        -0.32655
| 55>    C       15.49165        16.81353         0.11731
| 56>    C       16.16093        17.87133        -0.55354
| 57>    O       15.68469        18.39427        -1.69814
| 58>    C       16.52187        19.37216        -2.10462
| 59>    C       17.56697        19.49561        -1.21164
| 60>    C       17.33904        18.53297        -0.21425
| 61>    C       18.18004        18.26085         0.97810
| 62>    F       18.62626        16.98873         1.01718
| 63>    F       19.26061        19.04654         1.03384
| 64>    F       17.51159        18.44272         2.13528
| 65>    C       16.25874        20.10740        -3.31219
| 66>    C       15.20993        19.88909        -4.10256
| 67>    H       -1.26952         5.58790        -3.23387
| 68>    H       -2.58750         2.36385        -1.11170
| 69>    H       -0.36976         3.19459         0.23457
| 70>    H        1.35560         5.19032        -0.16684
| 71>    H        0.72869         6.88722        -2.63446
| 72>    H        2.65127         8.16002        -2.12799
| 73>    H        3.04441         6.38462         0.34830
| 74>    H        4.49040         9.33801        -1.64459
| 75>    H       10.08819        12.54756         0.13119
| 76>    H       14.78061        14.62956         2.08920
| 77>    H       13.88271        16.63437        -1.23536
| 78>    H       15.96105        16.46070         1.02293
| 79>    H       18.38671        20.18195        -1.26356
| 80>    H       16.98927        20.86926        -3.54271
| 81>    H       14.48332        19.12940        -3.87081
| 82>    H       15.05143        20.46276        -4.99796
| 83> *
| 84>
| 85>                          ****END OF INPUT****

CARTESIAN COORDINATES (ANGSTROEM)
---------------------------------
  C     -1.217900    4.883370   -2.427710
  O     -2.164410    3.945340   -2.377410
  C     -1.913850    3.175560   -1.301200
  C     -0.807310    3.609070   -0.649840
  C     -0.329890    4.742160   -1.381750
  C      0.826120    5.517230   -1.050270
  C      1.274700    6.584020   -1.751880
  C      2.428170    7.357590   -1.436010
  C      3.245480    7.169890   -0.365040
  C      4.397500    7.926620   -0.062440
  C      5.251250    7.753140    1.020100
  C      6.290470    8.717100    0.932180
  C      6.069350    9.524980   -0.254420
  O      6.695130   10.451160   -0.719790
  N      4.904070    8.982890   -0.797190
  C      7.128610    8.524460    2.006580
  O      6.671410    7.495040    2.767320
  C      5.495940    6.963800    2.203980
  O      4.914610    6.043640    2.704690
  C      8.302380    9.234010    2.335880
  S      8.836180   10.523370    1.308890
  C     10.223460   10.829200    2.323250
  C     10.243440    9.956390    3.408500
  C      9.159930    9.051260    3.419070
  C      8.922790    8.054520    4.388160
  N      8.723170    7.237930    5.165840
  C     11.298650    9.964590    4.469310
  F     11.380390   11.156740    5.096480
  F     11.104460    9.059810    5.426390
  F     12.527610    9.719130    3.968560
  C     11.107550   11.868980    1.927560
  S     12.569560   12.309750    2.792300
  C     12.909400   13.522510    1.648760
  C     11.941920   13.590930    0.641100
  C     10.926750   12.662380    0.794910
  C     12.348930   14.669970   -0.283500
  O     11.805490   15.063720   -1.282710
  C     13.641290   15.200730    0.306910
  C     13.931950   14.494300    1.444760
  C     14.335590   16.259650   -0.326550
  C     15.491650   16.813530    0.117310
  C     16.160930   17.871330   -0.553540
  O     15.684690   18.394270   -1.698140
  C     16.521870   19.372160   -2.104620
  C     17.566970   19.495610   -1.211640
  C     17.339040   18.532970   -0.214250
  C     18.180040   18.260850    0.978100
  F     18.626260   16.988730    1.017180
  F     19.260610   19.046540    1.033840
  F     17.511590   18.442720    2.135280
  C     16.258740   20.107400   -3.312190
  C     15.209930   19.889090   -4.102560
  H     -1.269520    5.587900   -3.233870
  H     -2.587500    2.363850   -1.111700
  H     -0.369760    3.194590    0.234570
  H      1.355600    5.190320   -0.166840
  H      0.728690    6.887220   -2.634460
  H      2.651270    8.160020   -2.127990
  H      3.044410    6.384620    0.348300
  H      4.490400    9.338010   -1.644590
  H     10.088190   12.547560    0.131190
  H     14.780610   14.629560    2.089200
  H     13.882710   16.634370   -1.235360
  H     15.961050   16.460700    1.022930
  H     18.386710   20.181950   -1.263560
  H     16.989270   20.869260   -3.542710
  H     14.483320   19.129400   -3.870810
  H     15.051430   20.462760   -4.997960

 Total Charge           Charge          ....    0
 Multiplicity           Mult            ....    1
 Number of Electrons    NEL             ....  380
 Basis Dimension        Dim             ....  816

ORBITAL ENERGIES
----------------

  NO   OCC          E(Eh)            E(eV)
   0   2.0000     -88.986579     -2421.4479
   1   2.0000     -88.986282     -2421.4398
   2   2.0000     -24.805424      -674.9899
   3   2.0000     -24.802523      -674.9110
   4   2.0000     -24.802348      -674.9062
   5   2.0000     -24.802159      -674.9011
   6   2.0000     -24.795751      -674.7267
   7   2.0000     -24.795394      -674.7170
   8   2.0000     -19.306184      -525.3480
   9   2.0000     -19.301847      -525.2300
  10   2.0000     -19.280818      -524.6577
  11   2.0000     -19.233512      -523.3705
  12   2.0000     -19.205437      -522.6065
  13   2.0000     -19.204982      -522.5941
  14   2.0000     -14.466917      -393.6648
  15   2.0000     -14.400352      -391.8535
  16   2.0000     -10.527801      -286.4760
  17   2.0000     -10.520515      -286.2778
  18   2.0000     -10.405603      -283.1509
  19   2.0000     -10.394014      -282.8355
  20   2.0000     -10.375583      -282.3340
  21   2.0000     -10.375319      -282.3268
  22   2.0000     -10.353543      -281.7342
  23   2.0000     -10.351447      -281.6772
  24   2.0000     -10.347001      -281.5562
  25   2.0000     -10.343609      -281.4639
  26   2.0000     -10.338152      -281.3154
  27   2.0000     -10.336528      -281.2712
  28   2.0000     -10.334611      -281.2191
  29   2.0000     -10.327677      -281.0304
  30   2.0000     -10.327501      -281.0256
  31   2.0000     -10.323235      -280.9095
  32   2.0000     -10.319327      -280.8032
  33   2.0000     -10.309052      -280.5236
  34   2.0000     -10.308419      -280.5063
  35   2.0000     -10.304716      -280.4056
  36   2.0000     -10.301610      -280.3210
  37   2.0000     -10.300702      -280.2963
  38   2.0000     -10.297582      -280.2115
  39   2.0000     -10.297116      -280.1988
  40   2.0000     -10.297081      -280.1978
  41   2.0000     -10.295091      -280.1437
  42   2.0000     -10.289745      -279.9982
  43   2.0000     -10.289068      -279.9798
  44   2.0000     -10.288879      -279.9746
  45   2.0000     -10.288869      -279.9744
  46   2.0000     -10.285746      -279.8894
  47   2.0000     -10.284096      -279.8445
  48   2.0000     -10.282774      -279.8085
  49   2.0000     -10.278376      -279.6888
  50   2.0000     -10.276408      -279.6353
  51   2.0000     -10.276001      -279.6242
  52   2.0000      -8.080955      -219.8940
  53   2.0000      -8.080807      -219.8899
  54   2.0000      -6.050270      -164.6362
  55   2.0000      -6.050119      -164.6321
  56   2.0000      -6.045874      -164.5166
  57   2.0000      -6.045811      -164.5149
  58   2.0000      -6.043468      -164.4511
  59   2.0000      -6.042656      -164.4290
  60   2.0000      -1.395394       -37.9706
  61   2.0000      -1.387532       -37.7567
  62   2.0000      -1.298205       -35.3260
  63   2.0000      -1.293500       -35.1979
  64   2.0000      -1.292750       -35.1775
  65   2.0000      -1.285510       -34.9805
  66   2.0000      -1.227032       -33.3892
  67   2.0000      -1.220855       -33.2212
  68   2.0000      -1.209326       -32.9074
  69   2.0000      -1.144913       -31.1547
  70   2.0000      -1.142531       -31.0899
  71   2.0000      -1.115788       -30.3621
  72   2.0000      -1.068470       -29.0745
  73   2.0000      -1.029557       -28.0157
  74   2.0000      -1.013308       -27.5735
  75   2.0000      -0.981525       -26.7087
  76   2.0000      -0.953693       -25.9513
  77   2.0000      -0.939330       -25.5605
  78   2.0000      -0.931160       -25.3382
  79   2.0000      -0.923348       -25.1256
  80   2.0000      -0.920245       -25.0411
  81   2.0000      -0.911082       -24.7918
  82   2.0000      -0.902905       -24.5693
  83   2.0000      -0.894833       -24.3496
  84   2.0000      -0.882084       -24.0027
  85   2.0000      -0.867933       -23.6177
  86   2.0000      -0.859308       -23.3830
  87   2.0000      -0.846372       -23.0309
  88   2.0000      -0.837974       -22.8024
  89   2.0000      -0.827134       -22.5075
  90   2.0000      -0.810458       -22.0537
  91   2.0000      -0.794845       -21.6288
  92   2.0000      -0.793253       -21.5855
  93   2.0000      -0.769669       -20.9438
  94   2.0000      -0.765204       -20.8223
  95   2.0000      -0.763078       -20.7644
  96   2.0000      -0.742233       -20.1972
  97   2.0000      -0.734368       -19.9832
  98   2.0000      -0.722018       -19.6471
  99   2.0000      -0.713712       -19.4211
 100   2.0000      -0.712019       -19.3750
 101   2.0000      -0.698299       -19.0017
 102   2.0000      -0.692875       -18.8541
 103   2.0000      -0.690060       -18.7775
 104   2.0000      -0.688189       -18.7266
 105   2.0000      -0.678955       -18.4753
 106   2.0000      -0.677274       -18.4296
 107   2.0000      -0.677144       -18.4260
 108   2.0000      -0.673602       -18.3296
 109   2.0000      -0.669788       -18.2259
 110   2.0000      -0.663520       -18.0553
 111   2.0000      -0.650654       -17.7052
 112   2.0000      -0.644989       -17.5510
 113   2.0000      -0.636333       -17.3155
 114   2.0000      -0.629186       -17.1210
 115   2.0000      -0.617814       -16.8116
 116   2.0000      -0.605804       -16.4848
 117   2.0000      -0.597148       -16.2492
 118   2.0000      -0.594138       -16.1673
 119   2.0000      -0.592219       -16.1151
 120   2.0000      -0.592103       -16.1119
 121   2.0000      -0.579410       -15.7665
 122   2.0000      -0.578906       -15.7528
 123   2.0000      -0.575534       -15.6611
 124   2.0000      -0.572651       -15.5826
 125   2.0000      -0.566157       -15.4059
 126   2.0000      -0.559534       -15.2257
 127   2.0000      -0.559212       -15.2169
 128   2.0000      -0.558391       -15.1946
 129   2.0000      -0.555455       -15.1147
 130   2.0000      -0.548831       -14.9345
 131   2.0000      -0.548122       -14.9152
 132   2.0000      -0.545904       -14.8548
 133   2.0000      -0.542792       -14.7701
 134   2.0000      -0.537719       -14.6321
 135   2.0000      -0.537170       -14.6171
 136   2.0000      -0.533943       -14.5293
 137   2.0000      -0.527382       -14.3508
 138   2.0000      -0.525698       -14.3050
 139   2.0000      -0.523302       -14.2398
 140   2.0000      -0.522806       -14.2263
 141   2.0000      -0.517586       -14.0842
 142   2.0000      -0.515896       -14.0382
 143   2.0000      -0.511810       -13.9271
 144   2.0000      -0.509410       -13.8618
 145   2.0000      -0.507616       -13.8129
 146   2.0000      -0.504536       -13.7291
 147   2.0000      -0.503672       -13.7056
 148   2.0000      -0.501173       -13.6376
 149   2.0000      -0.494743       -13.4626
 150   2.0000      -0.492525       -13.4023
 151   2.0000      -0.491320       -13.3695
 152   2.0000      -0.489710       -13.3257
 153   2.0000      -0.486449       -13.2370
 154   2.0000      -0.483547       -13.1580
 155   2.0000      -0.481192       -13.0939
 156   2.0000      -0.477897       -13.0042
 157   2.0000      -0.473887       -12.8951
 158   2.0000      -0.471558       -12.8317
 159   2.0000      -0.468344       -12.7443
 160   2.0000      -0.463376       -12.6091
 161   2.0000      -0.462116       -12.5748
 162   2.0000      -0.461319       -12.5531
 163   2.0000      -0.456258       -12.4154
 164   2.0000      -0.449680       -12.2364
 165   2.0000      -0.445605       -12.1255
 166   2.0000      -0.444140       -12.0857
 167   2.0000      -0.439673       -11.9641
 168   2.0000      -0.437907       -11.9161
 169   2.0000      -0.431149       -11.7322
 170   2.0000      -0.429076       -11.6758
 171   2.0000      -0.427880       -11.6432
 172   2.0000      -0.427359       -11.6290
 173   2.0000      -0.403056       -10.9677
 174   2.0000      -0.397435       -10.8148
 175   2.0000      -0.387619       -10.5476
 176   2.0000      -0.380670       -10.3586
 177   2.0000      -0.377217       -10.2646
 178   2.0000      -0.363658        -9.8956
 179   2.0000      -0.362606        -9.8670
 180   2.0000      -0.349533        -9.5113
 181   2.0000      -0.345850        -9.4111
 182   2.0000      -0.345339        -9.3972
 183   2.0000      -0.344327        -9.3696
 184   2.0000      -0.338149        -9.2015
 185   2.0000      -0.330563        -8.9951
 186   2.0000      -0.302597        -8.2341
 187   2.0000      -0.290872        -7.9150
 188   2.0000      -0.258065        -7.0223
 189   2.0000      -0.238487        -6.4896
 190   0.0000      -0.103450        -2.8150
 191   0.0000      -0.088395        -2.4053
 192   0.0000      -0.047234        -1.2853
 193   0.0000      -0.025009        -0.6805
 194   0.0000      -0.016430        -0.4471

MULLIKEN ATOMIC CHARGES
-----------------------
   0 C :    0.075189
   1 O :   -0.169400
   2 C :    0.135293
   3 C :   -0.037558
   4 C :    0.032592
   5 C :    0.069574
   6 C :   -0.011633
   7 C :    0.022010
   8 C :    0.023100
   9 C :    0.061611
  10 C :   -0.088625
  11 C :   -0.078982
  12 C :    0.148615
  13 O :   -0.174816
  14 N :   -0.121598
  15 C :    0.142313
  16 O :   -0.247816
  17 C :    0.221451
  18 O :   -0.131847
  19 C :   -0.120593
  20 S :    0.208220
  21 C :   -0.057179
  22 C :   -0.091862
  23 C :   -0.018368
  24 C :   -0.269703
  25 N :    0.207368
  26 C :    0.516651
  27 F :   -0.167764
  28 F :   -0.127114
  29 F :   -0.166948
  30 C :   -0.101616
  31 S :    0.203428
  32 C :   -0.036773
  33 C :    0.012994
  34 C :   -0.039224
  35 C :    0.162871
  36 O :   -0.103057
  37 C :   -0.041881
  38 C :   -0.019664
  39 C :    0.015063
  40 C :   -0.006236
  41 C :    0.126808
  42 O :   -0.188930
  43 C :    0.166094
  44 C :   -0.063736
  45 C :   -0.102225
  46 C :    0.522960
  47 F :   -0.170819
  48 F :   -0.151248
  49 F :   -0.170286
  50 C :   -0.023180
  51 C :    0.003013
  52 H :    0.011491
  53 H :    0.016795
  54 H :   -0.003290
  55 H :   -0.001016
  56 H :   -0.017605
  57 H :   -0.021328
  58 H :    0.003857
  59 H :    0.130768
  60 H :    0.024512
  61 H :    0.000908
  62 H :    0.010062
  63 H :    0.005128
  64 H :   -0.002643
  65 H :    0.000809
  66 H :    0.035901
  67 H :    0.029115
Sum of atomic charges:    0.0000000

LOEWDIN ATOMIC CHARGES
----------------------
   0 C :    0.046841
   1 O :    0.035408
   2 C :    0.034845
   3 C :   -0.062457
   4 C :   -0.084681
   5 C :    0.030113
   6 C :   -0.047555
   7 C :    0.007124
   8 C :   -0.041207
   9 C :    0.078421
  10 C :   -0.132075
  11 C :   -0.120934
  12 C :    0.071577
  13 O :   -0.190818
  14 N :    0.027177
  15 C :    0.075564
  16 O :   -0.044279
  17 C :    0.106055
  18 O :   -0.139314
  19 C :   -0.169531
  20 S :    0.531678
  21 C :   -0.139811
  22 C :   -0.118768
  23 C :   -0.066130
  24 C :   -0.049440
  25 N :   -0.024563
  26 C :    0.162560
  27 F :   -0.068030
  28 F :   -0.025183
  29 F :   -0.067924
  30 C :   -0.210777
  31 S :    0.508858
  32 C :   -0.161613
  33 C :   -0.110113
  34 C :   -0.008790
  35 C :    0.098889
  36 O :   -0.097206
  37 C :   -0.050863
  38 C :    0.000069
  39 C :   -0.009514
  40 C :   -0.020930
  41 C :    0.048068
  42 O :    0.031722
  43 C :    0.039899
  44 C :   -0.045549
  45 C :   -0.121507
  46 C :    0.168725
  47 F :   -0.069742
  48 F :   -0.051800
  49 F :   -0.069737
  50 C :   -0.041954
  51 C :   -0.022758
  52 H :    0.022287
  53 H :    0.025125
  54 H :    0.033433
  55 H :    0.035317
  56 H :    0.027945
  57 H :    0.026339
  58 H :    0.042788
  59 H :    0.088303
  60 H :    0.038402
  61 H :    0.033807
  62 H :    0.038103
  63 H :    0.035002
  64 H :    0.037427
  65 H :    0.039313
  66 H :    0.029152
  67 H :    0.029221

  Mayer bond orders larger than 0.100000
B(  0-C ,  1-O ) :   1.1946 B(  0-C ,  4-C ) :   1.4812 B(  0-C , 52-H ) :   1.0038
B(  1-O ,  2-C ) :   1.1377 B(  2-C ,  3-C ) :   1.5818 B(  2-C , 53-H ) :   1.0015
B(  3-C ,  4-C ) :   1.2042 B(  3-C , 54-H ) :   1.0091 B(  4-C ,  5-C ) :   1.1055
B(  5-C ,  6-C ) :   1.6985 B(  5-C , 55-H ) :   0.9669 B(  6-C ,  7-C ) :   1.1479
B(  6-C , 56-H ) :   0.9747 B(  7-C ,  8-C ) :   1.5855 B(  7-C , 57-H ) :   0.9845
B(  8-C ,  9-C ) :   1.2103 B(  8-C , 58-H ) :   0.9458 B(  9-C , 10-C ) :   1.3315
B(  9-C , 14-N ) :   1.1873 B( 10-C , 11-C ) :   1.1864 B( 10-C , 17-C ) :   0.9926
B( 11-C , 12-C ) :   0.9280 B( 11-C , 15-C ) :   1.4174 B( 12-C , 13-O ) :   2.1900
B( 12-C , 14-N ) :   1.0853 B( 14-N , 59-H ) :   0.9180 B( 15-C , 16-O ) :   1.1887
B( 15-C , 19-C ) :   1.1771 B( 16-O , 17-C ) :   0.9765 B( 17-C , 18-O ) :   2.2480
B( 19-C , 20-S ) :   1.1336 B( 19-C , 23-C ) :   1.4465 B( 20-S , 21-C ) :   1.1448
B( 21-C , 22-C ) :   1.4779 B( 21-C , 30-C ) :   1.1783 B( 22-C , 23-C ) :   1.3187
B( 22-C , 26-C ) :   0.9373 B( 23-C , 24-C ) :   1.1396 B( 24-C , 25-N ) :   3.0186
B( 26-C , 27-F ) :   1.1551 B( 26-C , 28-F ) :   1.1894 B( 26-C , 29-F ) :   1.1568
B( 30-C , 31-S ) :   1.1158 B( 30-C , 34-C ) :   1.4109 B( 31-S , 32-C ) :   1.1655
B( 32-C , 33-C ) :   1.4233 B( 32-C , 38-C ) :   1.0631 B( 33-C , 34-C ) :   1.3471
B( 33-C , 35-C ) :   0.9156 B( 34-C , 60-H ) :   0.9919 B( 35-C , 36-O ) :   2.2861
B( 35-C , 37-C ) :   0.9099 B( 37-C , 38-C ) :   1.6167 B( 37-C , 39-C ) :   1.1213
B( 38-C , 61-H ) :   1.0136 B( 39-C , 40-C ) :   1.6001 B( 39-C , 62-H ) :   0.9872
B( 40-C , 41-C ) :   1.1851 B( 40-C , 63-H ) :   0.9459 B( 41-C , 42-O ) :   1.1732
B( 41-C , 45-C ) :   1.4286 B( 42-O , 43-C ) :   1.1381 B( 43-C , 44-C ) :   1.4463
B( 43-C , 50-C ) :   1.1219 B( 44-C , 45-C ) :   1.2523 B( 44-C , 64-H ) :   1.0191
B( 45-C , 46-C ) :   0.9510 B( 46-C , 47-F ) :   1.1563 B( 46-C , 48-F ) :   1.1877
B( 46-C , 49-F ) :   1.1597 B( 50-C , 51-C ) :   1.9137 B( 50-C , 65-H ) :   0.9595
B( 51-C , 66-H ) :   0.9600 B( 51-C , 67-H ) :   0.9464

-----------------------------------------------------------------------------
         ABSORPTION SPECTRUM VIA TRANSITION ELECTRIC DIPOLE MOMENTS
-----------------------------------------------------------------------------
State   Energy  Wavelength   fosc         T2         TX        TY        TZ
        (cm-1)    (nm)                  (au**2)     (au)      (au)      (au)
-----------------------------------------------------------------------------
   0   14413.4    693.8   1.282463236  29.29242   4.21373   3.39584   0.07182
   1   17717.4    564.4   0.541621271  10.06401   2.29776   0.23068   2.17510
   2   21077.0    474.5   0.109032504   1.70303   0.21854   0.88505  -0.93379
   3   24203.1    413.2   0.058855459   0.80056  -0.60018  -0.01033  -0.66350
   4   26089.4    383.3   0.176737288   2.23018  -0.06007  -0.93625   1.16190
   5   26354.4    379.4   0.000120460   0.00150   0.02190  -0.00103  -0.03200
   6   27814.4    359.5   0.169424477   2.00531   1.13013   0.80426   0.28512
   7   28130.3    355.5   0.008261687   0.09669   0.23022   0.12044   0.17082
   8   30214.8    331.0   0.001119847   0.01220  -0.04635   0.08458   0.05386
   9   30523.7    327.6   0.877951128   9.46911  -1.62607  -2.31266   1.21515
  10   31597.1    316.5   0.016957275   0.17668   0.11452  -0.18857   0.35778
  11   32705.8    305.8   0.044403309   0.44696   0.17806  -0.26602   0.58693
  12   34077.3    293.5   0.041693473   0.40279  -0.27981  -0.48893   0.29230
  13   34524.4    289.6   0.017942996   0.17110  -0.31628  -0.26622  -0.01377
  14   34552.5    289.4   0.000084191   0.00080   0.02682   0.00878  -0.00236
  15   35195.7    284.1   0.054488775   0.50967   0.53627   0.47121   0.00665
  16   35835.1    279.1   0.004407960   0.04050  -0.11922  -0.15821   0.03539
  17   35975.4    278.0   0.024290795   0.22229  -0.26776   0.05346  -0.38436
  18   37348.4    267.7   0.445619638   3.92796  -0.54580  -1.48458   1.19419
  19   38299.1    261.1   0.060854581   0.52309  -0.29403  -0.54075   0.37978
  20   38497.5    259.8   0.030320235   0.25928  -0.30226   0.03416  -0.40836
  21   39815.4    251.2   0.020814889   0.17211  -0.24883  -0.31168   0.11422
  22   39948.9    250.3   0.033703905   0.27775  -0.37559  -0.36412   0.06402
  23   39980.2    250.1   0.000579163   0.00477   0.06099   0.02379  -0.02197
  24   40247.8    248.5   0.021480475   0.17570   0.15974  -0.14148   0.36079

FINAL SINGLE POINT ENERGY     -3334.424597628323

DIPOLE MOMENT
-------------
                                X             Y             Z
Electronic contribution:     55.81848      12.50708      43.19397
Nuclear contribution   :    -57.31529     -11.31900     -46.33248
                        -----------------------------------------
Total Dipole Moment    :     -1.49681       1.18809      -3.13851
                        -----------------------------------------
Magnitude (a.u.)       :      3.67454
Magnitude (Debye)      :      9.33994

Rotational constants in cm-1:     0.003196     0.000410     0.000365
Rotational constants in MHz :    95.807825    12.280964    10.929355

                             ****ORCA TERMINATED NORMALLY****
TOTAL RUN TIME: 0 days 0 hours 4 minutes 9 seconds 918 msec
