                         Program Version 4.2.0 -  RELEASE  -
|  1> # ORCA input file
|  2> # SCF done       -170.174250972511          0.000801826181
|  3> ! CAM-B3LYP def2-SVP def2/J RIJCOSX Grid4 TightSCF
|  4> %maxcore 5000
|  5> %tddft
|  6>     Mode sTDDFT
|  7>     Ethresh 5.0
|  8>     maxcore 5000
|  9> end
| 10>
| 11> %pal
| 12>   nprocs 6
| 13>   end
| 14> * xyz 0 1
| 15>    C        6.48824        -1.46341         4.47035
| 16>    O        6.59745        -2.79579         4.51223
| 17>    C        7.80720        -3.11361         4.01383
| 18>    C        8.48425        -1.99730         3.64936
| 19>    C        7.62563        -0.89208         3.94458
| 20>    C        7.93526         0.49000         3.72662
| 21>    C        7.11974         1.53038         4.00839
| 22>    C        7.50208         2.87818         3.78364
| 23>    C        6.71010         3.94561         4.06902
| 24>    C        7.12317         5.28197         3.86934
| 25>    C        8.31710         5.80071         3.38268
| 26>    C        8.24440         7.22583         3.42292
| 27>    C        6.92248         7.59714         3.88973
| 28>    O        6.35873         8.66601         3.99754
| 29>    N        6.32631         6.36621         4.17377
| 30>    C        9.42544         7.70772         2.89553
| 31>    O       10.20380         6.65638         2.48575
| 32>    C        9.57956         5.45093         2.78610
| 33>    O       10.10002         4.39161         2.53830
| 34>    C        9.92535         9.01023         2.74660
| 35>    S       11.17171         9.33805         1.57540
| 36>    C       11.19536        11.02569         2.01119
| 37>    C       10.27631        11.29097         3.02678
| 38>    C        9.59023        10.15035         3.48055
| 39>    S        8.54730        10.04008         4.88078
| 40>    C        9.46582        11.08538         6.09858
| 41>    C        9.32162        10.45401         7.46912
| 42>    S        9.99582        12.94152         3.57960
| 43>    C        8.19445        13.06922         3.22415
| 44>    C        7.66579        14.38966         3.74420
| 45>    C       12.05900        11.95646         1.40594
| 46>    C       12.87671        11.67709         0.34700
| 47>    C       13.79751        12.56533        -0.23863
| 48>    C       14.19544        13.76793         0.29171
| 49>    C       15.14601        14.60108        -0.29850
| 50>    C       15.65548        15.73687         0.29488
| 51>    C       16.63691        16.60656        -0.23023
| 52>    C       16.99976        17.61759         0.61073
| 53>    C       16.32465        17.60016         1.84947
| 54>    S       15.18631        16.27115         1.89917
| 55>    C       16.50723        18.44438         2.92907
| 56>    C       17.43569        19.50473         3.05087
| 57>    C       17.41826        20.13091         4.25767
| 58>    C       16.46456        19.61280         5.17278
| 59>    S       15.60327        18.27055         4.41262
| 60>    C       16.19941        19.91435         6.47766
| 61>    C       16.69091        20.99149         7.27957
| 62>    C       16.75548        20.82546         8.66114
| 63>    C       17.23395        21.81012         9.51220
| 64>    C       17.65401        23.04502         9.04416
| 65>    C       17.53138        23.28503         7.64614
| 66>    C       17.04592        22.27796         6.76968
| 67>    N       16.84927        22.57036         5.47630
| 68>    C       17.15201        23.75836         5.01297
| 69>    C       16.82917        23.98282         3.56362
| 70>    C       15.31618        23.94405         3.34501
| 71>    C       17.73283        24.73284         5.86941
| 72>    C       18.16507        26.09582         5.41425
| 73>    C       16.97210        27.04935         5.32605
| 74>    N       17.88944        24.48167         7.14503
| 75>    C       18.19287        24.09720         9.88264
| 76>    C       18.43940        24.02049        11.18783
| 77>    H        5.57525        -1.03665         4.83489
| 78>    H        8.06149        -4.15416         3.97419
| 79>    H        9.46531        -1.94239         3.22479
| 80>    H        8.91026         0.69325         3.30394
| 81>    H        6.13942         1.34876         4.42916
| 82>    H        8.48444         3.05564         3.36693
| 83>    H        5.72007         3.79275         4.48101
| 84>    H        5.38206         6.29249         4.51962
| 85>    H        9.04522        12.08930         6.08633
| 86>    H       10.50638        11.12120         5.78445
| 87>    H        8.27192        10.38065         7.74378
| 88>    H        9.83594        11.06144         8.21105
| 89>    H        9.74996         9.45453         7.47584
| 90>    H        7.69736        12.22550         3.70136
| 91>    H        8.08357        12.99431         2.14219
| 92>    H        7.80808        14.46226         4.82026
| 93>    H        6.60257        14.46813         3.52727
| 94>    H        8.18286        15.22232         3.27207
| 95>    H       12.03526        12.95022         1.83027
| 96>    H       12.80905        10.68641        -0.08649
| 97>    H       14.26586        12.24345        -1.16028
| 98>    H       13.79305        14.08665         1.24410
| 99>    H       15.53748        14.33593        -1.27240
|100>    H       17.05227        16.45452        -1.21110
|101>    H       17.73641        18.36440         0.37432
|102>    H       18.10490        19.76221         2.24891
|103>    H       18.08057        20.92912         4.53206
|104>    H       15.54383        19.22636         6.99875
|105>    H       16.45077        19.87664         9.08001
|106>    H       17.28029        21.59874        10.56945
|107>    H       17.28296        23.17367         2.98630
|108>    H       17.23524        24.93033         3.21314
|109>    H       14.92145        22.99268         3.69190
|110>    H       15.08351        24.05960         2.28909
|111>    H       14.82609        24.74288         3.89829
|112>    H       18.66722        26.03247         4.44712
|113>    H       18.87374        26.47982         6.14948
|114>    H       16.24486        26.70088         4.59681
|115>    H       17.30747        28.04140         5.03292
|116>    H       16.48200        27.12060         6.29420
|117>    H       18.40588        25.01222         9.34722
|118>    H       18.25412        23.13260        11.76869
|119>    H       18.84044        24.86032        11.72848
|120> *
|121>
|122>                          ****END OF INPUT****

CARTESIAN COORDINATES (ANGSTROEM)
---------------------------------
  C      6.488240   -1.463410    4.470350
  O      6.597450   -2.795790    4.512230
  C      7.807200   -3.113610    4.013830
  C      8.484250   -1.997300    3.649360
  C      7.625630   -0.892080    3.944580
  C      7.935260    0.490000    3.726620
  C      7.119740    1.530380    4.008390
  C      7.502080    2.878180    3.783640
  C      6.710100    3.945610    4.069020
  C      7.123170    5.281970    3.869340
  C      8.317100    5.800710    3.382680
  C      8.244400    7.225830    3.422920
  C      6.922480    7.597140    3.889730
  O      6.358730    8.666010    3.997540
  N      6.326310    6.366210    4.173770
  C      9.425440    7.707720    2.895530
  O     10.203800    6.656380    2.485750
  C      9.579560    5.450930    2.786100
  O     10.100020    4.391610    2.538300
  C      9.925350    9.010230    2.746600
  S     11.171710    9.338050    1.575400
  C     11.195360   11.025690    2.011190
  C     10.276310   11.290970    3.026780
  C      9.590230   10.150350    3.480550
  S      8.547300   10.040080    4.880780
  C      9.465820   11.085380    6.098580
  C      9.321620   10.454010    7.469120
  S      9.995820   12.941520    3.579600
  C      8.194450   13.069220    3.224150
  C      7.665790   14.389660    3.744200
  C     12.059000   11.956460    1.405940
  C     12.876710   11.677090    0.347000
  C     13.797510   12.565330   -0.238630
  C     14.195440   13.767930    0.291710
  C     15.146010   14.601080   -0.298500
  C     15.655480   15.736870    0.294880
  C     16.636910   16.606560   -0.230230
  C     16.999760   17.617590    0.610730
  C     16.324650   17.600160    1.849470
  S     15.186310   16.271150    1.899170
  C     16.507230   18.444380    2.929070
  C     17.435690   19.504730    3.050870
  C     17.418260   20.130910    4.257670
  C     16.464560   19.612800    5.172780
  S     15.603270   18.270550    4.412620
  C     16.199410   19.914350    6.477660
  C     16.690910   20.991490    7.279570
  C     16.755480   20.825460    8.661140
  C     17.233950   21.810120    9.512200
  C     17.654010   23.045020    9.044160
  C     17.531380   23.285030    7.646140
  C     17.045920   22.277960    6.769680
  N     16.849270   22.570360    5.476300
  C     17.152010   23.758360    5.012970
  C     16.829170   23.982820    3.563620
  C     15.316180   23.944050    3.345010
  C     17.732830   24.732840    5.869410
  C     18.165070   26.095820    5.414250
  C     16.972100   27.049350    5.326050
  N     17.889440   24.481670    7.145030
  C     18.192870   24.097200    9.882640
  C     18.439400   24.020490   11.187830
  H      5.575250   -1.036650    4.834890
  H      8.061490   -4.154160    3.974190
  H      9.465310   -1.942390    3.224790
  H      8.910260    0.693250    3.303940
  H      6.139420    1.348760    4.429160
  H      8.484440    3.055640    3.366930
  H      5.720070    3.792750    4.481010
  H      5.382060    6.292490    4.519620
  H      9.045220   12.089300    6.086330
  H     10.506380   11.121200    5.784450
  H      8.271920   10.380650    7.743780
  H      9.835940   11.061440    8.211050
  H      9.749960    9.454530    7.475840
  H      7.697360   12.225500    3.701360
  H      8.083570   12.994310    2.142190
  H      7.808080   14.462260    4.820260
  H      6.602570   14.468130    3.527270
  H      8.182860   15.222320    3.272070
  H     12.035260   12.950220    1.830270
  H     12.809050   10.686410   -0.086490
  H     14.265860   12.243450   -1.160280
  H     13.793050   14.086650    1.244100
  H     15.537480   14.335930   -1.272400
  H     17.052270   16.454520   -1.211100
  H     17.736410   18.364400    0.374320
  H     18.104900   19.762210    2.248910
  H     18.080570   20.929120    4.532060
  H     15.543830   19.226360    6.998750
  H     16.450770   19.876640    9.080010
  H     17.280290   21.598740   10.569450
  H     17.282960   23.173670    2.986300
  H     17.235240   24.930330    3.213140
  H     14.921450   22.992680    3.691900
  H     15.083510   24.059600    2.289090
  H     14.826090   24.742880    3.898290
  H     18.667220   26.032470    4.447120
  H     18.873740   26.479820    6.149480
  H     16.244860   26.700880    4.596810
  H     17.307470   28.041400    5.032920
  H     16.482000   27.120600    6.294200
  H     18.405880   25.012220    9.347220
  H     18.254120   23.132600   11.768690
  H     18.840440   24.860320   11.728480

 Total Charge           Charge          ....    0
 Multiplicity           Mult            ....    1
 Number of Electrons    NEL             ....  476
 Basis Dimension        Dim             .... 1103

ORBITAL ENERGIES
----------------

  NO   OCC          E(Eh)            E(eV)
   0   2.0000     -88.948880     -2420.4221
   1   2.0000     -88.937409     -2420.1099
   2   2.0000     -88.934691     -2420.0360
   3   2.0000     -88.911194     -2419.3966
   4   2.0000     -88.909113     -2419.3400
   5   2.0000     -19.291337      -524.9440
   6   2.0000     -19.262307      -524.1540
   7   2.0000     -19.187445      -522.1169
   8   2.0000     -19.176223      -521.8116
   9   2.0000     -14.445492      -393.0818
  10   2.0000     -14.409759      -392.1095
  11   2.0000     -14.409165      -392.0933
  12   2.0000     -10.387038      -282.6457
  13   2.0000     -10.366803      -282.0951
  14   2.0000     -10.347069      -281.5581
  15   2.0000     -10.333021      -281.1758
  16   2.0000     -10.323117      -280.9063
  17   2.0000     -10.318499      -280.7806
  18   2.0000     -10.312957      -280.6298
  19   2.0000     -10.312486      -280.6170
  20   2.0000     -10.305879      -280.4372
  21   2.0000     -10.304700      -280.4051
  22   2.0000     -10.303746      -280.3792
  23   2.0000     -10.302843      -280.3546
  24   2.0000     -10.301134      -280.3081
  25   2.0000     -10.300940      -280.3028
  26   2.0000     -10.300746      -280.2976
  27   2.0000     -10.300637      -280.2946
  28   2.0000     -10.298339      -280.2320
  29   2.0000     -10.290126      -280.0086
  30   2.0000     -10.285376      -279.8793
  31   2.0000     -10.282727      -279.8072
  32   2.0000     -10.281997      -279.7873
  33   2.0000     -10.281313      -279.7687
  34   2.0000     -10.280332      -279.7421
  35   2.0000     -10.278719      -279.6982
  36   2.0000     -10.277779      -279.6726
  37   2.0000     -10.276609      -279.6407
  38   2.0000     -10.275259      -279.6040
  39   2.0000     -10.274979      -279.5964
  40   2.0000     -10.274891      -279.5940
  41   2.0000     -10.274612      -279.5864
  42   2.0000     -10.273671      -279.5608
  43   2.0000     -10.273362      -279.5524
  44   2.0000     -10.273184      -279.5476
  45   2.0000     -10.271507      -279.5019
  46   2.0000     -10.270580      -279.4767
  47   2.0000     -10.270199      -279.4663
  48   2.0000     -10.269797      -279.4554
  49   2.0000     -10.268873      -279.4302
  50   2.0000     -10.267853      -279.4025
  51   2.0000     -10.267635      -279.3965
  52   2.0000     -10.266677      -279.3705
  53   2.0000     -10.265958      -279.3509
  54   2.0000     -10.260689      -279.2075
  55   2.0000     -10.259991      -279.1885
  56   2.0000     -10.259634      -279.1788
  57   2.0000     -10.256087      -279.0823
  58   2.0000     -10.255277      -279.0603
  59   2.0000     -10.255042      -279.0539
  60   2.0000     -10.254457      -279.0380
  61   2.0000     -10.250928      -278.9419
  62   2.0000      -8.044172      -218.8931
  63   2.0000      -8.033619      -218.6059
  64   2.0000      -8.031382      -218.5450
  65   2.0000      -8.005444      -217.8392
  66   2.0000      -8.003707      -217.7919
  67   2.0000      -6.013474      -163.6349
  68   2.0000      -6.009595      -163.5294
  69   2.0000      -6.005930      -163.4297
  70   2.0000      -6.003317      -163.3586
  71   2.0000      -6.001150      -163.2996
  72   2.0000      -5.999383      -163.2515
  73   2.0000      -5.997171      -163.1913
  74   2.0000      -5.994552      -163.1200
  75   2.0000      -5.992090      -163.0530
  76   2.0000      -5.975759      -162.6087
  77   2.0000      -5.974255      -162.5678
  78   2.0000      -5.971720      -162.4988
  79   2.0000      -5.970336      -162.4611
  80   2.0000      -5.965215      -162.3217
  81   2.0000      -5.963179      -162.2663
  82   2.0000      -1.209482       -32.9117
  83   2.0000      -1.191339       -32.4180
  84   2.0000      -1.116171       -30.3726
  85   2.0000      -1.095268       -29.8037
  86   2.0000      -1.071619       -29.1602
  87   2.0000      -1.045111       -28.4389
  88   2.0000      -0.995304       -27.0836
  89   2.0000      -0.987253       -26.8645
  90   2.0000      -0.986812       -26.8525
  91   2.0000      -0.965689       -26.2777
  92   2.0000      -0.950169       -25.8554
  93   2.0000      -0.924021       -25.1439
  94   2.0000      -0.913122       -24.8473
  95   2.0000      -0.899134       -24.4667
  96   2.0000      -0.897576       -24.4243
  97   2.0000      -0.896937       -24.4069
  98   2.0000      -0.892766       -24.2934
  99   2.0000      -0.889455       -24.2033
 100   2.0000      -0.887047       -24.1378
 101   2.0000      -0.873614       -23.7722
 102   2.0000      -0.861078       -23.4311
 103   2.0000      -0.855540       -23.2804
 104   2.0000      -0.851964       -23.1831
 105   2.0000      -0.847434       -23.0599
 106   2.0000      -0.839210       -22.8361
 107   2.0000      -0.834047       -22.6956
 108   2.0000      -0.832026       -22.6406
 109   2.0000      -0.819670       -22.3044
 110   2.0000      -0.818845       -22.2819
 111   2.0000      -0.816116       -22.2076
 112   2.0000      -0.803707       -21.8700
 113   2.0000      -0.795184       -21.6381
 114   2.0000      -0.777612       -21.1599
 115   2.0000      -0.772306       -21.0155
 116   2.0000      -0.754359       -20.5272
 117   2.0000      -0.753607       -20.5067
 118   2.0000      -0.747767       -20.3478
 119   2.0000      -0.741522       -20.1778
 120   2.0000      -0.737428       -20.0664
 121   2.0000      -0.722640       -19.6640
 122   2.0000      -0.713565       -19.4171
 123   2.0000      -0.703657       -19.1475
 124   2.0000      -0.691408       -18.8142
 125   2.0000      -0.687409       -18.7054
 126   2.0000      -0.684775       -18.6337
 127   2.0000      -0.681930       -18.5563
 128   2.0000      -0.677359       -18.4319
 129   2.0000      -0.673213       -18.3191
 130   2.0000      -0.671810       -18.2809
 131   2.0000      -0.662114       -18.0170
 132   2.0000      -0.651022       -17.7152
 133   2.0000      -0.649478       -17.6732
 134   2.0000      -0.646535       -17.5931
 135   2.0000      -0.633500       -17.2384
 136   2.0000      -0.631430       -17.1821
 137   2.0000      -0.620445       -16.8832
 138   2.0000      -0.616577       -16.7779
 139   2.0000      -0.615353       -16.7446
 140   2.0000      -0.609850       -16.5949
 141   2.0000      -0.598443       -16.2845
 142   2.0000      -0.596679       -16.2365
 143   2.0000      -0.592205       -16.1147
 144   2.0000      -0.588791       -16.0218
 145   2.0000      -0.581925       -15.8350
 146   2.0000      -0.573775       -15.6132
 147   2.0000      -0.570597       -15.5267
 148   2.0000      -0.567274       -15.4363
 149   2.0000      -0.563623       -15.3370
 150   2.0000      -0.556722       -15.1492
 151   2.0000      -0.553551       -15.0629
 152   2.0000      -0.549174       -14.9438
 153   2.0000      -0.547731       -14.9045
 154   2.0000      -0.542265       -14.7558
 155   2.0000      -0.536908       -14.6100
 156   2.0000      -0.536582       -14.6011
 157   2.0000      -0.532862       -14.4999
 158   2.0000      -0.526820       -14.3355
 159   2.0000      -0.522692       -14.2232
 160   2.0000      -0.521533       -14.1916
 161   2.0000      -0.520256       -14.1569
 162   2.0000      -0.518847       -14.1185
 163   2.0000      -0.518082       -14.0977
 164   2.0000      -0.515801       -14.0357
 165   2.0000      -0.513868       -13.9831
 166   2.0000      -0.512232       -13.9385
 167   2.0000      -0.509702       -13.8697
 168   2.0000      -0.508405       -13.8344
 169   2.0000      -0.503091       -13.6898
 170   2.0000      -0.500966       -13.6320
 171   2.0000      -0.493960       -13.4413
 172   2.0000      -0.491349       -13.3703
 173   2.0000      -0.490299       -13.3417
 174   2.0000      -0.488331       -13.2882
 175   2.0000      -0.487411       -13.2631
 176   2.0000      -0.485824       -13.2200
 177   2.0000      -0.479479       -13.0473
 178   2.0000      -0.478699       -13.0261
 179   2.0000      -0.476674       -12.9710
 180   2.0000      -0.470136       -12.7930
 181   2.0000      -0.469035       -12.7631
 182   2.0000      -0.464379       -12.6364
 183   2.0000      -0.461130       -12.5480
 184   2.0000      -0.458547       -12.4777
 185   2.0000      -0.456944       -12.4341
 186   2.0000      -0.455855       -12.4045
 187   2.0000      -0.453915       -12.3517
 188   2.0000      -0.451207       -12.2780
 189   2.0000      -0.448438       -12.2026
 190   2.0000      -0.446935       -12.1617
 191   2.0000      -0.444798       -12.1036
 192   2.0000      -0.443034       -12.0556
 193   2.0000      -0.441184       -12.0052
 194   2.0000      -0.440854       -11.9962
 195   2.0000      -0.436830       -11.8867
 196   2.0000      -0.431263       -11.7353
 197   2.0000      -0.430015       -11.7013
 198   2.0000      -0.429220       -11.6797
 199   2.0000      -0.426870       -11.6157
 200   2.0000      -0.426027       -11.5928
 201   2.0000      -0.423322       -11.5192
 202   2.0000      -0.422737       -11.5032
 203   2.0000      -0.418968       -11.4007
 204   2.0000      -0.418593       -11.3905
 205   2.0000      -0.416932       -11.3453
 206   2.0000      -0.414281       -11.2732
 207   2.0000      -0.413624       -11.2553
 208   2.0000      -0.412344       -11.2204
 209   2.0000      -0.411289       -11.1917
 210   2.0000      -0.409972       -11.1559
 211   2.0000      -0.405990       -11.0475
 212   2.0000      -0.397605       -10.8194
 213   2.0000      -0.391087       -10.6420
 214   2.0000      -0.385585       -10.4923
 215   2.0000      -0.379220       -10.3191
 216   2.0000      -0.374716       -10.1965
 217   2.0000      -0.366793        -9.9809
 218   2.0000      -0.363386        -9.8882
 219   2.0000      -0.360726        -9.8158
 220   2.0000      -0.350731        -9.5439
 221   2.0000      -0.343655        -9.3513
 222   2.0000      -0.336616        -9.1598
 223   2.0000      -0.332494        -9.0476
 224   2.0000      -0.329908        -8.9773
 225   2.0000      -0.321648        -8.7525
 226   2.0000      -0.319921        -8.7055
 227   2.0000      -0.317274        -8.6335
 228   2.0000      -0.313504        -8.5309
 229   2.0000      -0.310843        -8.4585
 230   2.0000      -0.304717        -8.2918
 231   2.0000      -0.290457        -7.9037
 232   2.0000      -0.284166        -7.7326
 233   2.0000      -0.273940        -7.4543
 234   2.0000      -0.267362        -7.2753
 235   2.0000      -0.255757        -6.9595
 236   2.0000      -0.227391        -6.1876
 237   2.0000      -0.195654        -5.3240
 238   0.0000      -0.084994        -2.3128
 239   0.0000      -0.063635        -1.7316
 240   0.0000      -0.040798        -1.1102
 241   0.0000      -0.021145        -0.5754
 242   0.0000       0.000441         0.0120

MULLIKEN ATOMIC CHARGES
-----------------------
   0 C :    0.077073
   1 O :   -0.175254
   2 C :    0.130757
   3 C :   -0.032832
   4 C :    0.035529
   5 C :    0.044912
   6 C :    0.009795
   7 C :    0.026654
   8 C :   -0.012192
   9 C :    0.109824
  10 C :   -0.140809
  11 C :   -0.051789
  12 C :    0.139408
  13 O :   -0.180015
  14 N :   -0.115270
  15 C :    0.127033
  16 O :   -0.254749
  17 C :    0.231671
  18 O :   -0.171252
  19 C :   -0.157963
  20 S :    0.162008
  21 C :   -0.045711
  22 C :   -0.080119
  23 C :    0.000580
  24 S :    0.025620
  25 C :   -0.093632
  26 C :    0.025270
  27 S :   -0.049140
  28 C :   -0.116030
  29 C :    0.015500
  30 C :   -0.004122
  31 C :    0.013502
  32 C :    0.004803
  33 C :    0.017163
  34 C :   -0.008105
  35 C :   -0.022735
  36 C :    0.033735
  37 C :    0.025414
  38 C :   -0.048532
  39 S :    0.072094
  40 C :   -0.041498
  41 C :   -0.003343
  42 C :    0.083412
  43 C :   -0.042926
  44 S :    0.080204
  45 C :   -0.030613
  46 C :    0.093375
  47 C :   -0.024622
  48 C :   -0.049913
  49 C :    0.076387
  50 C :   -0.032641
  51 C :   -0.037731
  52 N :   -0.019751
  53 C :   -0.142889
  54 C :    0.124643
  55 C :    0.002884
  56 C :   -0.143989
  57 C :    0.093099
  58 C :    0.006091
  59 N :    0.003050
  60 C :   -0.006861
  61 C :   -0.011112
  62 H :    0.006405
  63 H :    0.012801
  64 H :   -0.008592
  65 H :    0.001110
  66 H :   -0.020848
  67 H :    0.021508
  68 H :   -0.040935
  69 H :    0.122103
  70 H :    0.050364
  71 H :    0.056681
  72 H :    0.022372
  73 H :    0.022148
  74 H :    0.022138
  75 H :    0.071241
  76 H :    0.052596
  77 H :    0.022364
  78 H :    0.030666
  79 H :    0.023305
  80 H :   -0.002619
  81 H :   -0.006053
  82 H :   -0.017900
  83 H :    0.005551
  84 H :   -0.020082
  85 H :   -0.016059
  86 H :   -0.015702
  87 H :   -0.019173
  88 H :   -0.011153
  89 H :   -0.010854
  90 H :   -0.025798
  91 H :   -0.028019
  92 H :    0.009770
  93 H :   -0.009160
  94 H :    0.034793
  95 H :    0.015884
  96 H :    0.008779
  97 H :    0.010085
  98 H :    0.011403
  99 H :    0.009129
 100 H :    0.020045
 101 H :    0.021944
 102 H :   -0.004113
 103 H :    0.007985
 104 H :    0.020541
Sum of atomic charges:   -0.0000000

LOEWDIN ATOMIC CHARGES
----------------------
   0 C :    0.043049
   1 O :    0.029746
   2 C :    0.031709
   3 C :   -0.063859
   4 C :   -0.084110
   5 C :    0.016583
   6 C :   -0.036126
   7 C :    0.037587
   8 C :   -0.067711
   9 C :    0.074206
  10 C :   -0.144183
  11 C :   -0.122995
  12 C :    0.063016
  13 O :   -0.197211
  14 N :    0.028808
  15 C :    0.070272
  16 O :   -0.058355
  17 C :    0.098359
  18 O :   -0.170555
  19 C :   -0.215081
  20 S :    0.451607
  21 C :   -0.159968
  22 C :   -0.222989
  23 C :   -0.183675
  24 S :    0.355244
  25 C :   -0.131501
  26 C :   -0.072307
  27 S :    0.276571
  28 C :   -0.122555
  29 C :   -0.070660
  30 C :   -0.046607
  31 C :   -0.023397
  32 C :   -0.036731
  33 C :   -0.013908
  34 C :   -0.061023
  35 C :   -0.141351
  36 C :   -0.039603
  37 C :   -0.030712
  38 C :   -0.183807
  39 S :    0.371884
  40 C :   -0.175339
  41 C :   -0.038822
  42 C :   -0.021742
  43 C :   -0.130017
  44 S :    0.368513
  45 C :   -0.052186
  46 C :   -0.027212
  47 C :   -0.011695
  48 C :   -0.009728
  49 C :   -0.027258
  50 C :   -0.006012
  51 C :   -0.011513
  52 N :   -0.034446
  53 C :    0.000953
  54 C :   -0.037088
  55 C :   -0.045991
  56 C :    0.000248
  57 C :   -0.036842
  58 C :   -0.048316
  59 N :   -0.042247
  60 C :   -0.019117
  61 C :   -0.040915
  62 H :    0.020678
  63 H :    0.023265
  64 H :    0.031936
  65 H :    0.038487
  66 H :    0.023652
  67 H :    0.038475
  68 H :    0.025096
  69 H :    0.087338
  70 H :    0.012576
  71 H :    0.023295
  72 H :    0.024160
  73 H :    0.028606
  74 H :    0.024720
  75 H :    0.012905
  76 H :    0.022170
  77 H :    0.024289
  78 H :    0.033412
  79 H :    0.024801
  80 H :    0.024535
  81 H :    0.023381
  82 H :    0.027557
  83 H :    0.022566
  84 H :    0.031445
  85 H :    0.032273
  86 H :    0.030707
  87 H :    0.029545
  88 H :    0.030053
  89 H :    0.030268
  90 H :    0.029436
  91 H :    0.029059
  92 H :    0.035704
  93 H :    0.021472
  94 H :    0.030220
  95 H :    0.024869
  96 H :    0.020528
  97 H :    0.025092
  98 H :    0.034296
  99 H :    0.020604
 100 H :    0.027205
 101 H :    0.028300
 102 H :    0.028822
 103 H :    0.016467
 104 H :    0.024845

  Mayer bond orders larger than 0.100000
B(  0-C ,  1-O ) :   1.1848 B(  0-C ,  4-C ) :   1.4955 B(  0-C , 62-H ) :   1.0028
B(  1-O ,  2-C ) :   1.1399 B(  2-C ,  3-C ) :   1.5790 B(  2-C , 63-H ) :   1.0020
B(  3-C ,  4-C ) :   1.2082 B(  3-C , 64-H ) :   1.0095 B(  4-C ,  5-C ) :   1.0723
B(  5-C ,  6-C ) :   1.6711 B(  5-C , 65-H ) :   0.9834 B(  6-C ,  7-C ) :   1.1397
B(  6-C , 66-H ) :   0.9832 B(  7-C ,  8-C ) :   1.5804 B(  7-C , 67-H ) :   0.9682
B(  8-C ,  9-C ) :   1.1470 B(  8-C , 68-H ) :   0.9689 B(  9-C , 10-C ) :   1.3532
B(  9-C , 14-N ) :   1.1825 B( 10-C , 11-C ) :   1.1776 B( 10-C , 17-C ) :   1.0172
B( 11-C , 12-C ) :   0.9469 B( 11-C , 15-C ) :   1.4215 B( 12-C , 13-O ) :   2.1772
B( 12-C , 14-N ) :   1.0607 B( 14-N , 69-H ) :   0.9237 B( 15-C , 16-O ) :   1.1508
B( 15-C , 19-C ) :   1.1851 B( 16-O , 17-C ) :   1.0227 B( 17-C , 18-O ) :   2.1251
B( 19-C , 20-S ) :   1.0851 B( 19-C , 21-C ) :   0.1105 B( 19-C , 23-C ) :   1.4954
B( 20-S , 21-C ) :   1.1070 B( 21-C , 22-C ) :   1.4816 B( 21-C , 30-C ) :   1.2056
B( 22-C , 23-C ) :   1.2687 B( 22-C , 27-S ) :   1.0373 B( 23-C , 24-S ) :   1.0924
B( 24-S , 25-C ) :   0.9718 B( 25-C , 26-C ) :   1.0803 B( 25-C , 70-H ) :   0.9497
B( 25-C , 71-H ) :   0.9527 B( 26-C , 72-H ) :   0.9693 B( 26-C , 73-H ) :   0.9666
B( 26-C , 74-H ) :   0.9714 B( 27-S , 28-C ) :   0.9802 B( 28-C , 29-C ) :   1.0882
B( 28-C , 75-H ) :   0.9379 B( 28-C , 76-H ) :   0.9525 B( 29-C , 77-H ) :   0.9724
B( 29-C , 78-H ) :   0.9671 B( 29-C , 79-H ) :   0.9693 B( 30-C , 31-C ) :   1.6022
B( 30-C , 80-H ) :   0.9553 B( 31-C , 32-C ) :   1.1821 B( 31-C , 81-H ) :   0.9708
B( 32-C , 33-C ) :   1.5961 B( 32-C , 82-H ) :   0.9784 B( 33-C , 34-C ) :   1.2021
B( 33-C , 83-H ) :   0.9626 B( 34-C , 35-C ) :   1.5201 B( 34-C , 84-H ) :   0.9832
B( 35-C , 36-C ) :   1.1587 B( 35-C , 39-S ) :   1.0411 B( 36-C , 37-C ) :   1.5723
B( 36-C , 85-H ) :   0.9989 B( 37-C , 38-C ) :   1.2007 B( 37-C , 86-H ) :   0.9939
B( 38-C , 39-S ) :   1.0426 B( 38-C , 40-C ) :   1.4961 B( 40-C , 41-C ) :   1.1815
B( 40-C , 44-S ) :   1.0556 B( 41-C , 42-C ) :   1.6085 B( 41-C , 87-H ) :   0.9934
B( 42-C , 43-C ) :   1.1485 B( 42-C , 88-H ) :   0.9798 B( 43-C , 44-S ) :   1.0308
B( 43-C , 45-C ) :   1.6156 B( 45-C , 46-C ) :   1.1235 B( 45-C , 89-H ) :   0.9467
B( 46-C , 47-C ) :   1.3851 B( 46-C , 49-C ) :   0.1102 B( 46-C , 51-C ) :   1.1914
B( 47-C , 48-C ) :   1.2833 B( 47-C , 90-H ) :   0.9977 B( 48-C , 49-C ) :   1.4008
B( 48-C , 91-H ) :   0.9974 B( 49-C , 50-C ) :   1.2067 B( 49-C , 60-C ) :   1.1081
B( 50-C , 51-C ) :   1.2423 B( 50-C , 59-N ) :   1.4559 B( 51-C , 52-N ) :   1.4554
B( 52-N , 53-C ) :   1.6187 B( 53-C , 54-C ) :   1.0569 B( 53-C , 56-C ) :   1.1972
B( 54-C , 55-C ) :   1.1049 B( 54-C , 92-H ) :   0.9127 B( 54-C , 93-H ) :   0.9213
B( 55-C , 94-H ) :   0.9676 B( 55-C , 95-H ) :   0.9684 B( 55-C , 96-H ) :   0.9672
B( 56-C , 57-C ) :   1.0570 B( 56-C , 59-N ) :   1.6839 B( 57-C , 58-C ) :   1.1012
B( 57-C , 97-H ) :   0.9284 B( 57-C , 98-H ) :   0.9148 B( 58-C , 99-H ) :   0.9726
B( 58-C ,100-H ) :   0.9668 B( 58-C ,101-H ) :   0.9653 B( 60-C , 61-C ) :   1.9189
B( 60-C ,102-H ) :   0.9565 B( 61-C ,103-H ) :   0.9488 B( 61-C ,104-H ) :   0.9504

-----------------------------------------------------------------------------
         ABSORPTION SPECTRUM VIA TRANSITION ELECTRIC DIPOLE MOMENTS
-----------------------------------------------------------------------------
State   Energy  Wavelength   fosc         T2         TX        TY        TZ
        (cm-1)    (nm)                  (au**2)     (au)      (au)      (au)
-----------------------------------------------------------------------------
   0   11455.9    872.9   1.938211427  55.69893   3.55553   6.32453   1.74857
   1   17266.3    579.2   0.357061449   6.80801   0.71621   0.42769  -2.47227
   2   18454.2    541.9   0.340265549   6.07012  -1.17380  -1.50554   1.55746
   3   20618.7    485.0   0.016253178   0.25951  -0.31474   0.25643   0.30772
   4   23054.1    433.8   0.206965159   2.95546   0.24050  -1.19175  -1.21547
   5   24275.2    411.9   0.165605964   2.24589   0.59498  -0.56870  -1.25239
   6   24576.0    406.9   0.134306920   1.79913   0.10605  -0.75610  -1.10281
   7   25607.5    390.5   0.101002020   1.29849   0.47167  -0.27765  -0.99946
   8   26451.7    378.0   0.080815957   1.00582  -0.53739  -0.35606   0.76828
   9   28876.4    346.3   0.070690798   0.80593   0.16626  -0.69164  -0.54765
  10   29281.3    341.5   0.032388547   0.36415  -0.34194   0.14319   0.47615
  11   29938.8    334.0   0.024743501   0.27208   0.48113  -0.11942   0.16227
  12   30344.7    329.5   0.062810959   0.68144  -0.13426  -0.70471   0.40840
  13   30372.9    329.2   0.138610477   1.50240   0.11099   1.18298  -0.30104
  14   30496.8    327.9   0.105578400   1.13971  -0.09334   1.06209  -0.05450
  15   31164.5    320.9   0.041073940   0.43389  -0.32437   0.56101   0.11809
  16   31221.8    320.3   0.087438548   0.92198  -0.70797   0.28303   0.58365
  17   31594.7    316.5   0.003110589   0.03241   0.15351   0.00387  -0.09398
  18   32234.6    310.2   0.020049949   0.20477   0.02415   0.16835  -0.41934
  19   32727.1    305.6   0.033948329   0.34150   0.14682   0.46666   0.31965
  20   33039.5    302.7   0.003056379   0.03045   0.11827   0.12807  -0.00793
  21   33605.1    297.6   0.065404502   0.64073   0.14903   0.71397  -0.32980
  22   34029.6    293.9   0.095387265   0.92280  -0.17370  -0.93804   0.11278
  23   34711.9    288.1   0.026579684   0.25209   0.23215   0.40080   0.19377
  24   34903.0    286.5   0.077631779   0.73224   0.01300  -0.31796  -0.79434
  25   35321.0    283.1   0.126114812   1.17546   0.04188   0.38944  -1.01096
  26   35548.3    281.3   0.035709639   0.33071   0.11159   0.29892  -0.47844
  27   36291.6    275.5   0.044471435   0.40341   0.57347   0.24628   0.11785
  28   36508.4    273.9   0.030396669   0.27410  -0.09978   0.36022  -0.36658
  29   36972.8    270.5   0.051582596   0.45930  -0.26457  -0.57340  -0.24601
  30   37224.0    268.6   0.008568459   0.07578  -0.19815   0.07340  -0.17644
  31   37489.7    266.7   0.018618925   0.16350   0.06363  -0.32831  -0.22730
  32   37632.1    265.7   0.043630303   0.38169  -0.23112   0.17456   0.54571
  33   38359.3    260.7   0.028694763   0.24627  -0.07654  -0.03586   0.48900
  34   38520.7    259.6   0.071310861   0.60945   0.19673  -0.73058  -0.19236
  35   38999.3    256.4   0.026359264   0.22251   0.01967  -0.41488   0.22361
  36   39319.3    254.3   0.118090997   0.98875  -0.43938   0.89099   0.04279
  37   39500.7    253.2   0.211773692   1.76499   0.72379  -1.08554  -0.25046
  38   39844.1    251.0   0.015278446   0.12624  -0.06587  -0.10031   0.33442
  39   40015.3    249.9   0.035445606   0.29162  -0.20602  -0.11520   0.48570
  40   40296.5    248.2   0.019083441   0.15591  -0.20025  -0.32892  -0.08730

FINAL SINGLE POINT ENERGY     -4383.574408171849

DIPOLE MOMENT
-------------
                                X             Y             Z
Electronic contribution:    -17.04623     -79.79819     -18.79594
Nuclear contribution   :     17.33239      80.85116      18.92371
                        -----------------------------------------
Total Dipole Moment    :      0.28616       1.05298       0.12776
                        -----------------------------------------
Magnitude (a.u.)       :      1.09862
Magnitude (Debye)      :      2.79247

Rotational constants in cm-1:     0.002345     0.000228     0.000220
Rotational constants in MHz :    70.287033     6.842615     6.606978

                             ****ORCA TERMINATED NORMALLY****
TOTAL RUN TIME: 0 days 0 hours 8 minutes 54 seconds 306 msec
