                         Program Version 4.2.0 -  RELEASE  -
|  1> # ORCA input file
|  2> # SCF done       -166.226429986968          0.000733454496
|  3> ! CAM-B3LYP def2-SVP def2/J RIJCOSX Grid4 TightSCF
|  4> %maxcore 5000
|  5> %tddft
|  6>     Mode sTDDFT
|  7>     Ethresh 5.0
|  8>     maxcore 5000
|  9> end
| 10>
| 11> %pal
| 12>   nprocs 6
| 13>   end
| 14> * xyz 0 1
| 15>    C       -3.70208        -0.31367        -2.40350
| 16>    C       -4.18988        -1.05937        -1.30243
| 17>    C       -3.94479        -0.62465        -0.01497
| 18>    C       -3.19709         0.54253         0.20627
| 19>    C       -2.69796         1.27918        -0.90573
| 20>    C       -2.97379         0.82382        -2.21119
| 21>    N       -1.98047         2.40468        -0.71613
| 22>    C       -1.76457         2.77966         0.51425
| 23>    C       -2.25635         2.04699         1.61819
| 24>    N       -2.95543         0.95741         1.46883
| 25>    C       -4.97563        -2.26562        -1.49139
| 26>    O       -5.80204        -2.63315        -0.50118
| 27>    C       -6.44210        -3.76868        -0.86339
| 28>    C       -6.01166        -4.15677        -2.11539
| 29>    C       -5.06675        -3.19343        -2.52041
| 30>    C       -4.30275        -3.25923        -3.79539
| 31>    F       -2.99399        -2.99670        -3.63493
| 32>    F       -4.38305        -4.47026        -4.35765
| 33>    F       -4.74705        -2.38624        -4.72342
| 34>    C       -7.40022        -4.36833         0.00300
| 35>    C       -7.68439        -3.89908         1.23861
| 36>    C       -8.66043        -4.48691         2.09057
| 37>    O       -9.40904        -5.52354         1.68270
| 38>    C      -10.25562        -5.86433         2.68391
| 39>    C      -10.04761        -5.03093         3.77140
| 40>    C       -9.02816        -4.14734         3.39221
| 41>    C       -8.43702        -3.05636         4.21060
| 42>    F       -7.11475        -3.21941         4.40547
| 43>    F       -8.57506        -1.84759         3.63315
| 44>    F       -8.99696        -2.96956         5.42178
| 45>    C      -11.18377        -6.92466         2.51093
| 46>    C      -11.28253        -7.63317         1.35740
| 47>    C      -12.19545        -8.68139         1.09897
| 48>    C      -12.33884        -9.38995        -0.08386
| 49>    C      -13.39186       -10.33713         0.06705
| 50>    C      -13.88815       -10.23551         1.43796
| 51>    O      -14.70818       -10.86086         2.06464
| 52>    N      -13.12631        -9.19091         1.97718
| 53>    C      -13.46974       -11.03939        -1.11583
| 54>    O      -12.52512       -10.59679        -1.98228
| 55>    C      -11.79183        -9.55414        -1.41229
| 56>    O      -10.91608        -8.98722        -2.00400
| 57>    C      -14.35843       -12.09708        -1.48117
| 58>    C      -14.00021       -13.12925        -2.37628
| 59>    C      -14.91854       -14.20469        -2.66926
| 60>    N      -14.57159       -15.15868        -3.55995
| 61>    C      -13.39102       -15.10546        -4.11218
| 62>    C      -12.44336       -14.08284        -3.74574
| 63>    N      -12.76722       -13.13626        -2.90605
| 64>    C      -11.13395       -14.11718        -4.28913
| 65>    N      -10.08916       -14.19138        -4.75183
| 66>    C      -13.02626       -16.08391        -5.07362
| 67>    N      -12.69591       -16.85466        -5.85294
| 68>    C      -16.16810       -14.29083        -2.05825
| 69>    C      -16.53321       -13.27605        -1.18507
| 70>    C      -15.64393       -12.16300        -0.91608
| 71>    N      -16.21802       -11.25034        -0.13177
| 72>    S      -17.67163       -11.76435         0.28135
| 73>    N      -17.69772       -13.13743        -0.53357
| 74>    H       -3.93016        -0.62973        -3.40697
| 75>    H       -4.30921        -1.17136         0.84023
| 76>    H       -2.60096         1.40165        -3.04183
| 77>    H       -1.18840         3.68425         0.65397
| 78>    H       -2.06780         2.36977         2.63314
| 79>    H       -6.32057        -5.01891        -2.66974
| 80>    H       -7.90609        -5.24070        -0.38268
| 81>    H       -7.16559        -3.03546         1.62622
| 82>    H      -10.56051        -5.05167         4.71087
| 83>    H      -11.81982        -7.12427         3.36059
| 84>    H      -10.62574        -7.39325         0.53327
| 85>    H      -13.24340        -8.88471         2.92999
| 86>    H      -16.82651       -15.11299        -2.28297
| 87> *
| 88>
| 89>                          ****END OF INPUT****

CARTESIAN COORDINATES (ANGSTROEM)
---------------------------------
  C     -3.702080   -0.313670   -2.403500
  C     -4.189880   -1.059370   -1.302430
  C     -3.944790   -0.624650   -0.014970
  C     -3.197090    0.542530    0.206270
  C     -2.697960    1.279180   -0.905730
  C     -2.973790    0.823820   -2.211190
  N     -1.980470    2.404680   -0.716130
  C     -1.764570    2.779660    0.514250
  C     -2.256350    2.046990    1.618190
  N     -2.955430    0.957410    1.468830
  C     -4.975630   -2.265620   -1.491390
  O     -5.802040   -2.633150   -0.501180
  C     -6.442100   -3.768680   -0.863390
  C     -6.011660   -4.156770   -2.115390
  C     -5.066750   -3.193430   -2.520410
  C     -4.302750   -3.259230   -3.795390
  F     -2.993990   -2.996700   -3.634930
  F     -4.383050   -4.470260   -4.357650
  F     -4.747050   -2.386240   -4.723420
  C     -7.400220   -4.368330    0.003000
  C     -7.684390   -3.899080    1.238610
  C     -8.660430   -4.486910    2.090570
  O     -9.409040   -5.523540    1.682700
  C    -10.255620   -5.864330    2.683910
  C    -10.047610   -5.030930    3.771400
  C     -9.028160   -4.147340    3.392210
  C     -8.437020   -3.056360    4.210600
  F     -7.114750   -3.219410    4.405470
  F     -8.575060   -1.847590    3.633150
  F     -8.996960   -2.969560    5.421780
  C    -11.183770   -6.924660    2.510930
  C    -11.282530   -7.633170    1.357400
  C    -12.195450   -8.681390    1.098970
  C    -12.338840   -9.389950   -0.083860
  C    -13.391860  -10.337130    0.067050
  C    -13.888150  -10.235510    1.437960
  O    -14.708180  -10.860860    2.064640
  N    -13.126310   -9.190910    1.977180
  C    -13.469740  -11.039390   -1.115830
  O    -12.525120  -10.596790   -1.982280
  C    -11.791830   -9.554140   -1.412290
  O    -10.916080   -8.987220   -2.004000
  C    -14.358430  -12.097080   -1.481170
  C    -14.000210  -13.129250   -2.376280
  C    -14.918540  -14.204690   -2.669260
  N    -14.571590  -15.158680   -3.559950
  C    -13.391020  -15.105460   -4.112180
  C    -12.443360  -14.082840   -3.745740
  N    -12.767220  -13.136260   -2.906050
  C    -11.133950  -14.117180   -4.289130
  N    -10.089160  -14.191380   -4.751830
  C    -13.026260  -16.083910   -5.073620
  N    -12.695910  -16.854660   -5.852940
  C    -16.168100  -14.290830   -2.058250
  C    -16.533210  -13.276050   -1.185070
  C    -15.643930  -12.163000   -0.916080
  N    -16.218020  -11.250340   -0.131770
  S    -17.671630  -11.764350    0.281350
  N    -17.697720  -13.137430   -0.533570
  H     -3.930160   -0.629730   -3.406970
  H     -4.309210   -1.171360    0.840230
  H     -2.600960    1.401650   -3.041830
  H     -1.188400    3.684250    0.653970
  H     -2.067800    2.369770    2.633140
  H     -6.320570   -5.018910   -2.669740
  H     -7.906090   -5.240700   -0.382680
  H     -7.165590   -3.035460    1.626220
  H    -10.560510   -5.051670    4.710870
  H    -11.819820   -7.124270    3.360590
  H    -10.625740   -7.393250    0.533270
  H    -13.243400   -8.884710    2.929990
  H    -16.826510  -15.112990   -2.282970

 Total Charge           Charge          ....    0
 Multiplicity           Mult            ....    1
 Number of Electrons    NEL             ....  414
 Basis Dimension        Dim             ....  895

ORBITAL ENERGIES
----------------

  NO   OCC          E(Eh)            E(eV)
   0   2.0000     -89.051690     -2423.2197
   1   2.0000     -24.811224      -675.1477
   2   2.0000     -24.805370      -674.9884
   3   2.0000     -24.803677      -674.9424
   4   2.0000     -24.803041      -674.9250
   5   2.0000     -24.801915      -674.8944
   6   2.0000     -24.801327      -674.8784
   7   2.0000     -19.322617      -525.7951
   8   2.0000     -19.316021      -525.6157
   9   2.0000     -19.281831      -524.6853
  10   2.0000     -19.208506      -522.6900
  11   2.0000     -19.207231      -522.6553
  12   2.0000     -14.470700      -393.7678
  13   2.0000     -14.463905      -393.5829
  14   2.0000     -14.461577      -393.5195
  15   2.0000     -14.455158      -393.3448
  16   2.0000     -14.454809      -393.3353
  17   2.0000     -14.429928      -392.6583
  18   2.0000     -14.427839      -392.6015
  19   2.0000     -14.423628      -392.4869
  20   2.0000     -14.423222      -392.4758
  21   2.0000     -10.529870      -286.5323
  22   2.0000     -10.526419      -286.4384
  23   2.0000     -10.408229      -283.2223
  24   2.0000     -10.397657      -282.9346
  25   2.0000     -10.384333      -282.5721
  26   2.0000     -10.383381      -282.5462
  27   2.0000     -10.375357      -282.3278
  28   2.0000     -10.370912      -282.2069
  29   2.0000     -10.364689      -282.0375
  30   2.0000     -10.361170      -281.9418
  31   2.0000     -10.360984      -281.9367
  32   2.0000     -10.356658      -281.8190
  33   2.0000     -10.352535      -281.7068
  34   2.0000     -10.351034      -281.6660
  35   2.0000     -10.349097      -281.6132
  36   2.0000     -10.347055      -281.5577
  37   2.0000     -10.329881      -281.0903
  38   2.0000     -10.325294      -280.9655
  39   2.0000     -10.322817      -280.8981
  40   2.0000     -10.320692      -280.8403
  41   2.0000     -10.318588      -280.7831
  42   2.0000     -10.318219      -280.7730
  43   2.0000     -10.317200      -280.7453
  44   2.0000     -10.316869      -280.7363
  45   2.0000     -10.315608      -280.7020
  46   2.0000     -10.311454      -280.5889
  47   2.0000     -10.310798      -280.5711
  48   2.0000     -10.310178      -280.5542
  49   2.0000     -10.308020      -280.4955
  50   2.0000     -10.306685      -280.4592
  51   2.0000     -10.305009      -280.4135
  52   2.0000     -10.303652      -280.3766
  53   2.0000     -10.299420      -280.2615
  54   2.0000     -10.291474      -280.0453
  55   2.0000     -10.290043      -280.0063
  56   2.0000     -10.287974      -279.9500
  57   2.0000     -10.283780      -279.8359
  58   2.0000     -10.282909      -279.8122
  59   2.0000      -8.142770      -221.5760
  60   2.0000      -6.113561      -166.3584
  61   2.0000      -6.106207      -166.1583
  62   2.0000      -6.105746      -166.1458
  63   2.0000      -1.396326       -37.9960
  64   2.0000      -1.393197       -37.9108
  65   2.0000      -1.301603       -35.4184
  66   2.0000      -1.296812       -35.2880
  67   2.0000      -1.294095       -35.2141
  68   2.0000      -1.292315       -35.1657
  69   2.0000      -1.244077       -33.8530
  70   2.0000      -1.238121       -33.6910
  71   2.0000      -1.214374       -33.0448
  72   2.0000      -1.148216       -31.2446
  73   2.0000      -1.144889       -31.1540
  74   2.0000      -1.123008       -30.5586
  75   2.0000      -1.117902       -30.4197
  76   2.0000      -1.079385       -29.3716
  77   2.0000      -1.072854       -29.1938
  78   2.0000      -1.048795       -28.5392
  79   2.0000      -1.013698       -27.5841
  80   2.0000      -1.003323       -27.3018
  81   2.0000      -1.002124       -27.2692
  82   2.0000      -0.998975       -27.1835
  83   2.0000      -0.981195       -26.6997
  84   2.0000      -0.965997       -26.2861
  85   2.0000      -0.950935       -25.8762
  86   2.0000      -0.943709       -25.6796
  87   2.0000      -0.935036       -25.4436
  88   2.0000      -0.926584       -25.2136
  89   2.0000      -0.922745       -25.1092
  90   2.0000      -0.908626       -24.7250
  91   2.0000      -0.900112       -24.4933
  92   2.0000      -0.894403       -24.3379
  93   2.0000      -0.868734       -23.6394
  94   2.0000      -0.853068       -23.2132
  95   2.0000      -0.842504       -22.9257
  96   2.0000      -0.837812       -22.7980
  97   2.0000      -0.827335       -22.5129
  98   2.0000      -0.813355       -22.1325
  99   2.0000      -0.806217       -21.9383
 100   2.0000      -0.795704       -21.6522
 101   2.0000      -0.791316       -21.5328
 102   2.0000      -0.767767       -20.8920
 103   2.0000      -0.763122       -20.7656
 104   2.0000      -0.751917       -20.4607
 105   2.0000      -0.745061       -20.2742
 106   2.0000      -0.736821       -20.0499
 107   2.0000      -0.735016       -20.0008
 108   2.0000      -0.723930       -19.6991
 109   2.0000      -0.715604       -19.4726
 110   2.0000      -0.713090       -19.4042
 111   2.0000      -0.710164       -19.3245
 112   2.0000      -0.705356       -19.1937
 113   2.0000      -0.700531       -19.0624
 114   2.0000      -0.692564       -18.8456
 115   2.0000      -0.691170       -18.8077
 116   2.0000      -0.682621       -18.5751
 117   2.0000      -0.678153       -18.4535
 118   2.0000      -0.675965       -18.3939
 119   2.0000      -0.675920       -18.3927
 120   2.0000      -0.671413       -18.2701
 121   2.0000      -0.653401       -17.7799
 122   2.0000      -0.648574       -17.6486
 123   2.0000      -0.637558       -17.3488
 124   2.0000      -0.632550       -17.2126
 125   2.0000      -0.630739       -17.1633
 126   2.0000      -0.622449       -16.9377
 127   2.0000      -0.607277       -16.5248
 128   2.0000      -0.604035       -16.4366
 129   2.0000      -0.603494       -16.4219
 130   2.0000      -0.601536       -16.3686
 131   2.0000      -0.597348       -16.2547
 132   2.0000      -0.593617       -16.1531
 133   2.0000      -0.589781       -16.0488
 134   2.0000      -0.584192       -15.8967
 135   2.0000      -0.583048       -15.8655
 136   2.0000      -0.581254       -15.8167
 137   2.0000      -0.576358       -15.6835
 138   2.0000      -0.574821       -15.6417
 139   2.0000      -0.563977       -15.3466
 140   2.0000      -0.559419       -15.2226
 141   2.0000      -0.558197       -15.1893
 142   2.0000      -0.555405       -15.1133
 143   2.0000      -0.554444       -15.0872
 144   2.0000      -0.554206       -15.0807
 145   2.0000      -0.551081       -14.9957
 146   2.0000      -0.543668       -14.7940
 147   2.0000      -0.537297       -14.6206
 148   2.0000      -0.535975       -14.5846
 149   2.0000      -0.534132       -14.5345
 150   2.0000      -0.530626       -14.4391
 151   2.0000      -0.528167       -14.3722
 152   2.0000      -0.526176       -14.3180
 153   2.0000      -0.522120       -14.2076
 154   2.0000      -0.520826       -14.1724
 155   2.0000      -0.518624       -14.1125
 156   2.0000      -0.516613       -14.0577
 157   2.0000      -0.512964       -13.9585
 158   2.0000      -0.511378       -13.9153
 159   2.0000      -0.509727       -13.8704
 160   2.0000      -0.507898       -13.8206
 161   2.0000      -0.498361       -13.5611
 162   2.0000      -0.492354       -13.3976
 163   2.0000      -0.491548       -13.3757
 164   2.0000      -0.489049       -13.3077
 165   2.0000      -0.487515       -13.2660
 166   2.0000      -0.486705       -13.2439
 167   2.0000      -0.485213       -13.2033
 168   2.0000      -0.481265       -13.0959
 169   2.0000      -0.479499       -13.0478
 170   2.0000      -0.475707       -12.9446
 171   2.0000      -0.474545       -12.9130
 172   2.0000      -0.473485       -12.8842
 173   2.0000      -0.469443       -12.7742
 174   2.0000      -0.465299       -12.6614
 175   2.0000      -0.460742       -12.5374
 176   2.0000      -0.454954       -12.3799
 177   2.0000      -0.452077       -12.3016
 178   2.0000      -0.451507       -12.2861
 179   2.0000      -0.449004       -12.2180
 180   2.0000      -0.446747       -12.1566
 181   2.0000      -0.443366       -12.0646
 182   2.0000      -0.436464       -11.8768
 183   2.0000      -0.432713       -11.7747
 184   2.0000      -0.429626       -11.6907
 185   2.0000      -0.422892       -11.5075
 186   2.0000      -0.421315       -11.4646
 187   2.0000      -0.415822       -11.3151
 188   2.0000      -0.414576       -11.2812
 189   2.0000      -0.410175       -11.1614
 190   2.0000      -0.404394       -11.0041
 191   2.0000      -0.391684       -10.6583
 192   2.0000      -0.388045       -10.5593
 193   2.0000      -0.385914       -10.5013
 194   2.0000      -0.384557       -10.4643
 195   2.0000      -0.369558       -10.0562
 196   2.0000      -0.368143       -10.0177
 197   2.0000      -0.356365        -9.6972
 198   2.0000      -0.352137        -9.5821
 199   2.0000      -0.349420        -9.5082
 200   2.0000      -0.347090        -9.4448
 201   2.0000      -0.325376        -8.8539
 202   2.0000      -0.321698        -8.7538
 203   2.0000      -0.321178        -8.7397
 204   2.0000      -0.314102        -8.5471
 205   2.0000      -0.278461        -7.5773
 206   2.0000      -0.251606        -6.8466
 207   0.0000      -0.128192        -3.4883
 208   0.0000      -0.089047        -2.4231
 209   0.0000      -0.059994        -1.6325
 210   0.0000      -0.048966        -1.3324
 211   0.0000      -0.039213        -1.0670

MULLIKEN ATOMIC CHARGES
-----------------------
   0 C :    0.012853
   1 C :    0.056725
   2 C :   -0.049879
   3 C :    0.016616
   4 C :   -0.022632
   5 C :    0.010448
   6 N :   -0.016637
   7 C :    0.023689
   8 C :    0.021734
   9 N :   -0.015439
  10 C :    0.170111
  11 O :   -0.189877
  12 C :    0.180249
  13 C :   -0.050572
  14 C :   -0.145237
  15 C :    0.535078
  16 F :   -0.160266
  17 F :   -0.150399
  18 F :   -0.165316
  19 C :    0.005854
  20 C :   -0.029053
  21 C :    0.147033
  22 O :   -0.194025
  23 C :    0.172862
  24 C :   -0.046915
  25 C :   -0.112122
  26 C :    0.524246
  27 F :   -0.164052
  28 F :   -0.165120
  29 F :   -0.151166
  30 C :    0.000799
  31 C :    0.010203
  32 C :    0.076441
  33 C :   -0.112388
  34 C :   -0.015024
  35 C :    0.150581
  36 O :   -0.156602
  37 N :   -0.127235
  38 C :    0.004157
  39 O :   -0.223657
  40 C :    0.223032
  41 O :   -0.138757
  42 C :    0.122833
  43 C :   -0.033473
  44 C :   -0.002165
  45 N :    0.052457
  46 C :   -0.144103
  47 C :   -0.147373
  48 N :    0.089642
  49 C :   -0.184709
  50 N :    0.234939
  51 C :   -0.193118
  52 N :    0.232367
  53 C :   -0.063015
  54 C :    0.102616
  55 C :   -0.028258
  56 N :   -0.242087
  57 S :    0.568225
  58 N :   -0.272229
  59 H :   -0.008308
  60 H :   -0.019812
  61 H :   -0.018015
  62 H :    0.013454
  63 H :    0.012814
  64 H :    0.007316
  65 H :    0.020930
  66 H :    0.025203
  67 H :    0.002293
  68 H :   -0.006963
  69 H :    0.020073
  70 H :    0.128822
  71 H :   -0.010697
Sum of atomic charges:    0.0000000

LOEWDIN ATOMIC CHARGES
----------------------
   0 C :   -0.004274
   1 C :   -0.041319
   2 C :    0.006910
   3 C :   -0.014898
   4 C :   -0.010223
   5 C :   -0.004757
   6 N :   -0.039198
   7 C :    0.004851
   8 C :    0.003210
   9 N :   -0.038560
  10 C :    0.070931
  11 O :    0.035269
  12 C :    0.024525
  13 C :   -0.024068
  14 C :   -0.128755
  15 C :    0.169933
  16 F :   -0.058590
  17 F :   -0.049390
  18 F :   -0.065660
  19 C :   -0.001563
  20 C :   -0.044939
  21 C :    0.068557
  22 O :    0.029619
  23 C :    0.025244
  24 C :   -0.020977
  25 C :   -0.127602
  26 C :    0.167491
  27 F :   -0.064640
  28 F :   -0.064844
  29 F :   -0.051647
  30 C :   -0.007591
  31 C :   -0.035362
  32 C :    0.078881
  33 C :   -0.129770
  34 C :   -0.094938
  35 C :    0.082224
  36 O :   -0.171279
  37 N :    0.024099
  38 C :    0.098754
  39 O :   -0.035233
  40 C :    0.099415
  41 O :   -0.145551
  42 C :   -0.033880
  43 C :   -0.000079
  44 C :   -0.012743
  45 N :    0.000522
  46 C :   -0.024863
  47 C :   -0.024411
  48 N :    0.011004
  49 C :   -0.034505
  50 N :    0.000627
  51 C :   -0.035293
  52 N :   -0.000664
  53 C :    0.012982
  54 C :   -0.048614
  55 C :   -0.037134
  56 N :   -0.261642
  57 S :    0.712088
  58 N :   -0.287771
  59 H :    0.028067
  60 H :    0.037071
  61 H :    0.038903
  62 H :    0.026487
  63 H :    0.026344
  64 H :    0.041758
  65 H :    0.046468
  66 H :    0.041703
  67 H :    0.040222
  68 H :    0.036548
  69 H :    0.048274
  70 H :    0.087193
  71 H :    0.051058

  Mayer bond orders larger than 0.100000
B(  0-C ,  1-C ) :   1.2306 B(  0-C ,  5-C ) :   1.4854 B(  0-C , 59-H ) :   0.9809
B(  1-C ,  2-C ) :   1.3786 B(  1-C , 10-C ) :   1.0412 B(  2-C ,  3-C ) :   1.2130
B(  2-C ,  5-C ) :   0.1013 B(  2-C , 60-H ) :   1.0227 B(  3-C ,  4-C ) :   1.2446
B(  3-C ,  9-N ) :   1.4170 B(  4-C ,  5-C ) :   1.2324 B(  4-C ,  6-N ) :   1.4307
B(  5-C , 61-H ) :   1.0069 B(  6-N ,  7-C ) :   1.6756 B(  7-C ,  8-C ) :   1.2200
B(  7-C , 62-H ) :   0.9740 B(  8-C ,  9-N ) :   1.6801 B(  8-C , 63-H ) :   0.9742
B( 10-C , 11-O ) :   1.1946 B( 10-C , 12-C ) :   0.1065 B( 10-C , 14-C ) :   1.4950
B( 11-O , 12-C ) :   1.1270 B( 12-C , 13-C ) :   1.4325 B( 12-C , 19-C ) :   1.1303
B( 13-C , 14-C ) :   1.2376 B( 13-C , 64-H ) :   1.0229 B( 14-C , 15-C ) :   0.9458
B( 15-C , 16-F ) :   1.1705 B( 15-C , 17-F ) :   1.1829 B( 15-C , 18-F ) :   1.1338
B( 19-C , 20-C ) :   1.6239 B( 19-C , 65-H ) :   0.9763 B( 20-C , 21-C ) :   1.1672
B( 20-C , 66-H ) :   0.9540 B( 21-C , 22-O ) :   1.1845 B( 21-C , 25-C ) :   1.4174
B( 22-O , 23-C ) :   1.1223 B( 23-C , 24-C ) :   1.4050 B( 23-C , 30-C ) :   1.1781
B( 24-C , 25-C ) :   1.2680 B( 24-C , 67-H ) :   1.0199 B( 25-C , 26-C ) :   0.9451
B( 26-C , 27-F ) :   1.1708 B( 26-C , 28-F ) :   1.1638 B( 26-C , 29-F ) :   1.1870
B( 30-C , 31-C ) :   1.5553 B( 30-C , 68-H ) :   0.9660 B( 31-C , 32-C ) :   1.1830
B( 31-C , 69-H ) :   0.9603 B( 32-C , 33-C ) :   1.3443 B( 32-C , 37-N ) :   1.1965
B( 33-C , 34-C ) :   1.1754 B( 33-C , 40-C ) :   0.9859 B( 34-C , 35-C ) :   0.9059
B( 34-C , 38-C ) :   1.4789 B( 35-C , 36-O ) :   2.2240 B( 35-C , 37-N ) :   1.0657
B( 37-N , 70-H ) :   0.9192 B( 38-C , 39-O ) :   1.1969 B( 38-C , 42-C ) :   1.0386
B( 39-O , 40-C ) :   1.0003 B( 40-C , 41-O ) :   2.2422 B( 42-C , 43-C ) :   1.2682
B( 42-C , 53-C ) :   0.1410 B( 42-C , 55-C ) :   1.2774 B( 43-C , 44-C ) :   1.1294
B( 43-C , 48-N ) :   1.4652 B( 44-C , 45-N ) :   1.3421 B( 44-C , 53-C ) :   1.2886
B( 45-N , 46-C ) :   1.7858 B( 46-C , 47-C ) :   1.1797 B( 46-C , 51-C ) :   1.1427
B( 47-C , 48-N ) :   1.7612 B( 47-C , 49-C ) :   1.1436 B( 49-C , 50-N ) :   3.0457
B( 51-C , 52-N ) :   3.0534 B( 53-C , 54-C ) :   1.1867 B( 53-C , 71-H ) :   1.0615
B( 54-C , 55-C ) :   1.1094 B( 54-C , 58-N ) :   1.4449 B( 55-C , 56-N ) :   1.5172
B( 56-N , 57-S ) :   1.3040 B( 56-N , 58-N ) :   0.1570 B( 57-S , 58-N ) :   1.3218

-----------------------------------------------------------------------------
         ABSORPTION SPECTRUM VIA TRANSITION ELECTRIC DIPOLE MOMENTS
-----------------------------------------------------------------------------
State   Energy  Wavelength   fosc         T2         TX        TY        TZ
        (cm-1)    (nm)                  (au**2)     (au)      (au)      (au)
-----------------------------------------------------------------------------
   0   12040.0    830.6   0.584621243  15.98543   2.08499   3.04739   1.53351
   1   19627.8    509.5   0.682484321  11.44711  -2.30199  -2.47950   0.00101
   2   21563.5    463.7   0.156622488   2.39117   0.53301   1.05171   1.00049
   3   24244.0    412.5   0.032477269   0.44101   0.46621   0.47163   0.03500
   4   25591.5    390.8   0.005082199   0.06538   0.19062  -0.08453  -0.14798
   5   26579.9    376.2   0.242469955   3.00317  -1.02497  -0.66646   1.22819
   6   26906.1    371.7   0.211219895   2.58440  -0.97418  -0.68458   1.08016
   7   27641.7    361.8   0.009307462   0.11085  -0.17746   0.20177   0.19658
   8   28675.0    348.7   0.246094356   2.82536  -1.11498  -0.07043   1.25587
   9   29658.2    337.2   0.040844048   0.45338   0.22873   0.55837   0.29880
  10   30108.7    332.1   0.038701938   0.42317  -0.30965   0.15919   0.54950
  11   30421.1    328.7   0.070118105   0.75881  -0.70138  -0.51221   0.06718
  12   31605.7    316.4   0.403087206   4.19864   1.32568  -0.80580  -1.33862
  13   32171.5    310.8   0.193261763   1.97766  -1.18279   0.44390   0.61776
  14   32378.7    308.8   0.103710789   1.05449   0.08194  -0.32764  -0.96976
  15   32777.8    305.1   0.082510106   0.82871   0.15544  -0.56171  -0.69931
  16   33825.2    295.6   0.066100478   0.64334   0.28056   0.71862  -0.21955
  17   34680.1    288.4   0.032933198   0.31263  -0.05554  -0.19262   0.52196
  18   34923.6    286.3   0.000731640   0.00690  -0.05848   0.00482   0.05877
  19   35025.8    285.5   0.025742724   0.24196   0.14319   0.18173   0.43409
  20   35420.3    282.3   0.015693524   0.14586  -0.13919   0.31260   0.16962
  21   36095.9    277.0   0.034336049   0.31316   0.36778   0.12282  -0.40350
  22   36874.3    271.2   0.044501108   0.39730   0.32377   0.47346  -0.26136
  23   37232.0    268.6   0.024153489   0.21357   0.30235   0.04689  -0.34635
  24   37899.8    263.9   0.006127719   0.05323   0.10798  -0.08833  -0.18375
  25   38250.8    261.4   0.013253220   0.11407  -0.22157  -0.13966  -0.21323
  26   38580.6    259.2   0.031817178   0.27150  -0.15177   0.29147   0.40436
  27   39253.0    254.8   0.119107553   0.99895  -0.59707  -0.07906   0.79762
  28   39370.4    254.0   0.062236046   0.52041  -0.65739  -0.10074  -0.27947
  29   39775.5    251.4   0.028882078   0.23905  -0.29238  -0.35071   0.17484
  30   40326.0    248.0   0.113269116   0.92470  -0.21510   0.53688   0.76824

FINAL SINGLE POINT ENERGY     -3318.382711719440

DIPOLE MOMENT
-------------
                                X             Y             Z
Electronic contribution:     -7.21995     -12.30079      -5.02489
Nuclear contribution   :      5.54830      14.47717       8.11545
                        -----------------------------------------
Total Dipole Moment    :     -1.67165       2.17638       3.09056
                        -----------------------------------------
Magnitude (a.u.)       :      4.13311
Magnitude (Debye)      :     10.50554

Rotational constants in cm-1:     0.002132     0.000412     0.000354
Rotational constants in MHz :    63.921939    12.360952    10.609331

                             ****ORCA TERMINATED NORMALLY****
TOTAL RUN TIME: 0 days 0 hours 5 minutes 1 seconds 239 msec
