                         Program Version 4.2.0 -  RELEASE  -
|  1> # ORCA input file
|  2> # SCF done       -188.340551694974          0.000849495663
|  3> ! CAM-B3LYP def2-SVP def2/J RIJCOSX Grid4 TightSCF
|  4> %maxcore 5000
|  5> %tddft
|  6>     Mode sTDDFT
|  7>     Ethresh 5.0
|  8>     maxcore 5000
|  9> end
| 10>
| 11> %pal
| 12>   nprocs 6
| 13>   end
| 14> * xyz 0 1
| 15>    C       -0.12388        -9.18745         6.50306
| 16>    S        0.28477        -9.37012         4.85660
| 17>    C        1.28945        -7.94762         4.86642
| 18>    C        1.28715        -7.36584         6.13861
| 19>    C        0.47542        -8.08592         7.07261
| 20>    C        0.37880        -7.62770         8.40889
| 21>    C        1.05230        -6.51497         8.80710
| 22>    C        0.98284        -5.99965        10.20909
| 23>    C        1.86392        -5.79854         7.86525
| 24>    O        2.48609        -4.70449         8.38661
| 25>    C        3.30706        -3.93415         7.54570
| 26>    C        1.97746        -6.21335         6.56521
| 27>    C        1.97628        -7.50934         3.71255
| 28>    C        1.98832        -8.16562         2.52576
| 29>    C        2.73489        -7.72656         1.39355
| 30>    C        2.68544        -8.32309         0.16270
| 31>    O        3.57246        -8.00095        -0.86053
| 32>    C        4.43517        -6.98691        -0.59008
| 33>    C        4.43655        -6.31624         0.66827
| 34>    C        5.36018        -5.32673         0.73508
| 35>    S        6.24664        -5.19534        -0.74013
| 36>    C        5.35822        -6.49270        -1.45104
| 37>    O        3.59555        -6.67260         1.67575
| 38>    C        1.79160        -9.36312        -0.26113
| 39>    C        0.52949        -9.58060         0.15590
| 40>    C       -0.32750       -10.64458        -0.31526
| 41>    C       -1.68949       -10.59528        -0.02638
| 42>    C       -2.58555       -11.57081        -0.45969
| 43>    C       -2.08825       -12.65367        -1.22108
| 44>    C       -0.71886       -12.71757        -1.48854
| 45>    C        0.14411       -11.74206        -1.04998
| 46>    N       -2.92284       -13.65949        -1.71889
| 47>    C       -4.14479       -13.36566        -2.33380
| 48>    C       -4.32661       -12.16584        -3.02232
| 49>    C       -5.54985       -11.87100        -3.59164
| 50>    C       -6.60360       -12.76631        -3.50237
| 51>    C       -6.42212       -13.96787        -2.83694
| 52>    C       -5.20797       -14.26644        -2.25083
| 53>    C       -2.44919       -14.98056        -1.71177
| 54>    C       -1.75647       -15.46204        -0.60139
| 55>    C       -1.28190       -16.75898        -0.58739
| 56>    C       -1.49554       -17.59517        -1.67116
| 57>    C       -2.18541       -17.12161        -2.77516
| 58>    C       -2.65726       -15.82339        -2.80217
| 59>    C       -3.99191       -11.49232        -0.14537
| 60>    C       -4.67195       -10.36517         0.14997
| 61>    C       -6.08605       -10.32852         0.27024
| 62>    S       -7.03628       -11.66475        -0.28844
| 63>    C       -8.54147       -10.83651        -0.03221
| 64>    C       -8.31042        -9.56734         0.52117
| 65>    C       -6.91331        -9.27954         0.68645
| 66>    C       -6.52246        -8.03360         1.24577
| 67>    C       -5.17397        -7.69426         1.48570
| 68>    N       -4.10198        -7.35864         1.72234
| 69>    C       -7.48445        -7.10664         1.60287
| 70>    C       -8.84041        -7.37921         1.42821
| 71>    C       -9.26312        -8.58725         0.90130
| 72>    C      -10.65660        -8.77715         0.78132
| 73>    N      -11.79979        -8.85868         0.72148
| 74>    C       -9.76041       -11.43216        -0.41923
| 75>    C       -9.83409       -12.63953        -1.04218
| 76>    C      -11.02164       -13.25101        -1.49881
| 77>    S      -10.90535       -14.80339        -2.31860
| 78>    C      -12.59561       -14.83469        -2.55637
| 79>    C      -13.21600       -13.70385        -2.03039
| 80>    C      -12.33966       -12.80878        -1.43316
| 81>    C      -14.66979       -13.83120        -2.30185
| 82>    O      -15.54447       -13.05664        -2.00572
| 83>    C      -14.79825       -15.14899        -3.03328
| 84>    C      -13.55715       -15.70366        -3.15771
| 85>    C      -16.02328       -15.71596        -3.51757
| 86>    C      -17.22764       -15.15374        -3.39698
| 87>    H       -0.77961        -9.89540         6.96949
| 88>    H       -0.23522        -8.17735         9.10675
| 89>    H        0.34222        -6.62883        10.82087
| 90>    H        0.59720        -4.98144        10.21433
| 91>    H        1.97989        -5.97001        10.64562
| 92>    H        3.69174        -3.12671         8.16696
| 93>    H        2.74102        -3.50956         6.71012
| 94>    H        4.14510        -4.52065         7.15487
| 95>    H        2.58701        -5.67950         5.85505
| 96>    H        2.52122        -6.58051         3.80024
| 97>    H        1.45689        -9.09826         2.42567
| 98>    H        5.57128        -4.67316         1.55510
| 99>    H        5.56590        -6.81102        -2.45084
|100>    H        2.19655        -9.94982        -1.07512
|101>    H        0.07077        -8.89708         0.85618
|102>    H       -2.06061        -9.77903         0.57516
|103>    H       -0.34084       -13.54934        -2.06544
|104>    H        1.19442       -11.83063        -1.27716
|105>    H       -3.50494       -11.46957        -3.10431
|106>    H       -5.67832       -10.93684        -4.11834
|107>    H       -7.55763       -12.53075        -3.94908
|108>    H       -7.23532       -14.67579        -2.76500
|109>    H       -5.07711       -15.19511        -1.71474
|110>    H       -1.59509       -14.81106         0.24553
|111>    H       -0.74787       -17.12104         0.27861
|112>    H       -1.12543       -18.60889        -1.65615
|113>    H       -2.34929       -17.76462        -3.62723
|114>    H       -3.18364       -15.45223        -3.66933
|115>    H       -4.54962       -12.41812        -0.19658
|116>    H       -4.15845        -9.42024         0.23727
|117>    H       -7.17927        -6.16262         2.02879
|118>    H       -9.57501        -6.64193         1.71525
|119>    H      -10.66260       -10.87418        -0.22682
|120>    H       -8.91585       -13.18321        -1.22778
|121>    H      -12.63023       -11.88182        -0.97396
|122>    H      -13.32492       -16.64033        -3.63207
|123>    H      -15.91760       -16.67442        -4.01367
|124>    H      -17.35977       -14.20528        -2.90762
|125>    H      -18.10998       -15.63466        -3.78296
|126> *
|127>
|128>                          ****END OF INPUT****

CARTESIAN COORDINATES (ANGSTROEM)
---------------------------------
  C     -0.123880   -9.187450    6.503060
  S      0.284770   -9.370120    4.856600
  C      1.289450   -7.947620    4.866420
  C      1.287150   -7.365840    6.138610
  C      0.475420   -8.085920    7.072610
  C      0.378800   -7.627700    8.408890
  C      1.052300   -6.514970    8.807100
  C      0.982840   -5.999650   10.209090
  C      1.863920   -5.798540    7.865250
  O      2.486090   -4.704490    8.386610
  C      3.307060   -3.934150    7.545700
  C      1.977460   -6.213350    6.565210
  C      1.976280   -7.509340    3.712550
  C      1.988320   -8.165620    2.525760
  C      2.734890   -7.726560    1.393550
  C      2.685440   -8.323090    0.162700
  O      3.572460   -8.000950   -0.860530
  C      4.435170   -6.986910   -0.590080
  C      4.436550   -6.316240    0.668270
  C      5.360180   -5.326730    0.735080
  S      6.246640   -5.195340   -0.740130
  C      5.358220   -6.492700   -1.451040
  O      3.595550   -6.672600    1.675750
  C      1.791600   -9.363120   -0.261130
  C      0.529490   -9.580600    0.155900
  C     -0.327500  -10.644580   -0.315260
  C     -1.689490  -10.595280   -0.026380
  C     -2.585550  -11.570810   -0.459690
  C     -2.088250  -12.653670   -1.221080
  C     -0.718860  -12.717570   -1.488540
  C      0.144110  -11.742060   -1.049980
  N     -2.922840  -13.659490   -1.718890
  C     -4.144790  -13.365660   -2.333800
  C     -4.326610  -12.165840   -3.022320
  C     -5.549850  -11.871000   -3.591640
  C     -6.603600  -12.766310   -3.502370
  C     -6.422120  -13.967870   -2.836940
  C     -5.207970  -14.266440   -2.250830
  C     -2.449190  -14.980560   -1.711770
  C     -1.756470  -15.462040   -0.601390
  C     -1.281900  -16.758980   -0.587390
  C     -1.495540  -17.595170   -1.671160
  C     -2.185410  -17.121610   -2.775160
  C     -2.657260  -15.823390   -2.802170
  C     -3.991910  -11.492320   -0.145370
  C     -4.671950  -10.365170    0.149970
  C     -6.086050  -10.328520    0.270240
  S     -7.036280  -11.664750   -0.288440
  C     -8.541470  -10.836510   -0.032210
  C     -8.310420   -9.567340    0.521170
  C     -6.913310   -9.279540    0.686450
  C     -6.522460   -8.033600    1.245770
  C     -5.173970   -7.694260    1.485700
  N     -4.101980   -7.358640    1.722340
  C     -7.484450   -7.106640    1.602870
  C     -8.840410   -7.379210    1.428210
  C     -9.263120   -8.587250    0.901300
  C    -10.656600   -8.777150    0.781320
  N    -11.799790   -8.858680    0.721480
  C     -9.760410  -11.432160   -0.419230
  C     -9.834090  -12.639530   -1.042180
  C    -11.021640  -13.251010   -1.498810
  S    -10.905350  -14.803390   -2.318600
  C    -12.595610  -14.834690   -2.556370
  C    -13.216000  -13.703850   -2.030390
  C    -12.339660  -12.808780   -1.433160
  C    -14.669790  -13.831200   -2.301850
  O    -15.544470  -13.056640   -2.005720
  C    -14.798250  -15.148990   -3.033280
  C    -13.557150  -15.703660   -3.157710
  C    -16.023280  -15.715960   -3.517570
  C    -17.227640  -15.153740   -3.396980
  H     -0.779610   -9.895400    6.969490
  H     -0.235220   -8.177350    9.106750
  H      0.342220   -6.628830   10.820870
  H      0.597200   -4.981440   10.214330
  H      1.979890   -5.970010   10.645620
  H      3.691740   -3.126710    8.166960
  H      2.741020   -3.509560    6.710120
  H      4.145100   -4.520650    7.154870
  H      2.587010   -5.679500    5.855050
  H      2.521220   -6.580510    3.800240
  H      1.456890   -9.098260    2.425670
  H      5.571280   -4.673160    1.555100
  H      5.565900   -6.811020   -2.450840
  H      2.196550   -9.949820   -1.075120
  H      0.070770   -8.897080    0.856180
  H     -2.060610   -9.779030    0.575160
  H     -0.340840  -13.549340   -2.065440
  H      1.194420  -11.830630   -1.277160
  H     -3.504940  -11.469570   -3.104310
  H     -5.678320  -10.936840   -4.118340
  H     -7.557630  -12.530750   -3.949080
  H     -7.235320  -14.675790   -2.765000
  H     -5.077110  -15.195110   -1.714740
  H     -1.595090  -14.811060    0.245530
  H     -0.747870  -17.121040    0.278610
  H     -1.125430  -18.608890   -1.656150
  H     -2.349290  -17.764620   -3.627230
  H     -3.183640  -15.452230   -3.669330
  H     -4.549620  -12.418120   -0.196580
  H     -4.158450   -9.420240    0.237270
  H     -7.179270   -6.162620    2.028790
  H     -9.575010   -6.641930    1.715250
  H    -10.662600  -10.874180   -0.226820
  H     -8.915850  -13.183210   -1.227780
  H    -12.630230  -11.881820   -0.973960
  H    -13.324920  -16.640330   -3.632070
  H    -15.917600  -16.674420   -4.013670
  H    -17.359770  -14.205280   -2.907620
  H    -18.109980  -15.634660   -3.782960

 Total Charge           Charge          ....    0
 Multiplicity           Mult            ....    1
 Number of Electrons    NEL             ....  522
 Basis Dimension        Dim             .... 1219

ORBITAL ENERGIES
----------------

  NO   OCC          E(Eh)            E(eV)
   0   2.0000     -88.974011     -2421.1059
   1   2.0000     -88.971852     -2421.0472
   2   2.0000     -88.947274     -2420.3784
   3   2.0000     -88.946277     -2420.3512
   4   2.0000     -19.260460      -524.1038
   5   2.0000     -19.258111      -524.0398
   6   2.0000     -19.240554      -523.5621
   7   2.0000     -19.223170      -523.0891
   8   2.0000     -14.441712      -392.9790
   9   2.0000     -14.416462      -392.2919
  10   2.0000     -14.415774      -392.2731
  11   2.0000     -10.366730      -282.0931
  12   2.0000     -10.330603      -281.1100
  13   2.0000     -10.330131      -281.0971
  14   2.0000     -10.330095      -281.0962
  15   2.0000     -10.328966      -281.0655
  16   2.0000     -10.328144      -281.0431
  17   2.0000     -10.327617      -281.0287
  18   2.0000     -10.321900      -280.8732
  19   2.0000     -10.317495      -280.7533
  20   2.0000     -10.316291      -280.7205
  21   2.0000     -10.316129      -280.7161
  22   2.0000     -10.315346      -280.6948
  23   2.0000     -10.314892      -280.6825
  24   2.0000     -10.312469      -280.6165
  25   2.0000     -10.312315      -280.6124
  26   2.0000     -10.309388      -280.5327
  27   2.0000     -10.308759      -280.5156
  28   2.0000     -10.308370      -280.5050
  29   2.0000     -10.307128      -280.4712
  30   2.0000     -10.306764      -280.4613
  31   2.0000     -10.306382      -280.4509
  32   2.0000     -10.306094      -280.4431
  33   2.0000     -10.297980      -280.2223
  34   2.0000     -10.290661      -280.0231
  35   2.0000     -10.285963      -279.8953
  36   2.0000     -10.285405      -279.8801
  37   2.0000     -10.283536      -279.8292
  38   2.0000     -10.282841      -279.8103
  39   2.0000     -10.282407      -279.7985
  40   2.0000     -10.281299      -279.7684
  41   2.0000     -10.281055      -279.7617
  42   2.0000     -10.280842      -279.7559
  43   2.0000     -10.278934      -279.7040
  44   2.0000     -10.278247      -279.6853
  45   2.0000     -10.272859      -279.5387
  46   2.0000     -10.272633      -279.5326
  47   2.0000     -10.272475      -279.5283
  48   2.0000     -10.271457      -279.5006
  49   2.0000     -10.271239      -279.4946
  50   2.0000     -10.270295      -279.4689
  51   2.0000     -10.269947      -279.4595
  52   2.0000     -10.269489      -279.4470
  53   2.0000     -10.269341      -279.4430
  54   2.0000     -10.269078      -279.4358
  55   2.0000     -10.268904      -279.4311
  56   2.0000     -10.268710      -279.4258
  57   2.0000     -10.267525      -279.3936
  58   2.0000     -10.267245      -279.3859
  59   2.0000     -10.266844      -279.3750
  60   2.0000     -10.266812      -279.3742
  61   2.0000     -10.266617      -279.3689
  62   2.0000     -10.266439      -279.3640
  63   2.0000     -10.266398      -279.3629
  64   2.0000     -10.264171      -279.3023
  65   2.0000     -10.264049      -279.2990
  66   2.0000     -10.262965      -279.2695
  67   2.0000     -10.262194      -279.2485
  68   2.0000     -10.260851      -279.2119
  69   2.0000     -10.259511      -279.1755
  70   2.0000     -10.255938      -279.0783
  71   2.0000     -10.250782      -278.9380
  72   2.0000      -8.068959      -219.5675
  73   2.0000      -8.066451      -219.4993
  74   2.0000      -8.042484      -218.8471
  75   2.0000      -8.042128      -218.8374
  76   2.0000      -6.037982      -164.3018
  77   2.0000      -6.035347      -164.2302
  78   2.0000      -6.034080      -164.1957
  79   2.0000      -6.031545      -164.1267
  80   2.0000      -6.031271      -164.1192
  81   2.0000      -6.029335      -164.0665
  82   2.0000      -6.011662      -163.5856
  83   2.0000      -6.011434      -163.5794
  84   2.0000      -6.007516      -163.4728
  85   2.0000      -6.007331      -163.4678
  86   2.0000      -6.005422      -163.4158
  87   2.0000      -6.003725      -163.3697
  88   2.0000      -1.184561       -32.2336
  89   2.0000      -1.147607       -31.2280
  90   2.0000      -1.143793       -31.1242
  91   2.0000      -1.134315       -30.8663
  92   2.0000      -1.067965       -29.0608
  93   2.0000      -1.021105       -27.7857
  94   2.0000      -1.004113       -27.3233
  95   2.0000      -1.002491       -27.2792
  96   2.0000      -0.995793       -27.0969
  97   2.0000      -0.977239       -26.5920
  98   2.0000      -0.973724       -26.4964
  99   2.0000      -0.959710       -26.1150
 100   2.0000      -0.956408       -26.0252
 101   2.0000      -0.949462       -25.8362
 102   2.0000      -0.941843       -25.6289
 103   2.0000      -0.932238       -25.3675
 104   2.0000      -0.921307       -25.0700
 105   2.0000      -0.919829       -25.0298
 106   2.0000      -0.908628       -24.7250
 107   2.0000      -0.894788       -24.3484
 108   2.0000      -0.889996       -24.2180
 109   2.0000      -0.879207       -23.9244
 110   2.0000      -0.863021       -23.4840
 111   2.0000      -0.859976       -23.4011
 112   2.0000      -0.852947       -23.2099
 113   2.0000      -0.850588       -23.1457
 114   2.0000      -0.846787       -23.0423
 115   2.0000      -0.842778       -22.9332
 116   2.0000      -0.838582       -22.8190
 117   2.0000      -0.834905       -22.7189
 118   2.0000      -0.832849       -22.6630
 119   2.0000      -0.829701       -22.5773
 120   2.0000      -0.819914       -22.3110
 121   2.0000      -0.815852       -22.2005
 122   2.0000      -0.808555       -22.0019
 123   2.0000      -0.799858       -21.7652
 124   2.0000      -0.792851       -21.5746
 125   2.0000      -0.781929       -21.2774
 126   2.0000      -0.777180       -21.1481
 127   2.0000      -0.771092       -20.9825
 128   2.0000      -0.767573       -20.8867
 129   2.0000      -0.750501       -20.4222
 130   2.0000      -0.747610       -20.3435
 131   2.0000      -0.738197       -20.0874
 132   2.0000      -0.732344       -19.9281
 133   2.0000      -0.722465       -19.6593
 134   2.0000      -0.711953       -19.3732
 135   2.0000      -0.706417       -19.2226
 136   2.0000      -0.694761       -18.9054
 137   2.0000      -0.692275       -18.8378
 138   2.0000      -0.687354       -18.7038
 139   2.0000      -0.683353       -18.5950
 140   2.0000      -0.679348       -18.4860
 141   2.0000      -0.676357       -18.4046
 142   2.0000      -0.674561       -18.3557
 143   2.0000      -0.663378       -18.0514
 144   2.0000      -0.660238       -17.9660
 145   2.0000      -0.659418       -17.9437
 146   2.0000      -0.656059       -17.8523
 147   2.0000      -0.643604       -17.5134
 148   2.0000      -0.639419       -17.3995
 149   2.0000      -0.638269       -17.3682
 150   2.0000      -0.628380       -17.0991
 151   2.0000      -0.623124       -16.9561
 152   2.0000      -0.620452       -16.8834
 153   2.0000      -0.618882       -16.8406
 154   2.0000      -0.618137       -16.8204
 155   2.0000      -0.610389       -16.6095
 156   2.0000      -0.596510       -16.2319
 157   2.0000      -0.589136       -16.0312
 158   2.0000      -0.584453       -15.9038
 159   2.0000      -0.584173       -15.8962
 160   2.0000      -0.582626       -15.8541
 161   2.0000      -0.576795       -15.6954
 162   2.0000      -0.571469       -15.5504
 163   2.0000      -0.567365       -15.4388
 164   2.0000      -0.566081       -15.4038
 165   2.0000      -0.559932       -15.2365
 166   2.0000      -0.559661       -15.2291
 167   2.0000      -0.556017       -15.1300
 168   2.0000      -0.549741       -14.9592
 169   2.0000      -0.549449       -14.9513
 170   2.0000      -0.546502       -14.8711
 171   2.0000      -0.543775       -14.7969
 172   2.0000      -0.540258       -14.7012
 173   2.0000      -0.536820       -14.6076
 174   2.0000      -0.530942       -14.4477
 175   2.0000      -0.529521       -14.4090
 176   2.0000      -0.528694       -14.3865
 177   2.0000      -0.524992       -14.2858
 178   2.0000      -0.521717       -14.1967
 179   2.0000      -0.519035       -14.1237
 180   2.0000      -0.517919       -14.0933
 181   2.0000      -0.517689       -14.0870
 182   2.0000      -0.515482       -14.0270
 183   2.0000      -0.511375       -13.9152
 184   2.0000      -0.509785       -13.8719
 185   2.0000      -0.503489       -13.7006
 186   2.0000      -0.501909       -13.6576
 187   2.0000      -0.500896       -13.6301
 188   2.0000      -0.497790       -13.5456
 189   2.0000      -0.495483       -13.4828
 190   2.0000      -0.494773       -13.4635
 191   2.0000      -0.492374       -13.3982
 192   2.0000      -0.489446       -13.3185
 193   2.0000      -0.487267       -13.2592
 194   2.0000      -0.486263       -13.2319
 195   2.0000      -0.485417       -13.2089
 196   2.0000      -0.479329       -13.0432
 197   2.0000      -0.478269       -13.0144
 198   2.0000      -0.476995       -12.9797
 199   2.0000      -0.474422       -12.9097
 200   2.0000      -0.472783       -12.8651
 201   2.0000      -0.470171       -12.7940
 202   2.0000      -0.468700       -12.7540
 203   2.0000      -0.468268       -12.7422
 204   2.0000      -0.467617       -12.7245
 205   2.0000      -0.466653       -12.6983
 206   2.0000      -0.465934       -12.6787
 207   2.0000      -0.462727       -12.5914
 208   2.0000      -0.459065       -12.4918
 209   2.0000      -0.457438       -12.4475
 210   2.0000      -0.454982       -12.3807
 211   2.0000      -0.451459       -12.2848
 212   2.0000      -0.448584       -12.2066
 213   2.0000      -0.448140       -12.1945
 214   2.0000      -0.446106       -12.1392
 215   2.0000      -0.443194       -12.0599
 216   2.0000      -0.440322       -11.9818
 217   2.0000      -0.438207       -11.9242
 218   2.0000      -0.435127       -11.8404
 219   2.0000      -0.433100       -11.7853
 220   2.0000      -0.432303       -11.7636
 221   2.0000      -0.431076       -11.7302
 222   2.0000      -0.428806       -11.6684
 223   2.0000      -0.423856       -11.5337
 224   2.0000      -0.422606       -11.4997
 225   2.0000      -0.421909       -11.4807
 226   2.0000      -0.421464       -11.4686
 227   2.0000      -0.418573       -11.3900
 228   2.0000      -0.416386       -11.3304
 229   2.0000      -0.413712       -11.2577
 230   2.0000      -0.412353       -11.2207
 231   2.0000      -0.408959       -11.1283
 232   2.0000      -0.407099       -11.0777
 233   2.0000      -0.405247       -11.0273
 234   2.0000      -0.404307       -11.0017
 235   2.0000      -0.397033       -10.8038
 236   2.0000      -0.394277       -10.7288
 237   2.0000      -0.392496       -10.6804
 238   2.0000      -0.388338       -10.5672
 239   2.0000      -0.382937       -10.4202
 240   2.0000      -0.370158       -10.0725
 241   2.0000      -0.362098        -9.8532
 242   2.0000      -0.355956        -9.6861
 243   2.0000      -0.343826        -9.3560
 244   2.0000      -0.337639        -9.1876
 245   2.0000      -0.335938        -9.1413
 246   2.0000      -0.331217        -9.0129
 247   2.0000      -0.330429        -8.9914
 248   2.0000      -0.326664        -8.8890
 249   2.0000      -0.322440        -8.7740
 250   2.0000      -0.319740        -8.7006
 251   2.0000      -0.315932        -8.5970
 252   2.0000      -0.309401        -8.4192
 253   2.0000      -0.295126        -8.0308
 254   2.0000      -0.289689        -7.8828
 255   2.0000      -0.279060        -7.5936
 256   2.0000      -0.271248        -7.3810
 257   2.0000      -0.258952        -7.0464
 258   2.0000      -0.244936        -6.6651
 259   2.0000      -0.224288        -6.1032
 260   2.0000      -0.210983        -5.7412
 261   0.0000      -0.088807        -2.4166
 262   0.0000      -0.067882        -1.8472
 263   0.0000      -0.041932        -1.1410
 264   0.0000      -0.034577        -0.9409
 265   0.0000      -0.012566        -0.3419

MULLIKEN ATOMIC CHARGES
-----------------------
   0 C :   -0.124612
   1 S :    0.126573
   2 C :   -0.124195
   3 C :    0.150015
   4 C :    0.109938
   5 C :   -0.073412
   6 C :   -0.094519
   7 C :    0.132669
   8 C :    0.223591
   9 O :   -0.313268
  10 C :    0.183138
  11 C :   -0.168990
  12 C :    0.012340
  13 C :   -0.091698
  14 C :    0.160945
  15 C :    0.150121
  16 O :   -0.256510
  17 C :    0.216584
  18 C :    0.223712
  19 C :   -0.178891
  20 S :    0.097256
  21 C :   -0.173953
  22 O :   -0.266477
  23 C :   -0.004186
  24 C :   -0.021445
  25 C :    0.132219
  26 C :   -0.133789
  27 C :    0.079995
  28 C :    0.088047
  29 C :   -0.005098
  30 C :   -0.020460
  31 N :   -0.164840
  32 C :    0.072606
  33 C :    0.017990
  34 C :    0.016323
  35 C :    0.018069
  36 C :    0.012456
  37 C :   -0.020778
  38 C :    0.113329
  39 C :   -0.012352
  40 C :    0.016920
  41 C :    0.030530
  42 C :    0.013725
  43 C :   -0.025483
  44 C :   -0.001500
  45 C :   -0.011683
  46 C :   -0.131276
  47 S :    0.156588
  48 C :   -0.126029
  49 C :    0.165243
  50 C :    0.157906
  51 C :   -0.095560
  52 C :   -0.187388
  53 N :    0.118589
  54 C :    0.014345
  55 C :    0.016345
  56 C :   -0.094076
  57 C :   -0.176924
  58 N :    0.104202
  59 C :   -0.019154
  60 C :    0.051311
  61 C :   -0.099499
  62 S :    0.157049
  63 C :   -0.047347
  64 C :   -0.015999
  65 C :   -0.009986
  66 C :    0.169519
  67 O :   -0.110479
  68 C :   -0.020269
  69 C :   -0.034974
  70 C :   -0.032202
  71 C :    0.004333
  72 H :    0.010857
  73 H :   -0.044283
  74 H :   -0.001644
  75 H :    0.022867
  76 H :    0.023437
  77 H :    0.033684
  78 H :    0.023013
  79 H :    0.022231
  80 H :   -0.048518
  81 H :   -0.005333
  82 H :    0.004863
  83 H :    0.017943
  84 H :    0.020047
  85 H :    0.003052
  86 H :    0.004470
  87 H :   -0.017919
  88 H :   -0.009737
  89 H :   -0.024176
  90 H :   -0.006784
  91 H :   -0.013515
  92 H :   -0.018086
  93 H :   -0.017049
  94 H :   -0.007173
  95 H :   -0.007541
  96 H :   -0.014573
  97 H :   -0.018029
  98 H :   -0.014740
  99 H :   -0.006647
 100 H :    0.015050
 101 H :    0.015900
 102 H :    0.003208
 103 H :    0.004308
 104 H :    0.005158
 105 H :   -0.021607
 106 H :    0.010626
 107 H :   -0.009467
 108 H :   -0.021238
 109 H :    0.042767
 110 H :    0.019358
Sum of atomic charges:    0.0000000

LOEWDIN ATOMIC CHARGES
----------------------
   0 C :   -0.193346
   1 S :    0.464926
   2 C :   -0.193866
   3 C :   -0.034506
   4 C :   -0.059954
   5 C :   -0.019513
   6 C :   -0.038079
   7 C :   -0.041578
   8 C :    0.058745
   9 O :   -0.098821
  10 C :    0.075616
  11 C :   -0.086538
  12 C :   -0.026518
  13 C :   -0.061592
  14 C :    0.030577
  15 C :    0.012385
  16 O :   -0.063371
  17 C :   -0.007939
  18 C :   -0.006378
  19 C :   -0.216169
  20 S :    0.424458
  21 C :   -0.214710
  22 O :   -0.060385
  23 C :   -0.032731
  24 C :   -0.013523
  25 C :   -0.034933
  26 C :   -0.000394
  27 C :   -0.045645
  28 C :    0.025323
  29 C :   -0.031199
  30 C :   -0.008256
  31 N :   -0.005884
  32 C :    0.020513
  33 C :   -0.039946
  34 C :   -0.014795
  35 C :   -0.047959
  36 C :   -0.028446
  37 C :   -0.047793
  38 C :    0.021717
  39 C :   -0.036943
  40 C :   -0.017928
  41 C :   -0.037166
  42 C :   -0.018560
  43 C :   -0.040310
  44 C :   -0.008792
  45 C :   -0.046494
  46 C :   -0.164043
  47 S :    0.526596
  48 C :   -0.166126
  49 C :   -0.036134
  50 C :   -0.037078
  51 C :   -0.046206
  52 C :   -0.022730
  53 N :   -0.053442
  54 C :    0.008562
  55 C :    0.008152
  56 C :   -0.046426
  57 C :   -0.021858
  58 N :   -0.054283
  59 C :   -0.046254
  60 C :   -0.046360
  61 C :   -0.170879
  62 S :    0.458490
  63 C :   -0.178540
  64 C :   -0.100148
  65 C :   -0.013586
  66 C :    0.104329
  67 O :   -0.097012
  68 C :   -0.052784
  69 C :   -0.003470
  70 C :   -0.035252
  71 C :   -0.021799
  72 H :    0.021183
  73 H :    0.026193
  74 H :    0.025411
  75 H :    0.035048
  76 H :    0.035028
  77 H :    0.027558
  78 H :    0.015643
  79 H :    0.015376
  80 H :    0.024334
  81 H :    0.032050
  82 H :    0.026540
  83 H :    0.025967
  84 H :    0.027067
  85 H :    0.032695
  86 H :    0.033010
  87 H :    0.032121
  88 H :    0.034813
  89 H :    0.027835
  90 H :    0.033812
  91 H :    0.030184
  92 H :    0.025603
  93 H :    0.023777
  94 H :    0.031934
  95 H :    0.032665
  96 H :    0.029214
  97 H :    0.026560
  98 H :    0.028860
  99 H :    0.032446
 100 H :    0.024160
 101 H :    0.036845
 102 H :    0.044370
 103 H :    0.044588
 104 H :    0.038346
 105 H :    0.019417
 106 H :    0.043022
 107 H :    0.031216
 108 H :    0.028493
 109 H :    0.027680
 110 H :    0.023913

  Mayer bond orders larger than 0.100000
B(  0-C ,  1-S ) :   1.1945 B(  0-C ,  2-C ) :   0.1049 B(  0-C ,  4-C ) :   1.4295
B(  0-C , 72-H ) :   0.9685 B(  1-S ,  2-C ) :   1.1324 B(  2-C ,  3-C ) :   1.3538
B(  2-C , 12-C ) :   1.1592 B(  3-C ,  4-C ) :   1.2027 B(  3-C , 11-C ) :   1.1617
B(  4-C ,  5-C ) :   1.1235 B(  5-C ,  6-C ) :   1.6047 B(  5-C , 73-H ) :   1.0047
B(  6-C ,  7-C ) :   1.0709 B(  6-C ,  8-C ) :   1.1919 B(  7-C , 74-H ) :   0.9524
B(  7-C , 75-H ) :   0.9474 B(  7-C , 76-H ) :   0.9475 B(  8-C ,  9-O ) :   1.1719
B(  8-C , 11-C ) :   1.4712 B(  9-O , 10-C ) :   0.9699 B( 10-C , 77-H ) :   0.9779
B( 10-C , 78-H ) :   0.9679 B( 10-C , 79-H ) :   0.9676 B( 11-C , 80-H ) :   0.9940
B( 12-C , 13-C ) :   1.6455 B( 12-C , 81-H ) :   0.9691 B( 13-C , 14-C ) :   1.1772
B( 13-C , 82-H ) :   0.9569 B( 14-C , 15-C ) :   1.5146 B( 14-C , 22-O ) :   1.0478
B( 15-C , 16-O ) :   1.0312 B( 15-C , 23-C ) :   1.1028 B( 16-O , 17-C ) :   1.0714
B( 17-C , 18-C ) :   1.1976 B( 17-C , 21-C ) :   1.5759 B( 18-C , 19-C ) :   1.5722
B( 18-C , 22-O ) :   1.0574 B( 19-C , 20-S ) :   1.1352 B( 19-C , 83-H ) :   0.9724
B( 20-S , 21-C ) :   1.1355 B( 21-C , 84-H ) :   0.9708 B( 23-C , 24-C ) :   1.6981
B( 23-C , 85-H ) :   0.9450 B( 24-C , 25-C ) :   1.0679 B( 24-C , 86-H ) :   0.9850
B( 25-C , 26-C ) :   1.3244 B( 25-C , 30-C ) :   1.3045 B( 26-C , 27-C ) :   1.3225
B( 26-C , 87-H ) :   1.0016 B( 27-C , 28-C ) :   1.3471 B( 27-C , 44-C ) :   1.0627
B( 28-C , 29-C ) :   1.3552 B( 28-C , 31-N ) :   1.0110 B( 29-C , 30-C ) :   1.3950
B( 29-C , 88-H ) :   0.9855 B( 30-C , 89-H ) :   0.9873 B( 31-N , 32-C ) :   0.9950
B( 31-N , 38-C ) :   0.9744 B( 32-C , 33-C ) :   1.3848 B( 32-C , 37-C ) :   1.3771
B( 33-C , 34-C ) :   1.3832 B( 33-C , 90-H ) :   0.9853 B( 34-C , 35-C ) :   1.3750
B( 34-C , 91-H ) :   0.9868 B( 35-C , 36-C ) :   1.3678 B( 35-C , 92-H ) :   0.9965
B( 36-C , 37-C ) :   1.3852 B( 36-C , 93-H ) :   0.9784 B( 37-C , 94-H ) :   0.9912
B( 38-C , 39-C ) :   1.3942 B( 38-C , 43-C ) :   1.3874 B( 39-C , 40-C ) :   1.3789
B( 39-C , 95-H ) :   0.9887 B( 40-C , 41-C ) :   1.3802 B( 40-C , 96-H ) :   0.9856
B( 41-C , 42-C ) :   1.3856 B( 41-C , 97-H ) :   0.9938 B( 42-C , 43-C ) :   1.3752
B( 42-C , 98-H ) :   0.9854 B( 43-C , 99-H ) :   0.9915 B( 44-C , 45-C ) :   1.6912
B( 44-C ,100-H ) :   0.9500 B( 45-C , 46-C ) :   1.1547 B( 45-C ,101-H ) :   0.9540
B( 46-C , 47-S ) :   1.1524 B( 46-C , 48-C ) :   0.1004 B( 46-C , 50-C ) :   1.3496
B( 47-S , 48-C ) :   1.1422 B( 48-C , 49-C ) :   1.3322 B( 48-C , 59-C ) :   1.1941
B( 49-C , 50-C ) :   1.1685 B( 49-C , 56-C ) :   1.2115 B( 50-C , 51-C ) :   1.2104
B( 51-C , 52-C ) :   1.0853 B( 51-C , 54-C ) :   1.5320 B( 52-C , 53-N ) :   2.9993
B( 54-C , 55-C ) :   1.2015 B( 54-C ,102-H ) :   0.9936 B( 55-C , 56-C ) :   1.5266
B( 55-C ,103-H ) :   0.9933 B( 56-C , 57-C ) :   1.0852 B( 57-C , 58-N ) :   2.9832
B( 59-C , 60-C ) :   1.6428 B( 59-C ,104-H ) :   0.9592 B( 60-C , 61-C ) :   1.1444
B( 60-C ,105-H ) :   0.9557 B( 61-C , 62-S ) :   1.1067 B( 61-C , 65-C ) :   1.4393
B( 62-S , 63-C ) :   1.1351 B( 63-C , 64-C ) :   1.4601 B( 63-C , 69-C ) :   1.0405
B( 64-C , 65-C ) :   1.3229 B( 64-C , 66-C ) :   0.9246 B( 65-C ,106-H ) :   0.9998
B( 66-C , 67-O ) :   2.2460 B( 66-C , 68-C ) :   0.9183 B( 68-C , 69-C ) :   1.6431
B( 68-C , 70-C ) :   1.1252 B( 69-C ,107-H ) :   1.0206 B( 70-C , 71-C ) :   1.9029
B( 70-C ,108-H ) :   0.9671 B( 71-C ,109-H ) :   0.9409 B( 71-C ,110-H ) :   0.9472

-----------------------------------------------------------------------------
         ABSORPTION SPECTRUM VIA TRANSITION ELECTRIC DIPOLE MOMENTS
-----------------------------------------------------------------------------
State   Energy  Wavelength   fosc         T2         TX        TY        TZ
        (cm-1)    (nm)                  (au**2)     (au)      (au)      (au)
-----------------------------------------------------------------------------
   0   13720.1    728.9   0.669631586  16.06778  -3.72027  -1.19422  -0.89508
   1   15800.6    632.9   0.075925177   1.58193  -0.67988  -0.85096  -0.62893
   2   17010.7    587.9   0.044737836   0.86582  -0.50356  -0.64542  -0.44237
   3   19919.0    502.0   0.033199585   0.54871   0.12599  -0.67064  -0.28823
   4   20741.1    482.1   0.792369767  12.57684  -0.65271  -1.20007  -3.27271
   5   23636.6    423.1   0.106232138   1.47961   1.08583   0.44679   0.31774
   6   23926.7    417.9   0.274718698   3.77991  -1.71620  -0.76958  -0.49224
   7   24416.4    409.6   0.136303468   1.83781   1.32056  -0.00966  -0.30633
   8   26229.4    381.3   0.000810372   0.01017  -0.04839  -0.07001   0.05411
   9   26266.2    380.7   0.037264531   0.46706   0.38689   0.48713  -0.28299
  10   27356.5    365.5   0.011730672   0.14117  -0.25438  -0.26472  -0.07989
  11   27623.8    362.0   0.067649434   0.80623  -0.22418   0.79892   0.34307
  12   27949.3    357.8   0.077140307   0.90863  -0.81610   0.35491   0.34154
  13   28354.3    352.7   0.314549557   3.65212   1.23298   1.45595   0.10998
  14   29062.7    344.1   0.033561294   0.38017   0.48572  -0.28182  -0.25460
  15   29772.2    335.9   0.348736543   3.85623   1.62546   0.68581  -0.86243
  16   30030.7    333.0   0.204355862   2.24026   0.13889   1.11280   0.99129
  17   30480.6    328.1   0.077453332   0.83655   0.74726  -0.43324  -0.30076
  18   31883.6    313.6   0.094187824   0.97253  -0.82146  -0.54454   0.03488
  19   32158.0    311.0   0.000394309   0.00404   0.05038   0.03854  -0.00351
  20   32259.3    310.0   0.027950508   0.28524   0.31113   0.42844   0.06981
  21   32760.4    305.2   0.003236668   0.03253  -0.06530  -0.08477  -0.14517
  22   33192.4    301.3   0.105025603   1.04168  -0.12436  -0.82707  -0.58496
  23   33672.6    297.0   0.018703007   0.18286  -0.26275  -0.27608  -0.19391
  24   34424.4    290.5   0.140102583   1.33985   0.94885   0.66291  -0.00934
  25   34832.2    287.1   0.000099876   0.00094  -0.01528  -0.02347  -0.01264
  26   35002.7    285.7   0.142594518   1.34115   0.33798   1.08475   0.22412
  27   35317.5    283.1   0.235425227   2.19452  -0.44718   1.26267   0.63263
  28   35621.5    280.7   0.123087202   1.13757   0.33903   0.54134   0.85415
  29   35779.6    279.5   0.016430656   0.15118   0.14710  -0.22062  -0.28437
  30   35857.9    278.9   0.064314412   0.59047  -0.04685  -0.35329   0.68078
  31   36029.8    277.5   0.078801133   0.72002   0.72090  -0.43387  -0.10991
  32   36218.4    276.1   0.036108032   0.32821  -0.53814  -0.00789  -0.19634
  33   36492.1    274.0   0.137677923   1.24205   0.44267  -0.96045  -0.35163
  34   36522.4    273.8   0.024809980   0.22364  -0.27072   0.33472   0.19574
  35   36680.3    272.6   0.026155016   0.23475   0.05436  -0.47622   0.07078
  36   37114.5    269.4   0.024050097   0.21333   0.44303  -0.12983  -0.01393
  37   37145.6    269.2   0.182966830   1.62159   0.07533  -1.23410  -0.30482
  38   37809.0    264.5   0.001703029   0.01483  -0.08822  -0.08004  -0.02530
  39   38001.8    263.1   0.049154551   0.42583   0.50279  -0.39763   0.12215
  40   38113.0    262.4   0.182264154   1.57436   1.13003   0.50978  -0.19368
  41   38433.6    260.2   0.062320003   0.53382  -0.68520   0.21814  -0.12933
  42   38573.8    259.2   0.003848011   0.03284  -0.00053  -0.18098   0.00934
  43   38640.7    258.8   0.016165082   0.13772  -0.21253  -0.11672   0.28095
  44   38711.6    258.3   0.013595040   0.11562  -0.29294  -0.11362   0.12998
  45   39042.8    256.1   0.038015356   0.32055  -0.28580  -0.16156   0.46126
  46   39435.9    253.6   0.000198652   0.00166   0.00579  -0.03035  -0.02652
  47   39627.4    252.4   0.028666769   0.23815  -0.41935   0.23980  -0.06924
  48   39637.1    252.3   0.018055487   0.14996  -0.31228   0.20972  -0.09198
  49   39956.0    250.3   0.195076671   1.60731  -0.41025  -0.78457  -0.90744
  50   40102.0    249.4   0.026351968   0.21633   0.03572  -0.34597  -0.30881

FINAL SINGLE POINT ENERGY     -4401.668789396616

DIPOLE MOMENT
-------------
                                X             Y             Z
Electronic contribution:    -13.35343       6.14677     -16.46926
Nuclear contribution   :     14.24428      -7.23289      16.13251
                        -----------------------------------------
Total Dipole Moment    :      0.89085      -1.08611      -0.33676
                        -----------------------------------------
Magnitude (a.u.)       :      1.44453
Magnitude (Debye)      :      3.67170

Rotational constants in cm-1:     0.001228     0.000329     0.000290
Rotational constants in MHz :    36.819387     9.867083     8.694815

                             ****ORCA TERMINATED NORMALLY****
TOTAL RUN TIME: 0 days 0 hours 10 minutes 6 seconds 544 msec
