                         Program Version 4.2.0 -  RELEASE  -
|  1> # ORCA input file
|  2> # SCF done       -189.687074289321          0.000650043118
|  3> ! CAM-B3LYP def2-SVP def2/J RIJCOSX Grid4 TightSCF
|  4> %maxcore 5000
|  5> %tddft
|  6>     Mode sTDDFT
|  7>     Ethresh 5.0
|  8>     maxcore 5000
|  9> end
| 10>
| 11> %pal
| 12>   nprocs 6
| 13>   end
| 14> * xyz 0 1
| 15>    C       -7.25332         5.64129         4.13265
| 16>    O       -8.53567         5.34912         3.78423
| 17>    C       -8.44931         4.27308         2.98293
| 18>    C       -9.24613         3.37052         2.23640
| 19>    C      -10.70247         3.35780         2.10478
| 20>    O      -11.33426         2.42245         1.64083
| 21>    N      -11.30632         4.47395         2.56696
| 22>    C       -8.31885         2.50494         1.65311
| 23>    O       -7.04098         2.81102         2.02472
| 24>    C       -7.12603         3.88720         2.82556
| 25>    C       -6.34275         4.78571         3.58160
| 26>    C       -8.49242         1.40521         0.75956
| 27>    S       -9.96913         0.52008         0.65441
| 28>    C       -9.24573        -0.63597        -0.43746
| 29>    C       -7.91459        -0.33326        -0.69719
| 30>    C       -7.51147         0.84774        -0.04913
| 31>    C       -6.19512         1.49650        -0.38370
| 32>    C       -6.32198         2.93611        -0.44974
| 33>    N       -6.41145         4.06788        -0.58609
| 34>    C       -5.75843         1.00591        -1.77405
| 35>    C       -5.61086        -0.50567        -1.76297
| 36>    C       -6.89725        -1.24431        -1.34872
| 37>    O       -6.46801        -2.21666        -0.39983
| 38>    C       -7.32861        -3.30329        -0.18079
| 39>    C      -10.14021        -1.63373        -0.92543
| 40>    C      -10.02175        -2.40830        -2.02709
| 41>    C      -11.01879        -3.34586        -2.41874
| 42>    S      -12.50850        -3.48539        -1.53887
| 43>    C      -13.13760        -4.68985        -2.62376
| 44>    C      -12.23420        -4.93416        -3.64676
| 45>    C      -11.02059        -4.21763        -3.49857
| 46>    C       -9.81971        -4.43209        -4.36924
| 47>    F       -8.66379        -4.25275        -3.69387
| 48>    F       -9.74320        -5.67465        -4.85338
| 49>    F       -9.75827        -3.58742        -5.41310
| 50>    C      -12.58773        -5.72967        -4.86741
| 51>    F      -13.89210        -5.60899        -5.17573
| 52>    F      -11.93496        -5.31562        -5.95957
| 53>    F      -12.34936        -7.04561        -4.74110
| 54>    C      -14.40540        -5.24271        -2.29240
| 55>    C      -14.92648        -6.43201        -2.67984
| 56>    C      -16.20427        -6.84960        -2.22282
| 57>    O      -16.92114        -6.06088        -1.39674
| 58>    C      -18.09213        -6.67775        -1.11331
| 59>    C      -18.14065        -7.89937        -1.77260
| 60>    C      -16.93458        -8.00932        -2.47630
| 61>    C      -16.50299        -9.14543        -3.33122
| 62>    F      -15.33469        -9.67907        -2.92488
| 63>    F      -17.39587       -10.14529        -3.33362
| 64>    F      -16.32175        -8.79216        -4.61579
| 65>    C      -19.02201        -6.05340        -0.24774
| 66>    C      -18.75969        -4.85807         0.35512
| 67>    C      -19.62322        -4.18355         1.22908
| 68>    C      -19.29758        -3.00138         1.84731
| 69>    C      -20.10022        -2.25575         2.74823
| 70>    C      -19.50825        -1.12963         3.22708
| 71>    C      -18.19761        -0.91323         2.73428
| 72>    S      -17.75252        -2.19657         1.62553
| 73>    C      -17.33652         0.11363         3.04390
| 74>    C      -17.57512         1.18879         3.94755
| 75>    C      -16.53775         2.04316         4.07794
| 76>    C      -15.39108         1.71224         3.27921
| 77>    S      -15.73362         0.24281         2.35258
| 78>    C      -14.22722         2.37219         3.21166
| 79>    H       -7.11692         6.48622         4.77711
| 80>    H      -10.78064         5.24372         2.94160
| 81>    H      -12.30668         4.54852         2.49179
| 82>    H       -5.28082         4.80917         3.70115
| 83>    H       -5.43331         1.24452         0.36430
| 84>    H       -4.80948         1.46948        -2.04911
| 85>    H       -6.50994         1.30677        -2.50845
| 86>    H       -4.84436        -0.79161        -1.03974
| 87>    H       -5.29022        -0.85310        -2.74474
| 88>    H       -7.33346        -1.75613        -2.21503
| 89>    H       -6.78020        -3.98803         0.46413
| 90>    H       -7.57963        -3.80861        -1.12007
| 91>    H       -8.25481        -2.99978         0.31996
| 92>    H      -11.05504        -1.71910        -0.34838
| 93>    H       -9.16737        -2.31307        -2.67500
| 94>    H      -14.97673        -4.65254        -1.58761
| 95>    H      -14.40330        -7.11785        -3.32570
| 96>    H      -18.93538        -8.61577        -1.74613
| 97>    H      -19.95164        -6.57390        -0.07553
| 98>    H      -17.80529        -4.38820         0.15377
| 99>    H      -20.59388        -4.61228         1.43892
|100>    H      -21.09058        -2.58238         3.01267
|101>    H      -19.97345        -0.45080         3.91918
|102>    H      -18.50983         1.28444         4.47074
|103>    H      -16.53078         2.90937         4.71563
|104>    H      -14.07963         3.25258         3.81476
|105>    H      -13.41670         2.05264         2.58032
|106> *
|107>
|108>                          ****END OF INPUT****

CARTESIAN COORDINATES (ANGSTROEM)
---------------------------------
  C     -7.253320    5.641290    4.132650
  O     -8.535670    5.349120    3.784230
  C     -8.449310    4.273080    2.982930
  C     -9.246130    3.370520    2.236400
  C    -10.702470    3.357800    2.104780
  O    -11.334260    2.422450    1.640830
  N    -11.306320    4.473950    2.566960
  C     -8.318850    2.504940    1.653110
  O     -7.040980    2.811020    2.024720
  C     -7.126030    3.887200    2.825560
  C     -6.342750    4.785710    3.581600
  C     -8.492420    1.405210    0.759560
  S     -9.969130    0.520080    0.654410
  C     -9.245730   -0.635970   -0.437460
  C     -7.914590   -0.333260   -0.697190
  C     -7.511470    0.847740   -0.049130
  C     -6.195120    1.496500   -0.383700
  C     -6.321980    2.936110   -0.449740
  N     -6.411450    4.067880   -0.586090
  C     -5.758430    1.005910   -1.774050
  C     -5.610860   -0.505670   -1.762970
  C     -6.897250   -1.244310   -1.348720
  O     -6.468010   -2.216660   -0.399830
  C     -7.328610   -3.303290   -0.180790
  C    -10.140210   -1.633730   -0.925430
  C    -10.021750   -2.408300   -2.027090
  C    -11.018790   -3.345860   -2.418740
  S    -12.508500   -3.485390   -1.538870
  C    -13.137600   -4.689850   -2.623760
  C    -12.234200   -4.934160   -3.646760
  C    -11.020590   -4.217630   -3.498570
  C     -9.819710   -4.432090   -4.369240
  F     -8.663790   -4.252750   -3.693870
  F     -9.743200   -5.674650   -4.853380
  F     -9.758270   -3.587420   -5.413100
  C    -12.587730   -5.729670   -4.867410
  F    -13.892100   -5.608990   -5.175730
  F    -11.934960   -5.315620   -5.959570
  F    -12.349360   -7.045610   -4.741100
  C    -14.405400   -5.242710   -2.292400
  C    -14.926480   -6.432010   -2.679840
  C    -16.204270   -6.849600   -2.222820
  O    -16.921140   -6.060880   -1.396740
  C    -18.092130   -6.677750   -1.113310
  C    -18.140650   -7.899370   -1.772600
  C    -16.934580   -8.009320   -2.476300
  C    -16.502990   -9.145430   -3.331220
  F    -15.334690   -9.679070   -2.924880
  F    -17.395870  -10.145290   -3.333620
  F    -16.321750   -8.792160   -4.615790
  C    -19.022010   -6.053400   -0.247740
  C    -18.759690   -4.858070    0.355120
  C    -19.623220   -4.183550    1.229080
  C    -19.297580   -3.001380    1.847310
  C    -20.100220   -2.255750    2.748230
  C    -19.508250   -1.129630    3.227080
  C    -18.197610   -0.913230    2.734280
  S    -17.752520   -2.196570    1.625530
  C    -17.336520    0.113630    3.043900
  C    -17.575120    1.188790    3.947550
  C    -16.537750    2.043160    4.077940
  C    -15.391080    1.712240    3.279210
  S    -15.733620    0.242810    2.352580
  C    -14.227220    2.372190    3.211660
  H     -7.116920    6.486220    4.777110
  H    -10.780640    5.243720    2.941600
  H    -12.306680    4.548520    2.491790
  H     -5.280820    4.809170    3.701150
  H     -5.433310    1.244520    0.364300
  H     -4.809480    1.469480   -2.049110
  H     -6.509940    1.306770   -2.508450
  H     -4.844360   -0.791610   -1.039740
  H     -5.290220   -0.853100   -2.744740
  H     -7.333460   -1.756130   -2.215030
  H     -6.780200   -3.988030    0.464130
  H     -7.579630   -3.808610   -1.120070
  H     -8.254810   -2.999780    0.319960
  H    -11.055040   -1.719100   -0.348380
  H     -9.167370   -2.313070   -2.675000
  H    -14.976730   -4.652540   -1.587610
  H    -14.403300   -7.117850   -3.325700
  H    -18.935380   -8.615770   -1.746130
  H    -19.951640   -6.573900   -0.075530
  H    -17.805290   -4.388200    0.153770
  H    -20.593880   -4.612280    1.438920
  H    -21.090580   -2.582380    3.012670
  H    -19.973450   -0.450800    3.919180
  H    -18.509830    1.284440    4.470740
  H    -16.530780    2.909370    4.715630
  H    -14.079630    3.252580    3.814760
  H    -13.416700    2.052640    2.580320

 Total Charge           Charge          ....    0
 Multiplicity           Mult            ....    1
 Number of Electrons    NEL             ....  490
 Basis Dimension        Dim             .... 1047

ORBITAL ENERGIES
----------------

  NO   OCC          E(Eh)            E(eV)
   0   2.0000     -88.970829     -2421.0194
   1   2.0000     -88.955457     -2420.6010
   2   2.0000     -88.942131     -2420.2384
   3   2.0000     -88.938461     -2420.1386
   4   2.0000     -24.798343      -674.7972
   5   2.0000     -24.795434      -674.7181
   6   2.0000     -24.793143      -674.6557
   7   2.0000     -24.792300      -674.6328
   8   2.0000     -24.792104      -674.6274
   9   2.0000     -24.790934      -674.5956
  10   2.0000     -24.789748      -674.5633
  11   2.0000     -24.787872      -674.5123
  12   2.0000     -24.787292      -674.4965
  13   2.0000     -19.309153      -525.4288
  14   2.0000     -19.307334      -525.3793
  15   2.0000     -19.297726      -525.1178
  16   2.0000     -19.209211      -522.7092
  17   2.0000     -19.191281      -522.2213
  18   2.0000     -14.438188      -392.8831
  19   2.0000     -14.390785      -391.5932
  20   2.0000     -10.519037      -286.2375
  21   2.0000     -10.515848      -286.1508
  22   2.0000     -10.512619      -286.0629
  23   2.0000     -10.388162      -282.6763
  24   2.0000     -10.359817      -281.9050
  25   2.0000     -10.343197      -281.4527
  26   2.0000     -10.338783      -281.3326
  27   2.0000     -10.337578      -281.2998
  28   2.0000     -10.331686      -281.1395
  29   2.0000     -10.330717      -281.1131
  30   2.0000     -10.325225      -280.9637
  31   2.0000     -10.325096      -280.9602
  32   2.0000     -10.324384      -280.9408
  33   2.0000     -10.314858      -280.6815
  34   2.0000     -10.311768      -280.5975
  35   2.0000     -10.308733      -280.5149
  36   2.0000     -10.307978      -280.4943
  37   2.0000     -10.307427      -280.4794
  38   2.0000     -10.307326      -280.4766
  39   2.0000     -10.305430      -280.4250
  40   2.0000     -10.304719      -280.4056
  41   2.0000     -10.300064      -280.2790
  42   2.0000     -10.298541      -280.2375
  43   2.0000     -10.297083      -280.1979
  44   2.0000     -10.294799      -280.1357
  45   2.0000     -10.293368      -280.0968
  46   2.0000     -10.292951      -280.0854
  47   2.0000     -10.292315      -280.0681
  48   2.0000     -10.290608      -280.0217
  49   2.0000     -10.290595      -280.0213
  50   2.0000     -10.290391      -280.0158
  51   2.0000     -10.289474      -279.9908
  52   2.0000     -10.289370      -279.9880
  53   2.0000     -10.289343      -279.9873
  54   2.0000     -10.285980      -279.8957
  55   2.0000     -10.283199      -279.8201
  56   2.0000     -10.282273      -279.7949
  57   2.0000     -10.280247      -279.7397
  58   2.0000     -10.279530      -279.7202
  59   2.0000     -10.279068      -279.7077
  60   2.0000     -10.278619      -279.6954
  61   2.0000     -10.275023      -279.5976
  62   2.0000     -10.266579      -279.3678
  63   2.0000     -10.265644      -279.3424
  64   2.0000      -8.066777      -219.5082
  65   2.0000      -8.049485      -219.0376
  66   2.0000      -8.038434      -218.7369
  67   2.0000      -8.035162      -218.6479
  68   2.0000      -6.035930      -164.2460
  69   2.0000      -6.031906      -164.1365
  70   2.0000      -6.028870      -164.0539
  71   2.0000      -6.018754      -163.7786
  72   2.0000      -6.014458      -163.6617
  73   2.0000      -6.011711      -163.5870
  74   2.0000      -6.008163      -163.4904
  75   2.0000      -6.004979      -163.4038
  76   2.0000      -6.004265      -163.3844
  77   2.0000      -6.001036      -163.2965
  78   2.0000      -5.999227      -163.2473
  79   2.0000      -5.995708      -163.1515
  80   2.0000      -1.387949       -37.7680
  81   2.0000      -1.382174       -37.6109
  82   2.0000      -1.379364       -37.5344
  83   2.0000      -1.290436       -35.1146
  84   2.0000      -1.285755       -34.9872
  85   2.0000      -1.284201       -34.9449
  86   2.0000      -1.283554       -34.9273
  87   2.0000      -1.281418       -34.8692
  88   2.0000      -1.278548       -34.7911
  89   2.0000      -1.230621       -33.4869
  90   2.0000      -1.218519       -33.1576
  91   2.0000      -1.213021       -33.0080
  92   2.0000      -1.130568       -30.7643
  93   2.0000      -1.110595       -30.2208
  94   2.0000      -1.009308       -27.4647
  95   2.0000      -0.999458       -27.1966
  96   2.0000      -0.996563       -27.1179
  97   2.0000      -0.992200       -26.9991
  98   2.0000      -0.978199       -26.6181
  99   2.0000      -0.969333       -26.3769
 100   2.0000      -0.932372       -25.3711
 101   2.0000      -0.927597       -25.2412
 102   2.0000      -0.920925       -25.0597
 103   2.0000      -0.918746       -25.0003
 104   2.0000      -0.913370       -24.8541
 105   2.0000      -0.909552       -24.7502
 106   2.0000      -0.900285       -24.4980
 107   2.0000      -0.886571       -24.1248
 108   2.0000      -0.880005       -23.9462
 109   2.0000      -0.871036       -23.7021
 110   2.0000      -0.855841       -23.2886
 111   2.0000      -0.847482       -23.0612
 112   2.0000      -0.844284       -22.9741
 113   2.0000      -0.842968       -22.9383
 114   2.0000      -0.829812       -22.5803
 115   2.0000      -0.822250       -22.3746
 116   2.0000      -0.814197       -22.1554
 117   2.0000      -0.803717       -21.8703
 118   2.0000      -0.792465       -21.5641
 119   2.0000      -0.785005       -21.3611
 120   2.0000      -0.771853       -21.0032
 121   2.0000      -0.766997       -20.8711
 122   2.0000      -0.766036       -20.8449
 123   2.0000      -0.752147       -20.4670
 124   2.0000      -0.740288       -20.1443
 125   2.0000      -0.733381       -19.9563
 126   2.0000      -0.718609       -19.5544
 127   2.0000      -0.712253       -19.3814
 128   2.0000      -0.712196       -19.3798
 129   2.0000      -0.710517       -19.3342
 130   2.0000      -0.698914       -19.0184
 131   2.0000      -0.695979       -18.9385
 132   2.0000      -0.691718       -18.8226
 133   2.0000      -0.686729       -18.6868
 134   2.0000      -0.676994       -18.4219
 135   2.0000      -0.671251       -18.2657
 136   2.0000      -0.669376       -18.2146
 137   2.0000      -0.668488       -18.1905
 138   2.0000      -0.667759       -18.1707
 139   2.0000      -0.663814       -18.0633
 140   2.0000      -0.662182       -18.0189
 141   2.0000      -0.661765       -18.0075
 142   2.0000      -0.658240       -17.9116
 143   2.0000      -0.654234       -17.8026
 144   2.0000      -0.646850       -17.6017
 145   2.0000      -0.636991       -17.3334
 146   2.0000      -0.634169       -17.2566
 147   2.0000      -0.622834       -16.9482
 148   2.0000      -0.619691       -16.8626
 149   2.0000      -0.615683       -16.7536
 150   2.0000      -0.610571       -16.6145
 151   2.0000      -0.609927       -16.5970
 152   2.0000      -0.600711       -16.3462
 153   2.0000      -0.597358       -16.2549
 154   2.0000      -0.591469       -16.0947
 155   2.0000      -0.591195       -16.0872
 156   2.0000      -0.584955       -15.9174
 157   2.0000      -0.583939       -15.8898
 158   2.0000      -0.576633       -15.6910
 159   2.0000      -0.573817       -15.6144
 160   2.0000      -0.566562       -15.4169
 161   2.0000      -0.565569       -15.3899
 162   2.0000      -0.559768       -15.2320
 163   2.0000      -0.556506       -15.1433
 164   2.0000      -0.552035       -15.0216
 165   2.0000      -0.545899       -14.8547
 166   2.0000      -0.544351       -14.8125
 167   2.0000      -0.542797       -14.7703
 168   2.0000      -0.542235       -14.7550
 169   2.0000      -0.538690       -14.6585
 170   2.0000      -0.537902       -14.6370
 171   2.0000      -0.537295       -14.6205
 172   2.0000      -0.536947       -14.6111
 173   2.0000      -0.535123       -14.5614
 174   2.0000      -0.532167       -14.4810
 175   2.0000      -0.530379       -14.4323
 176   2.0000      -0.528073       -14.3696
 177   2.0000      -0.516373       -14.0512
 178   2.0000      -0.513669       -13.9776
 179   2.0000      -0.511995       -13.9321
 180   2.0000      -0.511786       -13.9264
 181   2.0000      -0.510478       -13.8908
 182   2.0000      -0.510134       -13.8815
 183   2.0000      -0.504767       -13.7354
 184   2.0000      -0.503901       -13.7118
 185   2.0000      -0.501464       -13.6455
 186   2.0000      -0.499322       -13.5872
 187   2.0000      -0.497849       -13.5472
 188   2.0000      -0.496686       -13.5155
 189   2.0000      -0.494899       -13.4669
 190   2.0000      -0.494663       -13.4605
 191   2.0000      -0.492329       -13.3970
 192   2.0000      -0.491104       -13.3636
 193   2.0000      -0.489067       -13.3082
 194   2.0000      -0.487627       -13.2690
 195   2.0000      -0.485121       -13.2008
 196   2.0000      -0.484158       -13.1746
 197   2.0000      -0.482736       -13.1359
 198   2.0000      -0.481929       -13.1140
 199   2.0000      -0.479166       -13.0388
 200   2.0000      -0.475160       -12.9298
 201   2.0000      -0.473710       -12.8903
 202   2.0000      -0.472592       -12.8599
 203   2.0000      -0.468334       -12.7440
 204   2.0000      -0.465539       -12.6680
 205   2.0000      -0.463979       -12.6255
 206   2.0000      -0.462613       -12.5883
 207   2.0000      -0.459385       -12.5005
 208   2.0000      -0.458129       -12.4663
 209   2.0000      -0.453999       -12.3539
 210   2.0000      -0.450925       -12.2703
 211   2.0000      -0.445426       -12.1207
 212   2.0000      -0.443451       -12.0669
 213   2.0000      -0.433794       -11.8041
 214   2.0000      -0.428412       -11.6577
 215   2.0000      -0.427411       -11.6304
 216   2.0000      -0.425284       -11.5726
 217   2.0000      -0.422539       -11.4979
 218   2.0000      -0.421572       -11.4716
 219   2.0000      -0.418438       -11.3863
 220   2.0000      -0.415367       -11.3027
 221   2.0000      -0.411544       -11.1987
 222   2.0000      -0.408526       -11.1166
 223   2.0000      -0.395788       -10.7699
 224   2.0000      -0.394388       -10.7319
 225   2.0000      -0.391803       -10.6615
 226   2.0000      -0.384740       -10.4693
 227   2.0000      -0.382740       -10.4149
 228   2.0000      -0.378784       -10.3072
 229   2.0000      -0.375714       -10.2237
 230   2.0000      -0.363712        -9.8971
 231   2.0000      -0.355149        -9.6641
 232   2.0000      -0.349078        -9.4989
 233   2.0000      -0.343248        -9.3402
 234   2.0000      -0.343100        -9.3362
 235   2.0000      -0.341052        -9.2805
 236   2.0000      -0.337234        -9.1766
 237   2.0000      -0.326191        -8.8761
 238   2.0000      -0.325654        -8.8615
 239   2.0000      -0.312306        -8.4983
 240   2.0000      -0.309233        -8.4147
 241   2.0000      -0.291319        -7.9272
 242   2.0000      -0.264804        -7.2057
 243   2.0000      -0.243485        -6.6256
 244   2.0000      -0.211599        -5.7579
 245   0.0000      -0.079480        -2.1628
 246   0.0000      -0.060557        -1.6478
 247   0.0000      -0.035042        -0.9536
 248   0.0000      -0.010221        -0.2781
 249   0.0000       0.002783         0.0757

MULLIKEN ATOMIC CHARGES
-----------------------
   0 C :    0.142085
   1 O :   -0.215568
   2 C :    0.072639
   3 C :   -0.055823
   4 C :    0.092980
   5 O :   -0.234362
   6 N :   -0.078163
   7 C :    0.107316
   8 O :   -0.207522
   9 C :    0.203389
  10 C :   -0.081168
  11 C :   -0.141499
  12 S :    0.210379
  13 C :   -0.130581
  14 C :   -0.045182
  15 C :   -0.043196
  16 C :    0.095652
  17 C :   -0.306488
  18 N :    0.103152
  19 C :    0.035608
  20 C :    0.119437
  21 C :    0.198712
  22 O :   -0.379076
  23 C :    0.183991
  24 C :    0.036848
  25 C :    0.007617
  26 C :   -0.105967
  27 S :    0.145874
  28 C :   -0.105939
  29 C :   -0.070590
  30 C :   -0.086862
  31 C :    0.515370
  32 F :   -0.169626
  33 F :   -0.150429
  34 F :   -0.158839
  35 C :    0.524901
  36 F :   -0.162545
  37 F :   -0.154036
  38 F :   -0.159242
  39 C :    0.036611
  40 C :   -0.004707
  41 C :    0.107911
  42 O :   -0.204294
  43 C :    0.199953
  44 C :   -0.068445
  45 C :   -0.097457
  46 C :    0.524700
  47 F :   -0.167968
  48 F :   -0.157800
  49 F :   -0.162367
  50 C :   -0.036570
  51 C :    0.022068
  52 C :   -0.018244
  53 C :   -0.012413
  54 C :    0.035336
  55 C :    0.029208
  56 C :   -0.053811
  57 S :    0.067458
  58 C :   -0.061821
  59 C :    0.028796
  60 C :    0.052818
  61 C :   -0.060162
  62 S :    0.091299
  63 C :   -0.054311
  64 H :    0.017055
  65 H :    0.127800
  66 H :    0.132739
  67 H :    0.006399
  68 H :    0.038501
  69 H :    0.023976
  70 H :    0.019721
  71 H :    0.002282
  72 H :    0.010378
  73 H :   -0.016066
  74 H :    0.022933
  75 H :    0.003577
  76 H :    0.016769
  77 H :   -0.000538
  78 H :    0.006969
  79 H :    0.007605
  80 H :    0.018178
  81 H :   -0.006302
  82 H :   -0.010271
  83 H :    0.012946
  84 H :   -0.019337
  85 H :   -0.014137
  86 H :   -0.012906
  87 H :   -0.013295
  88 H :   -0.012788
  89 H :    0.004548
  90 H :    0.044227
Sum of atomic charges:   -0.0000000

LOEWDIN ATOMIC CHARGES
----------------------
   0 C :    0.049630
   1 O :    0.000516
   2 C :   -0.011480
   3 C :   -0.119454
   4 C :    0.075179
   5 O :   -0.226971
   6 N :    0.007684
   7 C :    0.063951
   8 O :    0.028521
   9 C :    0.002072
  10 C :   -0.069947
  11 C :   -0.196032
  12 S :    0.523239
  13 C :   -0.177331
  14 C :   -0.070214
  15 C :   -0.035573
  16 C :   -0.044369
  17 C :   -0.031016
  18 N :   -0.083737
  19 C :   -0.008890
  20 C :   -0.031169
  21 C :    0.081055
  22 O :   -0.166440
  23 C :    0.063526
  24 C :   -0.035590
  25 C :   -0.049536
  26 C :   -0.143686
  27 S :    0.474703
  28 C :   -0.140096
  29 C :   -0.114090
  30 C :   -0.111725
  31 C :    0.164702
  32 F :   -0.064453
  33 F :   -0.046654
  34 F :   -0.061816
  35 C :    0.164139
  36 F :   -0.055915
  37 F :   -0.048768
  38 F :   -0.058508
  39 C :   -0.050639
  40 C :   -0.014855
  41 C :    0.043777
  42 O :    0.022904
  43 C :    0.045534
  44 C :   -0.049502
  45 C :   -0.115099
  46 C :    0.168712
  47 F :   -0.066555
  48 F :   -0.057248
  49 F :   -0.062699
  50 C :   -0.053358
  51 C :   -0.013515
  52 C :   -0.069343
  53 C :   -0.133549
  54 C :   -0.039820
  55 C :   -0.025367
  56 C :   -0.186021
  57 S :    0.366344
  58 C :   -0.171193
  59 C :   -0.029847
  60 C :   -0.027733
  61 C :   -0.142790
  62 S :    0.359477
  63 C :   -0.074664
  64 H :    0.025985
  65 H :    0.077731
  66 H :    0.082904
  67 H :    0.040087
  68 H :    0.057950
  69 H :    0.033179
  70 H :    0.031812
  71 H :    0.031997
  72 H :    0.031716
  73 H :    0.011620
  74 H :    0.022686
  75 H :    0.006730
  76 H :    0.008385
  77 H :    0.020173
  78 H :    0.027571
  79 H :    0.032371
  80 H :    0.034066
  81 H :    0.036196
  82 H :    0.035889
  83 H :    0.023761
  84 H :    0.031066
  85 H :    0.032992
  86 H :    0.031598
  87 H :    0.031722
  88 H :    0.032706
  89 H :    0.021364
  90 H :    0.027331

  Mayer bond orders larger than 0.100000
B(  0-C ,  1-O ) :   1.0975 B(  0-C , 10-C ) :   1.5618 B(  0-C , 64-H ) :   1.0064
B(  1-O ,  2-C ) :   1.1295 B(  2-C ,  3-C ) :   1.1597 B(  2-C ,  9-C ) :   1.4331
B(  3-C ,  4-C ) :   0.9275 B(  3-C ,  7-C ) :   1.4753 B(  4-C ,  5-O ) :   2.0065
B(  4-C ,  6-N ) :   1.3250 B(  6-N , 65-H ) :   0.9359 B(  6-N , 66-H ) :   0.9314
B(  7-C ,  8-O ) :   1.1388 B(  7-C , 11-C ) :   1.1034 B(  8-O ,  9-C ) :   1.1036
B(  9-C , 10-C ) :   1.2052 B( 10-C , 67-H ) :   1.0197 B( 11-C , 12-S ) :   1.1683
B( 11-C , 13-C ) :   0.1183 B( 11-C , 15-C ) :   1.4908 B( 12-S , 13-C ) :   1.1094
B( 13-C , 14-C ) :   1.4799 B( 13-C , 24-C ) :   1.1175 B( 14-C , 15-C ) :   1.3617
B( 14-C , 21-C ) :   1.0191 B( 15-C , 16-C ) :   0.9809 B( 16-C , 17-C ) :   1.0343
B( 16-C , 19-C ) :   1.1234 B( 16-C , 68-H ) :   0.8093 B( 17-C , 18-N ) :   3.0968
B( 19-C , 20-C ) :   1.1391 B( 19-C , 69-H ) :   0.9379 B( 19-C , 70-H ) :   0.9146
B( 20-C , 21-C ) :   1.0402 B( 20-C , 71-H ) :   0.8875 B( 20-C , 72-H ) :   0.9254
B( 21-C , 22-O ) :   1.0558 B( 21-C , 73-H ) :   0.9030 B( 22-O , 23-C ) :   0.9833
B( 23-C , 74-H ) :   0.9768 B( 23-C , 75-H ) :   0.9613 B( 23-C , 76-H ) :   0.9653
B( 24-C , 25-C ) :   1.6780 B( 24-C , 77-H ) :   0.9395 B( 25-C , 26-C ) :   1.1694
B( 25-C , 78-H ) :   0.9658 B( 26-C , 27-S ) :   1.1275 B( 26-C , 30-C ) :   1.5117
B( 27-S , 28-C ) :   1.1400 B( 28-C , 29-C ) :   1.5297 B( 28-C , 39-C ) :   1.1086
B( 29-C , 30-C ) :   1.2910 B( 29-C , 35-C ) :   0.9460 B( 30-C , 31-C ) :   0.9490
B( 31-C , 32-F ) :   1.1142 B( 31-C , 33-F ) :   1.1592 B( 31-C , 34-F ) :   1.1783
B( 35-C , 36-F ) :   1.1517 B( 35-C , 37-F ) :   1.1510 B( 35-C , 38-F ) :   1.1379
B( 39-C , 40-C ) :   1.6628 B( 39-C , 79-H ) :   0.9525 B( 40-C , 41-C ) :   1.2157
B( 40-C , 80-H ) :   0.9315 B( 41-C , 42-O ) :   1.1551 B( 41-C , 45-C ) :   1.4164
B( 42-O , 43-C ) :   1.1326 B( 43-C , 44-C ) :   1.3935 B( 43-C , 50-C ) :   1.1555
B( 44-C , 45-C ) :   1.2674 B( 44-C , 81-H ) :   1.0226 B( 45-C , 46-C ) :   0.9459
B( 46-C , 47-F ) :   1.1600 B( 46-C , 48-F ) :   1.1783 B( 46-C , 49-F ) :   1.1740
B( 50-C , 51-C ) :   1.6039 B( 50-C , 82-H ) :   0.9749 B( 51-C , 52-C ) :   1.1605
B( 51-C , 83-H ) :   0.9731 B( 52-C , 53-C ) :   1.5576 B( 52-C , 84-H ) :   0.9839
B( 53-C , 54-C ) :   1.1394 B( 53-C , 57-S ) :   1.0397 B( 54-C , 55-C ) :   1.5993
B( 54-C , 85-H ) :   0.9993 B( 55-C , 56-C ) :   1.1774 B( 55-C , 86-H ) :   0.9927
B( 56-C , 57-S ) :   1.0326 B( 56-C , 58-C ) :   1.5508 B( 58-C , 59-C ) :   1.1510
B( 58-C , 62-S ) :   1.0519 B( 59-C , 60-C ) :   1.6628 B( 59-C , 87-H ) :   0.9916
B( 60-C , 61-C ) :   1.0747 B( 60-C , 88-H ) :   0.9930 B( 61-C , 62-S ) :   1.0085
B( 61-C , 63-C ) :   1.8607 B( 63-C , 89-H ) :   0.9447 B( 63-C , 90-H ) :   0.9206

-----------------------------------------------------------------------------
         ABSORPTION SPECTRUM VIA TRANSITION ELECTRIC DIPOLE MOMENTS
-----------------------------------------------------------------------------
State   Energy  Wavelength   fosc         T2         TX        TY        TZ
        (cm-1)    (nm)                  (au**2)     (au)      (au)      (au)
-----------------------------------------------------------------------------
   0   14518.0    688.8   0.360569762   8.17632   1.21976  -1.88096  -1.77496
   1   20417.9    489.8   0.538263090   8.67877   1.26141   2.42403   1.10078
   2   22486.8    444.7   1.914463193  28.02814  -2.93212  -4.03286  -1.77957
   3   25080.2    398.7   0.286541711   3.76125  -0.88955  -1.54617  -0.76113
   4   26566.8    376.4   0.436702243   5.41154  -1.32255   0.89756   1.69020
   5   27194.1    367.7   0.417925836   5.05940   2.04932   0.67644  -0.63413
   6   29967.4    333.7   0.063530216   0.69792  -0.76889  -0.10011   0.31099
   7   31170.1    320.8   0.107011823   1.13024   0.71265  -0.38474  -0.68872
   8   31404.5    318.4   0.079751003   0.83603   0.34007   0.72366   0.44351
   9   32336.1    309.3   0.014233924   0.14491  -0.22476   0.05740   0.30184
  10   32913.8    303.8   0.040809329   0.40818  -0.27578   0.45127   0.35845
  11   33847.5    295.4   0.014586933   0.14188  -0.01457  -0.25466  -0.27715
  12   34615.3    288.9   0.000922458   0.00877  -0.02101   0.07269   0.05520
  13   35487.1    281.8   0.020802942   0.19299   0.07650  -0.21448  -0.37568
  14   36148.4    276.6   0.162413864   1.47914  -0.72840   0.86774   0.44227
  15   37038.5    270.0   0.030393637   0.27015   0.30392   0.38162   0.17929
  16   37161.9    269.1   0.005970454   0.05289   0.05630  -0.15219  -0.16297
  17   37581.3    266.1   0.167404595   1.46646   0.68055   0.92640   0.38093
  18   38441.4    260.1   0.131210979   1.12369   0.03811   0.94395   0.48083
  19   38872.5    257.3   0.094085234   0.79681   0.81680  -0.15480  -0.32511
  20   39707.1    251.8   0.003270692   0.02712  -0.15163   0.02051  -0.06087
  21   39956.6    250.3   0.016597802   0.13675   0.34918  -0.10730   0.05755

FINAL SINGLE POINT ENERGY     -4665.724647274997

DIPOLE MOMENT
-------------
                                X             Y             Z
Electronic contribution:    -16.47335     -67.00886     -59.81212
Nuclear contribution   :     15.58669      69.42707      63.33533
                        -----------------------------------------
Total Dipole Moment    :     -0.88666       2.41821       3.52320
                        -----------------------------------------
Magnitude (a.u.)       :      4.36427
Magnitude (Debye)      :     11.09309

Rotational constants in cm-1:     0.001154     0.000600     0.000408
Rotational constants in MHz :    34.587516    17.995015    12.222233

                             ****ORCA TERMINATED NORMALLY****
TOTAL RUN TIME: 0 days 0 hours 10 minutes 45 seconds 731 msec
