                         Program Version 4.2.0 -  RELEASE  -
|  1> # ORCA input file
|  2> # SCF done       -193.546835885862          0.000497181136
|  3> ! CAM-B3LYP def2-SVP def2/J RIJCOSX Grid4 TightSCF
|  4> %maxcore 5000
|  5> %tddft
|  6>     Mode sTDDFT
|  7>     Ethresh 5.0
|  8>     maxcore 5000
|  9> end
| 10>
| 11> %pal
| 12>   nprocs 6
| 13>   end
| 14> * xyz 0 1
| 15>    C       -0.37774       -17.94177         0.33844
| 16>    O        0.12702       -16.95595         1.12688
| 17>    C       -0.94466       -16.32790         1.64301
| 18>    C       -1.30680       -15.25971         2.49741
| 19>    C       -0.40486       -14.27466         3.13843
| 20>    O       -0.77087       -13.23340         3.63399
| 21>    N        0.89664       -14.64790         3.08995
| 22>    C       -2.70106       -15.29436         2.48891
| 23>    O       -3.18895       -16.28970         1.69599
| 24>    C       -2.11935       -16.91446         1.18309
| 25>    C       -1.74295       -17.97269         0.32748
| 26>    C       -3.65891       -14.48689         3.17888
| 27>    O       -3.30526       -13.73864         4.22290
| 28>    C       -4.39350       -13.08261         4.67511
| 29>    C       -5.49147       -13.42496         3.90480
| 30>    C       -5.02232       -14.33340         2.94242
| 31>    C       -5.83156       -14.98162         1.87609
| 32>    F       -5.30128       -14.83101         0.65059
| 33>    F       -5.98400       -16.30488         2.06218
| 34>    F       -7.07067       -14.46951         1.81565
| 35>    C       -4.23676       -12.22604         5.80555
| 36>    C       -5.23959       -11.48889         6.32617
| 37>    C       -5.17660       -10.63727         7.46794
| 38>    O       -6.26477        -9.88037         7.71648
| 39>    C       -6.05026        -9.15837         8.83895
| 40>    C       -4.79721        -9.45198         9.34005
| 41>    C       -4.23356       -10.39650         8.46473
| 42>    C       -2.88856       -11.00431         8.63588
| 43>    F       -2.91942       -12.35004         8.66369
| 44>    F       -2.03040       -10.67101         7.65367
| 45>    F       -2.31163       -10.61791         9.78204
| 46>    C       -7.03387        -8.25197         9.33284
| 47>    C       -8.21651        -8.05547         8.70755
| 48>    C       -9.28100        -7.17963         9.06597
| 49>    S      -10.78717        -7.41171         8.22700
| 50>    C      -11.54458        -6.11314         9.10033
| 51>    C      -10.64543        -5.51749         9.97473
| 52>    C       -9.37479        -6.11817         9.95637
| 53>    C       -8.26025        -5.65917        10.85844
| 54>    C       -8.12316        -6.63609        11.92017
| 55>    N       -8.04131        -7.39665        12.76954
| 56>    C       -8.54964        -4.28581        11.48123
| 57>    C       -9.98440        -4.22691        11.99031
| 58>    C      -10.93515        -4.28517        10.79359
| 59>    O      -10.69816        -3.10121        10.04118
| 60>    C      -11.67902        -2.75826         9.10007
| 61>    C      -12.91546        -5.80176         8.90390
| 62>    C      -13.69210        -6.34149         7.93681
| 63>    C      -15.07018        -6.02688         7.77434
| 64>    S      -15.89305        -5.02912         8.93420
| 65>    C      -17.41640        -5.18826         8.12104
| 66>    C      -17.28370        -5.99696         7.00958
| 67>    C      -15.95248        -6.43649         6.78734
| 68>    C      -15.52299        -7.21193         5.57730
| 69>    F      -14.24522        -6.96134         5.23548
| 70>    F      -15.60072        -8.54178         5.75304
| 71>    F      -16.23817        -6.91070         4.48900
| 72>    C      -18.44195        -6.41929         6.15250
| 73>    F      -19.60500        -6.43469         6.82757
| 74>    F      -18.63803        -5.60292         5.10340
| 75>    F      -18.30100        -7.65960         5.67422
| 76>    C      -18.57470        -4.49008         8.61416
| 77>    C      -18.59909        -3.82385         9.76602
| 78>    H        0.33805       -18.56013        -0.16517
| 79>    H        1.20023       -15.48414         2.62391
| 80>    H        1.58579       -14.01754         3.46371
| 81>    H       -2.37089       -18.64955        -0.21111
| 82>    H       -6.49856       -13.07804         4.00525
| 83>    H       -3.23614       -12.20834         6.20586
| 84>    H       -6.21399       -11.50452         5.85840
| 85>    H       -4.34332        -9.04876        10.22165
| 86>    H       -6.76889        -7.76570        10.25637
| 87>    H       -8.40836        -8.64756         7.82135
| 88>    H       -7.31802        -5.62232        10.29840
| 89>    H       -8.41957        -3.51141        10.72474
| 90>    H       -7.84702        -4.10273        12.29597
| 91>    H      -10.15114        -3.29060        12.52227
| 92>    H      -10.18908        -5.05997        12.66535
| 93>    H      -11.98067        -4.29611        11.14030
| 94>    H      -11.36985        -1.80069         8.68487
| 95>    H      -12.66362        -2.64653         9.57103
| 96>    H      -11.75169        -3.49394         8.29088
| 97>    H      -13.35257        -5.08415         9.58603
| 98>    H      -13.25668        -7.05115         7.24961
| 99>    H      -19.45357        -4.51496         7.98845
|100>    H      -17.74043        -3.78220        10.41647
|101>    H      -19.48197        -3.30432        10.09094
|102> *
|103>
|104>                          ****END OF INPUT****

CARTESIAN COORDINATES (ANGSTROEM)
---------------------------------
  C     -0.377740  -17.941770    0.338440
  O      0.127020  -16.955950    1.126880
  C     -0.944660  -16.327900    1.643010
  C     -1.306800  -15.259710    2.497410
  C     -0.404860  -14.274660    3.138430
  O     -0.770870  -13.233400    3.633990
  N      0.896640  -14.647900    3.089950
  C     -2.701060  -15.294360    2.488910
  O     -3.188950  -16.289700    1.695990
  C     -2.119350  -16.914460    1.183090
  C     -1.742950  -17.972690    0.327480
  C     -3.658910  -14.486890    3.178880
  O     -3.305260  -13.738640    4.222900
  C     -4.393500  -13.082610    4.675110
  C     -5.491470  -13.424960    3.904800
  C     -5.022320  -14.333400    2.942420
  C     -5.831560  -14.981620    1.876090
  F     -5.301280  -14.831010    0.650590
  F     -5.984000  -16.304880    2.062180
  F     -7.070670  -14.469510    1.815650
  C     -4.236760  -12.226040    5.805550
  C     -5.239590  -11.488890    6.326170
  C     -5.176600  -10.637270    7.467940
  O     -6.264770   -9.880370    7.716480
  C     -6.050260   -9.158370    8.838950
  C     -4.797210   -9.451980    9.340050
  C     -4.233560  -10.396500    8.464730
  C     -2.888560  -11.004310    8.635880
  F     -2.919420  -12.350040    8.663690
  F     -2.030400  -10.671010    7.653670
  F     -2.311630  -10.617910    9.782040
  C     -7.033870   -8.251970    9.332840
  C     -8.216510   -8.055470    8.707550
  C     -9.281000   -7.179630    9.065970
  S    -10.787170   -7.411710    8.227000
  C    -11.544580   -6.113140    9.100330
  C    -10.645430   -5.517490    9.974730
  C     -9.374790   -6.118170    9.956370
  C     -8.260250   -5.659170   10.858440
  C     -8.123160   -6.636090   11.920170
  N     -8.041310   -7.396650   12.769540
  C     -8.549640   -4.285810   11.481230
  C     -9.984400   -4.226910   11.990310
  C    -10.935150   -4.285170   10.793590
  O    -10.698160   -3.101210   10.041180
  C    -11.679020   -2.758260    9.100070
  C    -12.915460   -5.801760    8.903900
  C    -13.692100   -6.341490    7.936810
  C    -15.070180   -6.026880    7.774340
  S    -15.893050   -5.029120    8.934200
  C    -17.416400   -5.188260    8.121040
  C    -17.283700   -5.996960    7.009580
  C    -15.952480   -6.436490    6.787340
  C    -15.522990   -7.211930    5.577300
  F    -14.245220   -6.961340    5.235480
  F    -15.600720   -8.541780    5.753040
  F    -16.238170   -6.910700    4.489000
  C    -18.441950   -6.419290    6.152500
  F    -19.605000   -6.434690    6.827570
  F    -18.638030   -5.602920    5.103400
  F    -18.301000   -7.659600    5.674220
  C    -18.574700   -4.490080    8.614160
  C    -18.599090   -3.823850    9.766020
  H      0.338050  -18.560130   -0.165170
  H      1.200230  -15.484140    2.623910
  H      1.585790  -14.017540    3.463710
  H     -2.370890  -18.649550   -0.211110
  H     -6.498560  -13.078040    4.005250
  H     -3.236140  -12.208340    6.205860
  H     -6.213990  -11.504520    5.858400
  H     -4.343320   -9.048760   10.221650
  H     -6.768890   -7.765700   10.256370
  H     -8.408360   -8.647560    7.821350
  H     -7.318020   -5.622320   10.298400
  H     -8.419570   -3.511410   10.724740
  H     -7.847020   -4.102730   12.295970
  H    -10.151140   -3.290600   12.522270
  H    -10.189080   -5.059970   12.665350
  H    -11.980670   -4.296110   11.140300
  H    -11.369850   -1.800690    8.684870
  H    -12.663620   -2.646530    9.571030
  H    -11.751690   -3.493940    8.290880
  H    -13.352570   -5.084150    9.586030
  H    -13.256680   -7.051150    7.249610
  H    -19.453570   -4.514960    7.988450
  H    -17.740430   -3.782200   10.416470
  H    -19.481970   -3.304320   10.090940

 Total Charge           Charge          ....    0
 Multiplicity           Mult            ....    1
 Number of Electrons    NEL             ....  472
 Basis Dimension        Dim             .... 1010

ORBITAL ENERGIES
----------------

  NO   OCC          E(Eh)            E(eV)
   0   2.0000     -88.977818     -2421.2095
   1   2.0000     -88.963605     -2420.8228
   2   2.0000     -24.799456      -674.8275
   3   2.0000     -24.799155      -674.8193
   4   2.0000     -24.797447      -674.7728
   5   2.0000     -24.797319      -674.7693
   6   2.0000     -24.796245      -674.7401
   7   2.0000     -24.793222      -674.6579
   8   2.0000     -24.792771      -674.6456
   9   2.0000     -24.792100      -674.6273
  10   2.0000     -24.791928      -674.6226
  11   2.0000     -24.791356      -674.6071
  12   2.0000     -24.785640      -674.4516
  13   2.0000     -24.783358      -674.3895
  14   2.0000     -19.309667      -525.4428
  15   2.0000     -19.307652      -525.3879
  16   2.0000     -19.303262      -525.2685
  17   2.0000     -19.300059      -525.1813
  18   2.0000     -19.223602      -523.1008
  19   2.0000     -19.170184      -521.6472
  20   2.0000     -14.423726      -392.4895
  21   2.0000     -14.403953      -391.9515
  22   2.0000     -10.521703      -286.3101
  23   2.0000     -10.521291      -286.2989
  24   2.0000     -10.516258      -286.1619
  25   2.0000     -10.511872      -286.0426
  26   2.0000     -10.373230      -282.2699
  27   2.0000     -10.356878      -281.8250
  28   2.0000     -10.353201      -281.7249
  29   2.0000     -10.352172      -281.6969
  30   2.0000     -10.340041      -281.3668
  31   2.0000     -10.339471      -281.3513
  32   2.0000     -10.338810      -281.3333
  33   2.0000     -10.335061      -281.2313
  34   2.0000     -10.333517      -281.1893
  35   2.0000     -10.333177      -281.1801
  36   2.0000     -10.331953      -281.1467
  37   2.0000     -10.330658      -281.1115
  38   2.0000     -10.324897      -280.9547
  39   2.0000     -10.315823      -280.7078
  40   2.0000     -10.315255      -280.6924
  41   2.0000     -10.313287      -280.6388
  42   2.0000     -10.312976      -280.6304
  43   2.0000     -10.311672      -280.5949
  44   2.0000     -10.303743      -280.3791
  45   2.0000     -10.303589      -280.3749
  46   2.0000     -10.298044      -280.2240
  47   2.0000     -10.296569      -280.1839
  48   2.0000     -10.296428      -280.1800
  49   2.0000     -10.295085      -280.1435
  50   2.0000     -10.294591      -280.1301
  51   2.0000     -10.294454      -280.1263
  52   2.0000     -10.293463      -280.0994
  53   2.0000     -10.293324      -280.0956
  54   2.0000     -10.292752      -280.0800
  55   2.0000     -10.292064      -280.0613
  56   2.0000     -10.291767      -280.0532
  57   2.0000     -10.290330      -280.0141
  58   2.0000     -10.286890      -279.9205
  59   2.0000     -10.285643      -279.8866
  60   2.0000     -10.284471      -279.8547
  61   2.0000     -10.282757      -279.8080
  62   2.0000     -10.274700      -279.5888
  63   2.0000      -8.073626      -219.6945
  64   2.0000      -8.059432      -219.3083
  65   2.0000      -6.042778      -164.4324
  66   2.0000      -6.038834      -164.3250
  67   2.0000      -6.035700      -164.2397
  68   2.0000      -6.028517      -164.0443
  69   2.0000      -6.024655      -163.9392
  70   2.0000      -6.021575      -163.8554
  71   2.0000      -1.391633       -37.8683
  72   2.0000      -1.386595       -37.7312
  73   2.0000      -1.383506       -37.6471
  74   2.0000      -1.377413       -37.4813
  75   2.0000      -1.294035       -35.2125
  76   2.0000      -1.288985       -35.0751
  77   2.0000      -1.287304       -35.0293
  78   2.0000      -1.286993       -35.0209
  79   2.0000      -1.286906       -35.0185
  80   2.0000      -1.282831       -34.9076
  81   2.0000      -1.281174       -34.8625
  82   2.0000      -1.276240       -34.7282
  83   2.0000      -1.232836       -33.5472
  84   2.0000      -1.225713       -33.3533
  85   2.0000      -1.223657       -33.2974
  86   2.0000      -1.213818       -33.0297
  87   2.0000      -1.125557       -30.6280
  88   2.0000      -1.112568       -30.2745
  89   2.0000      -1.016366       -27.6567
  90   2.0000      -1.007424       -27.4134
  91   2.0000      -0.989921       -26.9371
  92   2.0000      -0.984027       -26.7767
  93   2.0000      -0.938922       -25.5494
  94   2.0000      -0.935407       -25.4537
  95   2.0000      -0.927946       -25.2507
  96   2.0000      -0.926719       -25.2173
  97   2.0000      -0.921687       -25.0804
  98   2.0000      -0.917751       -24.9733
  99   2.0000      -0.911931       -24.8149
 100   2.0000      -0.906675       -24.6719
 101   2.0000      -0.900909       -24.5150
 102   2.0000      -0.887529       -24.1509
 103   2.0000      -0.870514       -23.6879
 104   2.0000      -0.867669       -23.6105
 105   2.0000      -0.851078       -23.1590
 106   2.0000      -0.846354       -23.0305
 107   2.0000      -0.836827       -22.7712
 108   2.0000      -0.818854       -22.2821
 109   2.0000      -0.806798       -21.9541
 110   2.0000      -0.794778       -21.6270
 111   2.0000      -0.788805       -21.4645
 112   2.0000      -0.777898       -21.1677
 113   2.0000      -0.773307       -21.0427
 114   2.0000      -0.771871       -21.0037
 115   2.0000      -0.761868       -20.7315
 116   2.0000      -0.745792       -20.2940
 117   2.0000      -0.732274       -19.9262
 118   2.0000      -0.731012       -19.8919
 119   2.0000      -0.727429       -19.7944
 120   2.0000      -0.718260       -19.5448
 121   2.0000      -0.714759       -19.4496
 122   2.0000      -0.709031       -19.2937
 123   2.0000      -0.700276       -19.0555
 124   2.0000      -0.699129       -19.0243
 125   2.0000      -0.692326       -18.8392
 126   2.0000      -0.687679       -18.7127
 127   2.0000      -0.681181       -18.5359
 128   2.0000      -0.673022       -18.3139
 129   2.0000      -0.672236       -18.2925
 130   2.0000      -0.670684       -18.2502
 131   2.0000      -0.669719       -18.2240
 132   2.0000      -0.668580       -18.1930
 133   2.0000      -0.667164       -18.1545
 134   2.0000      -0.665846       -18.1186
 135   2.0000      -0.660631       -17.9767
 136   2.0000      -0.659960       -17.9584
 137   2.0000      -0.658907       -17.9298
 138   2.0000      -0.655404       -17.8344
 139   2.0000      -0.649213       -17.6660
 140   2.0000      -0.636875       -17.3303
 141   2.0000      -0.625604       -17.0235
 142   2.0000      -0.619162       -16.8483
 143   2.0000      -0.615943       -16.7607
 144   2.0000      -0.606631       -16.5073
 145   2.0000      -0.603561       -16.4237
 146   2.0000      -0.598455       -16.2848
 147   2.0000      -0.595098       -16.1934
 148   2.0000      -0.590362       -16.0646
 149   2.0000      -0.587961       -15.9992
 150   2.0000      -0.586060       -15.9475
 151   2.0000      -0.584624       -15.9084
 152   2.0000      -0.575429       -15.6582
 153   2.0000      -0.571441       -15.5497
 154   2.0000      -0.569831       -15.5059
 155   2.0000      -0.565679       -15.3929
 156   2.0000      -0.564691       -15.3660
 157   2.0000      -0.558386       -15.1945
 158   2.0000      -0.554929       -15.1004
 159   2.0000      -0.551357       -15.0032
 160   2.0000      -0.550356       -14.9759
 161   2.0000      -0.547647       -14.9022
 162   2.0000      -0.544272       -14.8104
 163   2.0000      -0.543321       -14.7845
 164   2.0000      -0.541951       -14.7472
 165   2.0000      -0.541240       -14.7279
 166   2.0000      -0.538444       -14.6518
 167   2.0000      -0.537678       -14.6310
 168   2.0000      -0.535539       -14.5728
 169   2.0000      -0.535429       -14.5698
 170   2.0000      -0.531244       -14.4559
 171   2.0000      -0.529912       -14.4196
 172   2.0000      -0.527956       -14.3664
 173   2.0000      -0.527507       -14.3542
 174   2.0000      -0.519508       -14.1365
 175   2.0000      -0.517799       -14.0900
 176   2.0000      -0.515022       -14.0145
 177   2.0000      -0.513714       -13.9789
 178   2.0000      -0.508941       -13.8490
 179   2.0000      -0.505110       -13.7447
 180   2.0000      -0.503941       -13.7129
 181   2.0000      -0.500947       -13.6315
 182   2.0000      -0.500674       -13.6240
 183   2.0000      -0.498955       -13.5772
 184   2.0000      -0.497930       -13.5494
 185   2.0000      -0.496625       -13.5139
 186   2.0000      -0.494617       -13.4592
 187   2.0000      -0.494507       -13.4562
 188   2.0000      -0.492480       -13.4011
 189   2.0000      -0.491138       -13.3645
 190   2.0000      -0.490147       -13.3376
 191   2.0000      -0.488818       -13.3014
 192   2.0000      -0.484962       -13.1965
 193   2.0000      -0.483333       -13.1522
 194   2.0000      -0.481968       -13.1150
 195   2.0000      -0.480071       -13.0634
 196   2.0000      -0.479436       -13.0461
 197   2.0000      -0.478612       -13.0237
 198   2.0000      -0.476580       -12.9684
 199   2.0000      -0.473262       -12.8781
 200   2.0000      -0.472161       -12.8482
 201   2.0000      -0.471269       -12.8239
 202   2.0000      -0.464562       -12.6414
 203   2.0000      -0.462207       -12.5773
 204   2.0000      -0.459255       -12.4970
 205   2.0000      -0.455761       -12.4019
 206   2.0000      -0.451500       -12.2859
 207   2.0000      -0.449091       -12.2204
 208   2.0000      -0.443902       -12.0792
 209   2.0000      -0.439026       -11.9465
 210   2.0000      -0.438250       -11.9254
 211   2.0000      -0.431854       -11.7513
 212   2.0000      -0.430037       -11.7019
 213   2.0000      -0.427749       -11.6396
 214   2.0000      -0.422664       -11.5013
 215   2.0000      -0.418676       -11.3927
 216   2.0000      -0.416062       -11.3216
 217   2.0000      -0.405279       -11.0282
 218   2.0000      -0.402891       -10.9632
 219   2.0000      -0.395620       -10.7654
 220   2.0000      -0.390072       -10.6144
 221   2.0000      -0.385500       -10.4900
 222   2.0000      -0.378883       -10.3099
 223   2.0000      -0.374371       -10.1872
 224   2.0000      -0.365849        -9.9553
 225   2.0000      -0.349659        -9.5147
 226   2.0000      -0.349229        -9.5030
 227   2.0000      -0.344396        -9.3715
 228   2.0000      -0.338400        -9.2083
 229   2.0000      -0.335132        -9.1194
 230   2.0000      -0.325880        -8.8676
 231   2.0000      -0.324653        -8.8343
 232   2.0000      -0.315283        -8.5793
 233   2.0000      -0.286994        -7.8095
 234   2.0000      -0.260296        -7.0830
 235   2.0000      -0.235521        -6.4088
 236   0.0000      -0.076364        -2.0780
 237   0.0000      -0.052880        -1.4389
 238   0.0000      -0.027117        -0.7379
 239   0.0000      -0.008588        -0.2337
 240   0.0000       0.008650         0.2354

MULLIKEN ATOMIC CHARGES
-----------------------
   0 C :    0.146164
   1 O :   -0.215330
   2 C :    0.070854
   3 C :   -0.045946
   4 C :    0.048337
   5 O :   -0.188169
   6 N :   -0.090091
   7 C :    0.067621
   8 O :   -0.190087
   9 C :    0.196295
  10 C :   -0.085704
  11 C :    0.136093
  12 O :   -0.137933
  13 C :    0.178997
  14 C :   -0.085976
  15 C :   -0.134238
  16 C :    0.533217
  17 F :   -0.164764
  18 F :   -0.163214
  19 F :   -0.159454
  20 C :    0.015464
  21 C :   -0.011533
  22 C :    0.173133
  23 O :   -0.194549
  24 C :    0.169369
  25 C :   -0.057489
  26 C :   -0.152886
  27 C :    0.540831
  28 F :   -0.166140
  29 F :   -0.163881
  30 F :   -0.154923
  31 C :   -0.017762
  32 C :    0.045920
  33 C :   -0.111270
  34 S :    0.132380
  35 C :   -0.100057
  36 C :   -0.025628
  37 C :   -0.012295
  38 C :    0.011949
  39 C :   -0.298439
  40 N :    0.114014
  41 C :    0.077527
  42 C :    0.068380
  43 C :    0.183423
  44 O :   -0.379172
  45 C :    0.179892
  46 C :   -0.009027
  47 C :   -0.006259
  48 C :   -0.094296
  49 S :    0.112531
  50 C :   -0.105746
  51 C :   -0.066651
  52 C :   -0.066078
  53 C :    0.514062
  54 F :   -0.165633
  55 F :   -0.157172
  56 F :   -0.152217
  57 C :    0.513874
  58 F :   -0.163755
  59 F :   -0.157714
  60 F :   -0.152819
  61 C :    0.008083
  62 C :   -0.016303
  63 H :    0.019061
  64 H :    0.121447
  65 H :    0.129988
  66 H :    0.008935
  67 H :   -0.001185
  68 H :    0.025067
  69 H :   -0.004158
  70 H :   -0.000176
  71 H :   -0.000850
  72 H :   -0.000883
  73 H :    0.047591
  74 H :    0.033091
  75 H :    0.021335
  76 H :    0.012969
  77 H :    0.026132
  78 H :   -0.006300
  79 H :    0.029439
  80 H :   -0.004069
  81 H :    0.028210
  82 H :   -0.004484
  83 H :    0.016771
  84 H :    0.019271
  85 H :    0.028844
  86 H :    0.036141
Sum of atomic charges:   -0.0000000

LOEWDIN ATOMIC CHARGES
----------------------
   0 C :    0.052605
   1 O :    0.001379
   2 C :   -0.015046
   3 C :   -0.103586
   4 C :    0.056994
   5 O :   -0.205346
   6 N :   -0.005139
   7 C :    0.048360
   8 O :    0.026575
   9 C :    0.001968
  10 C :   -0.072676
  11 C :    0.033994
  12 O :    0.066987
  13 C :    0.032883
  14 C :   -0.037137
  15 C :   -0.115611
  16 C :    0.164297
  17 F :   -0.063476
  18 F :   -0.064890
  19 F :   -0.059851
  20 C :   -0.006969
  21 C :   -0.040118
  22 C :    0.056737
  23 O :    0.025452
  24 C :    0.028972
  25 C :   -0.034377
  26 C :   -0.127177
  27 C :    0.169728
  28 F :   -0.062684
  29 F :   -0.061591
  30 F :   -0.054625
  31 C :   -0.029255
  32 C :   -0.042568
  33 C :   -0.152764
  34 S :    0.455484
  35 C :   -0.174929
  36 C :   -0.058435
  37 C :   -0.047470
  38 C :   -0.044576
  39 C :   -0.037141
  40 N :   -0.068531
  41 C :   -0.007574
  42 C :   -0.027032
  43 C :    0.075580
  44 O :   -0.165808
  45 C :    0.065033
  46 C :   -0.029934
  47 C :   -0.055661
  48 C :   -0.137241
  49 S :    0.464720
  50 C :   -0.143065
  51 C :   -0.106988
  52 C :   -0.113576
  53 C :    0.162511
  54 F :   -0.058569
  55 F :   -0.061354
  56 F :   -0.047918
  57 C :    0.162464
  58 F :   -0.056527
  59 F :   -0.061405
  60 F :   -0.048117
  61 C :   -0.041936
  62 C :   -0.028919
  63 H :    0.026824
  64 H :    0.071776
  65 H :    0.081990
  66 H :    0.040950
  67 H :    0.035751
  68 H :    0.040593
  69 H :    0.038158
  70 H :    0.038464
  71 H :    0.039473
  72 H :    0.031871
  73 H :    0.056829
  74 H :    0.033325
  75 H :    0.033003
  76 H :    0.032382
  77 H :    0.031845
  78 H :    0.013578
  79 H :    0.026024
  80 H :    0.003998
  81 H :    0.011971
  82 H :    0.021421
  83 H :    0.027346
  84 H :    0.037097
  85 H :    0.017855
  86 H :    0.032343

  Mayer bond orders larger than 0.100000
B(  0-C ,  1-O ) :   1.1000 B(  0-C , 10-C ) :   1.5609 B(  0-C , 63-H ) :   1.0059
B(  1-O ,  2-C ) :   1.1217 B(  2-C ,  3-C ) :   1.1770 B(  2-C ,  9-C ) :   1.4171
B(  3-C ,  4-C ) :   0.8742 B(  3-C ,  7-C ) :   1.4753 B(  4-C ,  5-O ) :   2.2150
B(  4-C ,  6-N ) :   1.2775 B(  6-N , 64-H ) :   0.9398 B(  6-N , 65-H ) :   0.9339
B(  7-C ,  8-O ) :   1.1562 B(  7-C , 11-C ) :   1.0715 B(  8-O ,  9-C ) :   1.1297
B(  9-C , 10-C ) :   1.2082 B( 10-C , 66-H ) :   1.0205 B( 11-C , 12-O ) :   1.2330
B( 11-C , 13-C ) :   0.1217 B( 11-C , 15-C ) :   1.4555 B( 12-O , 13-C ) :   1.1360
B( 13-C , 14-C ) :   1.4406 B( 13-C , 20-C ) :   1.1313 B( 14-C , 15-C ) :   1.2664
B( 14-C , 67-H ) :   1.0098 B( 15-C , 16-C ) :   0.9447 B( 16-C , 17-F ) :   1.1717
B( 16-C , 18-F ) :   1.1822 B( 16-C , 19-F ) :   1.1786 B( 20-C , 21-C ) :   1.6534
B( 20-C , 68-H ) :   0.9517 B( 21-C , 22-C ) :   1.1581 B( 21-C , 69-H ) :   0.9507
B( 22-C , 23-O ) :   1.1542 B( 22-C , 26-C ) :   1.4598 B( 23-O , 24-C ) :   1.1350
B( 24-C , 25-C ) :   1.4194 B( 24-C , 31-C ) :   1.1619 B( 25-C , 26-C ) :   1.2528
B( 25-C , 70-H ) :   1.0216 B( 26-C , 27-C ) :   0.9444 B( 27-C , 28-F ) :   1.1625
B( 27-C , 29-F ) :   1.1503 B( 27-C , 30-F ) :   1.1787 B( 31-C , 32-C ) :   1.6539
B( 31-C , 71-H ) :   0.9529 B( 32-C , 33-C ) :   1.1160 B( 32-C , 72-H ) :   0.9511
B( 33-C , 34-S ) :   1.1316 B( 33-C , 37-C ) :   1.4930 B( 34-S , 35-C ) :   1.1147
B( 35-C , 36-C ) :   1.4852 B( 35-C , 46-C ) :   1.1530 B( 36-C , 37-C ) :   1.3521
B( 36-C , 43-C ) :   0.9734 B( 37-C , 38-C ) :   1.0076 B( 38-C , 39-C ) :   1.0191
B( 38-C , 41-C ) :   1.0882 B( 38-C , 73-H ) :   0.8521 B( 39-C , 40-N ) :   3.0995
B( 41-C , 42-C ) :   1.0544 B( 41-C , 74-H ) :   0.9286 B( 41-C , 75-H ) :   0.9366
B( 42-C , 43-C ) :   1.0538 B( 42-C , 76-H ) :   0.9231 B( 42-C , 77-H ) :   0.9456
B( 43-C , 44-O ) :   1.0268 B( 43-C , 78-H ) :   0.9115 B( 44-O , 45-C ) :   0.9881
B( 45-C , 79-H ) :   0.9772 B( 45-C , 80-H ) :   0.9632 B( 45-C , 81-H ) :   0.9648
B( 46-C , 47-C ) :   1.6503 B( 46-C , 82-H ) :   0.9664 B( 47-C , 48-C ) :   1.1585
B( 47-C , 83-H ) :   0.9643 B( 48-C , 49-S ) :   1.1320 B( 48-C , 52-C ) :   1.5272
B( 49-S , 50-C ) :   1.1201 B( 50-C , 51-C ) :   1.5608 B( 50-C , 61-C ) :   1.1186
B( 51-C , 52-C ) :   1.2792 B( 51-C , 57-C ) :   0.9405 B( 52-C , 53-C ) :   0.9423
B( 53-C , 54-F ) :   1.1267 B( 53-C , 55-F ) :   1.1870 B( 53-C , 56-F ) :   1.1530
B( 57-C , 58-F ) :   1.1322 B( 57-C , 59-F ) :   1.1845 B( 57-C , 60-F ) :   1.1511
B( 61-C , 62-C ) :   1.9217 B( 61-C , 84-H ) :   0.9560 B( 62-C , 85-H ) :   0.9564
B( 62-C , 86-H ) :   0.9484

-----------------------------------------------------------------------------
         ABSORPTION SPECTRUM VIA TRANSITION ELECTRIC DIPOLE MOMENTS
-----------------------------------------------------------------------------
State   Energy  Wavelength   fosc         T2         TX        TY        TZ
        (cm-1)    (nm)                  (au**2)     (au)      (au)      (au)
-----------------------------------------------------------------------------
   0   20391.2    490.4   2.066706268  33.36660   4.55111  -3.13901  -1.67352
   1   25675.2    389.5   0.710588416   9.11128  -0.88098  -1.52288  -2.45275
   2   27619.7    362.1   0.161304391   1.92266   1.34191  -0.25124   0.24250
   3   31381.9    318.7   0.118229906   1.24029  -1.02720   0.19139   0.38538
   4   31914.7    313.3   0.083506185   0.86140  -0.92254   0.09122  -0.04464
   5   34458.3    290.2   0.045355274   0.43332   0.18009   0.48738   0.40417
   6   34792.6    287.4   0.206356586   1.95257   1.31607  -0.21363   0.41820
   7   36531.9    273.7   0.038991088   0.35137   0.34314   0.40865   0.25814
   8   37582.9    266.1   0.057441193   0.50316   0.38525   0.15869   0.57407
   9   38380.3    260.6   0.007623272   0.06539  -0.22740  -0.11590  -0.01577
  10   39202.7    255.1   0.029638928   0.24890  -0.41934   0.13640  -0.23334
  11   39668.7    252.1   0.062614779   0.51964  -0.27598   0.54127   0.38795
  12   40276.5    248.3   0.099816789   0.81588  -0.07209   0.57892   0.68959

FINAL SINGLE POINT ENERGY     -4128.031708749977

DIPOLE MOMENT
-------------
                                X             Y             Z
Electronic contribution:    -21.02225     -46.12737     -46.77998
Nuclear contribution   :     22.02542      47.01118      46.93449
                        -----------------------------------------
Total Dipole Moment    :      1.00317       0.88381       0.15451
                        -----------------------------------------
Magnitude (a.u.)       :      1.34586
Magnitude (Debye)      :      3.42091

Rotational constants in cm-1:     0.001506     0.000338     0.000282
Rotational constants in MHz :    45.155776    10.139556     8.446228

                             ****ORCA TERMINATED NORMALLY****
TOTAL RUN TIME: 0 days 0 hours 6 minutes 18 seconds 817 msec
