                         Program Version 4.2.0 -  RELEASE  -
|  1> # ORCA input file
|  2> # SCF done       -203.539567860326          0.000869313648
|  3> ! CAM-B3LYP def2-SVP def2/J RIJCOSX Grid4 TightSCF
|  4> %maxcore 5000
|  5> %tddft
|  6>     Mode sTDDFT
|  7>     Ethresh 5.0
|  8>     maxcore 5000
|  9> end
| 10>
| 11> %pal
| 12>   nprocs 6
| 13>   end
| 14> * xyz 0 1
| 15>    C       -2.46479         6.68813         7.66344
| 16>    C       -3.57739         6.32987         6.94938
| 17>    C       -4.82942         6.05630         7.54001
| 18>    N       -5.86232         5.82657         7.98287
| 19>    C       -3.56776         6.10709         5.55840
| 20>    N       -3.57355         5.89049         4.43098
| 21>    C       -2.36328         6.70259         9.11820
| 22>    C       -0.98647         6.60911         9.48027
| 23>    C       -0.59028         6.56608        10.78651
| 24>    C       -1.56707         6.63092        11.80512
| 25>    C       -2.94289         6.74526        11.44936
| 26>    C       -3.32578         6.77726        10.08881
| 27>    C       -3.90567         6.82178        12.47613
| 28>    C       -3.53032         6.78413        13.79153
| 29>    C       -2.17636         6.66907        14.14081
| 30>    C       -1.21571         6.59338        13.16899
| 31>    C       -0.16103         6.59683         8.26312
| 32>    O        1.03588         6.46741         8.16234
| 33>    C       -1.12015         6.85200         7.14162
| 34>    C       -0.63215         7.27115         5.94868
| 35>    C       -1.33278         7.92123         4.89750
| 36>    S       -0.68980         7.92206         3.27456
| 37>    C       -2.00149         8.88824         2.65850
| 38>    C       -2.89560         9.20404         3.71391
| 39>    C       -2.48643         8.65340         4.94848
| 40>    C       -4.10332         9.94936         3.54885
| 41>    O       -4.51810        10.46173         2.52646
| 42>    C       -4.97563        10.10918         4.82565
| 43>    F       -5.32157         8.92926         5.36991
| 44>    F       -4.33263        10.79694         5.78978
| 45>    F       -6.09808        10.76513         4.56157
| 46>    C       -2.00412         9.22501         1.29911
| 47>    S       -3.16617        10.27160         0.50156
| 48>    C       -2.35579        10.19782        -1.03809
| 49>    C       -1.23249         9.35819        -0.96179
| 50>    C       -1.05515         8.82345         0.34265
| 51>    N        0.03338         8.01878         0.32651
| 52>    C        0.55167         8.01453        -0.95111
| 53>    C        1.68457         7.25914        -1.28651
| 54>    N        2.61066         6.64296        -1.56637
| 55>    C       -0.20178         8.83082        -1.76992
| 56>    C       -2.88792        10.94742        -2.10022
| 57>    C       -2.30056        11.12677        -3.31977
| 58>    C       -2.84880        11.90188        -4.36367
| 59>    C       -2.22711        12.19587        -5.56473
| 60>    C       -3.08136        13.00799        -6.35357
| 61>    C       -4.31349        13.19209        -5.55899
| 62>    C       -4.15972        12.54040        -4.37902
| 63>    C       -5.45598        13.91212        -5.92831
| 64>    N       -6.41040        14.49337        -6.19411
| 65>    C       -2.82906        13.54745        -7.59755
| 66>    C       -3.69472        14.35157        -8.38713
| 67>    C       -3.05337        14.70232        -9.56009
| 68>    C       -1.72293        14.10661        -9.53267
| 69>    C       -1.58077        13.41326        -8.37344
| 70>    C       -0.43432        12.70658        -7.99307
| 71>    N        0.51868        12.13434        -7.70277
| 72>    C       -3.60359        15.49516       -10.59350
| 73>    C       -2.94708        15.86055       -11.73132
| 74>    C       -3.56895        16.65102       -12.72158
| 75>    C       -2.96671        17.07171       -13.87531
| 76>    C       -3.56379        17.87572       -14.92551
| 77>    C       -4.86602        18.30053       -14.99953
| 78>    C       -5.38656        19.07463       -16.05825
| 79>    N       -5.87610        19.70298       -16.88504
| 80>    C       -5.87878        18.02803       -14.05626
| 81>    N       -6.76140        17.84889       -13.34344
| 82>    C       -2.53237        18.14362       -15.92204
| 83>    C       -1.32964        17.49520       -15.52023
| 84>    C       -1.55162        16.79474       -14.24520
| 85>    O       -0.73883        16.13663       -13.62925
| 86>    C       -0.18643        17.56763       -16.26306
| 87>    C       -0.19201        18.30840       -17.46584
| 88>    C       -1.39002        18.96303       -17.87399
| 89>    C       -2.55872        18.86885       -17.08411
| 90>    C       -1.38485        19.70194       -19.07456
| 91>    C       -0.25190        19.79066       -19.83679
| 92>    C        0.92696        19.14536       -19.43417
| 93>    C        0.95637        18.41989       -18.27401
| 94>    H        0.45638         6.48671        11.03994
| 95>    H       -4.37243         6.87490         9.84597
| 96>    H       -4.94691         6.90694        12.20244
| 97>    H       -4.27529         6.84254        14.57070
| 98>    H       -1.89818         6.64144        15.18360
| 99>    H       -0.17180         6.50514        13.43191
|100>    H        0.43852         7.15244         5.81471
|101>    H       -2.99833         8.82306         5.87723
|102>    H        0.40175         7.47669         1.09056
|103>    H       -0.01864         8.99866        -2.81140
|104>    H       -3.82725        11.43875        -1.88659
|105>    H       -1.33646        10.68048        -3.51508
|106>    H       -1.24761        11.87118        -5.85630
|107>    H       -4.88729        12.49134        -3.59100
|108>    H       -4.69063        14.63775        -8.11076
|109>    H       -0.98372        14.20213       -10.30550
|110>    H       -4.62488        15.82749       -10.44657
|111>    H       -1.92679        15.55255       -11.90118
|112>    H       -4.59628        16.93664       -12.53378
|113>    H        0.71187        17.06538       -15.93572
|114>    H       -3.44733        19.37800       -17.42132
|115>    H       -2.29504        20.19655       -19.38052
|116>    H       -0.25798        20.35887       -20.75483
|117>    H        1.81168        19.22608       -20.04782
|118>    H        1.86117        17.92104       -17.95888
|119> *
|120>
|121>                          ****END OF INPUT****

CARTESIAN COORDINATES (ANGSTROEM)
---------------------------------
  C     -2.464790    6.688130    7.663440
  C     -3.577390    6.329870    6.949380
  C     -4.829420    6.056300    7.540010
  N     -5.862320    5.826570    7.982870
  C     -3.567760    6.107090    5.558400
  N     -3.573550    5.890490    4.430980
  C     -2.363280    6.702590    9.118200
  C     -0.986470    6.609110    9.480270
  C     -0.590280    6.566080   10.786510
  C     -1.567070    6.630920   11.805120
  C     -2.942890    6.745260   11.449360
  C     -3.325780    6.777260   10.088810
  C     -3.905670    6.821780   12.476130
  C     -3.530320    6.784130   13.791530
  C     -2.176360    6.669070   14.140810
  C     -1.215710    6.593380   13.168990
  C     -0.161030    6.596830    8.263120
  O      1.035880    6.467410    8.162340
  C     -1.120150    6.852000    7.141620
  C     -0.632150    7.271150    5.948680
  C     -1.332780    7.921230    4.897500
  S     -0.689800    7.922060    3.274560
  C     -2.001490    8.888240    2.658500
  C     -2.895600    9.204040    3.713910
  C     -2.486430    8.653400    4.948480
  C     -4.103320    9.949360    3.548850
  O     -4.518100   10.461730    2.526460
  C     -4.975630   10.109180    4.825650
  F     -5.321570    8.929260    5.369910
  F     -4.332630   10.796940    5.789780
  F     -6.098080   10.765130    4.561570
  C     -2.004120    9.225010    1.299110
  S     -3.166170   10.271600    0.501560
  C     -2.355790   10.197820   -1.038090
  C     -1.232490    9.358190   -0.961790
  C     -1.055150    8.823450    0.342650
  N      0.033380    8.018780    0.326510
  C      0.551670    8.014530   -0.951110
  C      1.684570    7.259140   -1.286510
  N      2.610660    6.642960   -1.566370
  C     -0.201780    8.830820   -1.769920
  C     -2.887920   10.947420   -2.100220
  C     -2.300560   11.126770   -3.319770
  C     -2.848800   11.901880   -4.363670
  C     -2.227110   12.195870   -5.564730
  C     -3.081360   13.007990   -6.353570
  C     -4.313490   13.192090   -5.558990
  C     -4.159720   12.540400   -4.379020
  C     -5.455980   13.912120   -5.928310
  N     -6.410400   14.493370   -6.194110
  C     -2.829060   13.547450   -7.597550
  C     -3.694720   14.351570   -8.387130
  C     -3.053370   14.702320   -9.560090
  C     -1.722930   14.106610   -9.532670
  C     -1.580770   13.413260   -8.373440
  C     -0.434320   12.706580   -7.993070
  N      0.518680   12.134340   -7.702770
  C     -3.603590   15.495160  -10.593500
  C     -2.947080   15.860550  -11.731320
  C     -3.568950   16.651020  -12.721580
  C     -2.966710   17.071710  -13.875310
  C     -3.563790   17.875720  -14.925510
  C     -4.866020   18.300530  -14.999530
  C     -5.386560   19.074630  -16.058250
  N     -5.876100   19.702980  -16.885040
  C     -5.878780   18.028030  -14.056260
  N     -6.761400   17.848890  -13.343440
  C     -2.532370   18.143620  -15.922040
  C     -1.329640   17.495200  -15.520230
  C     -1.551620   16.794740  -14.245200
  O     -0.738830   16.136630  -13.629250
  C     -0.186430   17.567630  -16.263060
  C     -0.192010   18.308400  -17.465840
  C     -1.390020   18.963030  -17.873990
  C     -2.558720   18.868850  -17.084110
  C     -1.384850   19.701940  -19.074560
  C     -0.251900   19.790660  -19.836790
  C      0.926960   19.145360  -19.434170
  C      0.956370   18.419890  -18.274010
  H      0.456380    6.486710   11.039940
  H     -4.372430    6.874900    9.845970
  H     -4.946910    6.906940   12.202440
  H     -4.275290    6.842540   14.570700
  H     -1.898180    6.641440   15.183600
  H     -0.171800    6.505140   13.431910
  H      0.438520    7.152440    5.814710
  H     -2.998330    8.823060    5.877230
  H      0.401750    7.476690    1.090560
  H     -0.018640    8.998660   -2.811400
  H     -3.827250   11.438750   -1.886590
  H     -1.336460   10.680480   -3.515080
  H     -1.247610   11.871180   -5.856300
  H     -4.887290   12.491340   -3.591000
  H     -4.690630   14.637750   -8.110760
  H     -0.983720   14.202130  -10.305500
  H     -4.624880   15.827490  -10.446570
  H     -1.926790   15.552550  -11.901180
  H     -4.596280   16.936640  -12.533780
  H      0.711870   17.065380  -15.935720
  H     -3.447330   19.378000  -17.421320
  H     -2.295040   20.196550  -19.380520
  H     -0.257980   20.358870  -20.754830
  H      1.811680   19.226080  -20.047820
  H      1.861170   17.921040  -17.958880

 Total Charge           Charge          ....    0
 Multiplicity           Mult            ....    1
 Number of Electrons    NEL             ....  542
 Basis Dimension        Dim             .... 1239

ORBITAL ENERGIES
----------------

  NO   OCC          E(Eh)            E(eV)
   0   2.0000     -88.996068     -2421.7061
   1   2.0000     -88.988474     -2421.4995
   2   2.0000     -24.817945      -675.3306
   3   2.0000     -24.816892      -675.3020
   4   2.0000     -24.811515      -675.1556
   5   2.0000     -19.248174      -523.7695
   6   2.0000     -19.222599      -523.0735
   7   2.0000     -19.219564      -522.9909
   8   2.0000     -14.502049      -394.6208
   9   2.0000     -14.428932      -392.6312
  10   2.0000     -14.423693      -392.4886
  11   2.0000     -14.421179      -392.4202
  12   2.0000     -14.417723      -392.3262
  13   2.0000     -14.416859      -392.3027
  14   2.0000     -14.415427      -392.2637
  15   2.0000     -14.413633      -392.2149
  16   2.0000     -10.528215      -286.4873
  17   2.0000     -10.399419      -282.9826
  18   2.0000     -10.373877      -282.2875
  19   2.0000     -10.370005      -282.1822
  20   2.0000     -10.366377      -282.0835
  21   2.0000     -10.365272      -282.0534
  22   2.0000     -10.351660      -281.6830
  23   2.0000     -10.350066      -281.6396
  24   2.0000     -10.350036      -281.6388
  25   2.0000     -10.343747      -281.4677
  26   2.0000     -10.341836      -281.4157
  27   2.0000     -10.341813      -281.4150
  28   2.0000     -10.334649      -281.2201
  29   2.0000     -10.334193      -281.2077
  30   2.0000     -10.332555      -281.1631
  31   2.0000     -10.332371      -281.1581
  32   2.0000     -10.328607      -281.0557
  33   2.0000     -10.327775      -281.0330
  34   2.0000     -10.326839      -281.0076
  35   2.0000     -10.324845      -280.9533
  36   2.0000     -10.323406      -280.9142
  37   2.0000     -10.321183      -280.8537
  38   2.0000     -10.320270      -280.8288
  39   2.0000     -10.319085      -280.7966
  40   2.0000     -10.318309      -280.7755
  41   2.0000     -10.318284      -280.7748
  42   2.0000     -10.318226      -280.7732
  43   2.0000     -10.317359      -280.7496
  44   2.0000     -10.317135      -280.7435
  45   2.0000     -10.316015      -280.7130
  46   2.0000     -10.315613      -280.7021
  47   2.0000     -10.314285      -280.6660
  48   2.0000     -10.313501      -280.6446
  49   2.0000     -10.311248      -280.5833
  50   2.0000     -10.311218      -280.5825
  51   2.0000     -10.310346      -280.5588
  52   2.0000     -10.309848      -280.5452
  53   2.0000     -10.309522      -280.5363
  54   2.0000     -10.308018      -280.4954
  55   2.0000     -10.307780      -280.4889
  56   2.0000     -10.303986      -280.3857
  57   2.0000     -10.303804      -280.3808
  58   2.0000     -10.303750      -280.3793
  59   2.0000     -10.303304      -280.3672
  60   2.0000     -10.303166      -280.3634
  61   2.0000     -10.302485      -280.3449
  62   2.0000     -10.298885      -280.2469
  63   2.0000     -10.298623      -280.2398
  64   2.0000     -10.298009      -280.2231
  65   2.0000     -10.297567      -280.2110
  66   2.0000     -10.296331      -280.1774
  67   2.0000     -10.296131      -280.1720
  68   2.0000     -10.294387      -280.1245
  69   2.0000     -10.291562      -280.0476
  70   2.0000     -10.291560      -280.0476
  71   2.0000     -10.291202      -280.0378
  72   2.0000     -10.290939      -280.0307
  73   2.0000     -10.290458      -280.0176
  74   2.0000     -10.289678      -279.9964
  75   2.0000     -10.287722      -279.9431
  76   2.0000     -10.287188      -279.9286
  77   2.0000     -10.286870      -279.9200
  78   2.0000     -10.286356      -279.9060
  79   2.0000      -8.091877      -220.1912
  80   2.0000      -8.081171      -219.8998
  81   2.0000      -6.061356      -164.9379
  82   2.0000      -6.057083      -164.8216
  83   2.0000      -6.053675      -164.7289
  84   2.0000      -6.050757      -164.6495
  85   2.0000      -6.046030      -164.5208
  86   2.0000      -6.043310      -164.4468
  87   2.0000      -1.405551       -38.2470
  88   2.0000      -1.308065       -35.5943
  89   2.0000      -1.307161       -35.5697
  90   2.0000      -1.164808       -31.6960
  91   2.0000      -1.138389       -30.9771
  92   2.0000      -1.133766       -30.8513
  93   2.0000      -1.124899       -30.6101
  94   2.0000      -1.031319       -28.0636
  95   2.0000      -1.023828       -27.8598
  96   2.0000      -1.022870       -27.8337
  97   2.0000      -1.019303       -27.7366
  98   2.0000      -1.010529       -27.4979
  99   2.0000      -1.007416       -27.4132
 100   2.0000      -1.005207       -27.3531
 101   2.0000      -1.001117       -27.2418
 102   2.0000      -0.999806       -27.2061
 103   2.0000      -0.998767       -27.1778
 104   2.0000      -0.994711       -27.0675
 105   2.0000      -0.992640       -27.0111
 106   2.0000      -0.988448       -26.8970
 107   2.0000      -0.977958       -26.6116
 108   2.0000      -0.972804       -26.4714
 109   2.0000      -0.940860       -25.6021
 110   2.0000      -0.934709       -25.4347
 111   2.0000      -0.930293       -25.3146
 112   2.0000      -0.921439       -25.0736
 113   2.0000      -0.917948       -24.9786
 114   2.0000      -0.914915       -24.8961
 115   2.0000      -0.897393       -24.4193
 116   2.0000      -0.896164       -24.3859
 117   2.0000      -0.889620       -24.2078
 118   2.0000      -0.887125       -24.1399
 119   2.0000      -0.882384       -24.0109
 120   2.0000      -0.877436       -23.8763
 121   2.0000      -0.872163       -23.7328
 122   2.0000      -0.866888       -23.5892
 123   2.0000      -0.860026       -23.4025
 124   2.0000      -0.851495       -23.1703
 125   2.0000      -0.838707       -22.8224
 126   2.0000      -0.834393       -22.7050
 127   2.0000      -0.829398       -22.5691
 128   2.0000      -0.828169       -22.5356
 129   2.0000      -0.818285       -22.2667
 130   2.0000      -0.801909       -21.8211
 131   2.0000      -0.792386       -21.5619
 132   2.0000      -0.775070       -21.0907
 133   2.0000      -0.767249       -20.8779
 134   2.0000      -0.763255       -20.7692
 135   2.0000      -0.761948       -20.7337
 136   2.0000      -0.755509       -20.5585
 137   2.0000      -0.744585       -20.2612
 138   2.0000      -0.738080       -20.0842
 139   2.0000      -0.732736       -19.9388
 140   2.0000      -0.729488       -19.8504
 141   2.0000      -0.720679       -19.6107
 142   2.0000      -0.712483       -19.3876
 143   2.0000      -0.706565       -19.2266
 144   2.0000      -0.705615       -19.2008
 145   2.0000      -0.701783       -19.0965
 146   2.0000      -0.700073       -19.0499
 147   2.0000      -0.690132       -18.7795
 148   2.0000      -0.688810       -18.7435
 149   2.0000      -0.687976       -18.7208
 150   2.0000      -0.683107       -18.5883
 151   2.0000      -0.681312       -18.5394
 152   2.0000      -0.675520       -18.3818
 153   2.0000      -0.671269       -18.2662
 154   2.0000      -0.663190       -18.0463
 155   2.0000      -0.654868       -17.8199
 156   2.0000      -0.650596       -17.7036
 157   2.0000      -0.645761       -17.5720
 158   2.0000      -0.640481       -17.4284
 159   2.0000      -0.639236       -17.3945
 160   2.0000      -0.633163       -17.2292
 161   2.0000      -0.622217       -16.9314
 162   2.0000      -0.620072       -16.8730
 163   2.0000      -0.614257       -16.7148
 164   2.0000      -0.613599       -16.6969
 165   2.0000      -0.607662       -16.5353
 166   2.0000      -0.604093       -16.4382
 167   2.0000      -0.598330       -16.2814
 168   2.0000      -0.591911       -16.1067
 169   2.0000      -0.580155       -15.7868
 170   2.0000      -0.573189       -15.5973
 171   2.0000      -0.571262       -15.5448
 172   2.0000      -0.570343       -15.5198
 173   2.0000      -0.568265       -15.4633
 174   2.0000      -0.565178       -15.3793
 175   2.0000      -0.564651       -15.3649
 176   2.0000      -0.561681       -15.2841
 177   2.0000      -0.556784       -15.1509
 178   2.0000      -0.553165       -15.0524
 179   2.0000      -0.551050       -14.9948
 180   2.0000      -0.549960       -14.9652
 181   2.0000      -0.547751       -14.9051
 182   2.0000      -0.547480       -14.8977
 183   2.0000      -0.544646       -14.8206
 184   2.0000      -0.542459       -14.7611
 185   2.0000      -0.541759       -14.7420
 186   2.0000      -0.539503       -14.6806
 187   2.0000      -0.538643       -14.6572
 188   2.0000      -0.534352       -14.5405
 189   2.0000      -0.531440       -14.4612
 190   2.0000      -0.528905       -14.3922
 191   2.0000      -0.525150       -14.2901
 192   2.0000      -0.523082       -14.2338
 193   2.0000      -0.521250       -14.1839
 194   2.0000      -0.519981       -14.1494
 195   2.0000      -0.519848       -14.1458
 196   2.0000      -0.517259       -14.0753
 197   2.0000      -0.516825       -14.0635
 198   2.0000      -0.515144       -14.0178
 199   2.0000      -0.513275       -13.9669
 200   2.0000      -0.509933       -13.8760
 201   2.0000      -0.507645       -13.8137
 202   2.0000      -0.505101       -13.7445
 203   2.0000      -0.503504       -13.7011
 204   2.0000      -0.500014       -13.6061
 205   2.0000      -0.499698       -13.5975
 206   2.0000      -0.498446       -13.5634
 207   2.0000      -0.497838       -13.5469
 208   2.0000      -0.496756       -13.5174
 209   2.0000      -0.494636       -13.4597
 210   2.0000      -0.494097       -13.4451
 211   2.0000      -0.491940       -13.3864
 212   2.0000      -0.488850       -13.3023
 213   2.0000      -0.487840       -13.2748
 214   2.0000      -0.482689       -13.1346
 215   2.0000      -0.480679       -13.0799
 216   2.0000      -0.472259       -12.8508
 217   2.0000      -0.471326       -12.8254
 218   2.0000      -0.466043       -12.6817
 219   2.0000      -0.463395       -12.6096
 220   2.0000      -0.460413       -12.5285
 221   2.0000      -0.459730       -12.5099
 222   2.0000      -0.457392       -12.4463
 223   2.0000      -0.456124       -12.4118
 224   2.0000      -0.455908       -12.4059
 225   2.0000      -0.450815       -12.2673
 226   2.0000      -0.450371       -12.2552
 227   2.0000      -0.449781       -12.2392
 228   2.0000      -0.445544       -12.1239
 229   2.0000      -0.445408       -12.1202
 230   2.0000      -0.445333       -12.1181
 231   2.0000      -0.442843       -12.0504
 232   2.0000      -0.441711       -12.0196
 233   2.0000      -0.440962       -11.9992
 234   2.0000      -0.440614       -11.9897
 235   2.0000      -0.438312       -11.9271
 236   2.0000      -0.435564       -11.8523
 237   2.0000      -0.434763       -11.8305
 238   2.0000      -0.434583       -11.8256
 239   2.0000      -0.434073       -11.8117
 240   2.0000      -0.433576       -11.7982
 241   2.0000      -0.432248       -11.7621
 242   2.0000      -0.428895       -11.6708
 243   2.0000      -0.424423       -11.5491
 244   2.0000      -0.422737       -11.5033
 245   2.0000      -0.422678       -11.5017
 246   2.0000      -0.420646       -11.4464
 247   2.0000      -0.413980       -11.2650
 248   2.0000      -0.407043       -11.0762
 249   2.0000      -0.404586       -11.0093
 250   2.0000      -0.403897       -10.9906
 251   2.0000      -0.394321       -10.7300
 252   2.0000      -0.384600       -10.4655
 253   2.0000      -0.380580       -10.3561
 254   2.0000      -0.373477       -10.1628
 255   2.0000      -0.370827       -10.0907
 256   2.0000      -0.362130        -9.8541
 257   2.0000      -0.358967        -9.7680
 258   2.0000      -0.348406        -9.4806
 259   2.0000      -0.344113        -9.3638
 260   2.0000      -0.338285        -9.2052
 261   2.0000      -0.334435        -9.1004
 262   2.0000      -0.329487        -8.9658
 263   2.0000      -0.322816        -8.7843
 264   2.0000      -0.320427        -8.7193
 265   2.0000      -0.318032        -8.6541
 266   2.0000      -0.309682        -8.4269
 267   2.0000      -0.300213        -8.1692
 268   2.0000      -0.297147        -8.0858
 269   2.0000      -0.283187        -7.7059
 270   2.0000      -0.253067        -6.8863
 271   0.0000      -0.141820        -3.8591
 272   0.0000      -0.103319        -2.8114
 273   0.0000      -0.090089        -2.4515
 274   0.0000      -0.079732        -2.1696
 275   0.0000      -0.061455        -1.6723

MULLIKEN ATOMIC CHARGES
-----------------------
   0 C :    0.254920
   1 C :   -0.331748
   2 C :   -0.170748
   3 N :    0.160940
   4 C :   -0.194417
   5 N :    0.166220
   6 C :    0.029995
   7 C :    0.013596
   8 C :   -0.075531
   9 C :    0.091117
  10 C :    0.091982
  11 C :   -0.074622
  12 C :   -0.016016
  13 C :    0.034541
  14 C :    0.035266
  15 C :   -0.011738
  16 C :    0.136648
  17 O :   -0.139965
  18 C :   -0.126202
  19 C :    0.088520
  20 C :   -0.079811
  21 S :    0.112139
  22 C :   -0.067383
  23 C :   -0.028431
  24 C :    0.047674
  25 C :    0.039778
  26 O :   -0.177563
  27 C :    0.469910
  28 F :   -0.161410
  29 F :   -0.170690
  30 F :   -0.126781
  31 C :   -0.135832
  32 S :    0.224926
  33 C :   -0.124052
  34 C :    0.120969
  35 C :    0.068035
  36 N :   -0.027832
  37 C :   -0.097096
  38 C :   -0.149597
  39 N :    0.177604
  40 C :   -0.032211
  41 C :    0.068690
  42 C :    0.003888
  43 C :    0.116712
  44 C :   -0.110927
  45 C :    0.128646
  46 C :   -0.095508
  47 C :   -0.009463
  48 C :   -0.170865
  49 N :    0.138689
  50 C :    0.111080
  51 C :   -0.092118
  52 C :    0.112731
  53 C :   -0.005066
  54 C :   -0.097608
  55 C :   -0.169903
  56 N :    0.131247
  57 C :    0.024458
  58 C :   -0.004230
  59 C :   -0.034494
  60 C :   -0.068198
  61 C :    0.338493
  62 C :   -0.351704
  63 C :   -0.181823
  64 N :    0.148825
  65 C :   -0.190576
  66 N :    0.148000
  67 C :    0.045803
  68 C :   -0.002189
  69 C :    0.151530
  70 O :   -0.153363
  71 C :   -0.079318
  72 C :    0.098942
  73 C :    0.095978
  74 C :   -0.084886
  75 C :   -0.018688
  76 C :    0.037477
  77 C :    0.035997
  78 C :   -0.015506
  79 H :   -0.009583
  80 H :   -0.002736
  81 H :   -0.008800
  82 H :   -0.000963
  83 H :   -0.002808
  84 H :   -0.015172
  85 H :    0.023293
  86 H :    0.032721
  87 H :    0.141507
  88 H :    0.003842
  89 H :   -0.015138
  90 H :   -0.018983
  91 H :    0.001532
  92 H :    0.006967
  93 H :    0.007199
  94 H :    0.013785
  95 H :    0.012475
  96 H :    0.027580
  97 H :    0.013605
  98 H :   -0.013752
  99 H :   -0.008142
 100 H :   -0.008961
 101 H :   -0.003943
 102 H :   -0.003906
 103 H :   -0.017477
Sum of atomic charges:   -0.0000000

LOEWDIN ATOMIC CHARGES
----------------------
   0 C :    0.063915
   1 C :   -0.134464
   2 C :   -0.019807
   3 N :   -0.044790
   4 C :   -0.016728
   5 N :   -0.045614
   6 C :   -0.023970
   7 C :   -0.058821
   8 C :    0.035149
   9 C :   -0.008719
  10 C :   -0.004655
  11 C :    0.018478
  12 C :   -0.005399
  13 C :   -0.010830
  14 C :   -0.011145
  15 C :   -0.008292
  16 C :    0.084249
  17 O :   -0.139543
  18 C :   -0.080311
  19 C :    0.041995
  20 C :   -0.185332
  21 S :    0.457393
  22 C :   -0.102013
  23 C :   -0.126617
  24 C :    0.006163
  25 C :    0.038111
  26 O :   -0.137648
  27 C :    0.145172
  28 F :   -0.056793
  29 F :   -0.064109
  30 F :   -0.028277
  31 C :   -0.229055
  32 S :    0.537852
  33 C :   -0.157490
  34 C :   -0.068313
  35 C :    0.004051
  36 N :    0.083247
  37 C :   -0.025409
  38 C :   -0.046857
  39 N :   -0.027530
  40 C :   -0.024515
  41 C :   -0.023709
  42 C :   -0.002497
  43 C :   -0.009054
  44 C :   -0.028290
  45 C :    0.041765
  46 C :   -0.071962
  47 C :    0.053136
  48 C :   -0.031446
  49 N :   -0.054643
  50 C :    0.028644
  51 C :   -0.002957
  52 C :   -0.023998
  53 C :    0.057154
  54 C :   -0.080141
  55 C :   -0.028543
  56 N :   -0.062642
  57 C :    0.033451
  58 C :   -0.019407
  59 C :    0.065825
  60 C :   -0.084278
  61 C :    0.073859
  62 C :   -0.135892
  63 C :   -0.016797
  64 N :   -0.052240
  65 C :   -0.020845
  66 N :   -0.049810
  67 C :   -0.025527
  68 C :   -0.056372
  69 C :    0.085734
  70 O :   -0.147093
  71 C :    0.033122
  72 C :   -0.008198
  73 C :   -0.005704
  74 C :    0.019736
  75 C :   -0.005008
  76 C :   -0.012579
  77 C :   -0.011831
  78 C :   -0.009155
  79 H :    0.040278
  80 H :    0.039657
  81 H :    0.035115
  82 H :    0.034357
  83 H :    0.033690
  84 H :    0.032582
  85 H :    0.046382
  86 H :    0.034917
  87 H :    0.078847
  88 H :    0.038393
  89 H :    0.031660
  90 H :    0.036826
  91 H :    0.035395
  92 H :    0.037329
  93 H :    0.037669
  94 H :    0.041757
  95 H :    0.042922
  96 H :    0.032561
  97 H :    0.043329
  98 H :    0.038907
  99 H :    0.039198
 100 H :    0.034960
 101 H :    0.033583
 102 H :    0.033152
 103 H :    0.031998

  Mayer bond orders larger than 0.100000
B(  0-C ,  1-C ) :   1.6634 B(  0-C ,  6-C ) :   1.0023 B(  0-C , 18-C ) :   1.0217
B(  1-C ,  2-C ) :   1.1270 B(  1-C ,  4-C ) :   1.1668 B(  2-C ,  3-N ) :   2.9935
B(  4-C ,  5-N ) :   2.9986 B(  6-C ,  7-C ) :   1.2142 B(  6-C , 11-C ) :   1.4553
B(  7-C ,  8-C ) :   1.4733 B(  7-C , 16-C ) :   0.9219 B(  8-C ,  9-C ) :   1.1848
B(  8-C , 79-H ) :   1.0165 B(  9-C , 10-C ) :   1.2559 B(  9-C , 15-C ) :   1.2466
B( 10-C , 11-C ) :   1.2084 B( 10-C , 12-C ) :   1.2388 B( 11-C , 80-H ) :   0.9947
B( 12-C , 13-C ) :   1.4905 B( 12-C , 81-H ) :   0.9981 B( 13-C , 14-C ) :   1.2608
B( 13-C , 82-H ) :   0.9887 B( 14-C , 15-C ) :   1.4872 B( 14-C , 83-H ) :   0.9896
B( 15-C , 84-H ) :   0.9981 B( 16-C , 17-O ) :   2.2721 B( 16-C , 18-C ) :   0.9297
B( 18-C , 19-C ) :   1.7115 B( 19-C , 20-C ) :   1.0892 B( 19-C , 85-H ) :   0.9309
B( 20-C , 21-S ) :   1.0669 B( 20-C , 24-C ) :   1.5181 B( 21-S , 22-C ) :   1.1646
B( 22-C , 23-C ) :   1.3474 B( 22-C , 31-C ) :   1.3148 B( 23-C , 24-C ) :   1.2636
B( 23-C , 25-C ) :   1.0301 B( 24-C , 86-H ) :   0.9550 B( 25-C , 26-O ) :   2.0671
B( 25-C , 27-C ) :   0.8946 B( 27-C , 28-F ) :   1.1283 B( 27-C , 29-F ) :   1.1115
B( 27-C , 30-F ) :   1.2008 B( 31-C , 32-S ) :   1.0997 B( 31-C , 35-C ) :   1.2968
B( 32-S , 33-C ) :   1.1364 B( 33-C , 34-C ) :   1.2347 B( 33-C , 41-C ) :   1.1941
B( 34-C , 35-C ) :   1.2726 B( 34-C , 40-C ) :   1.1933 B( 35-C , 36-N ) :   1.2115
B( 36-N , 37-C ) :   1.2040 B( 36-N , 87-H ) :   0.9197 B( 37-C , 38-C ) :   1.0538
B( 37-C , 40-C ) :   1.5866 B( 38-C , 39-N ) :   3.0557 B( 40-C , 88-H ) :   1.0088
B( 41-C , 42-C ) :   1.5672 B( 41-C , 89-H ) :   0.9533 B( 42-C , 43-C ) :   1.1635
B( 42-C , 90-H ) :   0.9784 B( 43-C , 44-C ) :   1.4818 B( 43-C , 47-C ) :   1.0330
B( 44-C , 45-C ) :   1.1393 B( 44-C , 91-H ) :   1.0082 B( 45-C , 46-C ) :   1.0961
B( 45-C , 50-C ) :   1.3876 B( 46-C , 47-C ) :   1.6991 B( 46-C , 48-C ) :   1.0874
B( 47-C , 92-H ) :   1.0138 B( 48-C , 49-N ) :   2.9663 B( 50-C , 51-C ) :   1.1223
B( 50-C , 54-C ) :   1.1104 B( 51-C , 52-C ) :   1.4949 B( 51-C , 93-H ) :   1.0085
B( 52-C , 53-C ) :   1.0509 B( 52-C , 57-C ) :   1.1012 B( 53-C , 54-C ) :   1.6736
B( 53-C , 94-H ) :   1.0176 B( 54-C , 55-C ) :   1.0906 B( 55-C , 56-N ) :   2.9632
B( 57-C , 58-C ) :   1.5457 B( 57-C , 95-H ) :   0.9896 B( 58-C , 59-C ) :   1.1575
B( 58-C , 96-H ) :   0.9771 B( 59-C , 60-C ) :   1.5413 B( 59-C , 97-H ) :   0.9637
B( 60-C , 61-C ) :   1.0604 B( 60-C , 69-C ) :   0.9401 B( 61-C , 62-C ) :   1.6264
B( 61-C , 67-C ) :   0.9874 B( 62-C , 63-C ) :   1.1470 B( 62-C , 65-C ) :   1.1466
B( 63-C , 64-N ) :   2.9612 B( 65-C , 66-N ) :   2.9599 B( 67-C , 68-C ) :   1.2156
B( 67-C , 74-C ) :   1.4475 B( 68-C , 69-C ) :   0.9479 B( 68-C , 71-C ) :   1.4692
B( 69-C , 70-O ) :   2.1948 B( 71-C , 72-C ) :   1.1782 B( 71-C , 98-H ) :   1.0164
B( 72-C , 73-C ) :   1.2565 B( 72-C , 78-C ) :   1.2436 B( 73-C , 74-C ) :   1.2068
B( 73-C , 75-C ) :   1.2392 B( 74-C , 99-H ) :   0.9888 B( 75-C , 76-C ) :   1.4900
B( 75-C ,100-H ) :   0.9972 B( 76-C , 77-C ) :   1.2592 B( 76-C ,101-H ) :   0.9883
B( 77-C , 78-C ) :   1.4893 B( 77-C ,102-H ) :   0.9884 B( 78-C ,103-H ) :   0.9976

-----------------------------------------------------------------------------
         ABSORPTION SPECTRUM VIA TRANSITION ELECTRIC DIPOLE MOMENTS
-----------------------------------------------------------------------------
State   Energy  Wavelength   fosc         T2         TX        TY        TZ
        (cm-1)    (nm)                  (au**2)     (au)      (au)      (au)
-----------------------------------------------------------------------------
   0   10873.6    919.7   1.705293728  51.63004  -0.02474   3.02349  -6.51828
   1   16248.9    615.4   0.054159317   1.09730  -0.22187  -0.49755   0.89472
   2   18179.2    550.1   0.593956438  10.75611  -0.10639  -1.20573   3.04812
   3   20543.3    486.8   0.087281820   1.39871   0.35103  -0.46587   1.02881
   4   22008.9    454.4   0.094963649   1.42048  -0.42666   0.54877  -0.96814
   5   22479.7    444.8   0.077827553   1.13977   0.10545  -0.03732  -1.06173
   6   23686.9    422.2   0.781251754  10.85819   0.23350  -1.72750   2.79632
   7   24548.2    407.4   0.022072160   0.29601   0.17404  -0.20229   0.47413
   8   25130.1    397.9   0.047253033   0.61903   0.53777   0.16716  -0.54944
   9   25294.0    395.4   0.005045292   0.06567   0.11730   0.10115  -0.20415
  10   25678.6    389.4   0.105018535   1.34639  -0.33931   0.30263   1.06756
  11   26641.0    375.4   0.091997680   1.13685   0.65856   0.24921  -0.80065
  12   27854.1    359.0   0.009321547   0.11017   0.08186   0.30311  -0.10767
  13   28167.3    355.0   0.079785489   0.93251   0.84840  -0.33813   0.31368
  14   28504.9    350.8   0.037124051   0.42876   0.65155   0.05856  -0.02841
  15   28746.3    347.9   0.103197521   1.18185  -0.65488   0.38181  -0.77923
  16   29017.0    344.6   0.081491203   0.92456  -0.69555   0.66388   0.00632
  17   29311.4    341.2   0.017974386   0.20188  -0.27235   0.31196   0.17432
  18   29838.8    335.1   0.047153846   0.52025   0.52108   0.38320   0.31919
  19   30113.6    332.1   0.020506254   0.22418  -0.22692   0.12405   0.39661
  20   30177.8    331.4   0.536872709   5.85678   1.14041   0.46852  -2.08249
  21   30425.1    328.7   0.131351908   1.42128   0.73984   0.44676  -0.82117
  22   31141.4    321.1   0.012676330   0.13401  -0.32210   0.14095   0.10195
  23   31514.9    317.3   0.001968108   0.02056   0.12596  -0.01076   0.06766
  24   31786.2    314.6   0.062166900   0.64387   0.28201   0.30567  -0.68623
  25   32193.4    310.6   0.003133107   0.03204  -0.09954  -0.11395  -0.09564
  26   32320.4    309.4   0.134127145   1.36621   0.23835  -0.07720   1.14168
  27   32629.9    306.5   0.088937125   0.89731   0.37319  -0.86265   0.11778
  28   33002.3    303.0   0.005166352   0.05154  -0.19461  -0.06941   0.09406
  29   33126.9    301.9   0.000121516   0.00121  -0.03007   0.00114  -0.01739
  30   33953.3    294.5   0.370563529   3.59299   0.61999   0.13447   1.78620
  31   34194.7    292.4   0.003273663   0.03152   0.13105   0.02659  -0.11677
  32   34570.1    289.3   0.303330512   2.88863  -0.07176  -0.18580  -1.68788
  33   35010.9    285.6   0.418526598   3.93546  -1.19296  -0.28691   1.55884
  34   35220.1    283.9   0.343386325   3.20973   1.77945  -0.08814  -0.18850
  35   35605.5    280.9   0.083566667   0.77267  -0.16677   0.39529  -0.76721
  36   36055.7    277.3   0.003029132   0.02766   0.14568   0.06814  -0.04231
  37   36165.9    276.5   0.069616155   0.63370  -0.65848  -0.11384   0.43261
  38   36374.6    274.9   0.001311306   0.01187   0.06633   0.01827  -0.08446
  39   36451.6    274.3   0.070093224   0.63304  -0.33527   0.20916   0.69058
  40   36522.0    273.8   0.011949397   0.10771  -0.28661   0.15939  -0.01275
  41   36778.0    271.9   0.021201351   0.18978  -0.35753  -0.00010   0.24890
  42   37067.3    269.8   0.009656832   0.08577   0.10829   0.23354   0.13965
  43   37201.3    268.8   0.051896544   0.45926  -0.54649  -0.04714   0.39798
  44   37523.1    266.5   0.021362416   0.18742  -0.37995   0.20424  -0.03673
  45   37885.8    264.0   0.024798597   0.21549   0.36250  -0.27084   0.10358
  46   38113.0    262.4   0.001031745   0.00891   0.06762   0.04549  -0.04765
  47   38230.0    261.6   0.232442113   2.00164  -0.58831   0.55765  -1.15955
  48   38315.0    261.0   0.006976639   0.05995   0.05734  -0.21387   0.10449
  49   38447.5    260.1   0.020644557   0.17677  -0.24369   0.12391  -0.31943
  50   38597.6    259.1   0.003531915   0.03012   0.16296   0.01228   0.05846
  51   39098.4    255.8   0.102443439   0.86258  -0.31062   0.32137  -0.81414
  52   39249.8    254.8   0.072935678   0.61176  -0.01217  -0.48813   0.61101
  53   39450.4    253.5   0.149440279   1.24707   1.04007  -0.34907   0.20850
  54   39851.9    250.9   0.022459021   0.18553   0.31092  -0.04112   0.29525
  55   39983.7    250.1   0.024445586   0.20128   0.38970   0.20054   0.09589
  56   40180.8    248.9   0.010658280   0.08733  -0.29412   0.00431  -0.02828
  57   40325.7    248.0   0.162471723   1.32639  -0.74407   0.66665  -0.57300

FINAL SINGLE POINT ENERGY     -4170.720465201226

DIPOLE MOMENT
-------------
                                X             Y             Z
Electronic contribution:    -18.82641     -23.45910      53.59720
Nuclear contribution   :     21.42280      23.73150     -51.38570
                        -----------------------------------------
Total Dipole Moment    :      2.59640       0.27239       2.21150
                        -----------------------------------------
Magnitude (a.u.)       :      3.42144
Magnitude (Debye)      :      8.69660

Rotational constants in cm-1:     0.002726     0.000139     0.000134
Rotational constants in MHz :    81.716766     4.166946     4.024539

                             ****ORCA TERMINATED NORMALLY****
TOTAL RUN TIME: 0 days 0 hours 11 minutes 25 seconds 792 msec
