                         Program Version 4.2.0 -  RELEASE  -
|  1> # ORCA input file
|  2> # SCF done       -176.227791235194          0.000569120998
|  3> ! CAM-B3LYP def2-SVP def2/J RIJCOSX Grid4 TightSCF
|  4> %maxcore 5000
|  5> %tddft
|  6>     Mode sTDDFT
|  7>     Ethresh 5.0
|  8>     maxcore 5000
|  9> end
| 10>
| 11> %pal
| 12>   nprocs 6
| 13>   end
| 14> * xyz 0 1
| 15>    C        2.02018         2.42519         1.08690
| 16>    C        0.92039         1.72553         0.66870
| 17>    C        0.27839         0.72865         1.43131
| 18>    N       -0.28709        -0.07777         2.01953
| 19>    C        0.38831         1.87840        -0.62544
| 20>    N        0.00883         1.95336        -1.70724
| 21>    C        2.82257         2.14438         2.26606
| 22>    C        4.10249         2.75482         2.10346
| 23>    C        5.08296         2.61702         3.04405
| 24>    C        4.81943         1.86287         4.20968
| 25>    C        3.53638         1.26593         4.38391
| 26>    C        2.54228         1.41653         3.39138
| 27>    C        3.28534         0.52268         5.55524
| 28>    C        4.25461         0.37135         6.50897
| 29>    C        5.51788         0.95678         6.33595
| 30>    C        5.79432         1.68617         5.21133
| 31>    C        4.13067         3.50185         0.83564
| 32>    O        5.05386         4.08489         0.31798
| 33>    C        2.72896         3.43273         0.31514
| 34>    C        2.31333         4.31298        -0.62146
| 35>    C        0.96443         4.67044        -1.00371
| 36>    C       -0.04113         4.82934        -0.04465
| 37>    F        0.23512         4.54554         1.24743
| 38>    C       -1.29237         5.32318        -0.34031
| 39>    C       -1.57548         5.68196        -1.65022
| 40>    C       -0.61781         5.53378        -2.62920
| 41>    C        0.64814         5.01904        -2.33601
| 42>    C        1.59408         4.82617        -3.40604
| 43>    S        1.57730         5.88362        -4.79237
| 44>    C        2.88886         5.06665        -5.59462
| 45>    C        3.30912         3.98400        -4.81735
| 46>    C        2.56804         3.86069        -3.59881
| 47>    N        2.99490         2.74094        -2.95749
| 48>    C        3.98407         2.15598        -3.71858
| 49>    C        4.62519         0.98182        -3.30249
| 50>    N        5.15212         0.02097        -2.96169
| 51>    C        4.21056         2.89602        -4.86025
| 52>    C        3.28408         5.55449        -6.85553
| 53>    C        4.31978         5.08994        -7.60329
| 54>    C        4.65038         5.57343        -8.89413
| 55>    S        6.10809         5.02739        -9.65518
| 56>    C        5.80569         5.98112       -11.07760
| 57>    C        6.71474         6.03658       -12.23235
| 58>    O        6.49024         6.73234       -13.18473
| 59>    O        7.81586         5.26892       -12.16996
| 60>    C        4.62778         6.67658       -10.96645
| 61>    C        3.96985         6.45211        -9.74622
| 62>    O        2.78596         6.98958        -9.34002
| 63>    C        1.94687         7.57466       -10.17682
| 64>    C        0.77238         8.09473        -9.72497
| 65>    C       -0.26855         8.73608       -10.50672
| 66>    C       -0.24624         9.01134       -11.84836
| 67>    C       -1.29727         9.64205       -12.54659
| 68>    N       -2.11482        10.14769       -13.17387
| 69>    C        0.82627         8.71067       -12.71259
| 70>    N        1.67295         8.48976       -13.45603
| 71>    C       -1.36274         9.05295        -9.59425
| 72>    C       -0.99834         8.64605        -8.27903
| 73>    C        0.34464         8.04761        -8.30572
| 74>    O        0.96597         7.60549        -7.36151
| 75>    C       -1.83090         8.81670        -7.21112
| 76>    C       -3.09591         9.41205        -7.41254
| 77>    C       -3.47080         9.82031        -8.72499
| 78>    C       -2.58522         9.63275        -9.81114
| 79>    C       -4.73654        10.41111        -8.91593
| 80>    C       -5.59148        10.59087        -7.86272
| 81>    C       -5.22073        10.18907        -6.57089
| 82>    C       -3.99939         9.61222        -6.35062
| 83>    H        6.04909         3.07781         2.90142
| 84>    H        1.57571         0.96328         3.54785
| 85>    H        2.31220         0.07154         5.68162
| 86>    H        4.05347        -0.20113         7.40192
| 87>    H        6.27095         0.82703         7.09860
| 88>    H        6.76536         2.13864         5.07364
| 89>    H        3.09921         4.89452        -1.09610
| 90>    H       -2.01803         5.43177         0.44936
| 91>    H       -2.55014         6.07158        -1.89829
| 92>    H       -0.84115         5.79938        -3.65116
| 93>    H        2.58654         2.33980        -2.13086
| 94>    H        4.92966         2.65879        -5.61754
| 95>    H        2.68266         6.37012        -7.22666
| 96>    H        4.96331         4.31266        -7.21749
| 97>    H        7.88070         4.75581       -11.35335
| 98>    H        4.29287         7.32572       -11.75604
| 99>    H        2.20982         7.60897       -11.22729
|100>    H       -1.52648         8.50064        -6.22418
|101>    H       -2.90060         9.95250       -10.79136
|102>    H       -5.01757        10.71933        -9.91214
|103>    H       -6.55872        11.04412        -8.01938
|104>    H       -5.90764        10.33894        -5.75142
|105>    H       -3.70784         9.30128        -5.35795
|106> *
|107>
|108>                          ****END OF INPUT****

CARTESIAN COORDINATES (ANGSTROEM)
---------------------------------
  C      2.020180    2.425190    1.086900
  C      0.920390    1.725530    0.668700
  C      0.278390    0.728650    1.431310
  N     -0.287090   -0.077770    2.019530
  C      0.388310    1.878400   -0.625440
  N      0.008830    1.953360   -1.707240
  C      2.822570    2.144380    2.266060
  C      4.102490    2.754820    2.103460
  C      5.082960    2.617020    3.044050
  C      4.819430    1.862870    4.209680
  C      3.536380    1.265930    4.383910
  C      2.542280    1.416530    3.391380
  C      3.285340    0.522680    5.555240
  C      4.254610    0.371350    6.508970
  C      5.517880    0.956780    6.335950
  C      5.794320    1.686170    5.211330
  C      4.130670    3.501850    0.835640
  O      5.053860    4.084890    0.317980
  C      2.728960    3.432730    0.315140
  C      2.313330    4.312980   -0.621460
  C      0.964430    4.670440   -1.003710
  C     -0.041130    4.829340   -0.044650
  F      0.235120    4.545540    1.247430
  C     -1.292370    5.323180   -0.340310
  C     -1.575480    5.681960   -1.650220
  C     -0.617810    5.533780   -2.629200
  C      0.648140    5.019040   -2.336010
  C      1.594080    4.826170   -3.406040
  S      1.577300    5.883620   -4.792370
  C      2.888860    5.066650   -5.594620
  C      3.309120    3.984000   -4.817350
  C      2.568040    3.860690   -3.598810
  N      2.994900    2.740940   -2.957490
  C      3.984070    2.155980   -3.718580
  C      4.625190    0.981820   -3.302490
  N      5.152120    0.020970   -2.961690
  C      4.210560    2.896020   -4.860250
  C      3.284080    5.554490   -6.855530
  C      4.319780    5.089940   -7.603290
  C      4.650380    5.573430   -8.894130
  S      6.108090    5.027390   -9.655180
  C      5.805690    5.981120  -11.077600
  C      6.714740    6.036580  -12.232350
  O      6.490240    6.732340  -13.184730
  O      7.815860    5.268920  -12.169960
  C      4.627780    6.676580  -10.966450
  C      3.969850    6.452110   -9.746220
  O      2.785960    6.989580   -9.340020
  C      1.946870    7.574660  -10.176820
  C      0.772380    8.094730   -9.724970
  C     -0.268550    8.736080  -10.506720
  C     -0.246240    9.011340  -11.848360
  C     -1.297270    9.642050  -12.546590
  N     -2.114820   10.147690  -13.173870
  C      0.826270    8.710670  -12.712590
  N      1.672950    8.489760  -13.456030
  C     -1.362740    9.052950   -9.594250
  C     -0.998340    8.646050   -8.279030
  C      0.344640    8.047610   -8.305720
  O      0.965970    7.605490   -7.361510
  C     -1.830900    8.816700   -7.211120
  C     -3.095910    9.412050   -7.412540
  C     -3.470800    9.820310   -8.724990
  C     -2.585220    9.632750   -9.811140
  C     -4.736540   10.411110   -8.915930
  C     -5.591480   10.590870   -7.862720
  C     -5.220730   10.189070   -6.570890
  C     -3.999390    9.612220   -6.350620
  H      6.049090    3.077810    2.901420
  H      1.575710    0.963280    3.547850
  H      2.312200    0.071540    5.681620
  H      4.053470   -0.201130    7.401920
  H      6.270950    0.827030    7.098600
  H      6.765360    2.138640    5.073640
  H      3.099210    4.894520   -1.096100
  H     -2.018030    5.431770    0.449360
  H     -2.550140    6.071580   -1.898290
  H     -0.841150    5.799380   -3.651160
  H      2.586540    2.339800   -2.130860
  H      4.929660    2.658790   -5.617540
  H      2.682660    6.370120   -7.226660
  H      4.963310    4.312660   -7.217490
  H      7.880700    4.755810  -11.353350
  H      4.292870    7.325720  -11.756040
  H      2.209820    7.608970  -11.227290
  H     -1.526480    8.500640   -6.224180
  H     -2.900600    9.952500  -10.791360
  H     -5.017570   10.719330   -9.912140
  H     -6.558720   11.044120   -8.019380
  H     -5.907640   10.338940   -5.751420
  H     -3.707840    9.301280   -5.357950

 Total Charge           Charge          ....    0
 Multiplicity           Mult            ....    1
 Number of Electrons    NEL             ....  470
 Basis Dimension        Dim             .... 1075

ORBITAL ENERGIES
----------------

  NO   OCC          E(Eh)            E(eV)
   0   2.0000     -88.984184     -2421.3827
   1   2.0000     -88.967453     -2420.9275
   2   2.0000     -24.799612      -674.8317
   3   2.0000     -19.321271      -525.7585
   4   2.0000     -19.262951      -524.1715
   5   2.0000     -19.226522      -523.1803
   6   2.0000     -19.221608      -523.0465
   7   2.0000     -19.196938      -522.3752
   8   2.0000     -14.473307      -393.8387
   9   2.0000     -14.427769      -392.5996
  10   2.0000     -14.426155      -392.5556
  11   2.0000     -14.422167      -392.4471
  12   2.0000     -14.420221      -392.3942
  13   2.0000     -14.416074      -392.2813
  14   2.0000     -10.408348      -283.2256
  15   2.0000     -10.394436      -282.8470
  16   2.0000     -10.379175      -282.4317
  17   2.0000     -10.375750      -282.3385
  18   2.0000     -10.372440      -282.2484
  19   2.0000     -10.363645      -282.0091
  20   2.0000     -10.352434      -281.7041
  21   2.0000     -10.350775      -281.6589
  22   2.0000     -10.349013      -281.6110
  23   2.0000     -10.348518      -281.5975
  24   2.0000     -10.348326      -281.5923
  25   2.0000     -10.331777      -281.1419
  26   2.0000     -10.329729      -281.0862
  27   2.0000     -10.327995      -281.0390
  28   2.0000     -10.326299      -280.9929
  29   2.0000     -10.324361      -280.9401
  30   2.0000     -10.324282      -280.9380
  31   2.0000     -10.323067      -280.9049
  32   2.0000     -10.319827      -280.8168
  33   2.0000     -10.315117      -280.6886
  34   2.0000     -10.314402      -280.6691
  35   2.0000     -10.313553      -280.6461
  36   2.0000     -10.312657      -280.6217
  37   2.0000     -10.310814      -280.5715
  38   2.0000     -10.308923      -280.5201
  39   2.0000     -10.308375      -280.5051
  40   2.0000     -10.307526      -280.4821
  41   2.0000     -10.306990      -280.4675
  42   2.0000     -10.305286      -280.4211
  43   2.0000     -10.305151      -280.4174
  44   2.0000     -10.304886      -280.4102
  45   2.0000     -10.304640      -280.4035
  46   2.0000     -10.304352      -280.3957
  47   2.0000     -10.302831      -280.3543
  48   2.0000     -10.302638      -280.3490
  49   2.0000     -10.302358      -280.3414
  50   2.0000     -10.302277      -280.3392
  51   2.0000     -10.297408      -280.2067
  52   2.0000     -10.296562      -280.1837
  53   2.0000     -10.295264      -280.1484
  54   2.0000     -10.293700      -280.1058
  55   2.0000     -10.293479      -280.0998
  56   2.0000     -10.293177      -280.0916
  57   2.0000     -10.292399      -280.0704
  58   2.0000     -10.291873      -280.0561
  59   2.0000     -10.290700      -280.0242
  60   2.0000     -10.290692      -280.0240
  61   2.0000     -10.290401      -280.0160
  62   2.0000     -10.290218      -280.0111
  63   2.0000     -10.290009      -280.0054
  64   2.0000     -10.289542      -279.9927
  65   2.0000     -10.289213      -279.9837
  66   2.0000     -10.288411      -279.9619
  67   2.0000     -10.287606      -279.9400
  68   2.0000      -8.080010      -219.8682
  69   2.0000      -8.062011      -219.3785
  70   2.0000      -6.049207      -164.6073
  71   2.0000      -6.045300      -164.5010
  72   2.0000      -6.042075      -164.4132
  73   2.0000      -6.031272      -164.1193
  74   2.0000      -6.026985      -164.0026
  75   2.0000      -6.024392      -163.9320
  76   2.0000      -1.312538       -35.7160
  77   2.0000      -1.232684       -33.5430
  78   2.0000      -1.184903       -32.2428
  79   2.0000      -1.140633       -31.0382
  80   2.0000      -1.136645       -30.9297
  81   2.0000      -1.100032       -29.9334
  82   2.0000      -1.097975       -29.8774
  83   2.0000      -1.027695       -27.9650
  84   2.0000      -1.026587       -27.9348
  85   2.0000      -1.009904       -27.4809
  86   2.0000      -1.006716       -27.3941
  87   2.0000      -1.006625       -27.3917
  88   2.0000      -1.002855       -27.2891
  89   2.0000      -1.000822       -27.2337
  90   2.0000      -0.999165       -27.1887
  91   2.0000      -0.991408       -26.9776
  92   2.0000      -0.979013       -26.6403
  93   2.0000      -0.978311       -26.6212
  94   2.0000      -0.972386       -26.4600
  95   2.0000      -0.932767       -25.3819
  96   2.0000      -0.931148       -25.3378
  97   2.0000      -0.918355       -24.9897
  98   2.0000      -0.914704       -24.8904
  99   2.0000      -0.910621       -24.7793
 100   2.0000      -0.897753       -24.4291
 101   2.0000      -0.889226       -24.1971
 102   2.0000      -0.887943       -24.1622
 103   2.0000      -0.885602       -24.0985
 104   2.0000      -0.884573       -24.0704
 105   2.0000      -0.870831       -23.6965
 106   2.0000      -0.857502       -23.3338
 107   2.0000      -0.847220       -23.0540
 108   2.0000      -0.844552       -22.9814
 109   2.0000      -0.838281       -22.8108
 110   2.0000      -0.835766       -22.7423
 111   2.0000      -0.833526       -22.6814
 112   2.0000      -0.805261       -21.9123
 113   2.0000      -0.798504       -21.7284
 114   2.0000      -0.790382       -21.5074
 115   2.0000      -0.770825       -20.9752
 116   2.0000      -0.766797       -20.8656
 117   2.0000      -0.752445       -20.4751
 118   2.0000      -0.748243       -20.3607
 119   2.0000      -0.742234       -20.1972
 120   2.0000      -0.730654       -19.8821
 121   2.0000      -0.720045       -19.5934
 122   2.0000      -0.716407       -19.4944
 123   2.0000      -0.713775       -19.4228
 124   2.0000      -0.709271       -19.3002
 125   2.0000      -0.706787       -19.2326
 126   2.0000      -0.706088       -19.2136
 127   2.0000      -0.697263       -18.9735
 128   2.0000      -0.695817       -18.9342
 129   2.0000      -0.686796       -18.6887
 130   2.0000      -0.685142       -18.6437
 131   2.0000      -0.683614       -18.6021
 132   2.0000      -0.675006       -18.3679
 133   2.0000      -0.660998       -17.9867
 134   2.0000      -0.652586       -17.7578
 135   2.0000      -0.647646       -17.6233
 136   2.0000      -0.639841       -17.4110
 137   2.0000      -0.635548       -17.2941
 138   2.0000      -0.627261       -17.0686
 139   2.0000      -0.616351       -16.7718
 140   2.0000      -0.614474       -16.7207
 141   2.0000      -0.613055       -16.6821
 142   2.0000      -0.611627       -16.6432
 143   2.0000      -0.606648       -16.5077
 144   2.0000      -0.598227       -16.2786
 145   2.0000      -0.594669       -16.1818
 146   2.0000      -0.586595       -15.9621
 147   2.0000      -0.581009       -15.8101
 148   2.0000      -0.579121       -15.7587
 149   2.0000      -0.575310       -15.6550
 150   2.0000      -0.572542       -15.5797
 151   2.0000      -0.568434       -15.4679
 152   2.0000      -0.556389       -15.1401
 153   2.0000      -0.555404       -15.1133
 154   2.0000      -0.554383       -15.0855
 155   2.0000      -0.553565       -15.0633
 156   2.0000      -0.550791       -14.9878
 157   2.0000      -0.550109       -14.9692
 158   2.0000      -0.545745       -14.8505
 159   2.0000      -0.543888       -14.7999
 160   2.0000      -0.543432       -14.7875
 161   2.0000      -0.542333       -14.7576
 162   2.0000      -0.539017       -14.6674
 163   2.0000      -0.536627       -14.6024
 164   2.0000      -0.533572       -14.5192
 165   2.0000      -0.530081       -14.4242
 166   2.0000      -0.527732       -14.3603
 167   2.0000      -0.525670       -14.3042
 168   2.0000      -0.523776       -14.2527
 169   2.0000      -0.516954       -14.0670
 170   2.0000      -0.516819       -14.0634
 171   2.0000      -0.514764       -14.0074
 172   2.0000      -0.514748       -14.0070
 173   2.0000      -0.508661       -13.8414
 174   2.0000      -0.504915       -13.7394
 175   2.0000      -0.503395       -13.6981
 176   2.0000      -0.500013       -13.6060
 177   2.0000      -0.499049       -13.5798
 178   2.0000      -0.496368       -13.5069
 179   2.0000      -0.493579       -13.4310
 180   2.0000      -0.491630       -13.3779
 181   2.0000      -0.487351       -13.2615
 182   2.0000      -0.482741       -13.1360
 183   2.0000      -0.480550       -13.0764
 184   2.0000      -0.474628       -12.9153
 185   2.0000      -0.470944       -12.8150
 186   2.0000      -0.470372       -12.7995
 187   2.0000      -0.465954       -12.6793
 188   2.0000      -0.463617       -12.6157
 189   2.0000      -0.462022       -12.5723
 190   2.0000      -0.459393       -12.5007
 191   2.0000      -0.456886       -12.4325
 192   2.0000      -0.452068       -12.3014
 193   2.0000      -0.451428       -12.2840
 194   2.0000      -0.448934       -12.2161
 195   2.0000      -0.448059       -12.1923
 196   2.0000      -0.447275       -12.1710
 197   2.0000      -0.444562       -12.0972
 198   2.0000      -0.443418       -12.0660
 199   2.0000      -0.441260       -12.0073
 200   2.0000      -0.441163       -12.0047
 201   2.0000      -0.441015       -12.0006
 202   2.0000      -0.436440       -11.8761
 203   2.0000      -0.434813       -11.8319
 204   2.0000      -0.433543       -11.7973
 205   2.0000      -0.433145       -11.7865
 206   2.0000      -0.431893       -11.7524
 207   2.0000      -0.429351       -11.6832
 208   2.0000      -0.426620       -11.6089
 209   2.0000      -0.423581       -11.5262
 210   2.0000      -0.419491       -11.4149
 211   2.0000      -0.417038       -11.3482
 212   2.0000      -0.414025       -11.2662
 213   2.0000      -0.407028       -11.0758
 214   2.0000      -0.405927       -11.0458
 215   2.0000      -0.403980       -10.9929
 216   2.0000      -0.393295       -10.7021
 217   2.0000      -0.383847       -10.4450
 218   2.0000      -0.382811       -10.4168
 219   2.0000      -0.372131       -10.1262
 220   2.0000      -0.364567        -9.9204
 221   2.0000      -0.354702        -9.6519
 222   2.0000      -0.353832        -9.6283
 223   2.0000      -0.347409        -9.4535
 224   2.0000      -0.341822        -9.3015
 225   2.0000      -0.336663        -9.1611
 226   2.0000      -0.328829        -8.9479
 227   2.0000      -0.322083        -8.7643
 228   2.0000      -0.321572        -8.7504
 229   2.0000      -0.317364        -8.6359
 230   2.0000      -0.307621        -8.3708
 231   2.0000      -0.304202        -8.2778
 232   2.0000      -0.299036        -8.1372
 233   2.0000      -0.297649        -8.0994
 234   2.0000      -0.242672        -6.6034
 235   0.0000      -0.097187        -2.6446
 236   0.0000      -0.090309        -2.4574
 237   0.0000      -0.073158        -1.9907
 238   0.0000      -0.062528        -1.7015
 239   0.0000      -0.058671        -1.5965

MULLIKEN ATOMIC CHARGES
-----------------------
   0 C :    0.290948
   1 C :   -0.318159
   2 C :   -0.176611
   3 N :    0.159106
   4 C :   -0.204228
   5 N :    0.154001
   6 C :    0.037864
   7 C :    0.015132
   8 C :   -0.077274
   9 C :    0.095208
  10 C :    0.093263
  11 C :   -0.077514
  12 C :   -0.014913
  13 C :    0.037878
  14 C :    0.036107
  15 C :   -0.013432
  16 C :    0.143552
  17 O :   -0.130666
  18 C :   -0.133606
  19 C :   -0.069178
  20 C :   -0.046910
  21 C :    0.252397
  22 F :   -0.187785
  23 C :   -0.048550
  24 C :    0.056932
  25 C :   -0.033298
  26 C :    0.152556
  27 C :   -0.242733
  28 S :    0.184418
  29 C :   -0.161888
  30 C :    0.121163
  31 C :    0.125177
  32 N :   -0.028418
  33 C :   -0.085182
  34 C :   -0.146888
  35 N :    0.167867
  36 C :   -0.050815
  37 C :    0.074598
  38 C :    0.029672
  39 C :   -0.110349
  40 S :    0.118381
  41 C :   -0.165157
  42 C :    0.185977
  43 O :   -0.163545
  44 O :   -0.158179
  45 C :   -0.050660
  46 C :    0.210981
  47 O :   -0.187398
  48 C :    0.106394
  49 C :   -0.112109
  50 C :    0.340567
  51 C :   -0.344190
  52 C :   -0.179017
  53 N :    0.153209
  54 C :   -0.200838
  55 N :    0.151653
  56 C :    0.043389
  57 C :   -0.005561
  58 C :    0.180624
  59 O :   -0.146459
  60 C :   -0.084092
  61 C :    0.103885
  62 C :    0.097437
  63 C :   -0.082990
  64 C :   -0.019795
  65 C :    0.040438
  66 C :    0.036995
  67 C :   -0.017844
  68 H :   -0.009361
  69 H :   -0.004712
  70 H :   -0.009798
  71 H :   -0.003109
  72 H :   -0.002183
  73 H :   -0.016049
  74 H :    0.051487
  75 H :   -0.000189
  76 H :   -0.003438
  77 H :   -0.011838
  78 H :    0.137345
  79 H :   -0.012677
  80 H :    0.003339
  81 H :   -0.036163
  82 H :    0.179601
  83 H :    0.034130
  84 H :    0.039153
  85 H :   -0.017315
  86 H :   -0.006560
  87 H :   -0.007009
  88 H :   -0.002779
  89 H :   -0.002851
  90 H :   -0.020563
Sum of atomic charges:   -0.0000000

LOEWDIN ATOMIC CHARGES
----------------------
   0 C :    0.074612
   1 C :   -0.137867
   2 C :   -0.018919
   3 N :   -0.045240
   4 C :   -0.020500
   5 N :   -0.051001
   6 C :   -0.022626
   7 C :   -0.057144
   8 C :    0.036507
   9 C :   -0.007355
  10 C :   -0.004474
  11 C :    0.020742
  12 C :   -0.005175
  13 C :   -0.010850
  14 C :   -0.010679
  15 C :   -0.007657
  16 C :    0.084798
  17 O :   -0.133867
  18 C :   -0.090253
  19 C :    0.063907
  20 C :   -0.072711
  21 C :    0.104558
  22 F :   -0.059827
  23 C :   -0.050940
  24 C :    0.008002
  25 C :   -0.028842
  26 C :   -0.002220
  27 C :   -0.210218
  28 S :    0.500388
  29 C :   -0.168763
  30 C :   -0.061245
  31 C :    0.000850
  32 N :    0.080648
  33 C :   -0.019619
  34 C :   -0.042649
  35 N :   -0.038238
  36 C :   -0.038523
  37 C :   -0.016283
  38 C :   -0.065007
  39 C :   -0.160598
  40 S :    0.442412
  41 C :   -0.234912
  42 C :    0.062077
  43 O :   -0.152828
  44 O :   -0.032236
  45 C :   -0.036668
  46 C :   -0.000829
  47 O :    0.028511
  48 C :    0.151719
  49 C :   -0.129659
  50 C :    0.080819
  51 C :   -0.143088
  52 C :   -0.017987
  53 N :   -0.049717
  54 C :   -0.022078
  55 N :   -0.047282
  56 C :   -0.026371
  57 C :   -0.056327
  58 C :    0.093731
  59 O :   -0.148205
  60 C :    0.032249
  61 C :   -0.007848
  62 C :   -0.005839
  63 C :    0.023134
  64 C :   -0.003377
  65 C :   -0.011439
  66 C :   -0.010465
  67 C :   -0.010237
  68 H :    0.040675
  69 H :    0.039657
  70 H :    0.034834
  71 H :    0.033981
  72 H :    0.033802
  73 H :    0.032741
  74 H :    0.052476
  75 H :    0.041026
  76 H :    0.035249
  77 H :    0.025018
  78 H :    0.086183
  79 H :    0.032482
  80 H :    0.027887
  81 H :    0.025528
  82 H :    0.079521
  83 H :    0.049446
  84 H :    0.034827
  85 H :    0.037420
  86 H :    0.039943
  87 H :    0.035681
  88 H :    0.034294
  89 H :    0.033626
  90 H :    0.030720

  Mayer bond orders larger than 0.100000
B(  0-C ,  1-C ) :   1.6634 B(  0-C ,  6-C ) :   1.0139 B(  0-C , 18-C ) :   1.0068
B(  1-C ,  2-C ) :   1.1275 B(  1-C ,  4-C ) :   1.1673 B(  2-C ,  3-N ) :   2.9894
B(  4-C ,  5-N ) :   2.9496 B(  6-C ,  7-C ) :   1.2088 B(  6-C , 11-C ) :   1.4523
B(  7-C ,  8-C ) :   1.4700 B(  7-C , 16-C ) :   0.9231 B(  8-C ,  9-C ) :   1.1881
B(  8-C , 68-H ) :   1.0152 B(  9-C , 10-C ) :   1.2561 B(  9-C , 15-C ) :   1.2434
B( 10-C , 11-C ) :   1.2057 B( 10-C , 12-C ) :   1.2403 B( 11-C , 69-H ) :   0.9930
B( 12-C , 13-C ) :   1.4912 B( 12-C , 70-H ) :   0.9969 B( 13-C , 14-C ) :   1.2601
B( 13-C , 71-H ) :   0.9881 B( 14-C , 15-C ) :   1.4911 B( 14-C , 72-H ) :   0.9882
B( 15-C , 73-H ) :   0.9972 B( 16-C , 17-O ) :   2.2870 B( 16-C , 18-C ) :   0.9179
B( 18-C , 19-C ) :   1.7346 B( 19-C , 20-C ) :   1.0196 B( 19-C , 74-H ) :   0.9330
B( 20-C , 21-C ) :   1.2951 B( 20-C , 26-C ) :   1.3357 B( 21-C , 22-F ) :   1.0865
B( 21-C , 23-C ) :   1.4144 B( 23-C , 24-C ) :   1.3198 B( 23-C , 75-H ) :   0.9958
B( 24-C , 25-C ) :   1.3965 B( 24-C , 76-H ) :   0.9893 B( 25-C , 26-C ) :   1.3519
B( 25-C , 77-H ) :   0.9878 B( 26-C , 27-C ) :   1.0660 B( 27-C , 28-S ) :   1.1204
B( 27-C , 29-C ) :   0.1213 B( 27-C , 31-C ) :   1.4032 B( 28-S , 29-C ) :   1.1564
B( 29-C , 30-C ) :   1.2873 B( 29-C , 37-C ) :   1.1916 B( 30-C , 31-C ) :   1.2346
B( 30-C , 36-C ) :   1.1749 B( 31-C , 32-N ) :   1.1802 B( 32-N , 33-C ) :   1.2117
B( 32-N , 78-H ) :   0.9170 B( 33-C , 34-C ) :   1.0522 B( 33-C , 36-C ) :   1.5848
B( 34-C , 35-N ) :   3.0554 B( 36-C , 79-H ) :   1.0107 B( 37-C , 38-C ) :   1.6372
B( 37-C , 80-H ) :   0.9331 B( 38-C , 39-C ) :   1.1567 B( 38-C , 81-H ) :   0.9513
B( 39-C , 40-S ) :   1.1549 B( 39-C , 46-C ) :   1.4349 B( 40-S , 41-C ) :   1.0900
B( 41-C , 42-C ) :   0.9349 B( 41-C , 45-C ) :   1.5251 B( 42-C , 43-O ) :   2.2010
B( 42-C , 44-O ) :   1.2352 B( 44-O , 82-H ) :   0.9511 B( 45-C , 46-C ) :   1.2201
B( 45-C , 83-H ) :   0.9998 B( 46-C , 47-O ) :   1.0320 B( 47-O , 48-C ) :   1.2360
B( 48-C , 49-C ) :   1.5625 B( 48-C , 84-H ) :   0.9325 B( 49-C , 50-C ) :   1.0932
B( 49-C , 58-C ) :   0.9253 B( 50-C , 51-C ) :   1.6343 B( 50-C , 56-C ) :   0.9930
B( 51-C , 52-C ) :   1.1476 B( 51-C , 54-C ) :   1.1414 B( 52-C , 53-N ) :   2.9634
B( 54-C , 55-N ) :   2.9666 B( 56-C , 57-C ) :   1.2168 B( 56-C , 63-C ) :   1.4502
B( 57-C , 58-C ) :   0.9595 B( 57-C , 60-C ) :   1.4682 B( 58-C , 59-O ) :   2.1749
B( 60-C , 61-C ) :   1.1780 B( 60-C , 85-H ) :   1.0172 B( 61-C , 62-C ) :   1.2565
B( 61-C , 67-C ) :   1.2436 B( 62-C , 63-C ) :   1.2053 B( 62-C , 64-C ) :   1.2399
B( 63-C , 86-H ) :   0.9896 B( 64-C , 65-C ) :   1.4907 B( 64-C , 87-H ) :   0.9974
B( 65-C , 66-C ) :   1.2592 B( 65-C , 88-H ) :   0.9880 B( 66-C , 67-C ) :   1.4891
B( 66-C , 89-H ) :   0.9890 B( 67-C , 90-H ) :   0.9976

-----------------------------------------------------------------------------
         ABSORPTION SPECTRUM VIA TRANSITION ELECTRIC DIPOLE MOMENTS
-----------------------------------------------------------------------------
State   Energy  Wavelength   fosc         T2         TX        TY        TZ
        (cm-1)    (nm)                  (au**2)     (au)      (au)      (au)
-----------------------------------------------------------------------------
   0   15764.4    634.3   0.370358441   7.73427   0.29042   0.94471  -2.59951
   1   18483.8    541.0   0.203091955   3.61724  -0.52739   1.00616  -1.52537
   2   21923.6    456.1   0.683592859  10.26506   1.39423   0.62185  -2.81682
   3   23914.8    418.2   0.157907473   2.17376   0.64859   0.18073  -1.31165
   4   25575.0    391.0   0.052700344   0.67838   0.35747   0.36430  -0.64643
   5   27096.3    369.1   0.062189287   0.75558   0.49667   0.05182   0.71149
   6   28052.5    356.5   0.057955193   0.68014   0.17756  -0.31200   0.74247
   7   28292.6    353.4   0.066920558   0.77869   0.17163   0.13570  -0.85488
   8   28556.2    350.2   0.176990577   2.04045   0.79273  -0.92749   0.74282
   9   28984.0    345.0   0.040947183   0.46509  -0.12371  -0.65282   0.15366
  10   29659.4    337.2   0.245777447   2.72807  -1.50254   0.68478   0.03889
  11   30145.7    331.7   0.008904083   0.09724  -0.07630  -0.15266  -0.26098
  12   30440.2    328.5   0.028272300   0.30577  -0.48931   0.20936   0.15004
  13   30912.7    323.5   0.000200643   0.00214  -0.02812  -0.02860   0.02298
  14   31374.8    318.7   0.089546471   0.93960  -0.84144   0.43741  -0.20063
  15   32078.8    311.7   0.005037590   0.05170   0.16136  -0.10679   0.11940
  16   32923.2    303.7   0.113825997   1.13819   0.61425  -0.81303   0.31602
  17   33164.3    301.5   0.075548177   0.74994  -0.30582  -0.76948  -0.25361
  18   33582.6    297.8   0.120548535   1.18174   0.97726  -0.00490   0.47612
  19   33721.6    296.5   0.250739810   2.44789   0.17992  -0.01841   1.55408
  20   33895.2    295.0   0.133605325   1.29766  -0.72881   0.35413   0.80068
  21   33968.3    294.4   0.113895071   1.10384   0.67461  -0.53689  -0.60041
  22   34497.5    289.9   0.766281295   7.31268   1.03996  -0.29667   2.47854
  23   34660.7    288.5   0.612277237   5.81548   2.29479  -0.36578  -0.64470
  24   34755.1    287.7   0.148312066   1.40486   0.47641   0.02038  -1.08512
  25   35179.9    284.3   0.099511805   0.93123  -0.57135  -0.22624   0.74405
  26   35482.2    281.8   0.152580923   1.41568  -0.26139   0.08585   1.15758
  27   35511.6    281.6   0.045310686   0.42005  -0.39234   0.14622   0.49472
  28   35940.2    278.2   0.235681386   2.15884  -1.16675   0.33421   0.82816
  29   36260.9    275.8   0.123844588   1.12438   0.62998  -0.32334  -0.78928
  30   36496.2    274.0   0.037375245   0.33714  -0.20941   0.44292   0.31163
  31   37104.8    269.5   0.540556291   4.79608  -1.74195   1.27417  -0.37177
  32   37576.3    266.1   0.144876332   1.26928  -0.95079   0.55983  -0.22776
  33   37781.1    264.7   0.072039289   0.62773  -0.59352  -0.03663   0.52357
  34   38109.4    262.4   0.009274592   0.08012  -0.20598   0.15567   0.11602
  35   38260.5    261.4   0.006526169   0.05615   0.00680  -0.12205   0.20301
  36   38486.9    259.8   0.065135133   0.55716   0.57638  -0.35793  -0.31117
  37   38853.0    257.4   0.073381462   0.62178  -0.75138  -0.15288  -0.18395
  38   39447.5    253.5   0.085222059   0.71123  -0.12201   0.67932  -0.48463
  39   39525.2    253.0   0.160671083   1.33826  -1.04267   0.14507  -0.47963
  40   39851.5    250.9   0.023633851   0.19524   0.24149  -0.36957  -0.01837
  41   40262.6    248.4   0.028747853   0.23506   0.23883  -0.24331   0.34470
  42   40310.3    248.1   0.010558490   0.08623   0.06414   0.00277  -0.28655

FINAL SINGLE POINT ENERGY     -3668.534960886066

DIPOLE MOMENT
-------------
                                X             Y             Z
Electronic contribution:      9.90709      -3.32385     -16.82294
Nuclear contribution   :    -11.36216       4.29481      21.22910
                        -----------------------------------------
Total Dipole Moment    :     -1.45507       0.97096       4.40616
                        -----------------------------------------
Magnitude (a.u.)       :      4.74070
Magnitude (Debye)      :     12.04990

Rotational constants in cm-1:     0.001562     0.000472     0.000377
Rotational constants in MHz :    46.841879    14.136335    11.306167

                             ****ORCA TERMINATED NORMALLY****
TOTAL RUN TIME: 0 days 0 hours 8 minutes 32 seconds 163 msec
