                         Program Version 4.2.0 -  RELEASE  -
|  1> # ORCA input file
|  2> # SCF done       -215.237198332398          0.000644415888
|  3> ! CAM-B3LYP def2-SVP def2/J RIJCOSX Grid4 TightSCF
|  4> %maxcore 5000
|  5> %tddft
|  6>     Mode sTDDFT
|  7>     Ethresh 5.0
|  8>     maxcore 5000
|  9> end
| 10>
| 11> %pal
| 12>   nprocs 6
| 13>   end
| 14> * xyz 0 1
| 15>    C       -5.25921        -1.26539        -0.98560
| 16>    C       -4.35145        -1.70985        -0.06594
| 17>    F       -3.58533        -0.83536         0.59759
| 18>    C       -4.20554        -3.08767         0.19382
| 19>    F       -3.30297        -3.49022         1.09533
| 20>    C       -4.96701        -4.00414        -0.47510
| 21>    C       -5.91102        -3.57674        -1.42813
| 22>    C       -6.06619        -2.18348        -1.68616
| 23>    C       -7.03373        -1.73096        -2.61204
| 24>    C       -7.84259        -2.64181        -3.23942
| 25>    C       -7.67998        -4.03056        -2.97564
| 26>    C       -6.73164        -4.49971        -2.11262
| 27>    C       -8.73575        -4.78297        -3.67256
| 28>    O       -8.79724        -5.98019        -3.84660
| 29>    C       -9.66059        -3.74512        -4.21179
| 30>    C       -8.99583        -2.46226        -4.11917
| 31>    C       -9.41225        -1.27720        -4.66452
| 32>    C      -10.58856        -1.11162        -5.42664
| 33>    N      -11.54893        -0.89496        -6.01590
| 34>    C       -8.70477        -0.06365        -4.53232
| 35>    N       -8.16842         0.94816        -4.45845
| 36>    C      -10.92265        -4.02934        -4.66326
| 37>    C      -11.64360        -5.15828        -4.22556
| 38>    C      -12.56492        -5.94701        -4.90847
| 39>    N      -12.97016        -5.77242        -6.24557
| 40>    O      -13.85280        -6.49675        -6.66501
| 41>    O      -12.42754        -4.89375        -6.89393
| 42>    C      -12.97696        -7.02344        -4.07115
| 43>    C      -12.29640        -6.93955        -2.88435
| 44>    C      -11.47656        -5.78181        -2.90106
| 45>    C      -10.73323        -5.19437        -1.87556
| 46>    C      -10.69290        -3.79447        -1.60865
| 47>    C       -9.85254        -3.55647        -0.55883
| 48>    C       -9.28183        -4.79428        -0.14507
| 49>    N       -8.23300        -4.85735         0.77302
| 50>    O       -7.76957        -5.94963         1.08413
| 51>    O       -7.79531        -3.79862         1.20213
| 52>    C       -9.83062        -5.84072        -0.91417
| 53>    C       -9.42184        -7.18129        -0.86331
| 54>    C       -9.66219        -8.12874        -1.82569
| 55>    C       -9.34028        -9.49411        -1.82194
| 56>    N       -8.67335       -10.27460        -0.90663
| 57>    C       -8.10436        -9.88918         0.36559
| 58>    C       -9.17105        -9.77227         1.45111
| 59>    C       -8.60291       -11.62016        -1.31610
| 60>    O       -8.05016       -12.48663        -0.67223
| 61>    C       -9.29698       -11.65558        -2.59091
| 62>    C       -9.72486       -10.35095        -2.87019
| 63>    C      -10.46795       -10.36444        -4.11419
| 64>    O      -11.06340        -9.50310        -4.71853
| 65>    N      -10.41188       -11.71670        -4.52504
| 66>    C      -11.00559       -12.13675        -5.77259
| 67>    C       -9.95607       -12.31731        -6.86594
| 68>    C       -9.73160       -12.49888        -3.63131
| 69>    C       -9.58214       -13.89765        -3.77486
| 70>    C       -8.89524       -14.65075        -2.87495
| 71>    C       -8.73302       -16.07117        -2.89935
| 72>    C       -9.31892       -16.98180        -3.77633
| 73>    F      -10.14190       -16.55407        -4.74971
| 74>    C       -9.12303       -18.37125        -3.70138
| 75>    F       -9.81779       -19.11933        -4.57252
| 76>    C       -8.32047       -18.97943        -2.75003
| 77>    C       -7.72579       -18.09313        -1.82999
| 78>    C       -7.92089       -16.68215        -1.91072
| 79>    N       -7.21840       -16.12875        -0.91638
| 80>    N       -6.66256       -17.13659        -0.30835
| 81>    N       -6.91217       -18.32300        -0.78771
| 82>    C       -5.82155       -16.94025         0.83101
| 83>    C       -8.11385       -20.41960        -2.67064
| 84>    C       -8.15390       -21.08817        -1.46077
| 85>    N       -8.01197       -22.40781        -1.32508
| 86>    C       -7.82765       -23.14706        -2.38300
| 87>    C       -7.74065       -22.60407        -3.68446
| 88>    C       -7.85869       -21.19484        -3.83197
| 89>    N       -7.66967       -20.61770        -5.03582
| 90>    C       -7.46441       -21.40466        -6.05237
| 91>    C       -7.42882       -22.81292        -5.91721
| 92>    N       -7.53569       -23.39438        -4.75693
| 93>    H       -5.36105        -0.20676        -1.16669
| 94>    H       -4.85322        -5.05444        -0.25661
| 95>    H       -7.13010        -0.67026        -2.77991
| 96>    H       -6.63262        -5.55913        -1.92740
| 97>    H      -11.42337        -3.36575        -5.35992
| 98>    H      -13.68862        -7.77134        -4.36294
| 99>    H      -12.43379        -7.57272        -2.02840
|100>    H      -11.31248        -3.06982        -2.10245
|101>    H       -9.62929        -2.61168        -0.10089
|102>    H       -8.82131        -7.42332         0.00118
|103>    H      -10.13375        -7.81637        -2.74718
|104>    H       -7.54404        -8.95899         0.25647
|105>    H       -7.40416       -10.68629         0.63237
|106>    H       -9.95049        -9.07036         1.16413
|107>    H       -8.71418        -9.42455         2.37283
|108>    H       -9.62796       -10.74266         1.63015
|109>    H      -11.69919       -11.34114        -6.05834
|110>    H      -11.57081       -13.05984        -5.61941
|111>    H       -9.42504       -11.38303        -7.03040
|112>    H      -10.44209       -12.60729        -7.79294
|113>    H       -9.23477       -13.08476        -6.59432
|114>    H      -10.05128       -14.35180        -4.63316
|115>    H       -8.40858       -14.16842        -2.03606
|116>    H       -5.81222       -15.87639         1.05592
|117>    H       -4.81215       -17.28945         0.61210
|118>    H       -6.20950       -17.50531         1.67839
|119>    H       -8.32378       -20.54475        -0.54239
|120>    H       -7.73515       -24.21430        -2.23886
|121>    H       -7.30576       -20.92914        -7.01054
|122>    H       -7.28483       -23.45496        -6.77518
|123> *
|124>
|125>                          ****END OF INPUT****

CARTESIAN COORDINATES (ANGSTROEM)
---------------------------------
  C     -5.259210   -1.265390   -0.985600
  C     -4.351450   -1.709850   -0.065940
  F     -3.585330   -0.835360    0.597590
  C     -4.205540   -3.087670    0.193820
  F     -3.302970   -3.490220    1.095330
  C     -4.967010   -4.004140   -0.475100
  C     -5.911020   -3.576740   -1.428130
  C     -6.066190   -2.183480   -1.686160
  C     -7.033730   -1.730960   -2.612040
  C     -7.842590   -2.641810   -3.239420
  C     -7.679980   -4.030560   -2.975640
  C     -6.731640   -4.499710   -2.112620
  C     -8.735750   -4.782970   -3.672560
  O     -8.797240   -5.980190   -3.846600
  C     -9.660590   -3.745120   -4.211790
  C     -8.995830   -2.462260   -4.119170
  C     -9.412250   -1.277200   -4.664520
  C    -10.588560   -1.111620   -5.426640
  N    -11.548930   -0.894960   -6.015900
  C     -8.704770   -0.063650   -4.532320
  N     -8.168420    0.948160   -4.458450
  C    -10.922650   -4.029340   -4.663260
  C    -11.643600   -5.158280   -4.225560
  C    -12.564920   -5.947010   -4.908470
  N    -12.970160   -5.772420   -6.245570
  O    -13.852800   -6.496750   -6.665010
  O    -12.427540   -4.893750   -6.893930
  C    -12.976960   -7.023440   -4.071150
  C    -12.296400   -6.939550   -2.884350
  C    -11.476560   -5.781810   -2.901060
  C    -10.733230   -5.194370   -1.875560
  C    -10.692900   -3.794470   -1.608650
  C     -9.852540   -3.556470   -0.558830
  C     -9.281830   -4.794280   -0.145070
  N     -8.233000   -4.857350    0.773020
  O     -7.769570   -5.949630    1.084130
  O     -7.795310   -3.798620    1.202130
  C     -9.830620   -5.840720   -0.914170
  C     -9.421840   -7.181290   -0.863310
  C     -9.662190   -8.128740   -1.825690
  C     -9.340280   -9.494110   -1.821940
  N     -8.673350  -10.274600   -0.906630
  C     -8.104360   -9.889180    0.365590
  C     -9.171050   -9.772270    1.451110
  C     -8.602910  -11.620160   -1.316100
  O     -8.050160  -12.486630   -0.672230
  C     -9.296980  -11.655580   -2.590910
  C     -9.724860  -10.350950   -2.870190
  C    -10.467950  -10.364440   -4.114190
  O    -11.063400   -9.503100   -4.718530
  N    -10.411880  -11.716700   -4.525040
  C    -11.005590  -12.136750   -5.772590
  C     -9.956070  -12.317310   -6.865940
  C     -9.731600  -12.498880   -3.631310
  C     -9.582140  -13.897650   -3.774860
  C     -8.895240  -14.650750   -2.874950
  C     -8.733020  -16.071170   -2.899350
  C     -9.318920  -16.981800   -3.776330
  F    -10.141900  -16.554070   -4.749710
  C     -9.123030  -18.371250   -3.701380
  F     -9.817790  -19.119330   -4.572520
  C     -8.320470  -18.979430   -2.750030
  C     -7.725790  -18.093130   -1.829990
  C     -7.920890  -16.682150   -1.910720
  N     -7.218400  -16.128750   -0.916380
  N     -6.662560  -17.136590   -0.308350
  N     -6.912170  -18.323000   -0.787710
  C     -5.821550  -16.940250    0.831010
  C     -8.113850  -20.419600   -2.670640
  C     -8.153900  -21.088170   -1.460770
  N     -8.011970  -22.407810   -1.325080
  C     -7.827650  -23.147060   -2.383000
  C     -7.740650  -22.604070   -3.684460
  C     -7.858690  -21.194840   -3.831970
  N     -7.669670  -20.617700   -5.035820
  C     -7.464410  -21.404660   -6.052370
  C     -7.428820  -22.812920   -5.917210
  N     -7.535690  -23.394380   -4.756930
  H     -5.361050   -0.206760   -1.166690
  H     -4.853220   -5.054440   -0.256610
  H     -7.130100   -0.670260   -2.779910
  H     -6.632620   -5.559130   -1.927400
  H    -11.423370   -3.365750   -5.359920
  H    -13.688620   -7.771340   -4.362940
  H    -12.433790   -7.572720   -2.028400
  H    -11.312480   -3.069820   -2.102450
  H     -9.629290   -2.611680   -0.100890
  H     -8.821310   -7.423320    0.001180
  H    -10.133750   -7.816370   -2.747180
  H     -7.544040   -8.958990    0.256470
  H     -7.404160  -10.686290    0.632370
  H     -9.950490   -9.070360    1.164130
  H     -8.714180   -9.424550    2.372830
  H     -9.627960  -10.742660    1.630150
  H    -11.699190  -11.341140   -6.058340
  H    -11.570810  -13.059840   -5.619410
  H     -9.425040  -11.383030   -7.030400
  H    -10.442090  -12.607290   -7.792940
  H     -9.234770  -13.084760   -6.594320
  H    -10.051280  -14.351800   -4.633160
  H     -8.408580  -14.168420   -2.036060
  H     -5.812220  -15.876390    1.055920
  H     -4.812150  -17.289450    0.612100
  H     -6.209500  -17.505310    1.678390
  H     -8.323780  -20.544750   -0.542390
  H     -7.735150  -24.214300   -2.238860
  H     -7.305760  -20.929140   -7.010540
  H     -7.284830  -23.454960   -6.775180

 Total Charge           Charge          ....    0
 Multiplicity           Mult            ....    1
 Number of Electrons    NEL             ....  536
 Basis Dimension        Dim             .... 1242

ORBITAL ENERGIES
----------------

  NO   OCC          E(Eh)            E(eV)
   0   2.0000     -24.814801      -675.2451
   1   2.0000     -24.799588      -674.8311
   2   2.0000     -24.793633      -674.6691
   3   2.0000     -24.793258      -674.6589
   4   2.0000     -19.236539      -523.4528
   5   2.0000     -19.236093      -523.4407
   6   2.0000     -19.235635      -523.4282
   7   2.0000     -19.235097      -523.4136
   8   2.0000     -19.221169      -523.0346
   9   2.0000     -19.216817      -522.9162
  10   2.0000     -19.199371      -522.4414
  11   2.0000     -14.644881      -398.5075
  12   2.0000     -14.643734      -398.4763
  13   2.0000     -14.557023      -396.1167
  14   2.0000     -14.472638      -393.8205
  15   2.0000     -14.463192      -393.5635
  16   2.0000     -14.456564      -393.3831
  17   2.0000     -14.456265      -393.3750
  18   2.0000     -14.438989      -392.9049
  19   2.0000     -14.437353      -392.8604
  20   2.0000     -14.418330      -392.3427
  21   2.0000     -14.417812      -392.3286
  22   2.0000     -14.417673      -392.3248
  23   2.0000     -10.396527      -282.9039
  24   2.0000     -10.392647      -282.7983
  25   2.0000     -10.385544      -282.6050
  26   2.0000     -10.384535      -282.5776
  27   2.0000     -10.376997      -282.3724
  28   2.0000     -10.376250      -282.3521
  29   2.0000     -10.373861      -282.2871
  30   2.0000     -10.364033      -282.0197
  31   2.0000     -10.347725      -281.5759
  32   2.0000     -10.347436      -281.5680
  33   2.0000     -10.345452      -281.5141
  34   2.0000     -10.336330      -281.2658
  35   2.0000     -10.336287      -281.2647
  36   2.0000     -10.335144      -281.2336
  37   2.0000     -10.331474      -281.1337
  38   2.0000     -10.331347      -281.1302
  39   2.0000     -10.331269      -281.1281
  40   2.0000     -10.328972      -281.0656
  41   2.0000     -10.327162      -281.0164
  42   2.0000     -10.324436      -280.9422
  43   2.0000     -10.323523      -280.9173
  44   2.0000     -10.322941      -280.9015
  45   2.0000     -10.322537      -280.8905
  46   2.0000     -10.322221      -280.8819
  47   2.0000     -10.322015      -280.8763
  48   2.0000     -10.321876      -280.8725
  49   2.0000     -10.321076      -280.8508
  50   2.0000     -10.320547      -280.8364
  51   2.0000     -10.319967      -280.8206
  52   2.0000     -10.318983      -280.7938
  53   2.0000     -10.318776      -280.7882
  54   2.0000     -10.316665      -280.7307
  55   2.0000     -10.314541      -280.6729
  56   2.0000     -10.311346      -280.5860
  57   2.0000     -10.310621      -280.5663
  58   2.0000     -10.308544      -280.5097
  59   2.0000     -10.308248      -280.5017
  60   2.0000     -10.307711      -280.4871
  61   2.0000     -10.307661      -280.4857
  62   2.0000     -10.307190      -280.4729
  63   2.0000     -10.303803      -280.3807
  64   2.0000     -10.302854      -280.3549
  65   2.0000     -10.302639      -280.3491
  66   2.0000     -10.301812      -280.3266
  67   2.0000     -10.300341      -280.2865
  68   2.0000     -10.299578      -280.2658
  69   2.0000     -10.296208      -280.1741
  70   2.0000     -10.295638      -280.1586
  71   2.0000     -10.294404      -280.1250
  72   2.0000     -10.290941      -280.0308
  73   2.0000     -10.287245      -279.9302
  74   2.0000     -10.287094      -279.9261
  75   2.0000     -10.278758      -279.6992
  76   2.0000     -10.273542      -279.5573
  77   2.0000     -10.266035      -279.3530
  78   2.0000      -1.333073       -36.2748
  79   2.0000      -1.316828       -35.8327
  80   2.0000      -1.315851       -35.8061
  81   2.0000      -1.311780       -35.6954
  82   2.0000      -1.310311       -35.6554
  83   2.0000      -1.301893       -35.4263
  84   2.0000      -1.235582       -33.6219
  85   2.0000      -1.154360       -31.4117
  86   2.0000      -1.139722       -31.0134
  87   2.0000      -1.138779       -30.9878
  88   2.0000      -1.133845       -30.8535
  89   2.0000      -1.128054       -30.6959
  90   2.0000      -1.097121       -29.8542
  91   2.0000      -1.083044       -29.4711
  92   2.0000      -1.066581       -29.0232
  93   2.0000      -1.047400       -28.5012
  94   2.0000      -1.024287       -27.8723
  95   2.0000      -1.018801       -27.7230
  96   2.0000      -1.018253       -27.7081
  97   2.0000      -1.008561       -27.4443
  98   2.0000      -1.004394       -27.3310
  99   2.0000      -1.003812       -27.3151
 100   2.0000      -0.999179       -27.1891
 101   2.0000      -0.996219       -27.1085
 102   2.0000      -0.980879       -26.6911
 103   2.0000      -0.945160       -25.7191
 104   2.0000      -0.942399       -25.6440
 105   2.0000      -0.934247       -25.4222
 106   2.0000      -0.932663       -25.3790
 107   2.0000      -0.919358       -25.0170
 108   2.0000      -0.914484       -24.8844
 109   2.0000      -0.909344       -24.7445
 110   2.0000      -0.906252       -24.6604
 111   2.0000      -0.891459       -24.2578
 112   2.0000      -0.888205       -24.1693
 113   2.0000      -0.883226       -24.0338
 114   2.0000      -0.881616       -23.9900
 115   2.0000      -0.880326       -23.9549
 116   2.0000      -0.859845       -23.3976
 117   2.0000      -0.848401       -23.0862
 118   2.0000      -0.839189       -22.8355
 119   2.0000      -0.831376       -22.6229
 120   2.0000      -0.830749       -22.6058
 121   2.0000      -0.829929       -22.5835
 122   2.0000      -0.812561       -22.1109
 123   2.0000      -0.803817       -21.8730
 124   2.0000      -0.783543       -21.3213
 125   2.0000      -0.776170       -21.1206
 126   2.0000      -0.770957       -20.9788
 127   2.0000      -0.770416       -20.9641
 128   2.0000      -0.768593       -20.9145
 129   2.0000      -0.767999       -20.8983
 130   2.0000      -0.753752       -20.5106
 131   2.0000      -0.747989       -20.3538
 132   2.0000      -0.734204       -19.9787
 133   2.0000      -0.733384       -19.9564
 134   2.0000      -0.726362       -19.7653
 135   2.0000      -0.720679       -19.6107
 136   2.0000      -0.716706       -19.5026
 137   2.0000      -0.715822       -19.4785
 138   2.0000      -0.706374       -19.2214
 139   2.0000      -0.702612       -19.1190
 140   2.0000      -0.693833       -18.8802
 141   2.0000      -0.685759       -18.6605
 142   2.0000      -0.677036       -18.4231
 143   2.0000      -0.676017       -18.3954
 144   2.0000      -0.663960       -18.0673
 145   2.0000      -0.663569       -18.0566
 146   2.0000      -0.660014       -17.9599
 147   2.0000      -0.652271       -17.7492
 148   2.0000      -0.649642       -17.6776
 149   2.0000      -0.647880       -17.6297
 150   2.0000      -0.643020       -17.4975
 151   2.0000      -0.641210       -17.4482
 152   2.0000      -0.637107       -17.3366
 153   2.0000      -0.636005       -17.3066
 154   2.0000      -0.634141       -17.2559
 155   2.0000      -0.630262       -17.1503
 156   2.0000      -0.626499       -17.0479
 157   2.0000      -0.625875       -17.0309
 158   2.0000      -0.624685       -16.9985
 159   2.0000      -0.623339       -16.9619
 160   2.0000      -0.618703       -16.8358
 161   2.0000      -0.616478       -16.7752
 162   2.0000      -0.608840       -16.5674
 163   2.0000      -0.607079       -16.5194
 164   2.0000      -0.598672       -16.2907
 165   2.0000      -0.593284       -16.1441
 166   2.0000      -0.592639       -16.1265
 167   2.0000      -0.588842       -16.0232
 168   2.0000      -0.586313       -15.9544
 169   2.0000      -0.582105       -15.8399
 170   2.0000      -0.580234       -15.7890
 171   2.0000      -0.579619       -15.7722
 172   2.0000      -0.578853       -15.7514
 173   2.0000      -0.577060       -15.7026
 174   2.0000      -0.572955       -15.5909
 175   2.0000      -0.570585       -15.5264
 176   2.0000      -0.561015       -15.2660
 177   2.0000      -0.557534       -15.1713
 178   2.0000      -0.555019       -15.1028
 179   2.0000      -0.553673       -15.0662
 180   2.0000      -0.552129       -15.0242
 181   2.0000      -0.551145       -14.9974
 182   2.0000      -0.550973       -14.9927
 183   2.0000      -0.545979       -14.8568
 184   2.0000      -0.544963       -14.8292
 185   2.0000      -0.542631       -14.7657
 186   2.0000      -0.542386       -14.7591
 187   2.0000      -0.541716       -14.7408
 188   2.0000      -0.538108       -14.6427
 189   2.0000      -0.536037       -14.5863
 190   2.0000      -0.534805       -14.5528
 191   2.0000      -0.530956       -14.4480
 192   2.0000      -0.528954       -14.3936
 193   2.0000      -0.526707       -14.3324
 194   2.0000      -0.524234       -14.2651
 195   2.0000      -0.521121       -14.1804
 196   2.0000      -0.519935       -14.1482
 197   2.0000      -0.517831       -14.0909
 198   2.0000      -0.517024       -14.0689
 199   2.0000      -0.515665       -14.0320
 200   2.0000      -0.514099       -13.9893
 201   2.0000      -0.510674       -13.8961
 202   2.0000      -0.509607       -13.8671
 203   2.0000      -0.507075       -13.7982
 204   2.0000      -0.505946       -13.7675
 205   2.0000      -0.496488       -13.5101
 206   2.0000      -0.492701       -13.4071
 207   2.0000      -0.490943       -13.3592
 208   2.0000      -0.488898       -13.3036
 209   2.0000      -0.485356       -13.2072
 210   2.0000      -0.484153       -13.1745
 211   2.0000      -0.482592       -13.1320
 212   2.0000      -0.479202       -13.0397
 213   2.0000      -0.476559       -12.9678
 214   2.0000      -0.474302       -12.9064
 215   2.0000      -0.473598       -12.8873
 216   2.0000      -0.471247       -12.8233
 217   2.0000      -0.468029       -12.7357
 218   2.0000      -0.467431       -12.7194
 219   2.0000      -0.463533       -12.6134
 220   2.0000      -0.462264       -12.5788
 221   2.0000      -0.460376       -12.5275
 222   2.0000      -0.457474       -12.4485
 223   2.0000      -0.452115       -12.3027
 224   2.0000      -0.450773       -12.2662
 225   2.0000      -0.449561       -12.2332
 226   2.0000      -0.447049       -12.1648
 227   2.0000      -0.444998       -12.1090
 228   2.0000      -0.444357       -12.0916
 229   2.0000      -0.441137       -12.0040
 230   2.0000      -0.439019       -11.9463
 231   2.0000      -0.432461       -11.7679
 232   2.0000      -0.431432       -11.7398
 233   2.0000      -0.429608       -11.6902
 234   2.0000      -0.427534       -11.6338
 235   2.0000      -0.423911       -11.5352
 236   2.0000      -0.416742       -11.3401
 237   2.0000      -0.411915       -11.2088
 238   2.0000      -0.410194       -11.1619
 239   2.0000      -0.400749       -10.9049
 240   2.0000      -0.399816       -10.8795
 241   2.0000      -0.390219       -10.6184
 242   2.0000      -0.387975       -10.5573
 243   2.0000      -0.384439       -10.4611
 244   2.0000      -0.382505       -10.4085
 245   2.0000      -0.377791       -10.2802
 246   2.0000      -0.374503       -10.1907
 247   2.0000      -0.373931       -10.1752
 248   2.0000      -0.369531       -10.0554
 249   2.0000      -0.367083        -9.9888
 250   2.0000      -0.364274        -9.9124
 251   2.0000      -0.360926        -9.8213
 252   2.0000      -0.359927        -9.7941
 253   2.0000      -0.350300        -9.5321
 254   2.0000      -0.348153        -9.4737
 255   2.0000      -0.346081        -9.4173
 256   2.0000      -0.342788        -9.3277
 257   2.0000      -0.338613        -9.2141
 258   2.0000      -0.333018        -9.0619
 259   2.0000      -0.332349        -9.0437
 260   2.0000      -0.330933        -9.0051
 261   2.0000      -0.329222        -8.9586
 262   2.0000      -0.313192        -8.5224
 263   2.0000      -0.310134        -8.4392
 264   2.0000      -0.299975        -8.1627
 265   2.0000      -0.297632        -8.0990
 266   2.0000      -0.283652        -7.7186
 267   2.0000      -0.240675        -6.5491
 268   0.0000      -0.148428        -4.0389
 269   0.0000      -0.105464        -2.8698
 270   0.0000      -0.089456        -2.4342
 271   0.0000      -0.064858        -1.7649
 272   0.0000      -0.061602        -1.6763

MULLIKEN ATOMIC CHARGES
-----------------------
   0 C :   -0.109581
   1 C :    0.243207
   2 F :   -0.170381
   3 C :    0.246860
   4 F :   -0.169641
   5 C :   -0.089429
   6 C :    0.102814
   7 C :    0.129708
   8 C :   -0.102114
   9 C :    0.072812
  10 C :   -0.004871
  11 C :   -0.072832
  12 C :    0.154139
  13 O :   -0.139692
  14 C :   -0.152749
  15 C :    0.322354
  16 C :   -0.343156
  17 C :   -0.191833
  18 N :    0.168279
  19 C :   -0.186150
  20 N :    0.155608
  21 C :   -0.003642
  22 C :    0.022249
  23 C :    0.108372
  24 N :    0.270971
  25 O :   -0.241946
  26 O :   -0.243761
  27 C :    0.045074
  28 C :   -0.004526
  29 C :    0.046680
  30 C :   -0.036249
  31 C :    0.031026
  32 C :    0.033968
  33 C :    0.048011
  34 N :    0.274468
  35 O :   -0.274650
  36 O :   -0.256966
  37 C :    0.085349
  38 C :   -0.058977
  39 C :   -0.044767
  40 C :    0.126062
  41 N :   -0.261445
  42 C :    0.096703
  43 C :    0.007658
  44 C :    0.157582
  45 O :   -0.199724
  46 C :   -0.068321
  47 C :   -0.034762
  48 C :    0.160011
  49 O :   -0.162894
  50 N :   -0.261988
  51 C :    0.092023
  52 C :    0.003906
  53 C :    0.157230
  54 C :   -0.014632
  55 C :   -0.026992
  56 C :    0.024589
  57 C :    0.157109
  58 F :   -0.172776
  59 C :    0.187953
  60 F :   -0.167738
  61 C :   -0.021043
  62 C :   -0.007232
  63 C :   -0.043796
  64 N :   -0.036414
  65 N :   -0.071938
  66 N :   -0.050556
  67 C :    0.144254
  68 C :   -0.023240
  69 C :    0.018319
  70 N :   -0.036262
  71 C :    0.023412
  72 C :   -0.067240
  73 C :    0.005842
  74 N :   -0.009746
  75 C :    0.037091
  76 C :    0.021594
  77 N :   -0.011346
  78 H :    0.004992
  79 H :   -0.000490
  80 H :   -0.005703
  81 H :   -0.010618
  82 H :    0.052412
  83 H :    0.001617
  84 H :   -0.006111
  85 H :   -0.006132
  86 H :    0.001907
  87 H :    0.012002
  88 H :    0.060488
  89 H :    0.039484
  90 H :    0.041093
  91 H :    0.017995
  92 H :    0.029697
  93 H :    0.022707
  94 H :    0.049096
  95 H :    0.032011
  96 H :    0.031677
  97 H :    0.030084
  98 H :    0.019147
  99 H :   -0.010785
 100 H :    0.034314
 101 H :    0.064742
 102 H :    0.056578
 103 H :    0.055555
 104 H :    0.006078
 105 H :    0.002434
 106 H :    0.018514
 107 H :    0.019923
Sum of atomic charges:   -0.0000000

LOEWDIN ATOMIC CHARGES
----------------------
   0 C :   -0.030244
   1 C :    0.071119
   2 F :   -0.047769
   3 C :    0.072772
   4 F :   -0.046384
   5 C :   -0.025810
   6 C :   -0.008342
   7 C :   -0.002752
   8 C :    0.018001
   9 C :   -0.022197
  10 C :   -0.052955
  11 C :    0.026256
  12 C :    0.080311
  13 O :   -0.143268
  14 C :   -0.064796
  15 C :    0.071560
  16 C :   -0.129609
  17 C :   -0.024138
  18 N :   -0.035689
  19 C :   -0.018247
  20 N :   -0.047282
  21 C :    0.072339
  22 C :   -0.007630
  23 C :   -0.024484
  24 N :    0.285853
  25 O :   -0.205624
  26 O :   -0.206149
  27 C :    0.032303
  28 C :   -0.030245
  29 C :    0.043748
  30 C :    0.056598
  31 C :   -0.052167
  32 C :    0.022588
  33 C :   -0.075895
  34 N :    0.288827
  35 O :   -0.242077
  36 O :   -0.224179
  37 C :    0.008969
  38 C :   -0.012368
  39 C :    0.009697
  40 C :    0.053789
  41 N :   -0.000612
  42 C :    0.036855
  43 C :   -0.060689
  44 C :    0.078384
  45 O :   -0.193334
  46 C :   -0.125061
  47 C :   -0.076493
  48 C :    0.088553
  49 O :   -0.162859
  50 N :    0.001502
  51 C :    0.036904
  52 C :   -0.059051
  53 C :    0.101870
  54 C :   -0.052349
  55 C :    0.061216
  56 C :   -0.065735
  57 C :    0.082639
  58 F :   -0.044014
  59 C :    0.067890
  60 F :   -0.044849
  61 C :   -0.028497
  62 C :   -0.048356
  63 C :   -0.046582
  64 N :   -0.075241
  65 N :    0.160518
  66 N :   -0.091321
  67 C :    0.034908
  68 C :   -0.041885
  69 C :    0.042698
  70 N :   -0.059700
  71 C :    0.044544
  72 C :   -0.038857
  73 C :    0.007090
  74 N :   -0.038299
  75 C :    0.020684
  76 C :    0.005452
  77 N :   -0.027266
  78 H :    0.046739
  79 H :    0.045357
  80 H :    0.039799
  81 H :    0.038392
  82 H :    0.053324
  83 H :    0.039881
  84 H :    0.031342
  85 H :    0.030613
  86 H :    0.038521
  87 H :    0.033016
  88 H :    0.049262
  89 H :    0.027414
  90 H :    0.036964
  91 H :    0.021571
  92 H :    0.034874
  93 H :    0.029942
  94 H :    0.039510
  95 H :    0.026561
  96 H :    0.033293
  97 H :    0.034025
  98 H :    0.023390
  99 H :    0.028096
 100 H :    0.046092
 101 H :    0.047363
 102 H :    0.042839
 103 H :    0.042705
 104 H :    0.026064
 105 H :    0.029546
 106 H :    0.029504
 107 H :    0.028911

  Mayer bond orders larger than 0.100000
B(  0-C ,  1-C ) :   1.4426 B(  0-C ,  5-C ) :   0.1078 B(  0-C ,  7-C ) :   1.1885
B(  0-C , 78-H ) :   1.0057 B(  1-C ,  2-F ) :   1.1358 B(  1-C ,  3-C ) :   1.1901
B(  3-C ,  4-F ) :   1.1362 B(  3-C ,  5-C ) :   1.4417 B(  5-C ,  6-C ) :   1.1939
B(  5-C , 79-H ) :   1.0063 B(  6-C ,  7-C ) :   1.2534 B(  6-C , 11-C ) :   1.2019
B(  7-C ,  8-C ) :   1.2204 B(  8-C ,  9-C ) :   1.4371 B(  8-C , 80-H ) :   0.9916
B(  9-C , 10-C ) :   1.2234 B(  9-C , 15-C ) :   0.9864 B( 10-C , 11-C ) :   1.4567
B( 10-C , 12-C ) :   0.9344 B( 11-C , 81-H ) :   1.0172 B( 12-C , 13-O ) :   2.2055
B( 12-C , 14-C ) :   0.9291 B( 14-C , 15-C ) :   1.0621 B( 14-C , 21-C ) :   1.5522
B( 15-C , 16-C ) :   1.6445 B( 16-C , 17-C ) :   1.1432 B( 16-C , 19-C ) :   1.1409
B( 17-C , 18-N ) :   2.9705 B( 19-C , 20-N ) :   2.9711 B( 21-C , 22-C ) :   1.1930
B( 21-C , 82-H ) :   0.9226 B( 22-C , 23-C ) :   1.4600 B( 22-C , 29-C ) :   1.0506
B( 23-C , 24-N ) :   0.9354 B( 23-C , 27-C ) :   1.1921 B( 24-N , 25-O ) :   1.5322
B( 24-N , 26-O ) :   1.5006 B( 25-O , 26-O ) :   0.2681 B( 27-C , 28-C ) :   1.4678
B( 27-C , 83-H ) :   1.0096 B( 28-C , 29-C ) :   1.2183 B( 28-C , 84-H ) :   1.0150
B( 29-C , 30-C ) :   1.3509 B( 30-C , 31-C ) :   1.1993 B( 30-C , 37-C ) :   1.0298
B( 31-C , 32-C ) :   1.4971 B( 31-C , 85-H ) :   0.9969 B( 32-C , 33-C ) :   1.1610
B( 32-C , 86-H ) :   1.0153 B( 33-C , 34-N ) :   0.9845 B( 33-C , 37-C ) :   1.3877
B( 34-N , 35-O ) :   1.4621 B( 34-N , 36-O ) :   1.5148 B( 35-O , 36-O ) :   0.2329
B( 37-C , 38-C ) :   1.2707 B( 38-C , 39-C ) :   1.3913 B( 38-C , 87-H ) :   0.9451
B( 39-C , 40-C ) :   1.2650 B( 39-C , 88-H ) :   0.9294 B( 40-C , 41-N ) :   1.1581
B( 40-C , 47-C ) :   1.2793 B( 41-N , 42-C ) :   0.9336 B( 41-N , 44-C ) :   1.0673
B( 42-C , 43-C ) :   1.1204 B( 42-C , 89-H ) :   0.9509 B( 42-C , 90-H ) :   0.9239
B( 43-C , 91-H ) :   0.9678 B( 43-C , 92-H ) :   0.9680 B( 43-C , 93-H ) :   0.9613
B( 44-C , 45-O ) :   2.0420 B( 44-C , 46-C ) :   0.9817 B( 45-O ,100-H ) :   0.1034
B( 46-C , 47-C ) :   1.3126 B( 46-C , 53-C ) :   1.2540 B( 47-C , 48-C ) :   0.9636
B( 48-C , 49-O ) :   2.1244 B( 48-C , 50-N ) :   1.0262 B( 50-N , 51-C ) :   0.9365
B( 50-N , 53-C ) :   1.1925 B( 51-C , 52-C ) :   1.1226 B( 51-C , 94-H ) :   0.9279
B( 51-C , 95-H ) :   0.9488 B( 52-C , 96-H ) :   0.9636 B( 52-C , 97-H ) :   0.9680
B( 52-C , 98-H ) :   0.9684 B( 53-C , 54-C ) :   1.1785 B( 54-C , 55-C ) :   1.5288
B( 54-C , 99-H ) :   0.9604 B( 55-C , 56-C ) :   1.1587 B( 55-C ,100-H ) :   0.9596
B( 56-C , 57-C ) :   1.3247 B( 56-C , 61-C ) :   0.1275 B( 56-C , 63-C ) :   1.1487
B( 57-C , 58-F ) :   1.1206 B( 57-C , 59-C ) :   1.1790 B( 59-C , 60-F ) :   1.1627
B( 59-C , 61-C ) :   1.4270 B( 61-C , 62-C ) :   1.2284 B( 61-C , 68-C ) :   0.9360
B( 62-C , 63-C ) :   1.2075 B( 62-C , 66-N ) :   1.4807 B( 63-C , 64-N ) :   1.5038
B( 64-N , 65-N ) :   1.2373 B( 64-N , 66-N ) :   0.1601 B( 65-N , 66-N ) :   1.2180
B( 65-N , 67-C ) :   0.9490 B( 67-C ,101-H ) :   0.9657 B( 67-C ,102-H ) :   0.9695
B( 67-C ,103-H ) :   0.9694 B( 68-C , 69-C ) :   1.4891 B( 68-C , 71-C ) :   0.1055
B( 68-C , 73-C ) :   1.2617 B( 69-C , 70-N ) :   1.4368 B( 69-C ,104-H ) :   0.9816
B( 70-N , 71-C ) :   1.6772 B( 71-C , 72-C ) :   1.2222 B( 71-C ,105-H ) :   0.9815
B( 72-C , 73-C ) :   1.2649 B( 72-C , 77-N ) :   1.4087 B( 73-C , 74-N ) :   1.4356
B( 74-N , 75-C ) :   1.6753 B( 75-C , 76-C ) :   1.2102 B( 75-C ,106-H ) :   0.9736
B( 76-C , 77-N ) :   1.6880 B( 76-C ,107-H ) :   0.9742

-----------------------------------------------------------------------------
         ABSORPTION SPECTRUM VIA TRANSITION ELECTRIC DIPOLE MOMENTS
-----------------------------------------------------------------------------
State   Energy  Wavelength   fosc         T2         TX        TY        TZ
        (cm-1)    (nm)                  (au**2)     (au)      (au)      (au)
-----------------------------------------------------------------------------
   0    3253.3   3073.8   0.086307070   8.73371   0.33812  -2.93568   0.03460
   1   11173.0    895.0   0.044675450   1.31636   0.47834  -0.83625  -0.62309
   2   13671.1    731.5   0.298013572   7.17641   0.18750  -2.37795  -1.21927
   3   15623.7    640.1   0.040054022   0.84399   0.21861   0.88014  -0.14682
   4   16668.8    599.9   0.008773203   0.17327  -0.09418   0.40544  -0.00438
   5   17147.3    583.2   0.237701377   4.56365  -0.21662  -2.09132  -0.37829
   6   19148.5    522.2   0.052909984   0.90966  -0.49401  -0.25116  -0.77623
   7   20109.3    497.3   0.022362899   0.36611  -0.16703  -0.10539  -0.57193
   8   20905.6    478.3   0.327221908   5.15295  -0.30873   2.24389  -0.15029
   9   21524.3    464.6   0.033203198   0.50784  -0.43838   0.01308   0.56169
  10   22249.4    449.4   0.027634133   0.40889  -0.18863  -0.57690   0.20123
  11   22450.9    445.4   0.021350841   0.31308   0.11251   0.54548   0.05359
  12   22696.6    440.6   0.120306688   1.74503   0.81341   0.93228   0.46286
  13   24023.5    416.3   0.003894692   0.05337  -0.20340  -0.04914  -0.09791
  14   24797.6    403.3   0.047337166   0.62845   0.65839  -0.15023   0.41522
  15   24978.1    400.4   0.131414574   1.73205  -0.15235   0.69751  -1.10559
  16   25673.3    389.5   0.003553917   0.04557   0.14504   0.15502  -0.02248
  17   26144.5    382.5   0.030776629   0.38754  -0.54721  -0.18259  -0.23401
  18   26212.8    381.5   0.063076454   0.79219  -0.65807  -0.36622  -0.47436
  19   26655.4    375.2   0.086193594   1.06455  -0.59093  -0.68649  -0.49405
  20   27568.0    362.7   0.384531602   4.59201  -1.32660  -1.27019  -1.10397
  21   27836.3    359.2   0.275245502   3.25525  -0.50385   1.68919  -0.38471
  22   27951.9    357.8   0.055090503   0.64884   0.44506  -0.56577   0.36149
  23   28245.2    354.0   0.179152559   2.08812  -0.09729  -1.44037   0.06314
  24   28571.0    350.0   0.048164454   0.55498   0.34058   0.44664   0.48938
  25   28683.7    348.6   0.044290373   0.50834   0.12740   0.68092   0.16869
  26   28996.9    344.9   0.019298852   0.21911   0.18311  -0.35522   0.24372
  27   29183.7    342.7   0.112010445   1.26355   0.88278   0.49056   0.49356
  28   29780.1    335.8   0.016058276   0.17752  -0.32495   0.24914   0.09930
  29   30034.0    333.0   0.042522434   0.46610   0.49382   0.38571   0.27107
  30   30146.6    331.7   0.053836697   0.58792  -0.59428  -0.22350  -0.42988
  31   30413.7    328.8   0.040717688   0.44075  -0.30791  -0.40421  -0.42726
  32   30516.0    327.7   0.001926980   0.02079   0.05641  -0.10035  -0.08682
  33   30584.6    327.0   0.119036435   1.28131   0.78479  -0.41550   0.70197
  34   30814.6    324.5   0.113136296   1.20871   0.81429  -0.61681   0.40643
  35   31161.7    320.9   0.012856060   0.13582   0.15605  -0.11439  -0.31366
  36   31338.0    319.1   0.082363215   0.86524   0.48052   0.00510   0.79644
  37   31539.7    317.1   0.116227785   1.21319  -0.31506   1.04968  -0.10996
  38   31623.0    316.2   0.118080977   1.22929  -0.42628  -0.93629  -0.41343
  39   31710.3    315.4   0.004487251   0.04659   0.13246  -0.01052   0.17009
  40   31984.6    312.7   0.055826902   0.57462   0.59032  -0.08061   0.46866
  41   32126.3    311.3   0.005780733   0.05924  -0.05054   0.15612  -0.17975
  42   32439.2    308.3   0.003882627   0.03940  -0.17201  -0.07957   0.05903
  43   32902.5    303.9   0.226087996   2.26216  -1.22585  -0.03807  -0.87063
  44   33331.9    300.0   0.014714317   0.14533  -0.29290   0.02572  -0.24265
  45   33733.0    296.4   0.073626310   0.71855  -0.35280   0.37740  -0.67205
  46   34312.1    291.4   0.039431595   0.37833   0.40919   0.31266   0.33637
  47   34387.2    290.8   0.120026434   1.14909   0.71759  -0.54363   0.58191
  48   34620.6    288.8   0.020485712   0.19480   0.12409   0.42254   0.02938
  49   34806.1    287.3   0.026081775   0.24669  -0.19734   0.45128   0.06400
  50   34969.7    286.0   0.004458951   0.04198  -0.19351   0.03183  -0.05933
  51   34996.7    285.7   0.038111572   0.35851  -0.20825   0.25633  -0.49944
  52   35134.3    284.6   0.055651200   0.52146  -0.29161  -0.52247  -0.40428
  53   35334.0    283.0   0.072866137   0.67890   0.36784   0.72397   0.13953
  54   35525.9    281.5   0.139407006   1.29186   0.92155  -0.08775   0.65947
  55   35641.3    280.6   0.026367673   0.24355   0.22470   0.40797   0.16316
  56   35705.3    280.1   0.029326998   0.27040   0.34459  -0.26444   0.28588
  57   36007.4    277.7   0.117571844   1.07495  -0.72582   0.10913  -0.73227
  58   36433.6    274.5   0.033480244   0.30253   0.28500   0.46002   0.09842
  59   36516.6    273.8   0.029549947   0.26640  -0.37145   0.22444  -0.27939
  60   36583.5    273.3   0.131314212   1.18169   0.43524  -0.78536   0.61275
  61   36862.9    271.3   0.044466721   0.39712   0.50009   0.00890   0.38334
  62   37043.9    270.0   0.080199117   0.71274  -0.66510  -0.38716  -0.34711
  63   37311.2    268.0   0.049058710   0.43286  -0.14792   0.55124   0.32729
  64   37472.8    266.9   0.079836926   0.70140   0.25624   0.33805   0.72212
  65   37554.8    266.3   0.170343386   1.49326   0.82725   0.67485   0.59456
  66   37890.0    263.9   0.072111829   0.62655   0.21802   0.64488   0.40392
  67   38216.1    261.7   0.002137093   0.01841  -0.09069   0.00431   0.10083
  68   38240.7    261.5   0.063728732   0.54864   0.33744   0.48544   0.44623
  69   38368.4    260.6   0.005995703   0.05144   0.13646   0.15132   0.09963
  70   38394.6    260.5   0.046565406   0.39927  -0.43248  -0.36546  -0.28049
  71   39302.3    254.4   0.064548747   0.54069  -0.11081   0.64202  -0.34091
  72   39609.2    252.5   0.058437490   0.48570  -0.55819   0.08080  -0.40939
  73   39636.8    252.3   0.017120879   0.14220  -0.03821   0.15256   0.34274
  74   39976.8    250.1   0.045538053   0.37501   0.03001   0.08353   0.60591
  75   40146.9    249.1   0.012828683   0.10520   0.06841  -0.30267  -0.09437

FINAL SINGLE POINT ENERGY     -3692.033626801072

DIPOLE MOMENT
-------------
                                X             Y             Z
Electronic contribution:      9.31772      25.83665      -6.33851
Nuclear contribution   :     -8.39869     -30.84982       7.41847
                        -----------------------------------------
Total Dipole Moment    :      0.91904      -5.01316       1.07996
                        -----------------------------------------
Magnitude (a.u.)       :      5.20987
Magnitude (Debye)      :     13.24244

Rotational constants in cm-1:     0.001654     0.000318     0.000283
Rotational constants in MHz :    49.598800     9.524549     8.488127

                             ****ORCA TERMINATED NORMALLY****
TOTAL RUN TIME: 0 days 0 hours 16 minutes 5 seconds 303 msec
