                         Program Version 4.2.0 -  RELEASE  -
|  1> # ORCA input file
|  2> # SCF done       -194.380327807905          0.000994489706
|  3> ! CAM-B3LYP def2-SVP def2/J RIJCOSX Grid4 TightSCF
|  4> %maxcore 5000
|  5> %tddft
|  6>     Mode sTDDFT
|  7>     Ethresh 5.0
|  8>     maxcore 5000
|  9> end
| 10>
| 11> %pal
| 12>   nprocs 6
| 13>   end
| 14> * xyz 0 1
| 15>    C       -6.88286         1.83681         5.86150
| 16>    C       -5.94043         2.21545         6.77505
| 17>    F       -6.09841         3.34683         7.47723
| 18>    C       -4.79341         1.42594         6.99175
| 19>    F       -3.88518         1.82337         7.89477
| 20>    C       -4.60437         0.26864         6.29039
| 21>    C       -5.55702        -0.14892         5.34056
| 22>    C       -6.71836         0.64793         5.12146
| 23>    C       -7.69026         0.24668         4.17793
| 24>    C       -7.50744        -0.91791         3.47836
| 25>    C       -6.34375        -1.70658         3.70352
| 26>    C       -5.38533        -1.34088         4.60237
| 27>    C       -6.38872        -2.89658         2.83194
| 28>    O       -5.47877        -3.63732         2.54340
| 29>    C       -7.76104        -2.88348         2.23701
| 30>    C       -8.34570        -1.58006         2.48374
| 31>    C       -9.46454        -1.05902         1.89094
| 32>    C      -10.20050        -1.71577         0.88260
| 33>    N      -10.82239        -2.20183         0.04871
| 34>    C       -9.98870         0.21878         2.17619
| 35>    N      -10.45701         1.24924         2.36733
| 36>    C       -8.33489        -3.97045         1.66970
| 37>    C       -7.77696        -5.28573         1.71473
| 38>    C       -7.21524        -5.96258         2.79603
| 39>    N       -7.06040        -5.54205         4.12217
| 40>    O       -7.40526        -4.40867         4.44419
| 41>    O       -6.60961        -6.34891         4.91786
| 42>    C       -6.91259        -7.30841         2.39725
| 43>    C       -7.31152        -7.48115         1.11022
| 44>    C       -7.87419        -6.25109         0.63011
| 45>    C       -8.31378        -5.96195        -0.65596
| 46>    C       -8.31642        -4.69165        -1.27330
| 47>    C       -8.59988        -4.85042        -2.60475
| 48>    C       -8.83864        -6.22411        -2.88929
| 49>    N       -9.05347        -6.63021        -4.19765
| 50>    O       -9.00233        -7.82946        -4.49199
| 51>    O       -9.24961        -5.76870        -5.04420
| 52>    C       -8.74915        -6.95160        -1.67309
| 53>    C       -9.18016        -8.21258        -1.27656
| 54>    C       -9.65839        -9.23426        -2.08040
| 55>    C      -10.02704       -10.49065        -1.60455
| 56>    C      -10.30119       -10.85353        -0.27818
| 57>    C      -10.73040       -12.18351        -0.22040
| 58>    O      -11.03958       -12.70394         0.97382
| 59>    C      -11.65376       -13.96607         1.09975
| 60>    C      -10.69102       -12.73531        -1.53250
| 61>    C      -10.33200       -11.66202        -2.42774
| 62>    C      -10.39252       -11.70536        -3.80783
| 63>    C       -9.74016       -10.88597        -4.75864
| 64>    C      -10.21670       -11.21460        -6.00768
| 65>    O       -9.92554       -10.71919        -7.19100
| 66>    C       -9.00439        -9.64080        -7.25082
| 67>    C      -11.22417       -12.27578        -5.86683
| 68>    C      -11.30901       -12.59265        -4.56954
| 69>    C      -10.70356       -14.10721        -1.90158
| 70>    C      -10.02202       -14.60607        -2.96655
| 71>    C       -9.96577       -15.98114        -3.36287
| 72>    C      -10.72130       -17.01422        -2.77881
| 73>    N      -10.61837       -18.27603        -3.10570
| 74>    C       -9.75539       -18.65012        -4.06159
| 75>    C       -8.98825       -17.69379        -4.74777
| 76>    C       -9.09502       -16.37090        -4.39574
| 77>    C       -9.68923       -20.07237        -4.29130
| 78>    C       -8.85361       -20.69645        -5.14128
| 79>    C       -8.75012       -22.12091        -5.34403
| 80>    C       -9.51971       -23.07418        -4.65780
| 81>    N       -9.41313       -24.36874        -4.82782
| 82>    C       -8.52510       -24.84552        -5.70494
| 83>    C       -7.70871       -23.98600        -6.45007
| 84>    C       -7.82334       -22.62613        -6.26628
| 85>    C       -8.42762       -26.28821        -5.86238
| 86>    C       -9.16605       -27.14915        -5.17039
| 87>    H       -7.75529         2.45261         5.70829
| 88>    H       -3.72196        -0.32563         6.46850
| 89>    H       -8.56261         0.86534         4.03950
| 90>    H       -4.51453        -1.95897         4.75760
| 91>    H       -9.29312        -3.88250         1.17214
| 92>    H       -6.44350        -8.02486         3.04383
| 93>    H       -7.13393        -8.35289         0.51045
| 94>    H       -8.02376        -3.77363        -0.80297
| 95>    H       -8.62092        -4.08219        -3.35531
| 96>    H       -9.12815        -8.40378        -0.21466
| 97>    H       -9.70898        -9.06324        -3.14162
| 98>    H      -10.24231       -10.21786         0.58422
| 99>    H      -11.96622       -14.03252         2.14153
|100>    H      -10.94859       -14.77587         0.88957
|101>    H      -12.53296       -14.05089         0.45567
|102>    H       -8.95378       -10.18925        -4.55767
|103>    H       -9.07676        -9.23417        -8.25705
|104>    H       -7.98821       -10.00038        -7.07067
|105>    H       -9.24310        -8.87322        -6.51109
|106>    H      -11.77976       -12.67600        -6.69229
|107>    H      -11.99430       -13.27963        -4.11407
|108>    H      -11.21357       -14.80366        -1.25497
|109>    H       -9.40383       -13.93485        -3.54831
|110>    H      -11.44594       -16.80527        -2.00204
|111>    H       -8.32079       -17.99071        -5.54062
|112>    H       -8.50777       -15.61874        -4.90449
|113>    H      -10.37886       -20.63644        -3.68052
|114>    H       -8.16729       -20.11104        -5.74125
|115>    H      -10.25952       -22.76983        -3.92973
|116>    H       -6.99864       -24.39059        -7.15578
|117>    H       -7.20024       -21.94390        -6.82907
|118>    H       -7.70263       -26.63180        -6.58868
|119>    H       -9.88267       -26.79303        -4.45061
|120>    H       -9.07583       -28.21344        -5.30226
|121> *
|122>
|123>                          ****END OF INPUT****

CARTESIAN COORDINATES (ANGSTROEM)
---------------------------------
  C     -6.882860    1.836810    5.861500
  C     -5.940430    2.215450    6.775050
  F     -6.098410    3.346830    7.477230
  C     -4.793410    1.425940    6.991750
  F     -3.885180    1.823370    7.894770
  C     -4.604370    0.268640    6.290390
  C     -5.557020   -0.148920    5.340560
  C     -6.718360    0.647930    5.121460
  C     -7.690260    0.246680    4.177930
  C     -7.507440   -0.917910    3.478360
  C     -6.343750   -1.706580    3.703520
  C     -5.385330   -1.340880    4.602370
  C     -6.388720   -2.896580    2.831940
  O     -5.478770   -3.637320    2.543400
  C     -7.761040   -2.883480    2.237010
  C     -8.345700   -1.580060    2.483740
  C     -9.464540   -1.059020    1.890940
  C    -10.200500   -1.715770    0.882600
  N    -10.822390   -2.201830    0.048710
  C     -9.988700    0.218780    2.176190
  N    -10.457010    1.249240    2.367330
  C     -8.334890   -3.970450    1.669700
  C     -7.776960   -5.285730    1.714730
  C     -7.215240   -5.962580    2.796030
  N     -7.060400   -5.542050    4.122170
  O     -7.405260   -4.408670    4.444190
  O     -6.609610   -6.348910    4.917860
  C     -6.912590   -7.308410    2.397250
  C     -7.311520   -7.481150    1.110220
  C     -7.874190   -6.251090    0.630110
  C     -8.313780   -5.961950   -0.655960
  C     -8.316420   -4.691650   -1.273300
  C     -8.599880   -4.850420   -2.604750
  C     -8.838640   -6.224110   -2.889290
  N     -9.053470   -6.630210   -4.197650
  O     -9.002330   -7.829460   -4.491990
  O     -9.249610   -5.768700   -5.044200
  C     -8.749150   -6.951600   -1.673090
  C     -9.180160   -8.212580   -1.276560
  C     -9.658390   -9.234260   -2.080400
  C    -10.027040  -10.490650   -1.604550
  C    -10.301190  -10.853530   -0.278180
  C    -10.730400  -12.183510   -0.220400
  O    -11.039580  -12.703940    0.973820
  C    -11.653760  -13.966070    1.099750
  C    -10.691020  -12.735310   -1.532500
  C    -10.332000  -11.662020   -2.427740
  C    -10.392520  -11.705360   -3.807830
  C     -9.740160  -10.885970   -4.758640
  C    -10.216700  -11.214600   -6.007680
  O     -9.925540  -10.719190   -7.191000
  C     -9.004390   -9.640800   -7.250820
  C    -11.224170  -12.275780   -5.866830
  C    -11.309010  -12.592650   -4.569540
  C    -10.703560  -14.107210   -1.901580
  C    -10.022020  -14.606070   -2.966550
  C     -9.965770  -15.981140   -3.362870
  C    -10.721300  -17.014220   -2.778810
  N    -10.618370  -18.276030   -3.105700
  C     -9.755390  -18.650120   -4.061590
  C     -8.988250  -17.693790   -4.747770
  C     -9.095020  -16.370900   -4.395740
  C     -9.689230  -20.072370   -4.291300
  C     -8.853610  -20.696450   -5.141280
  C     -8.750120  -22.120910   -5.344030
  C     -9.519710  -23.074180   -4.657800
  N     -9.413130  -24.368740   -4.827820
  C     -8.525100  -24.845520   -5.704940
  C     -7.708710  -23.986000   -6.450070
  C     -7.823340  -22.626130   -6.266280
  C     -8.427620  -26.288210   -5.862380
  C     -9.166050  -27.149150   -5.170390
  H     -7.755290    2.452610    5.708290
  H     -3.721960   -0.325630    6.468500
  H     -8.562610    0.865340    4.039500
  H     -4.514530   -1.958970    4.757600
  H     -9.293120   -3.882500    1.172140
  H     -6.443500   -8.024860    3.043830
  H     -7.133930   -8.352890    0.510450
  H     -8.023760   -3.773630   -0.802970
  H     -8.620920   -4.082190   -3.355310
  H     -9.128150   -8.403780   -0.214660
  H     -9.708980   -9.063240   -3.141620
  H    -10.242310  -10.217860    0.584220
  H    -11.966220  -14.032520    2.141530
  H    -10.948590  -14.775870    0.889570
  H    -12.532960  -14.050890    0.455670
  H     -8.953780  -10.189250   -4.557670
  H     -9.076760   -9.234170   -8.257050
  H     -7.988210  -10.000380   -7.070670
  H     -9.243100   -8.873220   -6.511090
  H    -11.779760  -12.676000   -6.692290
  H    -11.994300  -13.279630   -4.114070
  H    -11.213570  -14.803660   -1.254970
  H     -9.403830  -13.934850   -3.548310
  H    -11.445940  -16.805270   -2.002040
  H     -8.320790  -17.990710   -5.540620
  H     -8.507770  -15.618740   -4.904490
  H    -10.378860  -20.636440   -3.680520
  H     -8.167290  -20.111040   -5.741250
  H    -10.259520  -22.769830   -3.929730
  H     -6.998640  -24.390590   -7.155780
  H     -7.200240  -21.943900   -6.829070
  H     -7.702630  -26.631800   -6.588680
  H     -9.882670  -26.793030   -4.450610
  H     -9.075830  -28.213440   -5.302260

 Total Charge           Charge          ....    0
 Multiplicity           Mult            ....    1
 Number of Electrons    NEL             ....  492
 Basis Dimension        Dim             .... 1178

ORBITAL ENERGIES
----------------

  NO   OCC          E(Eh)            E(eV)
   0   2.0000     -24.790209      -674.5759
   1   2.0000     -24.789229      -674.5492
   2   2.0000     -19.287654      -524.8438
   3   2.0000     -19.273186      -524.4501
   4   2.0000     -19.226100      -523.1688
   5   2.0000     -19.224044      -523.1128
   6   2.0000     -19.222938      -523.0827
   7   2.0000     -19.219048      -522.9769
   8   2.0000     -19.201794      -522.5074
   9   2.0000     -14.632513      -398.1709
  10   2.0000     -14.630186      -398.1076
  11   2.0000     -14.414350      -392.2344
  12   2.0000     -14.410776      -392.1371
  13   2.0000     -14.409255      -392.0958
  14   2.0000     -14.403726      -391.9453
  15   2.0000     -10.372782      -282.2577
  16   2.0000     -10.371966      -282.2355
  17   2.0000     -10.370375      -282.1923
  18   2.0000     -10.359048      -281.8840
  19   2.0000     -10.357790      -281.8498
  20   2.0000     -10.346204      -281.5345
  21   2.0000     -10.335966      -281.2559
  22   2.0000     -10.334899      -281.2269
  23   2.0000     -10.327821      -281.0343
  24   2.0000     -10.327800      -281.0337
  25   2.0000     -10.326037      -280.9857
  26   2.0000     -10.321013      -280.8490
  27   2.0000     -10.319481      -280.8074
  28   2.0000     -10.314939      -280.6838
  29   2.0000     -10.313761      -280.6517
  30   2.0000     -10.313227      -280.6372
  31   2.0000     -10.312590      -280.6198
  32   2.0000     -10.312192      -280.6090
  33   2.0000     -10.312128      -280.6073
  34   2.0000     -10.311268      -280.5839
  35   2.0000     -10.309322      -280.5309
  36   2.0000     -10.305859      -280.4367
  37   2.0000     -10.305572      -280.4289
  38   2.0000     -10.305136      -280.4170
  39   2.0000     -10.304401      -280.3970
  40   2.0000     -10.304322      -280.3949
  41   2.0000     -10.303298      -280.3670
  42   2.0000     -10.301418      -280.3158
  43   2.0000     -10.301131      -280.3080
  44   2.0000     -10.300854      -280.3005
  45   2.0000     -10.300713      -280.2966
  46   2.0000     -10.299059      -280.2516
  47   2.0000     -10.298383      -280.2332
  48   2.0000     -10.297640      -280.2130
  49   2.0000     -10.297632      -280.2128
  50   2.0000     -10.296584      -280.1843
  51   2.0000     -10.294601      -280.1303
  52   2.0000     -10.294296      -280.1220
  53   2.0000     -10.294269      -280.1213
  54   2.0000     -10.294109      -280.1170
  55   2.0000     -10.293588      -280.1028
  56   2.0000     -10.293283      -280.0945
  57   2.0000     -10.292995      -280.0866
  58   2.0000     -10.291920      -280.0574
  59   2.0000     -10.291741      -280.0525
  60   2.0000     -10.290687      -280.0238
  61   2.0000     -10.290616      -280.0219
  62   2.0000     -10.290461      -280.0177
  63   2.0000     -10.282334      -279.7965
  64   2.0000     -10.281989      -279.7872
  65   2.0000     -10.281544      -279.7750
  66   2.0000     -10.273896      -279.5669
  67   2.0000     -10.269971      -279.4601
  68   2.0000     -10.269356      -279.4434
  69   2.0000     -10.268141      -279.4103
  70   2.0000     -10.264995      -279.3247
  71   2.0000     -10.264402      -279.3086
  72   2.0000      -1.312174       -35.7061
  73   2.0000      -1.301944       -35.4277
  74   2.0000      -1.297328       -35.3021
  75   2.0000      -1.296401       -35.2769
  76   2.0000      -1.192182       -32.4409
  77   2.0000      -1.178545       -32.0698
  78   2.0000      -1.123876       -30.5822
  79   2.0000      -1.114096       -30.3161
  80   2.0000      -1.110762       -30.2254
  81   2.0000      -1.052358       -28.6361
  82   2.0000      -1.041351       -28.3366
  83   2.0000      -1.012394       -27.5487
  84   2.0000      -1.007865       -27.4254
  85   2.0000      -1.001161       -27.2430
  86   2.0000      -0.995790       -27.0968
  87   2.0000      -0.988597       -26.9011
  88   2.0000      -0.981345       -26.7038
  89   2.0000      -0.979462       -26.6525
  90   2.0000      -0.971588       -26.4382
  91   2.0000      -0.940774       -25.5997
  92   2.0000      -0.926601       -25.2141
  93   2.0000      -0.922777       -25.1100
  94   2.0000      -0.912966       -24.8431
  95   2.0000      -0.898097       -24.4385
  96   2.0000      -0.897380       -24.4190
  97   2.0000      -0.895489       -24.3675
  98   2.0000      -0.889619       -24.2078
  99   2.0000      -0.885851       -24.1052
 100   2.0000      -0.883576       -24.0433
 101   2.0000      -0.873045       -23.7568
 102   2.0000      -0.870506       -23.6877
 103   2.0000      -0.866611       -23.5817
 104   2.0000      -0.854340       -23.2478
 105   2.0000      -0.843059       -22.9408
 106   2.0000      -0.831325       -22.6215
 107   2.0000      -0.831036       -22.6136
 108   2.0000      -0.825549       -22.4643
 109   2.0000      -0.819919       -22.3111
 110   2.0000      -0.811865       -22.0920
 111   2.0000      -0.805060       -21.9068
 112   2.0000      -0.795125       -21.6365
 113   2.0000      -0.781916       -21.2770
 114   2.0000      -0.761210       -20.7136
 115   2.0000      -0.757936       -20.6245
 116   2.0000      -0.752434       -20.4748
 117   2.0000      -0.743173       -20.2228
 118   2.0000      -0.737035       -20.0557
 119   2.0000      -0.729635       -19.8544
 120   2.0000      -0.726187       -19.7605
 121   2.0000      -0.717091       -19.5130
 122   2.0000      -0.713217       -19.4076
 123   2.0000      -0.708096       -19.2683
 124   2.0000      -0.706951       -19.2371
 125   2.0000      -0.692402       -18.8412
 126   2.0000      -0.685514       -18.6538
 127   2.0000      -0.679948       -18.5023
 128   2.0000      -0.675986       -18.3945
 129   2.0000      -0.665559       -18.1108
 130   2.0000      -0.664676       -18.0867
 131   2.0000      -0.658040       -17.9062
 132   2.0000      -0.653592       -17.7851
 133   2.0000      -0.651998       -17.7418
 134   2.0000      -0.650389       -17.6980
 135   2.0000      -0.648287       -17.6408
 136   2.0000      -0.642510       -17.4836
 137   2.0000      -0.633985       -17.2516
 138   2.0000      -0.632682       -17.2162
 139   2.0000      -0.626886       -17.0584
 140   2.0000      -0.621357       -16.9080
 141   2.0000      -0.616582       -16.7780
 142   2.0000      -0.615346       -16.7444
 143   2.0000      -0.613694       -16.6995
 144   2.0000      -0.611192       -16.6314
 145   2.0000      -0.609673       -16.5900
 146   2.0000      -0.607933       -16.5427
 147   2.0000      -0.604031       -16.4365
 148   2.0000      -0.597441       -16.2572
 149   2.0000      -0.595579       -16.2065
 150   2.0000      -0.586638       -15.9632
 151   2.0000      -0.582838       -15.8598
 152   2.0000      -0.580408       -15.7937
 153   2.0000      -0.576823       -15.6962
 154   2.0000      -0.576478       -15.6868
 155   2.0000      -0.574588       -15.6353
 156   2.0000      -0.572480       -15.5780
 157   2.0000      -0.569799       -15.5050
 158   2.0000      -0.567387       -15.4394
 159   2.0000      -0.561431       -15.2773
 160   2.0000      -0.556689       -15.1483
 161   2.0000      -0.553133       -15.0515
 162   2.0000      -0.551816       -15.0157
 163   2.0000      -0.549192       -14.9443
 164   2.0000      -0.544721       -14.8226
 165   2.0000      -0.542192       -14.7538
 166   2.0000      -0.538647       -14.6573
 167   2.0000      -0.538003       -14.6398
 168   2.0000      -0.534067       -14.5327
 169   2.0000      -0.530303       -14.4303
 170   2.0000      -0.526426       -14.3248
 171   2.0000      -0.525096       -14.2886
 172   2.0000      -0.523243       -14.2382
 173   2.0000      -0.522142       -14.2082
 174   2.0000      -0.521126       -14.1806
 175   2.0000      -0.517689       -14.0870
 176   2.0000      -0.513444       -13.9715
 177   2.0000      -0.512319       -13.9409
 178   2.0000      -0.509775       -13.8717
 179   2.0000      -0.507072       -13.7981
 180   2.0000      -0.505620       -13.7586
 181   2.0000      -0.503719       -13.7069
 182   2.0000      -0.500584       -13.6216
 183   2.0000      -0.499739       -13.5986
 184   2.0000      -0.498505       -13.5650
 185   2.0000      -0.497751       -13.5445
 186   2.0000      -0.491352       -13.3704
 187   2.0000      -0.489231       -13.3127
 188   2.0000      -0.486935       -13.2502
 189   2.0000      -0.484810       -13.1923
 190   2.0000      -0.480574       -13.0771
 191   2.0000      -0.478959       -13.0331
 192   2.0000      -0.478671       -13.0253
 193   2.0000      -0.474817       -12.9204
 194   2.0000      -0.474237       -12.9046
 195   2.0000      -0.469457       -12.7746
 196   2.0000      -0.468410       -12.7461
 197   2.0000      -0.467161       -12.7121
 198   2.0000      -0.460969       -12.5436
 199   2.0000      -0.458685       -12.4814
 200   2.0000      -0.454749       -12.3744
 201   2.0000      -0.453414       -12.3380
 202   2.0000      -0.452081       -12.3017
 203   2.0000      -0.450574       -12.2608
 204   2.0000      -0.448254       -12.1976
 205   2.0000      -0.443696       -12.0736
 206   2.0000      -0.440208       -11.9787
 207   2.0000      -0.438849       -11.9417
 208   2.0000      -0.437626       -11.9084
 209   2.0000      -0.437035       -11.8923
 210   2.0000      -0.434795       -11.8314
 211   2.0000      -0.430107       -11.7038
 212   2.0000      -0.428983       -11.6732
 213   2.0000      -0.422696       -11.5022
 214   2.0000      -0.420218       -11.4347
 215   2.0000      -0.418675       -11.3927
 216   2.0000      -0.417010       -11.3474
 217   2.0000      -0.411703       -11.2030
 218   2.0000      -0.409696       -11.1484
 219   2.0000      -0.404421       -11.0049
 220   2.0000      -0.393312       -10.7026
 221   2.0000      -0.386509       -10.5174
 222   2.0000      -0.377182       -10.2637
 223   2.0000      -0.375524       -10.2185
 224   2.0000      -0.372057       -10.1242
 225   2.0000      -0.371813       -10.1175
 226   2.0000      -0.365975        -9.9587
 227   2.0000      -0.362944        -9.8762
 228   2.0000      -0.362007        -9.8507
 229   2.0000      -0.357564        -9.7298
 230   2.0000      -0.351951        -9.5771
 231   2.0000      -0.346852        -9.4383
 232   2.0000      -0.341370        -9.2892
 233   2.0000      -0.337326        -9.1791
 234   2.0000      -0.332171        -9.0388
 235   2.0000      -0.330170        -8.9844
 236   2.0000      -0.327017        -8.8986
 237   2.0000      -0.326588        -8.8869
 238   2.0000      -0.321896        -8.7592
 239   2.0000      -0.307768        -8.3748
 240   2.0000      -0.297776        -8.1029
 241   2.0000      -0.291884        -7.9426
 242   2.0000      -0.283525        -7.7151
 243   2.0000      -0.277260        -7.5446
 244   2.0000      -0.271112        -7.3773
 245   2.0000      -0.237204        -6.4547
 246   0.0000      -0.135922        -3.6986
 247   0.0000      -0.102615        -2.7923
 248   0.0000      -0.080460        -2.1894
 249   0.0000      -0.061648        -1.6775
 250   0.0000      -0.049589        -1.3494

MULLIKEN ATOMIC CHARGES
-----------------------
   0 C :   -0.109129
   1 C :    0.240451
   2 F :   -0.173897
   3 C :    0.240279
   4 F :   -0.174410
   5 C :   -0.104259
   6 C :    0.113177
   7 C :    0.116557
   8 C :   -0.092850
   9 C :    0.055446
  10 C :    0.025780
  11 C :   -0.077818
  12 C :    0.130446
  13 O :   -0.145074
  14 C :   -0.036645
  15 C :    0.307959
  16 C :   -0.349113
  17 C :   -0.195339
  18 N :    0.156605
  19 C :   -0.183411
  20 N :    0.149272
  21 C :   -0.093319
  22 C :    0.050635
  23 C :    0.089434
  24 N :    0.283192
  25 O :   -0.271497
  26 O :   -0.245979
  27 C :   -0.007043
  28 C :   -0.010912
  29 C :    0.024792
  30 C :    0.034860
  31 C :   -0.027156
  32 C :    0.055279
  33 C :    0.013258
  34 N :    0.297545
  35 O :   -0.300439
  36 O :   -0.271718
  37 C :    0.107668
  38 C :   -0.083358
  39 C :    0.020199
  40 C :    0.088664
  41 C :   -0.064976
  42 C :    0.174804
  43 O :   -0.278449
  44 C :    0.174627
  45 C :    0.002169
  46 C :    0.074354
  47 C :   -0.028003
  48 C :   -0.166660
  49 C :    0.213545
  50 O :   -0.245138
  51 C :    0.155681
  52 C :    0.003849
  53 C :    0.039297
  54 C :   -0.025720
  55 C :    0.005675
  56 C :    0.040233
  57 C :   -0.008181
  58 N :   -0.050470
  59 C :   -0.002198
  60 C :   -0.006198
  61 C :    0.030263
  62 C :    0.054389
  63 C :    0.023860
  64 C :    0.051527
  65 C :   -0.003772
  66 N :   -0.055055
  67 C :   -0.004428
  68 C :    0.002318
  69 C :    0.027704
  70 C :   -0.010512
  71 C :    0.025045
  72 H :    0.005323
  73 H :   -0.001457
  74 H :   -0.006470
  75 H :   -0.010301
  76 H :    0.041442
  77 H :   -0.007762
  78 H :   -0.011724
  79 H :   -0.001482
  80 H :    0.010145
  81 H :   -0.011006
  82 H :    0.015092
  83 H :    0.000294
  84 H :    0.046038
  85 H :    0.040253
  86 H :    0.034605
  87 H :    0.008995
  88 H :    0.044808
  89 H :    0.031695
  90 H :    0.057939
  91 H :   -0.004877
  92 H :    0.005632
  93 H :   -0.028590
  94 H :    0.013823
  95 H :   -0.005799
  96 H :   -0.016618
  97 H :   -0.010686
  98 H :   -0.012216
  99 H :   -0.026055
 100 H :   -0.001398
 101 H :   -0.017753
 102 H :   -0.014590
 103 H :   -0.021196
 104 H :    0.034327
 105 H :    0.021855
Sum of atomic charges:   -0.0000000

LOEWDIN ATOMIC CHARGES
----------------------
   0 C :   -0.030032
   1 C :    0.065156
   2 F :   -0.051722
   3 C :    0.067264
   4 F :   -0.051633
   5 C :   -0.032944
   6 C :   -0.005964
   7 C :   -0.006547
   8 C :    0.016672
   9 C :   -0.018835
  10 C :   -0.040987
  11 C :    0.032222
  12 C :    0.078657
  13 O :   -0.143807
  14 C :   -0.067176
  15 C :    0.080562
  16 C :   -0.139378
  17 C :   -0.019618
  18 N :   -0.052531
  19 C :   -0.018370
  20 N :   -0.054653
  21 C :    0.054520
  22 C :   -0.009217
  23 C :   -0.036368
  24 N :    0.294892
  25 O :   -0.218227
  26 O :   -0.207458
  27 C :   -0.008661
  28 C :   -0.047296
  29 C :   -0.008255
  30 C :    0.060083
  31 C :   -0.072478
  32 C :    0.068515
  33 C :   -0.114068
  34 N :    0.293930
  35 O :   -0.264406
  36 O :   -0.237317
  37 C :    0.038232
  38 C :   -0.030013
  39 C :    0.060194
  40 C :   -0.036953
  41 C :    0.006619
  42 C :    0.045767
  43 O :   -0.082002
  44 C :    0.082119
  45 C :   -0.039221
  46 C :   -0.004005
  47 C :    0.053963
  48 C :   -0.141310
  49 C :    0.100415
  50 O :   -0.038773
  51 C :    0.084841
  52 C :   -0.026802
  53 C :    0.002594
  54 C :   -0.027427
  55 C :    0.006571
  56 C :   -0.060229
  57 C :    0.029166
  58 N :   -0.068197
  59 C :    0.017467
  60 C :   -0.031255
  61 C :    0.016392
  62 C :   -0.024980
  63 C :   -0.002947
  64 C :   -0.056438
  65 C :    0.036715
  66 N :   -0.063649
  67 C :    0.014320
  68 C :   -0.038662
  69 C :    0.011298
  70 C :   -0.044197
  71 C :   -0.005582
  72 H :    0.046786
  73 H :    0.044661
  74 H :    0.039163
  75 H :    0.040830
  76 H :    0.046629
  77 H :    0.033070
  78 H :    0.025552
  79 H :    0.029669
  80 H :    0.040912
  81 H :    0.032891
  82 H :    0.031323
  83 H :    0.035798
  84 H :    0.034869
  85 H :    0.019906
  86 H :    0.018838
  87 H :    0.029080
  88 H :    0.031843
  89 H :    0.023991
  90 H :    0.025098
  91 H :    0.034051
  92 H :    0.031845
  93 H :    0.026437
  94 H :    0.036222
  95 H :    0.017920
  96 H :    0.030488
  97 H :    0.033365
  98 H :    0.033420
  99 H :    0.024934
 100 H :    0.021166
 101 H :    0.030910
 102 H :    0.030027
 103 H :    0.026009
 104 H :    0.028612
 105 H :    0.025132

  Mayer bond orders larger than 0.100000
B(  0-C ,  1-C ) :   1.4462 B(  0-C ,  5-C ) :   0.1092 B(  0-C ,  7-C ) :   1.1829
B(  0-C , 72-H ) :   1.0070 B(  1-C ,  2-F ) :   1.1322 B(  1-C ,  3-C ) :   1.1886
B(  3-C ,  4-F ) :   1.1309 B(  3-C ,  5-C ) :   1.4434 B(  5-C ,  6-C ) :   1.1936
B(  5-C , 73-H ) :   1.0073 B(  6-C ,  7-C ) :   1.2529 B(  6-C , 11-C ) :   1.1928
B(  7-C ,  8-C ) :   1.2275 B(  8-C ,  9-C ) :   1.4390 B(  8-C , 74-H ) :   0.9904
B(  9-C , 10-C ) :   1.2255 B(  9-C , 15-C ) :   0.9979 B( 10-C , 11-C ) :   1.4798
B( 10-C , 12-C ) :   0.9255 B( 11-C , 75-H ) :   1.0160 B( 12-C , 13-O ) :   2.2583
B( 12-C , 14-C ) :   0.8925 B( 14-C , 15-C ) :   1.0569 B( 14-C , 21-C ) :   1.7008
B( 15-C , 16-C ) :   1.6450 B( 16-C , 17-C ) :   1.1526 B( 16-C , 19-C ) :   1.1354
B( 17-C , 18-N ) :   2.9735 B( 19-C , 20-N ) :   2.9716 B( 21-C , 22-C ) :   1.0615
B( 21-C , 76-H ) :   0.9265 B( 22-C , 23-C ) :   1.4800 B( 22-C , 29-C ) :   1.1373
B( 23-C , 24-N ) :   0.9580 B( 23-C , 27-C ) :   1.1751 B( 24-N , 25-O ) :   1.4659
B( 24-N , 26-O ) :   1.5401 B( 25-O , 26-O ) :   0.2435 B( 27-C , 28-C ) :   1.5454
B( 27-C , 77-H ) :   1.0095 B( 28-C , 29-C ) :   1.1355 B( 28-C , 78-H ) :   0.9995
B( 29-C , 30-C ) :   1.3770 B( 30-C , 31-C ) :   1.2447 B( 30-C , 37-C ) :   0.9990
B( 31-C , 32-C ) :   1.4365 B( 31-C , 79-H ) :   1.0013 B( 32-C , 33-C ) :   1.2101
B( 32-C , 80-H ) :   1.0049 B( 33-C , 34-N ) :   1.0344 B( 33-C , 37-C ) :   1.2515
B( 34-N , 35-O ) :   1.3866 B( 34-N , 36-O ) :   1.5192 B( 35-O , 36-O ) :   0.1981
B( 35-O , 82-H ) :   0.1002 B( 37-C , 38-C ) :   1.3753 B( 38-C , 39-C ) :   1.3489
B( 38-C , 81-H ) :   0.9643 B( 39-C , 40-C ) :   1.2934 B( 39-C , 82-H ) :   0.9513
B( 40-C , 41-C ) :   1.2815 B( 40-C , 46-C ) :   1.0844 B( 41-C , 42-C ) :   1.3065
B( 41-C , 83-H ) :   1.0172 B( 42-C , 43-O ) :   1.2215 B( 42-C , 45-C ) :   1.2677
B( 43-O , 44-C ) :   0.9432 B( 44-C , 84-H ) :   0.9746 B( 44-C , 85-H ) :   0.9675
B( 44-C , 86-H ) :   0.9654 B( 45-C , 46-C ) :   1.1211 B( 45-C , 54-C ) :   1.1465
B( 46-C , 47-C ) :   1.4323 B( 47-C , 48-C ) :   1.1790 B( 47-C , 53-C ) :   1.0299
B( 48-C , 49-C ) :   1.4270 B( 48-C , 87-H ) :   1.0132 B( 49-C , 50-O ) :   1.2858
B( 49-C , 52-C ) :   1.0518 B( 50-O , 51-C ) :   0.9030 B( 51-C , 88-H ) :   0.9783
B( 51-C , 89-H ) :   0.9729 B( 51-C , 90-H ) :   0.9471 B( 52-C , 53-C ) :   1.7186
B( 52-C , 91-H ) :   1.0176 B( 53-C , 92-H ) :   0.9935 B( 54-C , 55-C ) :   1.6208
B( 54-C , 93-H ) :   0.9575 B( 55-C , 56-C ) :   1.1086 B( 55-C , 94-H ) :   0.9684
B( 56-C , 57-C ) :   1.2905 B( 56-C , 61-C ) :   1.3256 B( 57-C , 58-N ) :   1.6083
B( 57-C , 95-H ) :   0.9800 B( 58-N , 59-C ) :   1.4859 B( 59-C , 60-C ) :   1.3273
B( 59-C , 62-C ) :   1.0733 B( 60-C , 61-C ) :   1.4434 B( 60-C , 96-H ) :   0.9736
B( 61-C , 97-H ) :   0.9888 B( 62-C , 63-C ) :   1.6803 B( 62-C , 98-H ) :   0.9713
B( 63-C , 64-C ) :   1.0833 B( 63-C , 99-H ) :   0.9729 B( 64-C , 65-C ) :   1.2934
B( 64-C , 69-C ) :   1.3539 B( 65-C , 66-N ) :   1.6113 B( 65-C ,100-H ) :   0.9829
B( 66-N , 67-C ) :   1.4877 B( 67-C , 68-C ) :   1.3387 B( 67-C , 70-C ) :   1.0710
B( 68-C , 69-C ) :   1.4099 B( 68-C ,101-H ) :   0.9785 B( 69-C ,102-H ) :   0.9897
B( 70-C , 71-C ) :   1.9481 B( 70-C ,103-H ) :   0.9673 B( 71-C ,104-H ) :   0.9391
B( 71-C ,105-H ) :   0.9475

-----------------------------------------------------------------------------
         ABSORPTION SPECTRUM VIA TRANSITION ELECTRIC DIPOLE MOMENTS
-----------------------------------------------------------------------------
State   Energy  Wavelength   fosc         T2         TX        TY        TZ
        (cm-1)    (nm)                  (au**2)     (au)      (au)      (au)
-----------------------------------------------------------------------------
   0    6087.9   1642.6   0.439028052  23.74114  -1.04534  -4.26947  -2.10238
   1   12094.5    826.8   0.014154499   0.38529   0.34655  -0.27649   0.43445
   2   13352.5    748.9   0.017088255   0.42132  -0.17348   0.61250   0.12673
   3   15531.3    643.9   0.084976468   1.80122   0.15884   0.70189   1.13284
   4   16734.2    597.6   0.495128103   9.74066   0.09153  -3.11900  -0.06439
   5   19511.2    512.5   0.070490302   1.18938  -0.14241  -0.66927   0.84922
   6   20697.4    483.2   0.098435709   1.56572  -0.10899  -1.13591   0.51337
   7   20980.8    476.6   0.012204878   0.19151  -0.10270  -0.37918   0.19282
   8   22185.8    450.7   0.031637655   0.46947   0.44494   0.21464   0.47479
   9   22318.5    448.1   0.375475943   5.53852  -0.12884  -2.24024  -0.70941
  10   22732.2    439.9   0.025305440   0.36648   0.53690  -0.27777  -0.03255
  11   23454.3    426.4   0.080892034   1.13543   0.08062  -0.94625  -0.48325
  12   24185.6    413.5   0.093782649   1.27656  -0.04043   1.05908   0.39151
  13   24692.8    405.0   0.136576125   1.82087   0.01808  -0.82375   1.06863
  14   24835.1    402.7   0.099940445   1.32480   0.46379  -1.00204   0.32500
  15   25380.7    394.0   0.036179017   0.46928   0.15863  -0.57645   0.33439
  16   25633.2    390.1   0.070990021   0.91174   0.51152  -0.58212   0.55788
  17   25854.9    386.8   0.105790287   1.34704   0.11697  -1.12852  -0.24452
  18   26808.6    373.0   0.244616684   3.00391  -0.52743   1.64853  -0.08983
  19   27112.4    368.8   0.421941917   5.12343  -0.09291  -0.85793  -2.09255
  20   28376.2    352.4   0.201930606   2.34274   0.47664   0.78689   1.22325
  21   28994.3    344.9   0.125119871   1.42066   0.03019   0.25503   1.16392
  22   29144.1    343.1   0.039103087   0.44171  -0.48651  -0.00733   0.45273
  23   29207.9    342.4   0.082295599   0.92758  -0.00901  -0.33748   0.90200
  24   29413.7    340.0   0.017979882   0.20124   0.44480  -0.01577   0.05603
  25   29850.0    335.0   0.004559553   0.05029   0.09584  -0.09308   0.18011
  26   29984.8    333.5   0.035859023   0.39371  -0.24752   0.45229  -0.35759
  27   30157.3    331.6   0.054715966   0.59731  -0.00482   0.68856   0.35095
  28   30398.6    329.0   0.067258392   0.72840  -0.45687   0.19442  -0.69417
  29   31130.2    321.2   0.065653513   0.69431   0.16643  -0.36379   0.73094
  30   31205.1    320.5   0.182429127   1.92462   0.16154   1.32147  -0.39017
  31   31388.2    318.6   0.047012578   0.49309   0.00104  -0.64986   0.26602
  32   32342.2    309.2   0.322686039   3.28462  -0.45782   1.36911   1.09570
  33   32421.6    308.4   0.248718197   2.52551   0.25964  -0.97304  -1.22934
  34   32592.6    306.8   0.048686060   0.49177  -0.07882   0.57357   0.39569
  35   32878.0    304.2   0.393070830   3.93588  -0.67331  -0.44276  -1.81287
  36   32931.1    303.7   0.090548932   0.90522  -0.25160  -0.82641   0.39869
  37   33232.3    300.9   0.038276438   0.37918   0.59136  -0.10956   0.13216
  38   33703.9    296.7   0.012525303   0.12234  -0.00253  -0.10808  -0.33265
  39   33890.0    295.1   0.034406632   0.33423  -0.17953   0.54201   0.09070
  40   33922.2    294.8   0.000061457   0.00060   0.01830  -0.01143  -0.01144
  41   34056.2    293.6   0.066437724   0.64223  -0.07631   0.47743  -0.63912
  42   34232.8    292.1   0.120819672   1.16190  -0.82744  -0.37049  -0.58309
  43   34504.3    289.8   0.029416000   0.28066   0.19291   0.33144   0.36551
  44   34540.6    289.5   0.022948524   0.21873   0.23645  -0.20998  -0.34457
  45   34936.0    286.2   0.267662937   2.52226  -0.77102  -0.73958  -1.17508
  46   35117.7    284.8   0.009879933   0.09262   0.20209  -0.19876  -0.11079
  47   35288.0    283.4   0.035670194   0.33278  -0.19331   0.36121  -0.40612
  48   36008.1    277.7   0.093321454   0.85321  -0.46482  -0.65767  -0.45235
  49   36238.3    276.0   0.068826785   0.62527  -0.28961  -0.02134  -0.73548
  50   36479.9    274.1   0.059371964   0.53580  -0.05088  -0.63790   0.35539
  51   36622.5    273.1   0.016411702   0.14753   0.29636   0.04441  -0.24027
  52   36731.4    272.2   0.098197994   0.88012   0.47115   0.09512   0.80566
  53   36940.9    270.7   0.226675848   2.02010  -1.01692  -0.41693  -0.90119
  54   37365.7    267.6   0.153986141   1.35670  -0.32533  -0.00862  -1.11839
  55   37471.8    266.9   0.006800524   0.05975  -0.23932   0.00356  -0.04961
  56   37778.2    264.7   0.036962694   0.32211  -0.19205   0.33360  -0.41706
  57   38309.1    261.0   0.146832612   1.26181   0.47333  -0.11086   1.01266
  58   38542.6    259.5   0.109692800   0.93694   0.06270   0.95663   0.13366
  59   38571.6    259.3   0.013664442   0.11663  -0.24771   0.11779  -0.20346
  60   38645.2    258.8   0.015450865   0.13162   0.08147  -0.20960  -0.28470
  61   38731.4    258.2   0.010177922   0.08651   0.05351  -0.23235   0.17223
  62   38824.2    257.6   0.024643083   0.20896   0.27612   0.17193   0.32118
  63   38944.2    256.8   0.007761338   0.06561  -0.15043   0.20729  -0.00343
  64   39340.5    254.2   0.036245785   0.30331  -0.19633   0.02814   0.51379
  65   39406.0    253.8   0.016088364   0.13441   0.12584   0.20316   0.27803
  66   39430.2    253.6   0.045801975   0.38241  -0.25947  -0.55663   0.07247
  67   39626.4    252.4   0.056213821   0.46702   0.22465   0.16889  -0.62292
  68   39668.7    252.1   0.014581344   0.12101  -0.23871   0.00064  -0.25303
  69   39885.8    250.7   0.040907053   0.33764  -0.23071   0.36704  -0.38691
  70   40155.8    249.0   0.039967903   0.32767   0.05806   0.15445  -0.54813
  71   40256.1    248.4   0.072433758   0.59236  -0.52040   0.56704   0.00007

FINAL SINGLE POINT ENERGY     -3242.816482731133

DIPOLE MOMENT
-------------
                                X             Y             Z
Electronic contribution:     20.52101     133.16531      67.09299
Nuclear contribution   :    -20.26426    -138.91656     -69.79529
                        -----------------------------------------
Total Dipole Moment    :      0.25674      -5.75125      -2.70230
                        -----------------------------------------
Magnitude (a.u.)       :      6.35965
Magnitude (Debye)      :     16.16496

Rotational constants in cm-1:     0.002243     0.000224     0.000212
Rotational constants in MHz :    67.233717     6.717353     6.349204

                             ****ORCA TERMINATED NORMALLY****
TOTAL RUN TIME: 0 days 0 hours 11 minutes 44 seconds 518 msec
