                         Program Version 4.2.0 -  RELEASE  -
|  1> # ORCA input file
|  2> # SCF done       -208.237161338047          0.000351860614
|  3> ! CAM-B3LYP def2-SVP def2/J RIJCOSX Grid4 TightSCF
|  4> %maxcore 5000
|  5> %tddft
|  6>     Mode sTDDFT
|  7>     Ethresh 5.0
|  8>     maxcore 5000
|  9> end
| 10>
| 11> %pal
| 12>   nprocs 6
| 13>   end
| 14> * xyz 0 1
| 15>    C       -0.90481         1.77742        -2.57291
| 16>    C       -1.60976         1.62896        -3.73637
| 17>    C       -0.94011         1.36974        -4.94149
| 18>    C        0.42369         1.26167        -4.96646
| 19>    C        1.18124         1.40827        -3.78662
| 20>    C        2.59112         1.30034        -3.80736
| 21>    C        3.29497         1.44387        -2.64176
| 22>    C        2.60543         1.69363        -1.41962
| 23>    C        1.24650         1.81205        -1.37162
| 24>    C        0.49993         1.67099        -2.56310
| 25>    C        3.58082         1.76645        -0.31841
| 26>    O        3.37374         2.01898         0.84535
| 27>    C        4.89680         1.40035        -0.93087
| 28>    C        4.72685         1.40019        -2.36844
| 29>    C        5.72140         1.52828        -3.30032
| 30>    C        7.07807         1.71022        -2.96638
| 31>    N        8.18849         1.88254        -2.73388
| 32>    C        5.50092         1.54714        -4.69185
| 33>    N        5.38133         1.53723        -5.83378
| 34>    C        5.91266         1.07281        -0.09766
| 35>    C        7.15949         0.38168        -0.30084
| 36>    C        8.19923         0.65233         0.60364
| 37>    F        7.95133         1.61857         1.51952
| 38>    C        9.42933         0.01307         0.57064
| 39>    O       10.50954         0.24683         1.34236
| 40>    C       10.45960         1.20764         2.37773
| 41>    C        9.58948        -0.99363        -0.40141
| 42>    C        8.56629        -1.28812        -1.28843
| 43>    C        7.34317        -0.61932        -1.28177
| 44>    O        6.28577        -0.86249        -2.08688
| 45>    C        6.34639        -1.85452        -3.09334
| 46>    F        8.77985        -2.31405        -2.14461
| 47>    C       10.84700        -1.74837        -0.44851
| 48>    C       11.64315        -1.78358        -1.60018
| 49>    C       12.86760        -2.53821        -1.64478
| 50>    N       13.64002        -2.50658        -2.75952
| 51>    C       13.21951        -1.81493        -3.77319
| 52>    C       12.00166        -1.08651        -3.73601
| 53>    N       11.25087        -1.06215        -2.67929
| 54>    C       13.30158        -3.28868        -0.54488
| 55>    C       12.51070        -3.25120         0.60504
| 56>    C       11.28928        -2.47637         0.65686
| 57>    N       10.66827        -2.61065         1.83754
| 58>    S       11.53448        -3.58396         2.76224
| 59>    N       12.72049        -3.91769         1.74920
| 60>    C       14.52809        -4.09336        -0.59044
| 61>    C       15.52069        -3.91293         0.35020
| 62>    F       15.36721        -2.96622         1.28956
| 63>    C       16.70941        -4.66165         0.37852
| 64>    O       17.48148        -4.44362         1.45834
| 65>    C       18.45827        -5.35949         1.87770
| 66>    C       16.89688        -5.60024        -0.64730
| 67>    C       15.84706        -5.82173        -1.56183
| 68>    C       14.66729        -5.10008        -1.57391
| 69>    O       13.59754        -5.27317        -2.38062
| 70>    C       13.67654        -6.12931        -3.50113
| 71>    F       16.08484        -6.77748        -2.49899
| 72>    C       18.10371        -6.37347        -0.86239
| 73>    C       19.35280        -5.85482        -0.93144
| 74>    C       20.58959        -6.59221        -1.13110
| 75>    C       20.77340        -7.92362        -0.87305
| 76>    C       21.99753        -8.60083        -1.05150
| 77>    N       22.96756        -9.19958        -1.18563
| 78>    C       19.77603        -8.76563        -0.33693
| 79>    N       19.01830        -9.48418         0.14000
| 80>    C       21.61343        -5.63752        -1.52767
| 81>    C       21.06246        -4.32451        -1.46413
| 82>    C       21.80552        -3.21845        -1.76087
| 83>    C       23.15732        -3.37748        -2.14045
| 84>    C       23.97515        -2.27216        -2.44690
| 85>    C       25.28148        -2.44923        -2.81465
| 86>    C       25.82754        -3.73927        -2.89224
| 87>    C       25.06050        -4.83418        -2.60105
| 88>    C       23.71178        -4.68822        -2.21691
| 89>    C       22.91827        -5.81551        -1.90630
| 90>    C       19.64901        -4.39618        -1.04957
| 91>    O       18.88034        -3.47448        -0.89907
| 92>    H       -1.41454         1.97712        -1.64170
| 93>    H       -2.68647         1.70975        -3.73450
| 94>    H       -1.51094         1.25626        -5.85097
| 95>    H        0.94340         1.06513        -5.89281
| 96>    H        3.08017         1.09496        -4.74696
| 97>    H        0.74558         2.00849        -0.43531
| 98>    H        5.71996         1.34264         0.93860
| 99>    H        9.70299         0.95630         3.12435
|100>    H       10.27179         2.21104         1.98891
|101>    H       11.44593         1.17744         2.83807
|102>    H        7.14544        -1.65243        -3.80984
|103>    H        5.38312        -1.80124        -3.60008
|104>    H        6.47796        -2.85247        -2.67040
|105>    H       13.85330        -1.80061        -4.65023
|106>    H       11.66690        -0.50557        -4.58490
|107>    H       19.42915        -5.15905         1.41108
|108>    H       18.16841        -6.39336         1.66681
|109>    H       18.54949        -5.21569         2.95519
|110>    H       13.80061        -7.17430        -3.20654
|111>    H       14.48863        -5.83950        -4.17150
|112>    H       12.72398        -6.01085        -4.01539
|113>    H       17.95391        -7.41964        -1.10323
|114>    H       21.36764        -2.23306        -1.70224
|115>    H       23.54958        -1.28126        -2.38576
|116>    H       25.90117        -1.59643        -3.04806
|117>    H       26.85997        -3.86111        -3.18365
|118>    H       25.47645        -5.82941        -2.65719
|119>    H       23.36077        -6.79649        -1.98039
|120> *
|121>
|122>                          ****END OF INPUT****

CARTESIAN COORDINATES (ANGSTROEM)
---------------------------------
  C     -0.904810    1.777420   -2.572910
  C     -1.609760    1.628960   -3.736370
  C     -0.940110    1.369740   -4.941490
  C      0.423690    1.261670   -4.966460
  C      1.181240    1.408270   -3.786620
  C      2.591120    1.300340   -3.807360
  C      3.294970    1.443870   -2.641760
  C      2.605430    1.693630   -1.419620
  C      1.246500    1.812050   -1.371620
  C      0.499930    1.670990   -2.563100
  C      3.580820    1.766450   -0.318410
  O      3.373740    2.018980    0.845350
  C      4.896800    1.400350   -0.930870
  C      4.726850    1.400190   -2.368440
  C      5.721400    1.528280   -3.300320
  C      7.078070    1.710220   -2.966380
  N      8.188490    1.882540   -2.733880
  C      5.500920    1.547140   -4.691850
  N      5.381330    1.537230   -5.833780
  C      5.912660    1.072810   -0.097660
  C      7.159490    0.381680   -0.300840
  C      8.199230    0.652330    0.603640
  F      7.951330    1.618570    1.519520
  C      9.429330    0.013070    0.570640
  O     10.509540    0.246830    1.342360
  C     10.459600    1.207640    2.377730
  C      9.589480   -0.993630   -0.401410
  C      8.566290   -1.288120   -1.288430
  C      7.343170   -0.619320   -1.281770
  O      6.285770   -0.862490   -2.086880
  C      6.346390   -1.854520   -3.093340
  F      8.779850   -2.314050   -2.144610
  C     10.847000   -1.748370   -0.448510
  C     11.643150   -1.783580   -1.600180
  C     12.867600   -2.538210   -1.644780
  N     13.640020   -2.506580   -2.759520
  C     13.219510   -1.814930   -3.773190
  C     12.001660   -1.086510   -3.736010
  N     11.250870   -1.062150   -2.679290
  C     13.301580   -3.288680   -0.544880
  C     12.510700   -3.251200    0.605040
  C     11.289280   -2.476370    0.656860
  N     10.668270   -2.610650    1.837540
  S     11.534480   -3.583960    2.762240
  N     12.720490   -3.917690    1.749200
  C     14.528090   -4.093360   -0.590440
  C     15.520690   -3.912930    0.350200
  F     15.367210   -2.966220    1.289560
  C     16.709410   -4.661650    0.378520
  O     17.481480   -4.443620    1.458340
  C     18.458270   -5.359490    1.877700
  C     16.896880   -5.600240   -0.647300
  C     15.847060   -5.821730   -1.561830
  C     14.667290   -5.100080   -1.573910
  O     13.597540   -5.273170   -2.380620
  C     13.676540   -6.129310   -3.501130
  F     16.084840   -6.777480   -2.498990
  C     18.103710   -6.373470   -0.862390
  C     19.352800   -5.854820   -0.931440
  C     20.589590   -6.592210   -1.131100
  C     20.773400   -7.923620   -0.873050
  C     21.997530   -8.600830   -1.051500
  N     22.967560   -9.199580   -1.185630
  C     19.776030   -8.765630   -0.336930
  N     19.018300   -9.484180    0.140000
  C     21.613430   -5.637520   -1.527670
  C     21.062460   -4.324510   -1.464130
  C     21.805520   -3.218450   -1.760870
  C     23.157320   -3.377480   -2.140450
  C     23.975150   -2.272160   -2.446900
  C     25.281480   -2.449230   -2.814650
  C     25.827540   -3.739270   -2.892240
  C     25.060500   -4.834180   -2.601050
  C     23.711780   -4.688220   -2.216910
  C     22.918270   -5.815510   -1.906300
  C     19.649010   -4.396180   -1.049570
  O     18.880340   -3.474480   -0.899070
  H     -1.414540    1.977120   -1.641700
  H     -2.686470    1.709750   -3.734500
  H     -1.510940    1.256260   -5.850970
  H      0.943400    1.065130   -5.892810
  H      3.080170    1.094960   -4.746960
  H      0.745580    2.008490   -0.435310
  H      5.719960    1.342640    0.938600
  H      9.702990    0.956300    3.124350
  H     10.271790    2.211040    1.988910
  H     11.445930    1.177440    2.838070
  H      7.145440   -1.652430   -3.809840
  H      5.383120   -1.801240   -3.600080
  H      6.477960   -2.852470   -2.670400
  H     13.853300   -1.800610   -4.650230
  H     11.666900   -0.505570   -4.584900
  H     19.429150   -5.159050    1.411080
  H     18.168410   -6.393360    1.666810
  H     18.549490   -5.215690    2.955190
  H     13.800610   -7.174300   -3.206540
  H     14.488630   -5.839500   -4.171500
  H     12.723980   -6.010850   -4.015390
  H     17.953910   -7.419640   -1.103230
  H     21.367640   -2.233060   -1.702240
  H     23.549580   -1.281260   -2.385760
  H     25.901170   -1.596430   -3.048060
  H     26.859970   -3.861110   -3.183650
  H     25.476450   -5.829410   -2.657190
  H     23.360770   -6.796490   -1.980390

 Total Charge           Charge          ....    0
 Multiplicity           Mult            ....    1
 Number of Electrons    NEL             ....  532
 Basis Dimension        Dim             .... 1222

ORBITAL ENERGIES
----------------

  NO   OCC          E(Eh)            E(eV)
   0   2.0000     -89.027963     -2422.5740
   1   2.0000     -24.788596      -674.5320
   2   2.0000     -24.788398      -674.5266
   3   2.0000     -24.784945      -674.4326
   4   2.0000     -24.771138      -674.0569
   5   2.0000     -19.261659      -524.1364
   6   2.0000     -19.253712      -523.9201
   7   2.0000     -19.246873      -523.7340
   8   2.0000     -19.245787      -523.7045
   9   2.0000     -19.216878      -522.9178
  10   2.0000     -19.207641      -522.6665
  11   2.0000     -14.431903      -392.7120
  12   2.0000     -14.431791      -392.7090
  13   2.0000     -14.421332      -392.4244
  14   2.0000     -14.420243      -392.3948
  15   2.0000     -14.417344      -392.3159
  16   2.0000     -14.416905      -392.3039
  17   2.0000     -14.411208      -392.1489
  18   2.0000     -14.406486      -392.0204
  19   2.0000     -10.367382      -282.1108
  20   2.0000     -10.360607      -281.9265
  21   2.0000     -10.359793      -281.9043
  22   2.0000     -10.358192      -281.8607
  23   2.0000     -10.357533      -281.8428
  24   2.0000     -10.351827      -281.6875
  25   2.0000     -10.351421      -281.6765
  26   2.0000     -10.348267      -281.5907
  27   2.0000     -10.344946      -281.5003
  28   2.0000     -10.343667      -281.4655
  29   2.0000     -10.342096      -281.4227
  30   2.0000     -10.341427      -281.4045
  31   2.0000     -10.333857      -281.1985
  32   2.0000     -10.329373      -281.0765
  33   2.0000     -10.324355      -280.9400
  34   2.0000     -10.324313      -280.9388
  35   2.0000     -10.320157      -280.8258
  36   2.0000     -10.320113      -280.8246
  37   2.0000     -10.319911      -280.8190
  38   2.0000     -10.319727      -280.8140
  39   2.0000     -10.319609      -280.8108
  40   2.0000     -10.318467      -280.7798
  41   2.0000     -10.318306      -280.7754
  42   2.0000     -10.317835      -280.7626
  43   2.0000     -10.317628      -280.7569
  44   2.0000     -10.317047      -280.7411
  45   2.0000     -10.315488      -280.6987
  46   2.0000     -10.313966      -280.6573
  47   2.0000     -10.307378      -280.4780
  48   2.0000     -10.307143      -280.4716
  49   2.0000     -10.304694      -280.4050
  50   2.0000     -10.300205      -280.2828
  51   2.0000     -10.299459      -280.2625
  52   2.0000     -10.299236      -280.2565
  53   2.0000     -10.298920      -280.2479
  54   2.0000     -10.298142      -280.2267
  55   2.0000     -10.297832      -280.2183
  56   2.0000     -10.297670      -280.2139
  57   2.0000     -10.297361      -280.2054
  58   2.0000     -10.297218      -280.2015
  59   2.0000     -10.297024      -280.1963
  60   2.0000     -10.296519      -280.1825
  61   2.0000     -10.293301      -280.0950
  62   2.0000     -10.292955      -280.0855
  63   2.0000     -10.292352      -280.0691
  64   2.0000     -10.291574      -280.0480
  65   2.0000     -10.290570      -280.0206
  66   2.0000     -10.290520      -280.0193
  67   2.0000     -10.288741      -279.9709
  68   2.0000     -10.288066      -279.9525
  69   2.0000     -10.287522      -279.9377
  70   2.0000     -10.287345      -279.9329
  71   2.0000     -10.286939      -279.9218
  72   2.0000     -10.282730      -279.8073
  73   2.0000     -10.282281      -279.7951
  74   2.0000     -10.281996      -279.7873
  75   2.0000     -10.281673      -279.7785
  76   2.0000     -10.281181      -279.7652
  77   2.0000      -8.119291      -220.9371
  78   2.0000      -6.090102      -165.7201
  79   2.0000      -6.082586      -165.5156
  80   2.0000      -6.082419      -165.5110
  81   2.0000      -1.301588       -35.4180
  82   2.0000      -1.299898       -35.3720
  83   2.0000      -1.298081       -35.3226
  84   2.0000      -1.286614       -35.0105
  85   2.0000      -1.164511       -31.6880
  86   2.0000      -1.159370       -31.5481
  87   2.0000      -1.152372       -31.3576
  88   2.0000      -1.150703       -31.3122
  89   2.0000      -1.131737       -30.7961
  90   2.0000      -1.122889       -30.5554
  91   2.0000      -1.122217       -30.5371
  92   2.0000      -1.077491       -29.3200
  93   2.0000      -1.019888       -27.7526
  94   2.0000      -1.010610       -27.5001
  95   2.0000      -1.003477       -27.3060
  96   2.0000      -0.999853       -27.2074
  97   2.0000      -0.995687       -27.0940
  98   2.0000      -0.991858       -26.9898
  99   2.0000      -0.987740       -26.8778
 100   2.0000      -0.977034       -26.5865
 101   2.0000      -0.974594       -26.5201
 102   2.0000      -0.971389       -26.4328
 103   2.0000      -0.965351       -26.2685
 104   2.0000      -0.962236       -26.1838
 105   2.0000      -0.949038       -25.8246
 106   2.0000      -0.926517       -25.2118
 107   2.0000      -0.918291       -24.9880
 108   2.0000      -0.909742       -24.7553
 109   2.0000      -0.901709       -24.5368
 110   2.0000      -0.888057       -24.1653
 111   2.0000      -0.882845       -24.0234
 112   2.0000      -0.880182       -23.9510
 113   2.0000      -0.875437       -23.8218
 114   2.0000      -0.864333       -23.5197
 115   2.0000      -0.861916       -23.4539
 116   2.0000      -0.854895       -23.2629
 117   2.0000      -0.852253       -23.1910
 118   2.0000      -0.838868       -22.8268
 119   2.0000      -0.829826       -22.5807
 120   2.0000      -0.823454       -22.4073
 121   2.0000      -0.822835       -22.3905
 122   2.0000      -0.809155       -22.0182
 123   2.0000      -0.806376       -21.9426
 124   2.0000      -0.796537       -21.6749
 125   2.0000      -0.786299       -21.3963
 126   2.0000      -0.779819       -21.2200
 127   2.0000      -0.764152       -20.7936
 128   2.0000      -0.762437       -20.7470
 129   2.0000      -0.760632       -20.6978
 130   2.0000      -0.754388       -20.5280
 131   2.0000      -0.744071       -20.2472
 132   2.0000      -0.741095       -20.1662
 133   2.0000      -0.723372       -19.6839
 134   2.0000      -0.706563       -19.2265
 135   2.0000      -0.705613       -19.2007
 136   2.0000      -0.702809       -19.1244
 137   2.0000      -0.701275       -19.0827
 138   2.0000      -0.699345       -19.0301
 139   2.0000      -0.697554       -18.9814
 140   2.0000      -0.696677       -18.9575
 141   2.0000      -0.685954       -18.6658
 142   2.0000      -0.676676       -18.4133
 143   2.0000      -0.673280       -18.3209
 144   2.0000      -0.669155       -18.2086
 145   2.0000      -0.664612       -18.0850
 146   2.0000      -0.648961       -17.6591
 147   2.0000      -0.647568       -17.6212
 148   2.0000      -0.642431       -17.4814
 149   2.0000      -0.637672       -17.3519
 150   2.0000      -0.634254       -17.2589
 151   2.0000      -0.629464       -17.1286
 152   2.0000      -0.625217       -17.0130
 153   2.0000      -0.623705       -16.9719
 154   2.0000      -0.622489       -16.9388
 155   2.0000      -0.619158       -16.8481
 156   2.0000      -0.610053       -16.6004
 157   2.0000      -0.607840       -16.5402
 158   2.0000      -0.601943       -16.3797
 159   2.0000      -0.600991       -16.3538
 160   2.0000      -0.599411       -16.3108
 161   2.0000      -0.596345       -16.2274
 162   2.0000      -0.593722       -16.1560
 163   2.0000      -0.585326       -15.9275
 164   2.0000      -0.584808       -15.9134
 165   2.0000      -0.580233       -15.7889
 166   2.0000      -0.574892       -15.6436
 167   2.0000      -0.568138       -15.4598
 168   2.0000      -0.566291       -15.4096
 169   2.0000      -0.564761       -15.3679
 170   2.0000      -0.563735       -15.3400
 171   2.0000      -0.554133       -15.0787
 172   2.0000      -0.550838       -14.9891
 173   2.0000      -0.549438       -14.9510
 174   2.0000      -0.549381       -14.9494
 175   2.0000      -0.548056       -14.9134
 176   2.0000      -0.545487       -14.8434
 177   2.0000      -0.543457       -14.7882
 178   2.0000      -0.541480       -14.7344
 179   2.0000      -0.540448       -14.7063
 180   2.0000      -0.538991       -14.6667
 181   2.0000      -0.537733       -14.6325
 182   2.0000      -0.536394       -14.5960
 183   2.0000      -0.534608       -14.5474
 184   2.0000      -0.531935       -14.4747
 185   2.0000      -0.530706       -14.4412
 186   2.0000      -0.528823       -14.3900
 187   2.0000      -0.527696       -14.3593
 188   2.0000      -0.522940       -14.2299
 189   2.0000      -0.521704       -14.1963
 190   2.0000      -0.518470       -14.1083
 191   2.0000      -0.517429       -14.0799
 192   2.0000      -0.514317       -13.9953
 193   2.0000      -0.513785       -13.9808
 194   2.0000      -0.511583       -13.9209
 195   2.0000      -0.509955       -13.8766
 196   2.0000      -0.506785       -13.7903
 197   2.0000      -0.503564       -13.7027
 198   2.0000      -0.500371       -13.6158
 199   2.0000      -0.498847       -13.5743
 200   2.0000      -0.496692       -13.5157
 201   2.0000      -0.493354       -13.4248
 202   2.0000      -0.491424       -13.3723
 203   2.0000      -0.488989       -13.3061
 204   2.0000      -0.484614       -13.1870
 205   2.0000      -0.482935       -13.1413
 206   2.0000      -0.481568       -13.1041
 207   2.0000      -0.481241       -13.0952
 208   2.0000      -0.480432       -13.0732
 209   2.0000      -0.477249       -12.9866
 210   2.0000      -0.471675       -12.8349
 211   2.0000      -0.466988       -12.7074
 212   2.0000      -0.464804       -12.6479
 213   2.0000      -0.462149       -12.5757
 214   2.0000      -0.457168       -12.4402
 215   2.0000      -0.455674       -12.3995
 216   2.0000      -0.451799       -12.2941
 217   2.0000      -0.449486       -12.2311
 218   2.0000      -0.445955       -12.1350
 219   2.0000      -0.444845       -12.1049
 220   2.0000      -0.442239       -12.0339
 221   2.0000      -0.438159       -11.9229
 222   2.0000      -0.436902       -11.8887
 223   2.0000      -0.435970       -11.8634
 224   2.0000      -0.434547       -11.8246
 225   2.0000      -0.434011       -11.8100
 226   2.0000      -0.430778       -11.7221
 227   2.0000      -0.429436       -11.6856
 228   2.0000      -0.428753       -11.6670
 229   2.0000      -0.427220       -11.6253
 230   2.0000      -0.425139       -11.5686
 231   2.0000      -0.424502       -11.5513
 232   2.0000      -0.421878       -11.4799
 233   2.0000      -0.418783       -11.3957
 234   2.0000      -0.414565       -11.2809
 235   2.0000      -0.413287       -11.2461
 236   2.0000      -0.410778       -11.1778
 237   2.0000      -0.410372       -11.1668
 238   2.0000      -0.407183       -11.0800
 239   2.0000      -0.406387       -11.0584
 240   2.0000      -0.405323       -11.0294
 241   2.0000      -0.397610       -10.8195
 242   2.0000      -0.394838       -10.7441
 243   2.0000      -0.392807       -10.6888
 244   2.0000      -0.389541       -10.6000
 245   2.0000      -0.381885       -10.3916
 246   2.0000      -0.377119       -10.2619
 247   2.0000      -0.374401       -10.1880
 248   2.0000      -0.368586       -10.0297
 249   2.0000      -0.363944        -9.9034
 250   2.0000      -0.360512        -9.8100
 251   2.0000      -0.347963        -9.4686
 252   2.0000      -0.343682        -9.3521
 253   2.0000      -0.338849        -9.2205
 254   2.0000      -0.328803        -8.9472
 255   2.0000      -0.325528        -8.8581
 256   2.0000      -0.319082        -8.6827
 257   2.0000      -0.318851        -8.6764
 258   2.0000      -0.311518        -8.4768
 259   2.0000      -0.307478        -8.3669
 260   2.0000      -0.299453        -8.1485
 261   2.0000      -0.294100        -8.0029
 262   2.0000      -0.288074        -7.8389
 263   2.0000      -0.275770        -7.5041
 264   2.0000      -0.269339        -7.3291
 265   2.0000      -0.264621        -7.2007
 266   0.0000      -0.091909        -2.5010
 267   0.0000      -0.084755        -2.3063
 268   0.0000      -0.076046        -2.0693
 269   0.0000      -0.055798        -1.5183
 270   0.0000      -0.047283        -1.2866

MULLIKEN ATOMIC CHARGES
-----------------------
   0 C :   -0.013378
   1 C :    0.031119
   2 C :    0.036318
   3 C :   -0.018925
   4 C :    0.095904
   5 C :   -0.090551
   6 C :    0.043029
   7 C :    0.012496
   8 C :   -0.081529
   9 C :    0.093307
  10 C :    0.130196
  11 O :   -0.141458
  12 C :   -0.101204
  13 C :    0.315670
  14 C :   -0.336389
  15 C :   -0.208130
  16 N :    0.175605
  17 C :   -0.189808
  18 N :    0.145714
  19 C :    0.008036
  20 C :   -0.023625
  21 C :    0.112733
  22 F :   -0.188604
  23 C :    0.207037
  24 O :   -0.296848
  25 C :    0.185782
  26 C :   -0.137555
  27 C :    0.195149
  28 C :    0.126357
  29 O :   -0.309896
  30 C :    0.183324
  31 F :   -0.191173
  32 C :    0.045411
  33 C :   -0.052242
  34 C :   -0.044974
  35 N :    0.001500
  36 C :    0.017929
  37 C :    0.026155
  38 N :    0.006487
  39 C :    0.061124
  40 C :    0.006900
  41 C :    0.029198
  42 N :   -0.271368
  43 S :    0.531369
  44 N :   -0.265517
  45 C :   -0.136061
  46 C :    0.217263
  47 F :   -0.172313
  48 C :    0.164543
  49 O :   -0.282034
  50 C :    0.191371
  51 C :   -0.078572
  52 C :    0.116988
  53 C :    0.197116
  54 O :   -0.301303
  55 C :    0.187203
  56 F :   -0.197459
  57 C :   -0.059358
  58 C :   -0.126918
  59 C :    0.308315
  60 C :   -0.339988
  61 C :   -0.179845
  62 N :    0.150766
  63 C :   -0.205298
  64 N :    0.166856
  65 C :    0.052833
  66 C :   -0.007591
  67 C :   -0.081294
  68 C :    0.098734
  69 C :   -0.017108
  70 C :    0.037212
  71 C :    0.039506
  72 C :   -0.020930
  73 C :    0.098757
  74 C :   -0.087998
  75 C :    0.151150
  76 O :   -0.127184
  77 H :   -0.019260
  78 H :   -0.005488
  79 H :   -0.007093
  80 H :   -0.013183
  81 H :   -0.011592
  82 H :   -0.013674
  83 H :    0.033397
  84 H :    0.027275
  85 H :    0.031628
  86 H :    0.032974
  87 H :    0.040336
  88 H :    0.034121
  89 H :    0.034925
  90 H :    0.012878
  91 H :    0.018054
  92 H :    0.029016
  93 H :    0.038239
  94 H :    0.039878
  95 H :    0.028742
  96 H :    0.024891
  97 H :    0.030239
  98 H :    0.048980
  99 H :   -0.011648
 100 H :   -0.016458
 101 H :   -0.004241
 102 H :   -0.004134
 103 H :   -0.009724
 104 H :   -0.007114
Sum of atomic charges:   -0.0000000

LOEWDIN ATOMIC CHARGES
----------------------
   0 C :   -0.009310
   1 C :   -0.015881
   2 C :   -0.014473
   3 C :   -0.008282
   4 C :   -0.005627
   5 C :    0.010070
   6 C :   -0.020233
   7 C :   -0.057347
   8 C :    0.032073
   9 C :   -0.010590
  10 C :    0.085227
  11 O :   -0.140491
  12 C :   -0.081652
  13 C :    0.071147
  14 C :   -0.134375
  15 C :   -0.019962
  16 N :   -0.046526
  17 C :   -0.018927
  18 N :   -0.060013
  19 C :    0.075953
  20 C :   -0.073603
  21 C :    0.066037
  22 F :   -0.059127
  23 C :    0.036194
  24 O :   -0.088644
  25 C :    0.079090
  26 C :   -0.028145
  27 C :    0.066201
  28 C :    0.038491
  29 O :   -0.076968
  30 C :    0.078590
  31 F :   -0.058438
  32 C :   -0.010962
  33 C :   -0.003870
  34 C :   -0.002280
  35 N :   -0.027748
  36 C :    0.006637
  37 C :    0.011309
  38 N :   -0.027450
  39 C :   -0.006372
  40 C :   -0.042770
  41 C :   -0.039914
  42 N :   -0.292373
  43 S :    0.678689
  44 N :   -0.289267
  45 C :   -0.039008
  46 C :    0.083034
  47 F :   -0.049440
  48 C :    0.048817
  49 O :   -0.068597
  50 C :    0.084728
  51 C :   -0.091623
  52 C :    0.054706
  53 C :    0.031121
  54 O :   -0.092511
  55 C :    0.077689
  56 F :   -0.069599
  57 C :    0.075520
  58 C :   -0.091730
  59 C :    0.075418
  60 C :   -0.136516
  61 C :   -0.017841
  62 N :   -0.050621
  63 C :   -0.025323
  64 N :   -0.049873
  65 C :   -0.027371
  66 C :   -0.055743
  67 C :    0.032642
  68 C :   -0.007670
  69 C :   -0.009112
  70 C :   -0.011467
  71 C :   -0.012824
  72 C :   -0.005342
  73 C :   -0.006555
  74 C :    0.020151
  75 C :    0.075693
  76 O :   -0.124538
  77 H :    0.031268
  78 H :    0.032178
  79 H :    0.032204
  80 H :    0.033211
  81 H :    0.036765
  82 H :    0.038635
  83 H :    0.047539
  84 H :    0.017147
  85 H :    0.018305
  86 H :    0.026260
  87 H :    0.021797
  88 H :    0.025794
  89 H :    0.019705
  90 H :    0.026070
  91 H :    0.029009
  92 H :    0.015780
  93 H :    0.022003
  94 H :    0.029307
  95 H :    0.016131
  96 H :    0.016721
  97 H :    0.024761
  98 H :    0.046356
  99 H :    0.039898
 100 H :    0.032340
 101 H :    0.033198
 102 H :    0.033490
 103 H :    0.034699
 104 H :    0.039127

  Mayer bond orders larger than 0.100000
B(  0-C ,  1-C ) :   1.4885 B(  0-C ,  9-C ) :   1.2451 B(  0-C , 77-H ) :   0.9976
B(  1-C ,  2-C ) :   1.2602 B(  1-C , 78-H ) :   0.9892 B(  2-C ,  3-C ) :   1.4900
B(  2-C , 79-H ) :   0.9887 B(  3-C ,  4-C ) :   1.2403 B(  3-C , 80-H ) :   0.9974
B(  4-C ,  5-C ) :   1.2029 B(  4-C ,  9-C ) :   1.2584 B(  5-C ,  6-C ) :   1.4546
B(  5-C , 81-H ) :   0.9934 B(  6-C ,  7-C ) :   1.2105 B(  6-C , 13-C ) :   1.0037
B(  7-C ,  8-C ) :   1.4760 B(  7-C , 10-C ) :   0.9234 B(  8-C ,  9-C ) :   1.1829
B(  8-C , 82-H ) :   1.0158 B( 10-C , 11-O ) :   2.2640 B( 10-C , 12-C ) :   0.9326
B( 12-C , 13-C ) :   1.0277 B( 12-C , 19-C ) :   1.6937 B( 13-C , 14-C ) :   1.6511
B( 14-C , 15-C ) :   1.1641 B( 14-C , 17-C ) :   1.1398 B( 15-C , 16-N ) :   3.0100
B( 17-C , 18-N ) :   2.9777 B( 19-C , 20-C ) :   1.0835 B( 19-C , 83-H ) :   0.9259
B( 20-C , 21-C ) :   1.2913 B( 20-C , 26-C ) :   0.1273 B( 20-C , 28-C ) :   1.3201
B( 21-C , 22-F ) :   1.1280 B( 21-C , 23-C ) :   1.2695 B( 23-C , 24-O ) :   1.2183
B( 23-C , 26-C ) :   1.3530 B( 24-O , 25-C ) :   0.9339 B( 25-C , 84-H ) :   0.9743
B( 25-C , 85-H ) :   0.9760 B( 25-C , 86-H ) :   0.9793 B( 26-C , 27-C ) :   1.4077
B( 26-C , 32-C ) :   0.9094 B( 27-C , 28-C ) :   1.2449 B( 27-C , 31-F ) :   1.1278
B( 28-C , 29-O ) :   1.1904 B( 29-O , 30-C ) :   0.9183 B( 30-C , 87-H ) :   0.9748
B( 30-C , 88-H ) :   0.9767 B( 30-C , 89-H ) :   0.9771 B( 32-C , 33-C ) :   1.3918
B( 32-C , 39-C ) :   0.1488 B( 32-C , 41-C ) :   1.3026 B( 33-C , 34-C ) :   1.1024
B( 33-C , 38-N ) :   1.4315 B( 34-C , 35-N ) :   1.4272 B( 34-C , 39-C ) :   1.3913
B( 35-N , 36-C ) :   1.7392 B( 36-C , 37-C ) :   1.1455 B( 36-C , 90-H ) :   0.9728
B( 37-C , 38-N ) :   1.7393 B( 37-C , 91-H ) :   0.9736 B( 39-C , 40-C ) :   1.3010
B( 39-C , 45-C ) :   0.9099 B( 40-C , 41-C ) :   1.1121 B( 40-C , 44-N ) :   1.4819
B( 41-C , 42-N ) :   1.4839 B( 42-N , 43-S ) :   1.3050 B( 42-N , 44-N ) :   0.1678
B( 43-S , 44-N ) :   1.3088 B( 45-C , 46-C ) :   1.4478 B( 45-C , 51-C ) :   0.1198
B( 45-C , 53-C ) :   1.3157 B( 46-C , 47-F ) :   1.1843 B( 46-C , 48-C ) :   1.2429
B( 48-C , 49-O ) :   1.2194 B( 48-C , 51-C ) :   1.3104 B( 49-O , 50-C ) :   0.9513
B( 50-C , 92-H ) :   0.9596 B( 50-C , 93-H ) :   0.9575 B( 50-C , 94-H ) :   0.9744
B( 51-C , 52-C ) :   1.2578 B( 51-C , 57-C ) :   1.0591 B( 52-C , 53-C ) :   1.3106
B( 52-C , 56-F ) :   1.1131 B( 53-C , 54-O ) :   1.2038 B( 54-O , 55-C ) :   0.9375
B( 55-C , 95-H ) :   0.9754 B( 55-C , 96-H ) :   0.9740 B( 55-C , 97-H ) :   0.9794
B( 57-C , 58-C ) :   1.6802 B( 57-C , 98-H ) :   0.9446 B( 58-C , 59-C ) :   1.0318
B( 58-C , 75-C ) :   0.9265 B( 59-C , 60-C ) :   1.6628 B( 59-C , 65-C ) :   1.0010
B( 60-C , 61-C ) :   1.1349 B( 60-C , 63-C ) :   1.1481 B( 61-C , 62-N ) :   2.9738
B( 63-C , 64-N ) :   2.9882 B( 65-C , 66-C ) :   1.2144 B( 65-C , 74-C ) :   1.4406
B( 66-C , 67-C ) :   1.4739 B( 66-C , 75-C ) :   0.9396 B( 67-C , 68-C ) :   1.1746
B( 67-C , 99-H ) :   1.0188 B( 68-C , 69-C ) :   1.2437 B( 68-C , 73-C ) :   1.2581
B( 69-C , 70-C ) :   1.4876 B( 69-C ,100-H ) :   0.9987 B( 70-C , 71-C ) :   1.2596
B( 70-C ,101-H ) :   0.9889 B( 71-C , 72-C ) :   1.4907 B( 71-C ,102-H ) :   0.9881
B( 72-C , 73-C ) :   1.2363 B( 72-C ,103-H ) :   0.9982 B( 73-C , 74-C ) :   1.2063
B( 74-C ,104-H ) :   0.9926 B( 75-C , 76-O ) :   2.2371

-----------------------------------------------------------------------------
         ABSORPTION SPECTRUM VIA TRANSITION ELECTRIC DIPOLE MOMENTS
-----------------------------------------------------------------------------
State   Energy  Wavelength   fosc         T2         TX        TY        TZ
        (cm-1)    (nm)                  (au**2)     (au)      (au)      (au)
-----------------------------------------------------------------------------
   0   19731.9    506.8   0.341565339   5.69877   2.04980  -1.17619  -0.33712
   1   20668.6    483.8   0.127856900   2.03652  -1.18181   0.74026  -0.30309
   2   21678.3    461.3   0.067967935   1.03218   0.90956  -0.38994  -0.22985
   3   23030.4    434.2   0.267466458   3.82334  -1.82646   0.63442  -0.29134
   4   23278.0    429.6   0.285398913   4.03629  -1.75882   0.85635  -0.45771
   5   25134.6    397.9   0.029352574   0.38446   0.47328  -0.39212  -0.08193
   6   25628.8    390.2   0.041141117   0.52847  -0.69528   0.13781   0.16144
   7   26798.9    373.1   0.140004607   1.71989   0.84045  -0.47001   0.89029
   8   26998.6    370.4   0.002708943   0.03303   0.11555   0.12048  -0.07187
   9   27939.5    357.9   0.102930015   1.21283  -0.82491  -0.60433   0.40883
  10   28317.1    353.1   0.027476815   0.31944   0.54429   0.14692   0.04014
  11   28632.6    349.3   0.047840144   0.55006  -0.69402  -0.19789  -0.17099
  12   29037.1    344.4   0.021107551   0.23931  -0.30792   0.07655  -0.37234
  13   29442.3    339.6   0.005101928   0.05705  -0.02464   0.00226  -0.23756
  14   30273.9    330.3   0.027055424   0.29421  -0.22210  -0.45940   0.18395
  15   30552.5    327.3   0.000191749   0.00207   0.03711  -0.02515   0.00753
  16   30750.5    325.2   0.034345893   0.36770  -0.41858  -0.03292  -0.43750
  17   31056.0    322.0   0.044117731   0.46767  -0.48096   0.44047   0.20577
  18   31291.6    319.6   0.073937340   0.77788   0.72090  -0.47434  -0.18216
  19   31553.8    316.9   0.039152319   0.40849  -0.19971   0.32605  -0.51215
  20   31953.6    313.0   0.026309411   0.27106   0.15921   0.48984  -0.07595
  21   32480.4    307.9   0.002256299   0.02287   0.09686   0.06917  -0.09329
  22   32899.9    304.0   0.334863207   3.35080   0.11625  -0.50477   1.75570
  23   33042.1    302.6   0.389152450   3.87728  -1.75515  -0.52665   0.72069
  24   33351.2    299.8   0.020176570   0.19916  -0.40314   0.08488  -0.17156
  25   34005.9    294.1   0.228735070   2.21439   1.46684  -0.05894  -0.24350
  26   34084.6    293.4   0.045715235   0.44155  -0.39214  -0.52497   0.11036
  27   34442.4    290.3   0.014515208   0.13874  -0.33617  -0.14051   0.07736
  28   34622.4    288.8   0.863633792   8.21198   1.73556   2.14874  -0.76336
  29   34750.5    287.8   0.929505426   8.80576  -2.92369   0.40591  -0.30504
  30   35550.4    281.3   0.117796920   1.09085  -1.03440  -0.08901   0.11378
  31   36084.9    277.1   0.011701879   0.10676  -0.02235   0.31334  -0.08987
  32   36938.5    270.7   0.006740601   0.06008   0.19119   0.12161  -0.09344
  33   37195.3    268.9   0.000250070   0.00221  -0.01942  -0.04170  -0.00985
  34   37332.5    267.9   0.011303781   0.09968  -0.12233  -0.29032   0.02081
  35   37613.3    265.9   0.002979498   0.02608   0.06108  -0.13183  -0.07049
  36   37938.1    263.6   0.030560406   0.26519   0.51202  -0.05501  -0.00044
  37   38237.2    261.5   0.083622336   0.71997  -0.78250   0.08804   0.31609
  38   38516.8    259.6   0.047682498   0.40755   0.39685  -0.33846  -0.36811
  39   38628.8    258.9   0.088862140   0.75732  -0.41048  -0.76217  -0.08904
  40   38819.4    257.6   0.056324041   0.47766  -0.02106   0.63012   0.28313
  41   38866.1    257.3   0.024429610   0.20693   0.44958   0.06569   0.02227
  42   39184.3    255.2   0.003283712   0.02759   0.08815  -0.01272  -0.14020
  43   39283.6    254.6   0.003936022   0.03299   0.12765  -0.11450  -0.05984
  44   39580.1    252.7   0.069515960   0.57821  -0.25275   0.69143  -0.19038
  45   39655.8    252.2   0.049737167   0.41290   0.26969  -0.57398   0.10355
  46   39859.3    250.9   0.047821201   0.39497   0.13117  -0.21883  -0.57435
  47   39917.8    250.5   0.030500634   0.25155  -0.04142   0.37627   0.32901
  48   39999.2    250.0   0.001883174   0.01550   0.08855   0.08715  -0.00795
  49   40050.3    249.7   0.013976966   0.11489  -0.11003   0.24067   0.21180
  50   40320.8    248.0   0.022155653   0.18090  -0.25537   0.07910  -0.33079

FINAL SINGLE POINT ENERGY     -3909.370266727617

DIPOLE MOMENT
-------------
                                X             Y             Z
Electronic contribution:     -0.41424      -6.36999      19.94154
Nuclear contribution   :      0.22028       6.90450     -20.81695
                        -----------------------------------------
Total Dipole Moment    :     -0.19396       0.53451      -0.87540
                        -----------------------------------------
Magnitude (a.u.)       :      1.04386
Magnitude (Debye)      :      2.65329

Rotational constants in cm-1:     0.002485     0.000265     0.000261
Rotational constants in MHz :    74.502008     7.937190     7.832893

                             ****ORCA TERMINATED NORMALLY****
TOTAL RUN TIME: 0 days 0 hours 11 minutes 21 seconds 868 msec
