                         Program Version 4.2.0 -  RELEASE  -
|  1> # ORCA input file
|  2> # SCF done       -152.408090039720          0.000193625649
|  3> ! CAM-B3LYP def2-SVP def2/J RIJCOSX Grid4 TightSCF
|  4> %maxcore 5000
|  5> %tddft
|  6>     Mode sTDDFT
|  7>     Ethresh 5.0
|  8>     maxcore 5000
|  9> end
| 10>
| 11> %pal
| 12>   nprocs 6
| 13>   end
| 14> * xyz 0 1
| 15>    C        0.65662        -0.00069         4.44559
| 16>    N       -0.09936        -0.83067         5.16341
| 17>    C       -0.49323        -1.92158         4.55374
| 18>    C       -0.11662        -2.17423         3.21621
| 19>    N        0.64215        -1.27150         2.58099
| 20>    N        1.01815        -0.20027         3.19481
| 21>    C       -0.49994        -3.34977         2.49381
| 22>    C       -0.16347        -3.65395         1.18959
| 23>    C       -0.68977        -4.88210         0.79256
| 24>    C       -1.43408        -5.51157         1.81155
| 25>    S       -1.48488        -4.59494         3.24659
| 26>    C       -1.91906        -6.75099         1.33169
| 27>    C       -1.47818        -6.90763         0.00164
| 28>    C       -0.69763        -5.73970        -0.38057
| 29>    C       -0.10270        -5.50732        -1.58533
| 30>    C       -0.18462        -6.42749        -2.65257
| 31>    N       -0.24538        -7.16891        -3.52502
| 32>    C        0.63455        -4.33341        -1.85130
| 33>    N        1.23578        -3.38442        -2.07899
| 34>    C       -1.88977        -8.10650        -0.56276
| 35>    C       -2.64267        -8.86678         0.32531
| 36>    S       -2.84854        -8.07902         1.88058
| 37>    C       -3.20180       -10.14836         0.08644
| 38>    C       -3.95519       -10.80901         1.08200
| 39>    C       -4.51410       -12.12074         0.88294
| 40>    N       -5.21751       -12.69453         1.86461
| 41>    C       -5.39591       -12.06170         3.00058
| 42>    C       -4.83929       -10.75814         3.19909
| 43>    N       -4.14480       -10.18030         2.24711
| 44>    C       -5.03190       -10.07341         4.42404
| 45>    N       -5.20268        -9.54025         5.42320
| 46>    C       -6.14720       -12.68390         4.02761
| 47>    N       -6.75055       -13.16203         4.87565
| 48>    C       -4.34412       -12.83996        -0.32158
| 49>    C       -3.60362       -12.17532        -1.32808
| 50>    C       -3.04512       -10.85608        -1.12880
| 51>    N       -2.38879       -10.43667        -2.21077
| 52>    S       -2.46041       -11.56048        -3.35175
| 53>    N       -3.32325       -12.64336        -2.54453
| 54>    C       -4.88331       -14.14231        -0.47671
| 55>    C       -4.77605       -14.96063        -1.59628
| 56>    C       -5.40871       -16.18062        -1.40801
| 57>    C       -6.00618       -16.29661        -0.13570
| 58>    S       -5.78564       -14.89939         0.82600
| 59>    C       -6.61545       -17.57154        -0.04680
| 60>    C       -6.40368       -18.26232        -1.26065
| 61>    C       -5.63865       -17.40960        -2.15366
| 62>    C       -5.21742       -17.69247        -3.41958
| 63>    C       -5.49431       -18.92333        -4.05229
| 64>    N       -5.71157       -19.91864        -4.57776
| 65>    C       -4.47158       -16.77141        -4.18605
| 66>    N       -3.86458       -16.03056        -4.81647
| 67>    C       -6.96990       -19.53548        -1.25901
| 68>    C       -7.60080       -19.80261        -0.06012
| 69>    S       -7.50476       -18.48367         1.08485
| 70>    C       -8.29035       -20.99679         0.32036
| 71>    N       -8.83107       -21.03501         1.55030
| 72>    C       -9.45684       -22.14203         1.87383
| 73>    C       -9.53438       -23.19855         0.96023
| 74>    N       -8.97531       -23.08425        -0.23217
| 75>    N       -8.35759       -22.00091        -0.55906
| 76>    H        0.99804         0.90538         4.92349
| 77>    H       -1.11231        -2.61126         5.11402
| 78>    H        0.43670        -2.99405         0.59004
| 79>    H       -1.67264        -8.44601        -1.55870
| 80>    H       -4.25432       -14.64677        -2.48152
| 81>    H       -6.94220       -20.24797        -2.06310
| 82>    H       -9.89639       -22.18702         2.86133
| 83>    H      -10.03604       -24.12913         1.17270
| 84> *
| 85>
| 86>                          ****END OF INPUT****

CARTESIAN COORDINATES (ANGSTROEM)
---------------------------------
  C      0.656620   -0.000690    4.445590
  N     -0.099360   -0.830670    5.163410
  C     -0.493230   -1.921580    4.553740
  C     -0.116620   -2.174230    3.216210
  N      0.642150   -1.271500    2.580990
  N      1.018150   -0.200270    3.194810
  C     -0.499940   -3.349770    2.493810
  C     -0.163470   -3.653950    1.189590
  C     -0.689770   -4.882100    0.792560
  C     -1.434080   -5.511570    1.811550
  S     -1.484880   -4.594940    3.246590
  C     -1.919060   -6.750990    1.331690
  C     -1.478180   -6.907630    0.001640
  C     -0.697630   -5.739700   -0.380570
  C     -0.102700   -5.507320   -1.585330
  C     -0.184620   -6.427490   -2.652570
  N     -0.245380   -7.168910   -3.525020
  C      0.634550   -4.333410   -1.851300
  N      1.235780   -3.384420   -2.078990
  C     -1.889770   -8.106500   -0.562760
  C     -2.642670   -8.866780    0.325310
  S     -2.848540   -8.079020    1.880580
  C     -3.201800  -10.148360    0.086440
  C     -3.955190  -10.809010    1.082000
  C     -4.514100  -12.120740    0.882940
  N     -5.217510  -12.694530    1.864610
  C     -5.395910  -12.061700    3.000580
  C     -4.839290  -10.758140    3.199090
  N     -4.144800  -10.180300    2.247110
  C     -5.031900  -10.073410    4.424040
  N     -5.202680   -9.540250    5.423200
  C     -6.147200  -12.683900    4.027610
  N     -6.750550  -13.162030    4.875650
  C     -4.344120  -12.839960   -0.321580
  C     -3.603620  -12.175320   -1.328080
  C     -3.045120  -10.856080   -1.128800
  N     -2.388790  -10.436670   -2.210770
  S     -2.460410  -11.560480   -3.351750
  N     -3.323250  -12.643360   -2.544530
  C     -4.883310  -14.142310   -0.476710
  C     -4.776050  -14.960630   -1.596280
  C     -5.408710  -16.180620   -1.408010
  C     -6.006180  -16.296610   -0.135700
  S     -5.785640  -14.899390    0.826000
  C     -6.615450  -17.571540   -0.046800
  C     -6.403680  -18.262320   -1.260650
  C     -5.638650  -17.409600   -2.153660
  C     -5.217420  -17.692470   -3.419580
  C     -5.494310  -18.923330   -4.052290
  N     -5.711570  -19.918640   -4.577760
  C     -4.471580  -16.771410   -4.186050
  N     -3.864580  -16.030560   -4.816470
  C     -6.969900  -19.535480   -1.259010
  C     -7.600800  -19.802610   -0.060120
  S     -7.504760  -18.483670    1.084850
  C     -8.290350  -20.996790    0.320360
  N     -8.831070  -21.035010    1.550300
  C     -9.456840  -22.142030    1.873830
  C     -9.534380  -23.198550    0.960230
  N     -8.975310  -23.084250   -0.232170
  N     -8.357590  -22.000910   -0.559060
  H      0.998040    0.905380    4.923490
  H     -1.112310   -2.611260    5.114020
  H      0.436700   -2.994050    0.590040
  H     -1.672640   -8.446010   -1.558700
  H     -4.254320  -14.646770   -2.481520
  H     -6.942200  -20.247970   -2.063100
  H     -9.896390  -22.187020    2.861330
  H    -10.036040  -24.129130    1.172700

 Total Charge           Charge          ....    0
 Multiplicity           Mult            ....    1
 Number of Electrons    NEL             ....  440
 Basis Dimension        Dim             ....  914

ORBITAL ENERGIES
----------------

  NO   OCC          E(Eh)            E(eV)
   0   2.0000     -89.060227     -2423.4520
   1   2.0000     -89.000414     -2421.8244
   2   2.0000     -88.994176     -2421.6546
   3   2.0000     -88.992434     -2421.6072
   4   2.0000     -88.991542     -2421.5830
   5   2.0000     -14.485421      -394.1684
   6   2.0000     -14.485279      -394.1645
   7   2.0000     -14.468204      -393.6999
   8   2.0000     -14.467935      -393.6925
   9   2.0000     -14.464540      -393.6001
  10   2.0000     -14.462913      -393.5559
  11   2.0000     -14.454978      -393.3400
  12   2.0000     -14.452489      -393.2722
  13   2.0000     -14.446834      -393.1183
  14   2.0000     -14.446150      -393.0997
  15   2.0000     -14.445976      -393.0950
  16   2.0000     -14.442296      -392.9948
  17   2.0000     -14.433556      -392.7570
  18   2.0000     -14.431583      -392.7033
  19   2.0000     -14.431399      -392.6983
  20   2.0000     -14.429488      -392.6463
  21   2.0000     -10.402815      -283.0750
  22   2.0000     -10.402250      -283.0596
  23   2.0000     -10.369113      -282.1579
  24   2.0000     -10.368865      -282.1512
  25   2.0000     -10.365981      -282.0727
  26   2.0000     -10.365272      -282.0534
  27   2.0000     -10.365015      -282.0464
  28   2.0000     -10.360323      -281.9187
  29   2.0000     -10.360079      -281.9121
  30   2.0000     -10.355493      -281.7873
  31   2.0000     -10.353300      -281.7276
  32   2.0000     -10.347696      -281.5751
  33   2.0000     -10.347264      -281.5634
  34   2.0000     -10.346848      -281.5521
  35   2.0000     -10.346164      -281.5334
  36   2.0000     -10.341928      -281.4182
  37   2.0000     -10.340053      -281.3672
  38   2.0000     -10.339382      -281.3489
  39   2.0000     -10.337775      -281.3051
  40   2.0000     -10.337200      -281.2895
  41   2.0000     -10.336886      -281.2810
  42   2.0000     -10.333621      -281.1921
  43   2.0000     -10.332778      -281.1692
  44   2.0000     -10.332522      -281.1622
  45   2.0000     -10.332103      -281.1508
  46   2.0000     -10.331877      -281.1447
  47   2.0000     -10.331833      -281.1435
  48   2.0000     -10.330969      -281.1200
  49   2.0000     -10.330092      -281.0961
  50   2.0000     -10.329243      -281.0730
  51   2.0000     -10.327609      -281.0285
  52   2.0000     -10.322543      -280.8907
  53   2.0000     -10.311398      -280.5874
  54   2.0000     -10.308051      -280.4963
  55   2.0000     -10.308037      -280.4960
  56   2.0000     -10.306891      -280.4648
  57   2.0000     -10.306518      -280.4546
  58   2.0000     -10.305724      -280.4330
  59   2.0000     -10.305163      -280.4177
  60   2.0000     -10.304739      -280.4062
  61   2.0000      -8.151013      -221.8003
  62   2.0000      -8.094888      -220.2731
  63   2.0000      -8.088123      -220.0890
  64   2.0000      -8.085051      -220.0054
  65   2.0000      -8.084139      -219.9806
  66   2.0000      -6.122067      -166.5899
  67   2.0000      -6.114151      -166.3745
  68   2.0000      -6.114029      -166.3712
  69   2.0000      -6.064040      -165.0109
  70   2.0000      -6.059935      -164.8992
  71   2.0000      -6.057408      -164.8305
  72   2.0000      -6.057250      -164.8262
  73   2.0000      -6.054628      -164.7548
  74   2.0000      -6.053686      -164.7292
  75   2.0000      -6.053029      -164.7113
  76   2.0000      -6.050836      -164.6516
  77   2.0000      -6.049797      -164.6233
  78   2.0000      -6.048891      -164.5987
  79   2.0000      -6.047463      -164.5598
  80   2.0000      -6.046587      -164.5360
  81   2.0000      -1.157605       -31.5000
  82   2.0000      -1.156989       -31.4833
  83   2.0000      -1.154445       -31.4141
  84   2.0000      -1.143741       -31.1228
  85   2.0000      -1.072750       -29.1910
  86   2.0000      -1.049881       -28.5687
  87   2.0000      -1.049116       -28.5479
  88   2.0000      -1.042449       -28.3665
  89   2.0000      -1.037578       -28.2339
  90   2.0000      -1.031718       -28.0745
  91   2.0000      -1.024815       -27.8866
  92   2.0000      -1.022858       -27.8334
  93   2.0000      -1.021301       -27.7910
  94   2.0000      -1.014141       -27.5962
  95   2.0000      -1.010122       -27.4868
  96   2.0000      -1.008901       -27.4536
  97   2.0000      -1.007506       -27.4156
  98   2.0000      -0.999485       -27.1974
  99   2.0000      -0.989625       -26.9291
 100   2.0000      -0.967065       -26.3152
 101   2.0000      -0.961094       -26.1527
 102   2.0000      -0.945378       -25.7250
 103   2.0000      -0.943015       -25.6608
 104   2.0000      -0.927284       -25.2327
 105   2.0000      -0.923508       -25.1299
 106   2.0000      -0.908195       -24.7132
 107   2.0000      -0.892869       -24.2962
 108   2.0000      -0.873037       -23.7565
 109   2.0000      -0.870332       -23.6829
 110   2.0000      -0.861351       -23.4386
 111   2.0000      -0.859148       -23.3786
 112   2.0000      -0.853374       -23.2215
 113   2.0000      -0.831491       -22.6260
 114   2.0000      -0.830198       -22.5908
 115   2.0000      -0.812178       -22.1005
 116   2.0000      -0.802340       -21.8328
 117   2.0000      -0.793254       -21.5855
 118   2.0000      -0.788658       -21.4605
 119   2.0000      -0.777326       -21.1521
 120   2.0000      -0.775907       -21.1135
 121   2.0000      -0.762947       -20.7609
 122   2.0000      -0.755848       -20.5677
 123   2.0000      -0.737671       -20.0730
 124   2.0000      -0.723834       -19.6965
 125   2.0000      -0.714585       -19.4448
 126   2.0000      -0.705224       -19.1901
 127   2.0000      -0.703869       -19.1532
 128   2.0000      -0.702037       -19.1034
 129   2.0000      -0.689466       -18.7613
 130   2.0000      -0.683043       -18.5866
 131   2.0000      -0.675136       -18.3714
 132   2.0000      -0.667723       -18.1697
 133   2.0000      -0.660246       -17.9662
 134   2.0000      -0.653543       -17.7838
 135   2.0000      -0.651478       -17.7276
 136   2.0000      -0.640657       -17.4332
 137   2.0000      -0.637748       -17.3540
 138   2.0000      -0.630028       -17.1439
 139   2.0000      -0.628015       -17.0892
 140   2.0000      -0.624000       -16.9799
 141   2.0000      -0.619501       -16.8575
 142   2.0000      -0.615151       -16.7391
 143   2.0000      -0.609340       -16.5810
 144   2.0000      -0.600485       -16.3400
 145   2.0000      -0.598650       -16.2901
 146   2.0000      -0.584449       -15.9037
 147   2.0000      -0.574524       -15.6336
 148   2.0000      -0.573791       -15.6137
 149   2.0000      -0.565992       -15.4014
 150   2.0000      -0.563607       -15.3365
 151   2.0000      -0.560506       -15.2521
 152   2.0000      -0.556912       -15.1543
 153   2.0000      -0.549484       -14.9522
 154   2.0000      -0.548106       -14.9147
 155   2.0000      -0.547370       -14.8947
 156   2.0000      -0.534061       -14.5325
 157   2.0000      -0.531318       -14.4579
 158   2.0000      -0.529626       -14.4119
 159   2.0000      -0.525781       -14.3072
 160   2.0000      -0.516459       -14.0536
 161   2.0000      -0.509584       -13.8665
 162   2.0000      -0.504693       -13.7334
 163   2.0000      -0.503395       -13.6981
 164   2.0000      -0.501832       -13.6555
 165   2.0000      -0.501608       -13.6495
 166   2.0000      -0.499273       -13.5859
 167   2.0000      -0.498502       -13.5649
 168   2.0000      -0.495165       -13.4741
 169   2.0000      -0.488224       -13.2853
 170   2.0000      -0.487106       -13.2548
 171   2.0000      -0.483646       -13.1607
 172   2.0000      -0.479949       -13.0601
 173   2.0000      -0.476088       -12.9550
 174   2.0000      -0.473422       -12.8825
 175   2.0000      -0.469505       -12.7759
 176   2.0000      -0.466280       -12.6881
 177   2.0000      -0.464014       -12.6265
 178   2.0000      -0.462265       -12.5789
 179   2.0000      -0.460148       -12.5213
 180   2.0000      -0.459601       -12.5064
 181   2.0000      -0.459354       -12.4997
 182   2.0000      -0.457422       -12.4471
 183   2.0000      -0.454505       -12.3677
 184   2.0000      -0.451184       -12.2773
 185   2.0000      -0.443690       -12.0734
 186   2.0000      -0.442430       -12.0391
 187   2.0000      -0.442242       -12.0340
 188   2.0000      -0.441485       -12.0134
 189   2.0000      -0.440649       -11.9907
 190   2.0000      -0.439824       -11.9682
 191   2.0000      -0.436414       -11.8754
 192   2.0000      -0.433590       -11.7986
 193   2.0000      -0.433291       -11.7904
 194   2.0000      -0.429917       -11.6986
 195   2.0000      -0.428088       -11.6489
 196   2.0000      -0.423671       -11.5287
 197   2.0000      -0.423492       -11.5238
 198   2.0000      -0.422756       -11.5038
 199   2.0000      -0.420379       -11.4391
 200   2.0000      -0.415786       -11.3141
 201   2.0000      -0.405722       -11.0403
 202   2.0000      -0.402113       -10.9421
 203   2.0000      -0.400675       -10.9029
 204   2.0000      -0.399364       -10.8673
 205   2.0000      -0.394871       -10.7450
 206   2.0000      -0.392910       -10.6916
 207   2.0000      -0.375199       -10.2097
 208   2.0000      -0.367322        -9.9953
 209   2.0000      -0.366326        -9.9682
 210   2.0000      -0.358743        -9.7619
 211   2.0000      -0.354106        -9.6357
 212   2.0000      -0.350665        -9.5421
 213   2.0000      -0.327850        -8.9213
 214   2.0000      -0.324818        -8.8388
 215   2.0000      -0.319678        -8.6989
 216   2.0000      -0.308199        -8.3865
 217   2.0000      -0.306913        -8.3515
 218   2.0000      -0.287457        -7.8221
 219   2.0000      -0.249213        -6.7814
 220   0.0000      -0.144973        -3.9449
 221   0.0000      -0.108246        -2.9455
 222   0.0000      -0.103494        -2.8162
 223   0.0000      -0.070288        -1.9126
 224   0.0000      -0.059432        -1.6172

MULLIKEN ATOMIC CHARGES
-----------------------
   0 C :    0.058853
   1 N :   -0.048944
   2 C :    0.001855
   3 C :   -0.019164
   4 N :   -0.050346
   5 N :   -0.059020
   6 C :   -0.036885
   7 C :   -0.053396
   8 C :    0.030765
   9 C :   -0.099071
  10 S :    0.188629
  11 C :   -0.058424
  12 C :    0.038182
  13 C :    0.303018
  14 C :   -0.300641
  15 C :   -0.183016
  16 N :    0.173427
  17 C :   -0.196623
  18 N :    0.189351
  19 C :   -0.063478
  20 C :   -0.171923
  21 S :    0.203481
  22 C :    0.187954
  23 C :   -0.061000
  24 C :   -0.063985
  25 N :    0.000746
  26 C :   -0.097229
  27 C :   -0.099905
  28 N :   -0.001504
  29 C :   -0.244517
  30 N :    0.253483
  31 C :   -0.245483
  32 N :    0.254193
  33 C :    0.190569
  34 C :   -0.010749
  35 C :   -0.014367
  36 N :   -0.281373
  37 S :    0.590685
  38 N :   -0.282630
  39 C :   -0.174487
  40 C :   -0.065624
  41 C :    0.042131
  42 C :   -0.062763
  43 S :    0.206330
  44 C :   -0.103624
  45 C :    0.017233
  46 C :    0.306234
  47 C :   -0.301566
  48 C :   -0.197236
  49 N :    0.187548
  50 C :   -0.184565
  51 N :    0.169906
  52 C :   -0.055749
  53 C :   -0.029023
  54 S :    0.246974
  55 C :   -0.081205
  56 N :   -0.062921
  57 C :    0.056448
  58 C :    0.035112
  59 N :   -0.034725
  60 N :   -0.049168
  61 H :    0.033807
  62 H :    0.021371
  63 H :    0.030371
  64 H :    0.023025
  65 H :    0.022430
  66 H :    0.030126
  67 H :    0.026931
  68 H :    0.025157
Sum of atomic charges:   -0.0000000

LOEWDIN ATOMIC CHARGES
----------------------
   0 C :    0.020077
   1 N :   -0.047555
   2 C :    0.024019
   3 C :   -0.045416
   4 N :   -0.022887
   5 N :   -0.041978
   6 C :   -0.181750
   7 C :    0.003612
   8 C :   -0.064121
   9 C :   -0.173121
  10 S :    0.483682
  11 C :   -0.178732
  12 C :   -0.070858
  13 C :    0.077825
  14 C :   -0.096538
  15 C :   -0.015500
  16 N :   -0.031306
  17 C :   -0.020815
  18 N :   -0.021758
  19 C :   -0.006745
  20 C :   -0.166973
  21 S :    0.508728
  22 C :   -0.038297
  23 C :   -0.015261
  24 C :   -0.016069
  25 N :   -0.015257
  26 C :   -0.022307
  27 C :   -0.021214
  28 N :   -0.016538
  29 C :   -0.039419
  30 N :    0.002191
  31 C :   -0.039711
  32 N :    0.002473
  33 C :   -0.035070
  34 C :   -0.037075
  35 C :   -0.036577
  36 N :   -0.269961
  37 S :    0.709365
  38 N :   -0.269017
  39 C :   -0.168260
  40 C :   -0.005340
  41 C :   -0.070866
  42 C :   -0.175222
  43 S :    0.509810
  44 C :   -0.175282
  45 C :   -0.067276
  46 C :    0.078240
  47 C :   -0.099935
  48 C :   -0.020615
  49 N :   -0.024461
  50 C :   -0.015626
  51 N :   -0.033862
  52 C :    0.004965
  53 C :   -0.189343
  54 S :    0.518583
  55 C :   -0.009373
  56 N :   -0.076833
  57 C :    0.041291
  58 C :   -0.029164
  59 N :   -0.004136
  60 N :   -0.056167
  61 H :    0.027381
  62 H :    0.023228
  63 H :    0.049855
  64 H :    0.038639
  65 H :    0.038564
  66 H :    0.049834
  67 H :    0.033373
  68 H :    0.033853

  Mayer bond orders larger than 0.100000
B(  0-C ,  1-N ) :   1.4533 B(  0-C ,  5-N ) :   1.5396 B(  0-C , 61-H ) :   0.9802
B(  1-N ,  2-C ) :   1.6388 B(  2-C ,  3-C ) :   1.2704 B(  2-C , 62-H ) :   0.9750
B(  3-C ,  4-N ) :   1.5793 B(  3-C ,  6-C ) :   1.0692 B(  4-N ,  5-N ) :   1.3308
B(  6-C ,  7-C ) :   1.4730 B(  6-C , 10-S ) :   1.1071 B(  7-C ,  8-C ) :   1.2484
B(  7-C , 63-H ) :   1.0131 B(  8-C ,  9-C ) :   1.4176 B(  8-C , 13-C ) :   0.9910
B(  9-C , 10-S ) :   1.1358 B(  9-C , 11-C ) :   1.2039 B( 11-C , 12-C ) :   1.4071
B( 11-C , 21-S ) :   1.0847 B( 12-C , 13-C ) :   0.9897 B( 12-C , 19-C ) :   1.2781
B( 13-C , 14-C ) :   1.7197 B( 14-C , 15-C ) :   1.1375 B( 14-C , 17-C ) :   1.1329
B( 15-C , 16-N ) :   2.9851 B( 17-C , 18-N ) :   3.0020 B( 19-C , 20-C ) :   1.4083
B( 19-C , 64-H ) :   0.9824 B( 20-C , 21-S ) :   1.0865 B( 20-C , 22-C ) :   1.2116
B( 22-C , 23-C ) :   1.2551 B( 22-C , 33-C ) :   0.1221 B( 22-C , 35-C ) :   1.1957
B( 23-C , 24-C ) :   1.1046 B( 23-C , 28-N ) :   1.4033 B( 24-C , 25-N ) :   1.4093
B( 24-C , 33-C ) :   1.2498 B( 25-N , 26-C ) :   1.6912 B( 26-C , 27-C ) :   1.2222
B( 26-C , 31-C ) :   1.1678 B( 27-C , 28-N ) :   1.6943 B( 27-C , 29-C ) :   1.1661
B( 29-C , 30-N ) :   3.0398 B( 31-C , 32-N ) :   3.0391 B( 33-C , 34-C ) :   1.1949
B( 33-C , 39-C ) :   1.2171 B( 34-C , 35-C ) :   1.0994 B( 34-C , 38-N ) :   1.5165
B( 35-C , 36-N ) :   1.5185 B( 36-N , 37-S ) :   1.2859 B( 36-N , 38-N ) :   0.1463
B( 37-S , 38-N ) :   1.2873 B( 39-C , 40-C ) :   1.4045 B( 39-C , 43-S ) :   1.0850
B( 40-C , 41-C ) :   1.2820 B( 40-C , 65-H ) :   0.9815 B( 41-C , 42-C ) :   1.4054
B( 41-C , 46-C ) :   0.9876 B( 42-C , 43-S ) :   1.0898 B( 42-C , 44-C ) :   1.2080
B( 44-C , 45-C ) :   1.4114 B( 44-C , 54-S ) :   1.1335 B( 45-C , 46-C ) :   0.9926
B( 45-C , 52-C ) :   1.2639 B( 46-C , 47-C ) :   1.7179 B( 47-C , 48-C ) :   1.1319
B( 47-C , 50-C ) :   1.1378 B( 48-C , 49-N ) :   3.0035 B( 50-C , 51-N ) :   2.9839
B( 52-C , 53-C ) :   1.4753 B( 52-C , 66-H ) :   1.0091 B( 53-C , 54-S ) :   1.1086
B( 53-C , 55-C ) :   1.0449 B( 55-C , 56-N ) :   1.5478 B( 55-C , 60-N ) :   1.6062
B( 56-N , 57-C ) :   1.5803 B( 57-C , 58-C ) :   1.2924 B( 57-C , 67-H ) :   0.9730
B( 58-C , 59-N ) :   1.5562 B( 58-C , 68-H ) :   0.9838 B( 59-N , 60-N ) :   1.3382

-----------------------------------------------------------------------------
         ABSORPTION SPECTRUM VIA TRANSITION ELECTRIC DIPOLE MOMENTS
-----------------------------------------------------------------------------
State   Energy  Wavelength   fosc         T2         TX        TY        TZ
        (cm-1)    (nm)                  (au**2)     (au)      (au)      (au)
-----------------------------------------------------------------------------
   0    7345.9   1361.3   0.514176722  23.04330   1.87612   4.36847   0.66331
   1   13822.8    723.4   0.005950522   0.14172   0.16491   0.29432   0.16705
   2   14477.8    690.7   0.033998229   0.77309   0.33803   0.80751   0.08216
   3   16722.3    598.0   0.000540616   0.01064  -0.08904   0.04410  -0.02775
   4   22516.1    444.1   0.031231760   0.45665   0.31381  -0.00569  -0.59845
   5   22762.7    439.3   0.001858552   0.02688   0.11852  -0.10538   0.04157
   6   22852.5    437.6   0.271779801   3.91525  -0.71547  -1.79914  -0.40799
   7   23128.8    432.4   0.000146634   0.00209   0.04183  -0.00604   0.01735
   8   23442.1    426.6   0.060930646   0.85569  -0.50603  -0.71912   0.28722
   9   23669.7    422.5   0.096029479   1.33564   0.58750   0.95329  -0.28585
  10   23842.5    419.4   0.311264838   4.29787  -0.71668  -1.87817  -0.50665
  11   25180.4    397.1   0.001128138   0.01475   0.10510  -0.01066   0.05991
  12   25320.0    394.9   0.009342241   0.12147   0.09124   0.28148   0.18416
  13   25697.9    389.1   0.134718882   1.72586   0.52242   1.19548   0.15420
  14   25948.3    385.4   0.010691216   0.13564   0.30470  -0.17396   0.11198
  15   26074.2    383.5   0.012964237   0.16369   0.34417  -0.15321   0.14751
  16   28173.0    354.9   1.087364254  12.70625   1.39196   3.23444   0.55413
  17   28902.6    346.0   0.000005052   0.00006   0.00514   0.00556   0.00038
  18   29016.1    344.6   0.135737782   1.54006   0.65163   1.03838  -0.19291
  19   29384.5    340.3   0.000508794   0.00570  -0.06339   0.02990  -0.02806
  20   29750.5    336.1   0.210045632   2.32432  -0.61078  -1.39607   0.04748
  21   30055.5    332.7   0.122314282   1.33977  -0.11263  -0.72115  -0.89834
  22   30740.8    325.3   0.000004814   0.00005  -0.00496   0.00464  -0.00231
  23   30857.2    324.1   0.001032728   0.01102   0.02836  -0.01130  -0.10043
  24   31199.5    320.5   0.003825796   0.04037  -0.13228  -0.08460   0.12535
  25   31205.9    320.5   0.001256542   0.01326  -0.09737   0.05306  -0.03097
  26   31646.1    316.0   1.302336764  13.54810   1.44936   0.19866  -3.37757
  27   31977.6    312.7   0.194048707   1.99774  -0.15679  -1.13286  -0.83053
  28   32234.6    310.2   0.037430536   0.38228   0.25266   0.56357   0.02883
  29   32800.1    304.9   0.274720146   2.75734  -0.90602  -0.67458   1.21713
  30   32967.7    303.3   0.368437062   3.67918   0.51428  -0.55860  -1.76144
  31   33362.7    299.7   0.040482900   0.39947   0.30084   0.09704  -0.54731
  32   33385.4    299.5   0.018795145   0.18534  -0.25890  -0.16637   0.30105
  33   33610.3    297.5   0.000717276   0.00703   0.04109   0.07165   0.01428
  34   34068.2    293.5   0.008962596   0.08661  -0.11505  -0.26604  -0.05094
  35   34193.7    292.5   0.120445960   1.15964   0.45399   0.97639   0.01377
  36   34414.7    290.6   0.001341818   0.01284  -0.00797   0.10460   0.04279
  37   34707.6    288.1   0.313336609   2.97209  -0.63706  -0.18123   1.59167
  38   34968.7    286.0   0.223759548   2.10658   0.36367   1.22408   0.68989
  39   36086.9    277.1   0.050400628   0.45979   0.27691   0.60488   0.13129
  40   37397.9    267.4   0.042656466   0.37550  -0.22505  -0.01579   0.56974
  41   37571.4    266.2   0.000002580   0.00002   0.00303  -0.00028  -0.00365
  42   37835.9    264.3   0.000000023   0.00000  -0.00016  -0.00011  -0.00040
  43   38145.6    262.2   0.105801281   0.91311  -0.24234   0.12630   0.91566
  44   38465.6    260.0   0.003419721   0.02927  -0.00207  -0.00529  -0.17098
  45   38826.5    257.6   0.000300714   0.00255   0.03666  -0.03446   0.00428
  46   39066.0    256.0   0.131615288   1.10913  -0.40696   0.00256   0.97134
  47   39392.1    253.9   0.233137518   1.94840   0.63361   1.24336   0.03138
  48   39892.0    250.7   0.026739868   0.22067  -0.03687   0.27205   0.38118
  49   39990.2    250.1   0.005267803   0.04337  -0.15522   0.09306  -0.10302

FINAL SINGLE POINT ENERGY     -4392.175860158413

DIPOLE MOMENT
-------------
                                X             Y             Z
Electronic contribution:      0.37038       1.01075      -3.01463
Nuclear contribution   :     -1.68496      -1.94192       5.07514
                        -----------------------------------------
Total Dipole Moment    :     -1.31459      -0.93117       2.06050
                        -----------------------------------------
Magnitude (a.u.)       :      2.61551
Magnitude (Debye)      :      6.64810

Rotational constants in cm-1:     0.002944     0.000400     0.000352
Rotational constants in MHz :    88.269158    11.976957    10.555481

                             ****ORCA TERMINATED NORMALLY****
TOTAL RUN TIME: 0 days 0 hours 6 minutes 15 seconds 723 msec
