                         Program Version 4.2.0 -  RELEASE  -
|  1> # ORCA input file
|  2> # SCF done       -216.723670566165          0.000467004911
|  3> ! CAM-B3LYP def2-SVP def2/J RIJCOSX Grid4 TightSCF
|  4> %maxcore 5000
|  5> %tddft
|  6>     Mode sTDDFT
|  7>     Ethresh 5.0
|  8>     maxcore 5000
|  9> end
| 10>
| 11> %pal
| 12>   nprocs 6
| 13>   end
| 14> * xyz 0 1
| 15>    C        1.08914         1.04276         1.99857
| 16>    C        2.42708         1.00609         2.27372
| 17>    F        3.08221         2.13274         2.58478
| 18>    C        3.13438        -0.21235         2.23507
| 19>    F        4.44627        -0.21868         2.50974
| 20>    C        2.49330        -1.37777         1.92146
| 21>    C        1.11476        -1.37286         1.63290
| 22>    C        0.39795        -0.14193         1.67257
| 23>    C       -0.98661        -0.11312         1.39029
| 24>    C       -1.63722        -1.28054         1.08459
| 25>    C       -0.91325        -2.50385         1.04839
| 26>    C        0.42569        -2.56171         1.30621
| 27>    C       -1.82980        -3.60953         0.70235
| 28>    O       -1.51229        -4.75141         0.45793
| 29>    C       -3.17997        -2.99342         0.60925
| 30>    C       -3.03650        -1.55566         0.76846
| 31>    C       -4.02297        -0.60980         0.67098
| 32>    C       -5.37584        -0.85814         0.35657
| 33>    N       -6.49040        -0.96665         0.10106
| 34>    C       -3.81344         0.77397         0.85258
| 35>    N       -3.71129         1.90959         0.98609
| 36>    C       -4.32727        -3.66268         0.32078
| 37>    C       -4.51687        -5.08679         0.31212
| 38>    C       -3.92082        -5.94587         1.26370
| 39>    O       -3.27955        -5.37088         2.30043
| 40>    C       -2.72529        -6.19611         3.29974
| 41>    C       -4.09193        -7.31588         1.11732
| 42>    C       -4.87616        -7.85378         0.10617
| 43>    C       -5.58588        -6.99249        -0.75981
| 44>    C       -5.38822        -5.63021        -0.64093
| 45>    O       -6.46152        -7.57325        -1.61753
| 46>    C       -7.16931        -6.75194        -2.51565
| 47>    C       -4.97891        -9.30298        -0.03923
| 48>    C       -5.20057       -10.14756         1.05750
| 49>    C       -5.28057       -11.58005         0.91776
| 50>    N       -5.51401       -12.34229         2.01651
| 51>    C       -5.65824       -11.77097         3.16039
| 52>    C       -5.57800       -10.35383         3.29868
| 53>    N       -5.36282        -9.59003         2.28535
| 54>    F       -5.72629        -9.77600         4.49081
| 55>    F       -5.91200       -12.54269         4.21535
| 56>    C       -5.09479       -12.21585        -0.31824
| 57>    C       -4.91030       -11.37236        -1.42348
| 58>    C       -4.84246        -9.93309        -1.28503
| 59>    N       -4.61329        -9.33692        -2.46106
| 60>    S       -4.55293       -10.45175        -3.60176
| 61>    N       -4.78532       -11.74986        -2.70161
| 62>    C       -5.04158       -13.67080        -0.43119
| 63>    C       -3.99302       -14.28902        -1.14875
| 64>    O       -3.03886       -13.47716        -1.66345
| 65>    C       -1.96464       -14.05631        -2.36572
| 66>    C       -3.97649       -15.66758        -1.23562
| 67>    C       -4.90079       -16.47108        -0.55529
| 68>    C       -5.92857       -15.84283         0.18354
| 69>    C       -5.99105       -14.45745         0.20425
| 70>    O       -6.82740       -16.64552         0.80408
| 71>    C       -7.86730       -16.05533         1.55277
| 72>    C       -4.77214       -17.89322        -0.70005
| 73>    C       -5.10842       -18.92413         0.11666
| 74>    C       -5.17408       -20.29718        -0.46065
| 75>    O       -4.76526       -20.64773        -1.54354
| 76>    C       -5.88150       -21.11248         0.54758
| 77>    C       -6.28981       -22.41240         0.46743
| 78>    C       -6.97699       -22.98547         1.56110
| 79>    C       -7.23306       -22.19322         2.71772
| 80>    C       -7.92432       -22.76891         3.80279
| 81>    C       -8.33792       -24.07000         3.74412
| 82>    C       -8.08198       -24.85307         2.60084
| 83>    C       -7.41611       -24.32340         1.53134
| 84>    F       -8.49948       -26.12646         2.57073
| 85>    F       -8.99371       -24.61540         4.77753
| 86>    C       -6.79135       -20.85153         2.77441
| 87>    C       -6.11854       -20.31976         1.70668
| 88>    C       -5.51856       -19.00463         1.50108
| 89>    C       -5.21896       -18.10576         2.48957
| 90>    C       -4.38634       -16.98538         2.29617
| 91>    N       -3.67766       -16.08865         2.19342
| 92>    C       -5.64081       -18.23969         3.82764
| 93>    N       -5.98794       -18.28981         4.92070
| 94>    H        0.56285         1.98388         2.03290
| 95>    H        3.04881        -2.30217         1.89579
| 96>    H       -1.49750         0.83522         1.42626
| 97>    H        0.95069        -3.50408         1.26695
| 98>    H       -5.19869        -3.08678         0.03464
| 99>    H       -2.31814        -5.51604         4.04649
|100>    H       -1.91880        -6.81531         2.89730
|101>    H       -3.48709        -6.83144         3.76095
|102>    H       -3.59034        -7.99918         1.78018
|103>    H       -5.87630        -4.94382        -1.31458
|104>    H       -7.79316        -7.42671        -3.09959
|105>    H       -6.49133        -6.21587        -3.18636
|106>    H       -7.80766        -6.03571        -1.98872
|107>    H       -1.32917       -13.22427        -2.66497
|108>    H       -2.30894       -14.58610        -3.25898
|109>    H       -1.39159       -14.73836        -1.73006
|110>    H       -3.20013       -16.17080        -1.78931
|111>    H       -6.78043       -13.95706         0.73698
|112>    H       -8.42205       -16.88648         1.98645
|113>    H       -8.53533       -15.46824         0.91619
|114>    H       -7.47244       -15.42459         2.35435
|115>    H       -4.36387       -18.21436        -1.65568
|116>    H       -6.09079       -22.99703        -0.41787
|117>    H       -8.12505       -22.18463         4.68722
|118>    H       -7.22798       -24.93600         0.66356
|119>    H       -7.00155       -20.27459         3.66083
|120> *
|121>
|122>                          ****END OF INPUT****

CARTESIAN COORDINATES (ANGSTROEM)
---------------------------------
  C      1.089140    1.042760    1.998570
  C      2.427080    1.006090    2.273720
  F      3.082210    2.132740    2.584780
  C      3.134380   -0.212350    2.235070
  F      4.446270   -0.218680    2.509740
  C      2.493300   -1.377770    1.921460
  C      1.114760   -1.372860    1.632900
  C      0.397950   -0.141930    1.672570
  C     -0.986610   -0.113120    1.390290
  C     -1.637220   -1.280540    1.084590
  C     -0.913250   -2.503850    1.048390
  C      0.425690   -2.561710    1.306210
  C     -1.829800   -3.609530    0.702350
  O     -1.512290   -4.751410    0.457930
  C     -3.179970   -2.993420    0.609250
  C     -3.036500   -1.555660    0.768460
  C     -4.022970   -0.609800    0.670980
  C     -5.375840   -0.858140    0.356570
  N     -6.490400   -0.966650    0.101060
  C     -3.813440    0.773970    0.852580
  N     -3.711290    1.909590    0.986090
  C     -4.327270   -3.662680    0.320780
  C     -4.516870   -5.086790    0.312120
  C     -3.920820   -5.945870    1.263700
  O     -3.279550   -5.370880    2.300430
  C     -2.725290   -6.196110    3.299740
  C     -4.091930   -7.315880    1.117320
  C     -4.876160   -7.853780    0.106170
  C     -5.585880   -6.992490   -0.759810
  C     -5.388220   -5.630210   -0.640930
  O     -6.461520   -7.573250   -1.617530
  C     -7.169310   -6.751940   -2.515650
  C     -4.978910   -9.302980   -0.039230
  C     -5.200570  -10.147560    1.057500
  C     -5.280570  -11.580050    0.917760
  N     -5.514010  -12.342290    2.016510
  C     -5.658240  -11.770970    3.160390
  C     -5.578000  -10.353830    3.298680
  N     -5.362820   -9.590030    2.285350
  F     -5.726290   -9.776000    4.490810
  F     -5.912000  -12.542690    4.215350
  C     -5.094790  -12.215850   -0.318240
  C     -4.910300  -11.372360   -1.423480
  C     -4.842460   -9.933090   -1.285030
  N     -4.613290   -9.336920   -2.461060
  S     -4.552930  -10.451750   -3.601760
  N     -4.785320  -11.749860   -2.701610
  C     -5.041580  -13.670800   -0.431190
  C     -3.993020  -14.289020   -1.148750
  O     -3.038860  -13.477160   -1.663450
  C     -1.964640  -14.056310   -2.365720
  C     -3.976490  -15.667580   -1.235620
  C     -4.900790  -16.471080   -0.555290
  C     -5.928570  -15.842830    0.183540
  C     -5.991050  -14.457450    0.204250
  O     -6.827400  -16.645520    0.804080
  C     -7.867300  -16.055330    1.552770
  C     -4.772140  -17.893220   -0.700050
  C     -5.108420  -18.924130    0.116660
  C     -5.174080  -20.297180   -0.460650
  O     -4.765260  -20.647730   -1.543540
  C     -5.881500  -21.112480    0.547580
  C     -6.289810  -22.412400    0.467430
  C     -6.976990  -22.985470    1.561100
  C     -7.233060  -22.193220    2.717720
  C     -7.924320  -22.768910    3.802790
  C     -8.337920  -24.070000    3.744120
  C     -8.081980  -24.853070    2.600840
  C     -7.416110  -24.323400    1.531340
  F     -8.499480  -26.126460    2.570730
  F     -8.993710  -24.615400    4.777530
  C     -6.791350  -20.851530    2.774410
  C     -6.118540  -20.319760    1.706680
  C     -5.518560  -19.004630    1.501080
  C     -5.218960  -18.105760    2.489570
  C     -4.386340  -16.985380    2.296170
  N     -3.677660  -16.088650    2.193420
  C     -5.640810  -18.239690    3.827640
  N     -5.987940  -18.289810    4.920700
  H      0.562850    1.983880    2.032900
  H      3.048810   -2.302170    1.895790
  H     -1.497500    0.835220    1.426260
  H      0.950690   -3.504080    1.266950
  H     -5.198690   -3.086780    0.034640
  H     -2.318140   -5.516040    4.046490
  H     -1.918800   -6.815310    2.897300
  H     -3.487090   -6.831440    3.760950
  H     -3.590340   -7.999180    1.780180
  H     -5.876300   -4.943820   -1.314580
  H     -7.793160   -7.426710   -3.099590
  H     -6.491330   -6.215870   -3.186360
  H     -7.807660   -6.035710   -1.988720
  H     -1.329170  -13.224270   -2.664970
  H     -2.308940  -14.586100   -3.258980
  H     -1.391590  -14.738360   -1.730060
  H     -3.200130  -16.170800   -1.789310
  H     -6.780430  -13.957060    0.736980
  H     -8.422050  -16.886480    1.986450
  H     -8.535330  -15.468240    0.916190
  H     -7.472440  -15.424590    2.354350
  H     -4.363870  -18.214360   -1.655680
  H     -6.090790  -22.997030   -0.417870
  H     -8.125050  -22.184630    4.687220
  H     -7.227980  -24.936000    0.663560
  H     -7.001550  -20.274590    3.660830

 Total Charge           Charge          ....    0
 Multiplicity           Mult            ....    1
 Number of Electrons    NEL             ....  548
 Basis Dimension        Dim             .... 1240

ORBITAL ENERGIES
----------------

  NO   OCC          E(Eh)            E(eV)
   0   2.0000     -89.034697     -2422.7573
   1   2.0000     -24.812540      -675.1835
   2   2.0000     -24.811425      -675.1532
   3   2.0000     -24.797471      -674.7735
   4   2.0000     -24.796192      -674.7387
   5   2.0000     -24.796076      -674.7355
   6   2.0000     -24.795675      -674.7246
   7   2.0000     -19.260222      -524.0973
   8   2.0000     -19.249753      -523.8124
   9   2.0000     -19.247198      -523.7429
  10   2.0000     -19.245294      -523.6911
  11   2.0000     -19.213073      -522.8143
  12   2.0000     -19.211147      -522.7619
  13   2.0000     -14.450138      -393.2083
  14   2.0000     -14.449109      -393.1803
  15   2.0000     -14.438447      -392.8901
  16   2.0000     -14.438354      -392.8876
  17   2.0000     -14.415927      -392.2773
  18   2.0000     -14.415008      -392.2523
  19   2.0000     -14.414093      -392.2274
  20   2.0000     -14.410219      -392.1220
  21   2.0000     -10.427480      -283.7461
  22   2.0000     -10.427186      -283.7382
  23   2.0000     -10.380417      -282.4655
  24   2.0000     -10.379275      -282.4344
  25   2.0000     -10.378929      -282.4250
  26   2.0000     -10.378607      -282.4163
  27   2.0000     -10.363159      -281.9959
  28   2.0000     -10.361900      -281.9616
  29   2.0000     -10.342513      -281.4341
  30   2.0000     -10.341443      -281.4050
  31   2.0000     -10.341098      -281.3956
  32   2.0000     -10.340862      -281.3892
  33   2.0000     -10.339897      -281.3629
  34   2.0000     -10.339206      -281.3441
  35   2.0000     -10.338109      -281.3142
  36   2.0000     -10.337438      -281.2960
  37   2.0000     -10.335011      -281.2299
  38   2.0000     -10.333516      -281.1893
  39   2.0000     -10.331369      -281.1308
  40   2.0000     -10.328697      -281.0581
  41   2.0000     -10.328457      -281.0516
  42   2.0000     -10.326127      -280.9882
  43   2.0000     -10.324886      -280.9544
  44   2.0000     -10.324108      -280.9332
  45   2.0000     -10.318742      -280.7872
  46   2.0000     -10.317635      -280.7571
  47   2.0000     -10.317229      -280.7461
  48   2.0000     -10.312748      -280.6241
  49   2.0000     -10.311010      -280.5768
  50   2.0000     -10.310546      -280.5642
  51   2.0000     -10.308940      -280.5205
  52   2.0000     -10.308471      -280.5078
  53   2.0000     -10.308014      -280.4953
  54   2.0000     -10.308013      -280.4953
  55   2.0000     -10.307513      -280.4817
  56   2.0000     -10.307480      -280.4808
  57   2.0000     -10.305088      -280.4157
  58   2.0000     -10.304221      -280.3921
  59   2.0000     -10.300436      -280.2891
  60   2.0000     -10.300164      -280.2817
  61   2.0000     -10.299829      -280.2726
  62   2.0000     -10.299595      -280.2662
  63   2.0000     -10.299089      -280.2525
  64   2.0000     -10.299052      -280.2514
  65   2.0000     -10.298441      -280.2348
  66   2.0000     -10.298138      -280.2266
  67   2.0000     -10.295144      -280.1451
  68   2.0000     -10.294088      -280.1164
  69   2.0000     -10.293895      -280.1111
  70   2.0000     -10.292387      -280.0701
  71   2.0000     -10.291597      -280.0486
  72   2.0000     -10.290225      -280.0113
  73   2.0000     -10.289931      -280.0033
  74   2.0000     -10.288792      -279.9723
  75   2.0000     -10.280542      -279.7478
  76   2.0000     -10.280256      -279.7400
  77   2.0000     -10.279003      -279.7059
  78   2.0000     -10.276202      -279.6297
  79   2.0000      -8.126079      -221.1218
  80   2.0000      -6.096923      -165.9057
  81   2.0000      -6.089326      -165.6990
  82   2.0000      -6.089226      -165.6963
  83   2.0000      -1.339631       -36.4532
  84   2.0000      -1.325610       -36.0717
  85   2.0000      -1.319589       -35.9078
  86   2.0000      -1.318712       -35.8840
  87   2.0000      -1.304717       -35.5032
  88   2.0000      -1.303907       -35.4811
  89   2.0000      -1.164725       -31.6938
  90   2.0000      -1.158066       -31.5126
  91   2.0000      -1.154712       -31.4213
  92   2.0000      -1.152245       -31.3542
  93   2.0000      -1.129615       -30.7384
  94   2.0000      -1.128062       -30.6961
  95   2.0000      -1.125105       -30.6157
  96   2.0000      -1.108533       -30.1647
  97   2.0000      -1.034593       -28.1527
  98   2.0000      -1.018050       -27.7025
  99   2.0000      -1.015586       -27.6355
 100   2.0000      -1.002768       -27.2867
 101   2.0000      -1.001074       -27.2406
 102   2.0000      -0.993549       -27.0358
 103   2.0000      -0.991530       -26.9809
 104   2.0000      -0.983675       -26.7672
 105   2.0000      -0.979395       -26.6507
 106   2.0000      -0.977525       -26.5998
 107   2.0000      -0.976115       -26.5614
 108   2.0000      -0.961246       -26.1568
 109   2.0000      -0.952924       -25.9304
 110   2.0000      -0.929599       -25.2957
 111   2.0000      -0.927575       -25.2406
 112   2.0000      -0.911321       -24.7983
 113   2.0000      -0.902312       -24.5531
 114   2.0000      -0.894135       -24.3306
 115   2.0000      -0.891246       -24.2520
 116   2.0000      -0.887973       -24.1630
 117   2.0000      -0.883283       -24.0354
 118   2.0000      -0.876193       -23.8424
 119   2.0000      -0.865108       -23.5408
 120   2.0000      -0.852604       -23.2005
 121   2.0000      -0.849253       -23.1093
 122   2.0000      -0.845055       -22.9951
 123   2.0000      -0.838525       -22.8174
 124   2.0000      -0.837654       -22.7937
 125   2.0000      -0.829387       -22.5688
 126   2.0000      -0.814279       -22.1577
 127   2.0000      -0.810032       -22.0421
 128   2.0000      -0.806331       -21.9414
 129   2.0000      -0.797438       -21.6994
 130   2.0000      -0.792831       -21.5740
 131   2.0000      -0.769881       -20.9495
 132   2.0000      -0.765564       -20.8321
 133   2.0000      -0.764705       -20.8087
 134   2.0000      -0.762581       -20.7509
 135   2.0000      -0.756578       -20.5875
 136   2.0000      -0.751302       -20.4440
 137   2.0000      -0.737035       -20.0557
 138   2.0000      -0.734407       -19.9842
 139   2.0000      -0.724302       -19.7093
 140   2.0000      -0.716380       -19.4937
 141   2.0000      -0.714298       -19.4370
 142   2.0000      -0.708201       -19.2711
 143   2.0000      -0.697194       -18.9716
 144   2.0000      -0.695243       -18.9185
 145   2.0000      -0.688192       -18.7267
 146   2.0000      -0.682064       -18.5599
 147   2.0000      -0.678860       -18.4727
 148   2.0000      -0.675872       -18.3914
 149   2.0000      -0.669586       -18.2204
 150   2.0000      -0.668910       -18.2020
 151   2.0000      -0.660280       -17.9671
 152   2.0000      -0.655475       -17.8364
 153   2.0000      -0.653451       -17.7813
 154   2.0000      -0.650686       -17.7061
 155   2.0000      -0.644289       -17.5320
 156   2.0000      -0.643038       -17.4979
 157   2.0000      -0.639424       -17.3996
 158   2.0000      -0.638144       -17.3648
 159   2.0000      -0.628715       -17.1082
 160   2.0000      -0.619504       -16.8576
 161   2.0000      -0.617225       -16.7956
 162   2.0000      -0.614735       -16.7278
 163   2.0000      -0.612275       -16.6608
 164   2.0000      -0.610793       -16.6205
 165   2.0000      -0.606007       -16.4903
 166   2.0000      -0.605221       -16.4689
 167   2.0000      -0.603736       -16.4285
 168   2.0000      -0.600947       -16.3526
 169   2.0000      -0.590587       -16.0707
 170   2.0000      -0.584183       -15.8964
 171   2.0000      -0.583841       -15.8871
 172   2.0000      -0.583309       -15.8726
 173   2.0000      -0.581678       -15.8283
 174   2.0000      -0.574997       -15.6465
 175   2.0000      -0.572468       -15.5777
 176   2.0000      -0.569741       -15.5035
 177   2.0000      -0.567715       -15.4483
 178   2.0000      -0.564859       -15.3706
 179   2.0000      -0.561114       -15.2687
 180   2.0000      -0.560098       -15.2410
 181   2.0000      -0.557292       -15.1647
 182   2.0000      -0.553856       -15.0712
 183   2.0000      -0.552812       -15.0428
 184   2.0000      -0.552243       -15.0273
 185   2.0000      -0.552025       -15.0214
 186   2.0000      -0.545833       -14.8529
 187   2.0000      -0.545651       -14.8479
 188   2.0000      -0.545055       -14.8317
 189   2.0000      -0.543790       -14.7973
 190   2.0000      -0.540733       -14.7141
 191   2.0000      -0.538597       -14.6560
 192   2.0000      -0.536673       -14.6036
 193   2.0000      -0.532021       -14.4770
 194   2.0000      -0.530590       -14.4381
 195   2.0000      -0.529965       -14.4211
 196   2.0000      -0.528575       -14.3833
 197   2.0000      -0.525297       -14.2941
 198   2.0000      -0.524262       -14.2659
 199   2.0000      -0.520457       -14.1624
 200   2.0000      -0.519436       -14.1346
 201   2.0000      -0.514555       -14.0017
 202   2.0000      -0.514189       -13.9918
 203   2.0000      -0.512083       -13.9345
 204   2.0000      -0.509797       -13.8723
 205   2.0000      -0.509295       -13.8586
 206   2.0000      -0.506701       -13.7880
 207   2.0000      -0.505344       -13.7511
 208   2.0000      -0.501774       -13.6540
 209   2.0000      -0.499366       -13.5884
 210   2.0000      -0.495540       -13.4843
 211   2.0000      -0.494495       -13.4559
 212   2.0000      -0.491142       -13.3647
 213   2.0000      -0.490963       -13.3598
 214   2.0000      -0.487547       -13.2668
 215   2.0000      -0.486709       -13.2440
 216   2.0000      -0.483065       -13.1449
 217   2.0000      -0.482294       -13.1239
 218   2.0000      -0.476370       -12.9627
 219   2.0000      -0.474796       -12.9199
 220   2.0000      -0.471494       -12.8300
 221   2.0000      -0.466751       -12.7009
 222   2.0000      -0.466479       -12.6935
 223   2.0000      -0.462341       -12.5809
 224   2.0000      -0.461738       -12.5645
 225   2.0000      -0.457570       -12.4511
 226   2.0000      -0.456227       -12.4146
 227   2.0000      -0.449412       -12.2291
 228   2.0000      -0.448688       -12.2094
 229   2.0000      -0.445392       -12.1197
 230   2.0000      -0.444948       -12.1077
 231   2.0000      -0.443431       -12.0664
 232   2.0000      -0.443059       -12.0563
 233   2.0000      -0.439814       -11.9679
 234   2.0000      -0.438463       -11.9312
 235   2.0000      -0.433941       -11.8081
 236   2.0000      -0.429988       -11.7006
 237   2.0000      -0.428014       -11.6468
 238   2.0000      -0.424715       -11.5571
 239   2.0000      -0.424072       -11.5396
 240   2.0000      -0.422480       -11.4963
 241   2.0000      -0.421955       -11.4820
 242   2.0000      -0.418913       -11.3992
 243   2.0000      -0.417092       -11.3497
 244   2.0000      -0.416431       -11.3317
 245   2.0000      -0.416168       -11.3245
 246   2.0000      -0.414540       -11.2802
 247   2.0000      -0.409741       -11.1496
 248   2.0000      -0.407797       -11.0967
 249   2.0000      -0.406144       -11.0517
 250   2.0000      -0.402626       -10.9560
 251   2.0000      -0.399908       -10.8820
 252   2.0000      -0.397135       -10.8066
 253   2.0000      -0.394490       -10.7346
 254   2.0000      -0.384021       -10.4497
 255   2.0000      -0.382819       -10.4170
 256   2.0000      -0.373950       -10.1757
 257   2.0000      -0.371117       -10.0986
 258   2.0000      -0.364554        -9.9200
 259   2.0000      -0.361029        -9.8241
 260   2.0000      -0.354279        -9.6404
 261   2.0000      -0.349657        -9.5147
 262   2.0000      -0.334721        -9.1082
 263   2.0000      -0.333367        -9.0714
 264   2.0000      -0.333055        -9.0629
 265   2.0000      -0.319269        -8.6877
 266   2.0000      -0.316188        -8.6039
 267   2.0000      -0.312885        -8.5140
 268   2.0000      -0.308320        -8.3898
 269   2.0000      -0.297832        -8.1044
 270   2.0000      -0.295319        -8.0360
 271   2.0000      -0.285951        -7.7811
 272   2.0000      -0.271604        -7.3907
 273   2.0000      -0.259584        -7.0636
 274   0.0000      -0.101847        -2.7714
 275   0.0000      -0.086728        -2.3600
 276   0.0000      -0.081072        -2.2061
 277   0.0000      -0.054035        -1.4704
 278   0.0000      -0.053023        -1.4428

MULLIKEN ATOMIC CHARGES
-----------------------
   0 C :   -0.110613
   1 C :    0.241864
   2 F :   -0.171918
   3 C :    0.241976
   4 F :   -0.172778
   5 C :   -0.108605
   6 C :    0.119452
   7 C :    0.114038
   8 C :   -0.087152
   9 C :    0.053198
  10 C :   -0.001415
  11 C :   -0.089035
  12 C :    0.145916
  13 O :   -0.140148
  14 C :   -0.056979
  15 C :    0.314722
  16 C :   -0.350351
  17 C :   -0.184962
  18 N :    0.148255
  19 C :   -0.183185
  20 N :    0.143564
  21 C :   -0.040499
  22 C :    0.065938
  23 C :    0.243293
  24 O :   -0.306214
  25 C :    0.176457
  26 C :   -0.096318
  27 C :   -0.027224
  28 C :    0.251934
  29 C :   -0.164653
  30 O :   -0.305725
  31 C :    0.178621
  32 C :    0.085977
  33 C :   -0.069614
  34 C :   -0.051120
  35 N :    0.019255
  36 C :    0.131984
  37 C :    0.126243
  38 N :    0.017381
  39 F :   -0.144964
  40 F :   -0.140857
  41 C :    0.072957
  42 C :    0.002907
  43 C :    0.005920
  44 N :   -0.259645
  45 S :    0.522519
  46 N :   -0.262398
  47 C :   -0.020979
  48 C :    0.263366
  49 O :   -0.305960
  50 C :    0.180177
  51 C :   -0.161554
  52 C :    0.074091
  53 C :    0.208343
  54 C :   -0.079579
  55 O :   -0.313703
  56 C :    0.175048
  57 C :    0.001753
  58 C :   -0.102449
  59 C :    0.131042
  60 O :   -0.143785
  61 C :    0.015616
  62 C :   -0.087811
  63 C :    0.114464
  64 C :    0.116618
  65 C :   -0.110611
  66 C :    0.242871
  67 C :    0.238864
  68 C :   -0.106976
  69 F :   -0.173292
  70 F :   -0.172825
  71 C :   -0.095474
  72 C :    0.045057
  73 C :    0.315046
  74 C :   -0.334791
  75 C :   -0.213894
  76 N :    0.178714
  77 C :   -0.187512
  78 N :    0.146696
  79 H :    0.007183
  80 H :   -0.002862
  81 H :   -0.007785
  82 H :   -0.014924
  83 H :    0.024612
  84 H :    0.035883
  85 H :    0.030841
  86 H :    0.033161
  87 H :   -0.033219
  88 H :   -0.028361
  89 H :    0.034059
  90 H :    0.025266
  91 H :    0.026880
  92 H :    0.034393
  93 H :    0.023994
  94 H :    0.029776
  95 H :   -0.033891
  96 H :   -0.036626
  97 H :    0.040086
  98 H :    0.029745
  99 H :    0.042930
 100 H :    0.021680
 101 H :   -0.010964
 102 H :    0.004616
 103 H :   -0.001873
 104 H :   -0.009172
Sum of atomic charges:   -0.0000000

LOEWDIN ATOMIC CHARGES
----------------------
   0 C :   -0.029114
   1 C :    0.065263
   2 F :   -0.049897
   3 C :    0.067488
   4 F :   -0.050369
   5 C :   -0.034782
   6 C :   -0.008337
   7 C :   -0.007757
   8 C :    0.017283
   9 C :   -0.023512
  10 C :   -0.049169
  11 C :    0.025139
  12 C :    0.081741
  13 O :   -0.134847
  14 C :   -0.088221
  15 C :    0.078124
  16 C :   -0.140019
  17 C :   -0.020141
  18 N :   -0.053096
  19 C :   -0.016784
  20 N :   -0.055899
  21 C :    0.087164
  22 C :   -0.048442
  23 C :    0.068007
  24 O :   -0.083724
  25 C :    0.079067
  26 C :   -0.035170
  27 C :   -0.012636
  28 C :    0.050996
  29 C :   -0.043992
  30 O :   -0.096430
  31 C :    0.077131
  32 C :   -0.007182
  33 C :   -0.008774
  34 C :   -0.005893
  35 N :   -0.031560
  36 C :    0.054457
  37 C :    0.052141
  38 N :   -0.035867
  39 F :   -0.034493
  40 F :   -0.030471
  41 C :   -0.010654
  42 C :   -0.042684
  43 C :   -0.041872
  44 N :   -0.281799
  45 S :    0.672263
  46 N :   -0.283037
  47 C :   -0.010804
  48 C :    0.059663
  49 O :   -0.092830
  50 C :    0.078079
  51 C :   -0.041928
  52 C :   -0.049608
  53 C :    0.056502
  54 C :   -0.031421
  55 O :   -0.083416
  56 C :    0.078671
  57 C :    0.078240
  58 C :   -0.088475
  59 C :    0.084713
  60 O :   -0.143419
  61 C :   -0.054365
  62 C :    0.029633
  63 C :   -0.011079
  64 C :   -0.005701
  65 C :   -0.031770
  66 C :    0.066254
  67 C :    0.065318
  68 C :   -0.033231
  69 F :   -0.051162
  70 F :   -0.050289
  71 C :    0.008184
  72 C :   -0.016830
  73 C :    0.070518
  74 C :   -0.133137
  75 C :   -0.018959
  76 N :   -0.044769
  77 C :   -0.018927
  78 N :   -0.058447
  79 H :    0.047605
  80 H :    0.043976
  81 H :    0.039521
  82 H :    0.038346
  83 H :    0.044578
  84 H :    0.028973
  85 H :    0.018835
  86 H :    0.019671
  87 H :    0.029689
  88 H :    0.032534
  89 H :    0.028261
  90 H :    0.016459
  91 H :    0.016517
  92 H :    0.028561
  93 H :    0.015888
  94 H :    0.018115
  95 H :    0.031449
  96 H :    0.029459
  97 H :    0.030386
  98 H :    0.018543
  99 H :    0.023092
 100 H :    0.045950
 101 H :    0.039887
 102 H :    0.046580
 103 H :    0.044300
 104 H :    0.037977

  Mayer bond orders larger than 0.100000
B(  0-C ,  1-C ) :   1.4408 B(  0-C ,  5-C ) :   0.1092 B(  0-C ,  7-C ) :   1.1857
B(  0-C , 79-H ) :   1.0081 B(  1-C ,  2-F ) :   1.1344 B(  1-C ,  3-C ) :   1.1900
B(  3-C ,  4-F ) :   1.1326 B(  3-C ,  5-C ) :   1.4434 B(  5-C ,  6-C ) :   1.1885
B(  5-C , 80-H ) :   1.0085 B(  6-C ,  7-C ) :   1.2587 B(  6-C , 11-C ) :   1.1890
B(  7-C ,  8-C ) :   1.2180 B(  8-C ,  9-C ) :   1.4424 B(  8-C , 81-H ) :   0.9905
B(  9-C , 10-C ) :   1.2227 B(  9-C , 15-C ) :   0.9862 B( 10-C , 11-C ) :   1.4694
B( 10-C , 12-C ) :   0.9339 B( 11-C , 82-H ) :   1.0173 B( 12-C , 13-O ) :   2.2435
B( 12-C , 14-C ) :   0.9321 B( 14-C , 15-C ) :   1.0713 B( 14-C , 21-C ) :   1.6440
B( 15-C , 16-C ) :   1.6325 B( 16-C , 17-C ) :   1.1419 B( 16-C , 19-C ) :   1.1445
B( 17-C , 18-N ) :   2.9625 B( 19-C , 20-N ) :   2.9602 B( 21-C , 22-C ) :   1.0815
B( 21-C , 83-H ) :   0.9377 B( 22-C , 23-C ) :   1.3399 B( 22-C , 29-C ) :   1.2791
B( 23-C , 24-O ) :   1.1714 B( 23-C , 26-C ) :   1.2799 B( 24-O , 25-C ) :   0.9515
B( 25-C , 84-H ) :   0.9779 B( 25-C , 85-H ) :   0.9687 B( 25-C , 86-H ) :   0.9687
B( 26-C , 27-C ) :   1.3836 B( 26-C , 87-H ) :   0.9903 B( 27-C , 28-C ) :   1.3599
B( 27-C , 32-C ) :   0.9437 B( 28-C , 29-C ) :   1.2977 B( 28-C , 30-O ) :   1.1673
B( 29-C , 88-H ) :   1.0032 B( 30-O , 31-C ) :   0.9633 B( 31-C , 89-H ) :   0.9784
B( 31-C , 90-H ) :   0.9680 B( 31-C , 91-H ) :   0.9683 B( 32-C , 33-C ) :   1.3959
B( 32-C , 41-C ) :   0.1413 B( 32-C , 43-C ) :   1.2556 B( 33-C , 34-C ) :   1.1045
B( 33-C , 38-N ) :   1.3896 B( 34-C , 35-N ) :   1.3871 B( 34-C , 41-C ) :   1.4047
B( 35-N , 36-C ) :   1.7124 B( 36-C , 37-C ) :   1.0794 B( 36-C , 40-F ) :   1.1728
B( 37-C , 38-N ) :   1.7148 B( 37-C , 39-F ) :   1.1692 B( 41-C , 42-C ) :   1.2480
B( 41-C , 47-C ) :   0.9486 B( 42-C , 43-C ) :   1.1022 B( 42-C , 46-N ) :   1.4976
B( 43-C , 44-N ) :   1.4969 B( 44-N , 45-S ) :   1.3045 B( 44-N , 46-N ) :   0.1648
B( 45-S , 46-N ) :   1.3040 B( 47-C , 48-C ) :   1.3525 B( 47-C , 54-C ) :   1.3880
B( 48-C , 49-O ) :   1.1685 B( 48-C , 51-C ) :   1.2990 B( 49-O , 50-C ) :   0.9619
B( 50-C , 92-H ) :   0.9781 B( 50-C , 93-H ) :   0.9677 B( 50-C , 94-H ) :   0.9687
B( 51-C , 52-C ) :   1.2790 B( 51-C , 95-H ) :   1.0021 B( 52-C , 53-C ) :   1.3232
B( 52-C , 57-C ) :   1.0750 B( 53-C , 54-C ) :   1.2849 B( 53-C , 55-O ) :   1.1613
B( 54-C , 96-H ) :   0.9876 B( 55-O , 56-C ) :   0.9420 B( 56-C , 97-H ) :   0.9764
B( 56-C , 98-H ) :   0.9700 B( 56-C , 99-H ) :   0.9687 B( 57-C , 58-C ) :   1.6746
B( 57-C ,100-H ) :   0.9356 B( 58-C , 59-C ) :   0.9384 B( 58-C , 73-C ) :   1.0367
B( 59-C , 60-O ) :   2.2642 B( 59-C , 61-C ) :   0.9187 B( 61-C , 62-C ) :   1.4729
B( 61-C , 72-C ) :   1.2173 B( 62-C , 63-C ) :   1.1930 B( 62-C ,101-H ) :   1.0163
B( 63-C , 64-C ) :   1.2584 B( 63-C , 68-C ) :   1.1914 B( 64-C , 65-C ) :   1.1898
B( 64-C , 71-C ) :   1.2113 B( 65-C , 66-C ) :   1.4407 B( 65-C , 68-C ) :   0.1091
B( 65-C ,102-H ) :   1.0068 B( 66-C , 67-C ) :   1.1921 B( 66-C , 70-F ) :   1.1325
B( 67-C , 68-C ) :   1.4441 B( 67-C , 69-F ) :   1.1317 B( 68-C ,103-H ) :   1.0070
B( 71-C , 72-C ) :   1.4536 B( 71-C ,104-H ) :   0.9935 B( 72-C , 73-C ) :   1.0035
B( 73-C , 74-C ) :   1.6458 B( 74-C , 75-C ) :   1.1687 B( 74-C , 77-C ) :   1.1390
B( 75-C , 76-N ) :   3.0086 B( 77-C , 78-N ) :   2.9751

-----------------------------------------------------------------------------
         ABSORPTION SPECTRUM VIA TRANSITION ELECTRIC DIPOLE MOMENTS
-----------------------------------------------------------------------------
State   Energy  Wavelength   fosc         T2         TX        TY        TZ
        (cm-1)    (nm)                  (au**2)     (au)      (au)      (au)
-----------------------------------------------------------------------------
   0   16665.1    600.1   0.565083394  11.16299   0.38087   3.31716  -0.11982
   1   19017.2    525.8   0.038142925   0.66030   0.21603  -0.78326   0.01167
   2   20822.9    480.2   0.277910512   4.39379  -0.57022  -2.01591   0.06905
   3   22208.7    450.3   0.225294602   3.33967   0.06381   1.69599  -0.67765
   4   23023.9    434.3   0.283437160   4.05278   0.51498   1.94340   0.10376
   5   26719.6    374.3   0.060542454   0.74594  -0.12623  -0.52118  -0.67704
   6   26762.7    373.7   0.013292508   0.16351  -0.32939   0.00588  -0.23447
   7   27113.7    368.8   0.051501008   0.62532  -0.12966  -0.74476   0.23203
   8   27905.3    358.4   0.002808974   0.03314  -0.11805  -0.04238  -0.13193
   9   28116.2    355.7   0.019191508   0.22471   0.21545  -0.41258   0.08986
  10   28588.4    349.8   0.137153965   1.57941  -1.05006  -0.62688  -0.28950
  11   29183.7    342.7   0.002109024   0.02379  -0.03265  -0.14882  -0.02401
  12   29299.1    341.3   0.026869035   0.30191   0.36621  -0.30148  -0.27732
  13   29839.6    335.1   0.060211895   0.66430   0.73691  -0.30360   0.17058
  14   30188.9    331.2   0.053066897   0.57870   0.06988  -0.75686   0.03135
  15   30559.4    327.2   0.002715875   0.02926  -0.07056  -0.02258  -0.15417
  16   30872.9    323.9   0.022781894   0.24293   0.09241  -0.08574   0.47649
  17   31098.3    321.6   0.240705763   2.54815  -1.10592  -1.05505   0.46038
  18   31453.4    317.9   0.148824448   1.55769   0.30624   0.44238   1.12615
  19   31579.0    316.7   0.081803483   0.85280  -0.41973  -0.72976   0.37958
  20   32724.0    305.6   0.262035020   2.63614   0.35553   0.38781  -1.53601
  21   32986.1    303.2   0.002758138   0.02753   0.10411  -0.09183   0.09086
  22   32997.4    303.1   0.008468083   0.08449   0.01504   0.05309   0.28538
  23   33170.3    301.5   0.092729811   0.92033   0.42916   0.57369   0.63799
  24   33497.1    298.5   0.114675832   1.12704  -0.35392   0.83218   0.55611
  25   33740.0    296.4   0.044549612   0.43469  -0.60048  -0.04445  -0.26858
  26   33952.2    294.5   0.302923601   2.93725  -0.84601  -1.44834  -0.35189
  27   34465.8    290.1   0.051937718   0.49610  -0.46934   0.29178  -0.43668
  28   34800.4    287.4   0.548334578   5.18724   2.23274   0.09380   0.43969
  29   34934.9    286.2   0.593812235   5.59583  -1.48023  -1.84279  -0.09419
  30   35078.1    285.1   0.487861078   4.57863   0.48680   2.04755  -0.38624
  31   35475.6    281.9   0.049995960   0.46396  -0.32397   0.58511  -0.12903
  32   35905.3    278.5   0.017059621   0.15642   0.21593   0.29222   0.15620
  33   36346.0    275.1   0.134582969   1.21902  -0.62293   0.86016  -0.30182
  34   36682.7    272.6   0.007288485   0.06541   0.00312   0.25258   0.04007
  35   37310.2    268.0   0.235029318   2.07381   0.91791  -1.10932   0.02606
  36   37598.1    266.0   0.194298383   1.70129  -1.01361  -0.79132  -0.21840
  37   37626.1    265.8   0.033989464   0.29739   0.12289   0.18202   0.49916
  38   37790.3    264.6   0.018818147   0.16394   0.07126  -0.39521  -0.05160
  39   38003.1    263.1   0.014374190   0.12452   0.11626  -0.33024   0.04412
  40   38288.7    261.2   0.036915727   0.31741  -0.39893   0.36849  -0.14992
  41   38488.8    259.8   0.021133070   0.18076  -0.10810  -0.39882  -0.10007
  42   38720.2    258.3   0.021725241   0.18472  -0.08474  -0.40405   0.11949
  43   38989.1    256.5   0.017461941   0.14744   0.31954  -0.14912  -0.15200
  44   39325.3    254.3   0.050229659   0.42050  -0.02796   0.61017   0.21774
  45   39679.6    252.0   0.031953103   0.26511   0.24547   0.04172  -0.45068
  46   39963.8    250.2   0.027501352   0.22655  -0.17417  -0.27903   0.34403
  47   40066.1    249.6   0.147384441   1.21102  -0.19057  -1.05056  -0.26649

FINAL SINGLE POINT ENERGY     -4107.683090042095

DIPOLE MOMENT
-------------
                                X             Y             Z
Electronic contribution:      6.71574      -3.91433      23.93378
Nuclear contribution   :     -6.51037       2.41769     -25.59564
                        -----------------------------------------
Total Dipole Moment    :      0.20537      -1.49664      -1.66186
                        -----------------------------------------
Magnitude (a.u.)       :      2.24586
Magnitude (Debye)      :      5.70852

Rotational constants in cm-1:     0.002061     0.000218     0.000216
Rotational constants in MHz :    61.779600     6.548671     6.463155

                             ****ORCA TERMINATED NORMALLY****
TOTAL RUN TIME: 0 days 0 hours 12 minutes 2 seconds 782 msec
