                         Program Version 4.2.0 -  RELEASE  -
|  1> # ORCA input file
|  2> # SCF done       -152.370044837708          0.000780025698
|  3> ! CAM-B3LYP def2-SVP def2/J RIJCOSX Grid4 TightSCF
|  4> %maxcore 5000
|  5> %tddft
|  6>     Mode sTDDFT
|  7>     Ethresh 5.0
|  8>     maxcore 5000
|  9> end
| 10>
| 11> %pal
| 12>   nprocs 6
| 13>   end
| 14> * xyz 0 1
| 15>    C       -0.71513         0.33442        -2.36763
| 16>    C       -0.70118         1.71162        -2.59497
| 17>    C       -0.86908         2.03954        -3.91852
| 18>    S       -0.90402         3.66114        -4.55151
| 19>    C       -1.12229         3.34154        -6.32386
| 20>    S       -1.04806         0.62649        -4.90445
| 21>    C       -0.89403        -0.42001        -3.51019
| 22>    C       -0.96441        -1.82214        -3.69290
| 23>    C       -0.85322        -2.74356        -2.69849
| 24>    C       -0.92863        -4.14263        -2.87988
| 25>    C       -0.82987        -5.08931        -1.87758
| 26>    C       -0.97077        -6.38417        -2.43693
| 27>    C       -1.15387        -6.15901        -3.87167
| 28>    C       -1.13177        -4.84611        -4.14788
| 29>    F       -1.31904        -7.14772        -4.76493
| 30>    C       -0.96242        -7.60854        -1.79529
| 31>    C       -1.14437        -8.89750        -2.35269
| 32>    C       -1.10220        -9.84634        -1.34540
| 33>    C       -0.86702        -9.14847        -0.08042
| 34>    C       -0.78678        -7.83831        -0.36048
| 35>    F       -0.57556        -6.85639         0.52988
| 36>    C       -1.28635       -11.23154        -1.52464
| 37>    C       -1.29996       -12.16520        -0.53026
| 38>    C       -1.53318       -13.54264        -0.72592
| 39>    N       -1.57446       -14.41905         0.34252
| 40>    C       -1.84925       -15.66519        -0.12361
| 41>    C       -2.06749       -16.98113         0.25238
| 42>    C       -2.32567       -17.69003        -0.93503
| 43>    N       -2.25736       -16.81727        -2.00527
| 44>    C       -1.97457       -15.57396        -1.53881
| 45>    C       -1.77758       -14.25497        -1.91393
| 46>    C       -2.63851       -19.05061        -1.13422
| 47>    C       -2.77089       -19.98059        -0.14522
| 48>    C       -3.12491       -21.33009        -0.34461
| 49>    C       -3.31197       -22.26933         0.65420
| 50>    C       -3.70009       -23.50343         0.07560
| 51>    C       -3.72224       -23.25449        -1.36733
| 52>    C       -3.38665       -21.98244        -1.62972
| 53>    F       -4.03688       -24.18743        -2.27869
| 54>    C       -4.01980       -24.68879         0.70763
| 55>    C       -4.45370       -25.91231         0.13080
| 56>    C       -4.69534       -26.83092         1.13128
| 57>    C       -4.39866       -26.19090         2.41470
| 58>    C       -4.00436       -24.93576         2.14944
| 59>    F       -3.64089       -24.01614         3.05822
| 60>    C       -5.16799       -28.15298         0.93635
| 61>    C       -5.42482       -29.03692         1.93162
| 62>    C       -5.92366       -30.36489         1.75105
| 63>    C       -6.23014       -30.94490         0.48964
| 64>    C       -6.70199       -32.21663         0.57509
| 65>    S       -7.17594       -33.21042        -0.78077
| 66>    C       -7.68730       -34.73409         0.06190
| 67>    S       -6.78699       -32.76591         2.22240
| 68>    C       -6.17660       -31.24306         2.80413
| 69>    C       -5.99798       -31.03755         4.20858
| 70>    C       -6.27275       -31.93711         5.15431
| 71>    H       -0.59802        -0.10139        -1.39253
| 72>    H       -0.57338         2.45412        -1.82854
| 73>    H       -1.15227         4.31170        -6.80857
| 74>    H       -2.05584         2.81030        -6.48481
| 75>    H       -0.28263         2.76054        -6.69393
| 76>    H       -1.11768        -2.15580        -4.70951
| 77>    H       -0.69634        -2.40805        -1.68214
| 78>    H       -0.67880        -4.88148        -0.83645
| 79>    H       -1.24180        -4.39105        -5.11221
| 80>    H       -1.30429        -9.10238        -3.39288
| 81>    H       -0.77458        -9.60464         0.88537
| 82>    H       -1.44739       -11.55526        -2.54363
| 83>    H       -1.14087       -11.84886         0.49184
| 84>    H       -1.43856       -14.15211         1.30217
| 85>    H       -2.05085       -17.39911         1.23800
| 86>    H       -2.41270       -17.07953        -2.96340
| 87>    H       -1.80352       -13.83764        -2.89950
| 88>    H       -2.79862       -19.35208        -2.16085
| 89>    H       -2.61396       -19.67865         0.88112
| 90>    H       -3.19632       -22.09135         1.70519
| 91>    H       -3.31894       -21.52471        -2.59676
| 92>    H       -4.58145       -26.08518        -0.91982
| 93>    H       -4.48205       -26.64472         3.38234
| 94>    H       -5.33136       -28.43758        -0.09389
| 95>    H       -5.24943       -28.72696         2.95058
| 96>    H       -6.10971       -30.44425        -0.45248
| 97>    H       -8.01163       -35.41698        -0.71628
| 98>    H       -8.50807       -34.51832         0.73971
| 99>    H       -6.84303       -35.15213         0.60229
|100>    H       -5.60879       -30.07046         4.49585
|101>    H       -6.66280       -32.91197         4.91124
|102>    H       -6.11676       -31.72365         6.19638
|103> *
|104>
|105>                          ****END OF INPUT****

CARTESIAN COORDINATES (ANGSTROEM)
---------------------------------
  C     -0.715130    0.334420   -2.367630
  C     -0.701180    1.711620   -2.594970
  C     -0.869080    2.039540   -3.918520
  S     -0.904020    3.661140   -4.551510
  C     -1.122290    3.341540   -6.323860
  S     -1.048060    0.626490   -4.904450
  C     -0.894030   -0.420010   -3.510190
  C     -0.964410   -1.822140   -3.692900
  C     -0.853220   -2.743560   -2.698490
  C     -0.928630   -4.142630   -2.879880
  C     -0.829870   -5.089310   -1.877580
  C     -0.970770   -6.384170   -2.436930
  C     -1.153870   -6.159010   -3.871670
  C     -1.131770   -4.846110   -4.147880
  F     -1.319040   -7.147720   -4.764930
  C     -0.962420   -7.608540   -1.795290
  C     -1.144370   -8.897500   -2.352690
  C     -1.102200   -9.846340   -1.345400
  C     -0.867020   -9.148470   -0.080420
  C     -0.786780   -7.838310   -0.360480
  F     -0.575560   -6.856390    0.529880
  C     -1.286350  -11.231540   -1.524640
  C     -1.299960  -12.165200   -0.530260
  C     -1.533180  -13.542640   -0.725920
  N     -1.574460  -14.419050    0.342520
  C     -1.849250  -15.665190   -0.123610
  C     -2.067490  -16.981130    0.252380
  C     -2.325670  -17.690030   -0.935030
  N     -2.257360  -16.817270   -2.005270
  C     -1.974570  -15.573960   -1.538810
  C     -1.777580  -14.254970   -1.913930
  C     -2.638510  -19.050610   -1.134220
  C     -2.770890  -19.980590   -0.145220
  C     -3.124910  -21.330090   -0.344610
  C     -3.311970  -22.269330    0.654200
  C     -3.700090  -23.503430    0.075600
  C     -3.722240  -23.254490   -1.367330
  C     -3.386650  -21.982440   -1.629720
  F     -4.036880  -24.187430   -2.278690
  C     -4.019800  -24.688790    0.707630
  C     -4.453700  -25.912310    0.130800
  C     -4.695340  -26.830920    1.131280
  C     -4.398660  -26.190900    2.414700
  C     -4.004360  -24.935760    2.149440
  F     -3.640890  -24.016140    3.058220
  C     -5.167990  -28.152980    0.936350
  C     -5.424820  -29.036920    1.931620
  C     -5.923660  -30.364890    1.751050
  C     -6.230140  -30.944900    0.489640
  C     -6.701990  -32.216630    0.575090
  S     -7.175940  -33.210420   -0.780770
  C     -7.687300  -34.734090    0.061900
  S     -6.786990  -32.765910    2.222400
  C     -6.176600  -31.243060    2.804130
  C     -5.997980  -31.037550    4.208580
  C     -6.272750  -31.937110    5.154310
  H     -0.598020   -0.101390   -1.392530
  H     -0.573380    2.454120   -1.828540
  H     -1.152270    4.311700   -6.808570
  H     -2.055840    2.810300   -6.484810
  H     -0.282630    2.760540   -6.693930
  H     -1.117680   -2.155800   -4.709510
  H     -0.696340   -2.408050   -1.682140
  H     -0.678800   -4.881480   -0.836450
  H     -1.241800   -4.391050   -5.112210
  H     -1.304290   -9.102380   -3.392880
  H     -0.774580   -9.604640    0.885370
  H     -1.447390  -11.555260   -2.543630
  H     -1.140870  -11.848860    0.491840
  H     -1.438560  -14.152110    1.302170
  H     -2.050850  -17.399110    1.238000
  H     -2.412700  -17.079530   -2.963400
  H     -1.803520  -13.837640   -2.899500
  H     -2.798620  -19.352080   -2.160850
  H     -2.613960  -19.678650    0.881120
  H     -3.196320  -22.091350    1.705190
  H     -3.318940  -21.524710   -2.596760
  H     -4.581450  -26.085180   -0.919820
  H     -4.482050  -26.644720    3.382340
  H     -5.331360  -28.437580   -0.093890
  H     -5.249430  -28.726960    2.950580
  H     -6.109710  -30.444250   -0.452480
  H     -8.011630  -35.416980   -0.716280
  H     -8.508070  -34.518320    0.739710
  H     -6.843030  -35.152130    0.602290
  H     -5.608790  -30.070460    4.495850
  H     -6.662800  -32.911970    4.911240
  H     -6.116760  -31.723650    6.196380

 Total Charge           Charge          ....    0
 Multiplicity           Mult            ....    1
 Number of Electrons    NEL             ....  422
 Basis Dimension        Dim             ....  960

ORBITAL ENERGIES
----------------

  NO   OCC          E(Eh)            E(eV)
   0   2.0000     -88.956949     -2420.6417
   1   2.0000     -88.950923     -2420.4777
   2   2.0000     -88.935425     -2420.0560
   3   2.0000     -88.931040     -2419.9366
   4   2.0000     -24.778706      -674.2629
   5   2.0000     -24.777173      -674.2211
   6   2.0000     -24.776098      -674.1919
   7   2.0000     -24.775375      -674.1722
   8   2.0000     -14.458330      -393.4312
   9   2.0000     -14.458270      -393.4295
  10   2.0000     -10.344202      -281.4800
  11   2.0000     -10.342611      -281.4367
  12   2.0000     -10.341108      -281.3958
  13   2.0000     -10.339912      -281.3633
  14   2.0000     -10.317753      -280.7603
  15   2.0000     -10.313700      -280.6500
  16   2.0000     -10.306891      -280.4648
  17   2.0000     -10.306545      -280.4554
  18   2.0000     -10.299878      -280.2739
  19   2.0000     -10.296284      -280.1761
  20   2.0000     -10.295387      -280.1517
  21   2.0000     -10.294943      -280.1396
  22   2.0000     -10.293571      -280.1023
  23   2.0000     -10.291195      -280.0377
  24   2.0000     -10.288881      -279.9747
  25   2.0000     -10.286935      -279.9217
  26   2.0000     -10.286528      -279.9107
  27   2.0000     -10.286319      -279.9050
  28   2.0000     -10.283573      -279.8302
  29   2.0000     -10.282155      -279.7917
  30   2.0000     -10.281548      -279.7751
  31   2.0000     -10.277164      -279.6559
  32   2.0000     -10.276767      -279.6450
  33   2.0000     -10.275849      -279.6201
  34   2.0000     -10.274801      -279.5915
  35   2.0000     -10.273918      -279.5675
  36   2.0000     -10.273677      -279.5610
  37   2.0000     -10.272446      -279.5275
  38   2.0000     -10.272023      -279.5160
  39   2.0000     -10.272009      -279.5156
  40   2.0000     -10.271752      -279.5086
  41   2.0000     -10.269180      -279.4386
  42   2.0000     -10.268791      -279.4280
  43   2.0000     -10.268311      -279.4150
  44   2.0000     -10.265199      -279.3303
  45   2.0000     -10.264146      -279.3016
  46   2.0000     -10.262141      -279.2471
  47   2.0000     -10.261859      -279.2394
  48   2.0000     -10.260698      -279.2078
  49   2.0000     -10.259755      -279.1821
  50   2.0000     -10.259203      -279.1671
  51   2.0000     -10.258438      -279.1463
  52   2.0000     -10.247390      -278.8456
  53   2.0000     -10.247084      -278.8373
  54   2.0000     -10.246678      -278.8263
  55   2.0000     -10.245853      -278.8038
  56   2.0000      -8.052295      -219.1141
  57   2.0000      -8.046348      -218.9523
  58   2.0000      -8.031189      -218.5398
  59   2.0000      -8.026739      -218.4187
  60   2.0000      -6.021750      -163.8601
  61   2.0000      -6.017506      -163.7447
  62   2.0000      -6.015889      -163.7007
  63   2.0000      -6.014279      -163.6569
  64   2.0000      -6.011601      -163.5840
  65   2.0000      -6.008141      -163.4898
  66   2.0000      -6.001610      -163.3121
  67   2.0000      -5.997518      -163.2008
  68   2.0000      -5.997202      -163.1922
  69   2.0000      -5.993112      -163.0809
  70   2.0000      -5.990808      -163.0182
  71   2.0000      -5.986293      -162.8953
  72   2.0000      -1.289971       -35.1019
  73   2.0000      -1.288283       -35.0560
  74   2.0000      -1.287089       -35.0235
  75   2.0000      -1.286184       -34.9988
  76   2.0000      -1.090009       -29.6607
  77   2.0000      -1.053542       -28.6683
  78   2.0000      -0.983997       -26.7759
  79   2.0000      -0.982423       -26.7331
  80   2.0000      -0.973611       -26.4933
  81   2.0000      -0.973028       -26.4774
  82   2.0000      -0.955520       -26.0010
  83   2.0000      -0.955251       -25.9937
  84   2.0000      -0.906744       -24.6738
  85   2.0000      -0.906345       -24.6629
  86   2.0000      -0.898654       -24.4536
  87   2.0000      -0.895009       -24.3544
  88   2.0000      -0.883945       -24.0534
  89   2.0000      -0.877755       -23.8849
  90   2.0000      -0.864856       -23.5339
  91   2.0000      -0.863342       -23.4927
  92   2.0000      -0.860251       -23.4086
  93   2.0000      -0.840168       -22.8621
  94   2.0000      -0.834750       -22.7147
  95   2.0000      -0.826481       -22.4897
  96   2.0000      -0.816163       -22.2089
  97   2.0000      -0.809914       -22.0389
  98   2.0000      -0.806134       -21.9360
  99   2.0000      -0.799608       -21.7584
 100   2.0000      -0.794330       -21.6148
 101   2.0000      -0.782999       -21.3065
 102   2.0000      -0.779435       -21.2095
 103   2.0000      -0.766341       -20.8532
 104   2.0000      -0.755407       -20.5557
 105   2.0000      -0.738479       -20.0950
 106   2.0000      -0.735266       -20.0076
 107   2.0000      -0.723897       -19.6983
 108   2.0000      -0.715147       -19.4601
 109   2.0000      -0.694888       -18.9089
 110   2.0000      -0.693234       -18.8639
 111   2.0000      -0.692718       -18.8498
 112   2.0000      -0.682883       -18.5822
 113   2.0000      -0.677166       -18.4266
 114   2.0000      -0.662453       -18.0263
 115   2.0000      -0.659152       -17.9364
 116   2.0000      -0.656817       -17.8729
 117   2.0000      -0.650860       -17.7108
 118   2.0000      -0.647174       -17.6105
 119   2.0000      -0.646144       -17.5825
 120   2.0000      -0.633643       -17.2423
 121   2.0000      -0.633257       -17.2318
 122   2.0000      -0.622243       -16.9321
 123   2.0000      -0.617876       -16.8133
 124   2.0000      -0.616642       -16.7797
 125   2.0000      -0.610459       -16.6114
 126   2.0000      -0.608916       -16.5695
 127   2.0000      -0.603978       -16.4351
 128   2.0000      -0.599797       -16.3213
 129   2.0000      -0.593912       -16.1612
 130   2.0000      -0.593164       -16.1408
 131   2.0000      -0.583145       -15.8682
 132   2.0000      -0.572401       -15.5758
 133   2.0000      -0.564008       -15.3474
 134   2.0000      -0.559586       -15.2271
 135   2.0000      -0.549370       -14.9491
 136   2.0000      -0.547572       -14.9002
 137   2.0000      -0.546753       -14.8779
 138   2.0000      -0.540039       -14.6952
 139   2.0000      -0.539939       -14.6925
 140   2.0000      -0.539694       -14.6858
 141   2.0000      -0.538810       -14.6618
 142   2.0000      -0.537097       -14.6152
 143   2.0000      -0.534875       -14.5547
 144   2.0000      -0.534844       -14.5538
 145   2.0000      -0.531175       -14.4540
 146   2.0000      -0.529219       -14.4008
 147   2.0000      -0.523600       -14.2479
 148   2.0000      -0.523169       -14.2361
 149   2.0000      -0.520535       -14.1645
 150   2.0000      -0.520079       -14.1521
 151   2.0000      -0.516973       -14.0676
 152   2.0000      -0.514094       -13.9892
 153   2.0000      -0.510433       -13.8896
 154   2.0000      -0.508156       -13.8276
 155   2.0000      -0.503502       -13.7010
 156   2.0000      -0.498999       -13.5785
 157   2.0000      -0.496623       -13.5138
 158   2.0000      -0.491269       -13.3681
 159   2.0000      -0.488869       -13.3028
 160   2.0000      -0.479761       -13.0550
 161   2.0000      -0.477932       -13.0052
 162   2.0000      -0.477778       -13.0010
 163   2.0000      -0.476098       -12.9553
 164   2.0000      -0.475582       -12.9412
 165   2.0000      -0.470127       -12.7928
 166   2.0000      -0.467850       -12.7308
 167   2.0000      -0.461036       -12.5454
 168   2.0000      -0.459456       -12.5024
 169   2.0000      -0.458809       -12.4848
 170   2.0000      -0.457864       -12.4591
 171   2.0000      -0.455435       -12.3930
 172   2.0000      -0.454969       -12.3803
 173   2.0000      -0.453844       -12.3497
 174   2.0000      -0.451687       -12.2910
 175   2.0000      -0.446241       -12.1428
 176   2.0000      -0.443647       -12.0722
 177   2.0000      -0.442296       -12.0355
 178   2.0000      -0.440451       -11.9853
 179   2.0000      -0.438495       -11.9321
 180   2.0000      -0.436410       -11.8753
 181   2.0000      -0.430068       -11.7028
 182   2.0000      -0.427997       -11.6464
 183   2.0000      -0.425661       -11.5828
 184   2.0000      -0.421964       -11.4822
 185   2.0000      -0.415454       -11.3051
 186   2.0000      -0.404433       -11.0052
 187   2.0000      -0.401665       -10.9299
 188   2.0000      -0.400663       -10.9026
 189   2.0000      -0.396574       -10.7913
 190   2.0000      -0.394974       -10.7478
 191   2.0000      -0.394247       -10.7280
 192   2.0000      -0.389592       -10.6013
 193   2.0000      -0.387371       -10.5409
 194   2.0000      -0.379211       -10.3189
 195   2.0000      -0.371770       -10.1164
 196   2.0000      -0.346229        -9.4214
 197   2.0000      -0.333017        -9.0619
 198   2.0000      -0.323100        -8.7920
 199   2.0000      -0.322374        -8.7722
 200   2.0000      -0.315260        -8.5787
 201   2.0000      -0.300170        -8.1680
 202   2.0000      -0.292934        -7.9711
 203   2.0000      -0.291377        -7.9288
 204   2.0000      -0.282179        -7.6785
 205   2.0000      -0.278768        -7.5857
 206   2.0000      -0.265753        -7.2315
 207   2.0000      -0.257571        -7.0089
 208   2.0000      -0.239377        -6.5138
 209   2.0000      -0.228360        -6.2140
 210   2.0000      -0.201385        -5.4800
 211   0.0000      -0.097679        -2.6580
 212   0.0000      -0.081892        -2.2284
 213   0.0000      -0.018762        -0.5105
 214   0.0000      -0.009575        -0.2606
 215   0.0000      -0.000867        -0.0236

MULLIKEN ATOMIC CHARGES
-----------------------
   0 C :    0.022818
   1 C :    0.035932
   2 C :   -0.139190
   3 S :    0.008050
   4 C :   -0.097528
   5 S :    0.100423
   6 C :   -0.095592
   7 C :    0.071800
   8 C :   -0.011181
   9 C :    0.114600
  10 C :   -0.101021
  11 C :    0.017334
  12 C :    0.247446
  13 C :   -0.083734
  14 F :   -0.183720
  15 C :    0.017513
  16 C :   -0.101554
  17 C :    0.123388
  18 C :   -0.085316
  19 C :    0.248748
  20 F :   -0.182579
  21 C :   -0.016812
  22 C :    0.007636
  23 C :    0.106025
  24 N :   -0.034347
  25 C :    0.122907
  26 C :   -0.171232
  27 C :    0.107703
  28 N :   -0.034348
  29 C :    0.123494
  30 C :   -0.172835
  31 C :    0.007599
  32 C :   -0.019151
  33 C :    0.128261
  34 C :   -0.104534
  35 C :    0.018926
  36 C :    0.252419
  37 C :   -0.088435
  38 F :   -0.180577
  39 C :    0.015469
  40 C :   -0.100026
  41 C :    0.118810
  42 C :   -0.087729
  43 C :    0.249023
  44 F :   -0.183403
  45 C :    0.006735
  46 C :   -0.025716
  47 C :    0.144994
  48 C :   -0.004895
  49 C :   -0.122435
  50 S :   -0.001583
  51 C :   -0.094203
  52 S :    0.084655
  53 C :   -0.122450
  54 C :    0.010712
  55 C :   -0.036634
  56 H :   -0.013405
  57 H :   -0.013864
  58 H :    0.067988
  59 H :    0.071752
  60 H :    0.072566
  61 H :   -0.021164
  62 H :   -0.024744
  63 H :   -0.024242
  64 H :   -0.025956
  65 H :   -0.023854
  66 H :   -0.029502
  67 H :   -0.022828
  68 H :   -0.033358
  69 H :    0.121810
  70 H :   -0.032042
  71 H :    0.121868
  72 H :   -0.032378
  73 H :   -0.032989
  74 H :   -0.022339
  75 H :   -0.022879
  76 H :   -0.028060
  77 H :   -0.022193
  78 H :   -0.025552
  79 H :   -0.026264
  80 H :   -0.029785
  81 H :   -0.018718
  82 H :    0.066377
  83 H :    0.071807
  84 H :    0.071261
  85 H :   -0.011432
  86 H :    0.019057
  87 H :    0.022406
Sum of atomic charges:    0.0000000

LOEWDIN ATOMIC CHARGES
----------------------
   0 C :   -0.040596
   1 C :   -0.092996
   2 C :   -0.318201
   3 S :    0.299823
   4 C :   -0.160849
   5 S :    0.418273
   6 C :   -0.185257
   7 C :   -0.029335
   8 C :   -0.023080
   9 C :   -0.001620
  10 C :   -0.069921
  11 C :   -0.007032
  12 C :    0.082527
  13 C :   -0.064716
  14 F :   -0.059114
  15 C :   -0.008594
  16 C :   -0.068380
  17 C :   -0.004938
  18 C :   -0.066471
  19 C :    0.083924
  20 F :   -0.058331
  21 C :   -0.018562
  22 C :   -0.028349
  23 C :    0.002536
  24 N :    0.069139
  25 C :   -0.015112
  26 C :   -0.086499
  27 C :   -0.000265
  28 N :    0.069599
  29 C :   -0.013888
  30 C :   -0.089002
  31 C :   -0.024675
  32 C :   -0.021836
  33 C :   -0.000876
  34 C :   -0.070915
  35 C :   -0.003490
  36 C :    0.084776
  37 C :   -0.065431
  38 F :   -0.056853
  39 C :   -0.009725
  40 C :   -0.063349
  41 C :   -0.004447
  42 C :   -0.064074
  43 C :    0.080645
  44 F :   -0.059845
  45 C :   -0.016485
  46 C :   -0.010782
  47 C :   -0.048479
  48 C :   -0.092124
  49 C :   -0.306026
  50 S :    0.293215
  51 C :   -0.161746
  52 S :    0.419471
  53 C :   -0.177317
  54 C :   -0.038556
  55 C :   -0.059182
  56 H :    0.030200
  57 H :    0.029873
  58 H :    0.035859
  59 H :    0.024651
  60 H :    0.025084
  61 H :    0.025984
  62 H :    0.029970
  63 H :    0.020119
  64 H :    0.025471
  65 H :    0.020044
  66 H :    0.024122
  67 H :    0.030969
  68 H :    0.025757
  69 H :    0.089408
  70 H :    0.024870
  71 H :    0.089417
  72 H :    0.024608
  73 H :    0.025991
  74 H :    0.031045
  75 H :    0.020545
  76 H :    0.024494
  77 H :    0.020674
  78 H :    0.025640
  79 H :    0.029650
  80 H :    0.024977
  81 H :    0.026898
  82 H :    0.035265
  83 H :    0.024464
  84 H :    0.024512
  85 H :    0.032397
  86 H :    0.014846
  87 H :    0.025591

  Mayer bond orders larger than 0.100000
B(  0-C ,  1-C ) :   1.3011 B(  0-C ,  6-C ) :   1.4996 B(  0-C , 56-H ) :   0.9931
B(  1-C ,  2-C ) :   1.5284 B(  1-C , 57-H ) :   0.9929 B(  2-C ,  3-S ) :   1.0274
B(  2-C ,  5-S ) :   1.1285 B(  3-S ,  4-C ) :   1.0148 B(  4-C , 58-H ) :   0.9728
B(  4-C , 59-H ) :   0.9650 B(  4-C , 60-H ) :   0.9651 B(  5-S ,  6-C ) :   1.0920
B(  6-C ,  7-C ) :   1.1343 B(  7-C ,  8-C ) :   1.6321 B(  7-C , 61-H ) :   0.9606
B(  8-C ,  9-C ) :   1.1628 B(  8-C , 62-H ) :   0.9794 B(  9-C , 10-C ) :   1.4836
B(  9-C , 13-C ) :   1.0183 B( 10-C , 11-C ) :   1.1452 B( 10-C , 63-H ) :   1.0233
B( 11-C , 12-C ) :   1.0268 B( 11-C , 15-C ) :   1.4202 B( 12-C , 13-C ) :   1.6641
B( 12-C , 14-F ) :   1.1177 B( 13-C , 64-H ) :   1.0127 B( 15-C , 16-C ) :   1.1504
B( 15-C , 19-C ) :   1.0256 B( 16-C , 17-C ) :   1.4689 B( 16-C , 65-H ) :   1.0238
B( 17-C , 18-C ) :   1.0167 B( 17-C , 21-C ) :   1.1697 B( 18-C , 19-C ) :   1.6653
B( 18-C , 66-H ) :   1.0126 B( 19-C , 20-F ) :   1.1203 B( 21-C , 22-C ) :   1.5855
B( 21-C , 67-H ) :   0.9819 B( 22-C , 23-C ) :   1.1312 B( 22-C , 68-H ) :   0.9664
B( 23-C , 24-N ) :   1.1684 B( 23-C , 30-C ) :   1.3756 B( 24-N , 25-C ) :   1.1660
B( 24-N , 69-H ) :   0.9366 B( 25-C , 26-C ) :   1.2781 B( 25-C , 29-C ) :   1.2861
B( 26-C , 27-C ) :   1.3731 B( 26-C , 70-H ) :   1.0342 B( 27-C , 28-N ) :   1.1656
B( 27-C , 31-C ) :   1.1332 B( 28-N , 29-C ) :   1.1696 B( 28-N , 71-H ) :   0.9365
B( 29-C , 30-C ) :   1.2750 B( 30-C , 72-H ) :   1.0341 B( 31-C , 32-C ) :   1.5826
B( 31-C , 73-H ) :   0.9653 B( 32-C , 33-C ) :   1.1713 B( 32-C , 74-H ) :   0.9829
B( 33-C , 34-C ) :   1.4703 B( 33-C , 37-C ) :   1.0129 B( 34-C , 35-C ) :   1.1482
B( 34-C , 75-H ) :   1.0249 B( 35-C , 36-C ) :   1.0214 B( 35-C , 39-C ) :   1.4272
B( 36-C , 37-C ) :   1.6682 B( 36-C , 38-F ) :   1.1226 B( 37-C , 76-H ) :   1.0126
B( 39-C , 40-C ) :   1.1298 B( 39-C , 43-C ) :   1.0307 B( 40-C , 41-C ) :   1.5020
B( 40-C , 77-H ) :   1.0237 B( 41-C , 42-C ) :   1.0221 B( 41-C , 45-C ) :   1.1310
B( 42-C , 43-C ) :   1.6569 B( 42-C , 78-H ) :   1.0141 B( 43-C , 44-F ) :   1.1204
B( 45-C , 46-C ) :   1.6405 B( 45-C , 79-H ) :   0.9807 B( 46-C , 47-C ) :   1.1064
B( 46-C , 80-H ) :   0.9774 B( 47-C , 48-C ) :   1.2238 B( 47-C , 53-C ) :   1.4489
B( 48-C , 49-C ) :   1.5923 B( 48-C , 81-H ) :   0.9899 B( 49-C , 50-S ) :   1.0234
B( 49-C , 52-S ) :   1.1039 B( 50-S , 51-C ) :   1.0143 B( 51-C , 82-H ) :   0.9728
B( 51-C , 83-H ) :   0.9649 B( 51-C , 84-H ) :   0.9656 B( 52-S , 53-C ) :   1.0826
B( 53-C , 54-C ) :   1.1484 B( 54-C , 55-C ) :   1.9126 B( 54-C , 85-H ) :   0.9590
B( 55-C , 86-H ) :   0.9553 B( 55-C , 87-H ) :   0.9485

-----------------------------------------------------------------------------
         ABSORPTION SPECTRUM VIA TRANSITION ELECTRIC DIPOLE MOMENTS
-----------------------------------------------------------------------------
State   Energy  Wavelength   fosc         T2         TX        TY        TZ
        (cm-1)    (nm)                  (au**2)     (au)      (au)      (au)
-----------------------------------------------------------------------------
   0   10203.6    980.0   2.809160202  90.63514  -1.42010  -9.18466   2.06411
   1   13815.6    723.8   0.022458983   0.53518   0.72236   0.05173  -0.10343
   2   16016.6    624.4   0.012753369   0.26214   0.20278  -0.45618   0.11367
   3   16758.6    596.7   0.065377342   1.28429   0.22599   0.91354  -0.63140
   4   20067.9    498.3   0.000054010   0.00089  -0.02901  -0.00307  -0.00589
   5   21142.2    473.0   0.519471919   8.08886   0.49517   2.79919  -0.09051
   6   22156.7    451.3   0.023827321   0.35404   0.19153   0.24475  -0.50739
   7   23620.9    423.4   0.232679403   3.24293   0.13339  -1.73632   0.45861
   8   24856.6    402.3   0.179530616   2.37779   0.26296   1.45539  -0.43645
   9   26323.8    379.9   0.155824428   1.94878   0.43661   1.31199  -0.19194
  10   27273.0    366.7   0.376610890   4.54607   0.62924   1.96940  -0.52115
  11   28176.1    354.9   0.027482383   0.32111   0.09713  -0.47404  -0.29488
  12   28619.2    349.4   0.090211426   1.03772   0.02950  -0.71943   0.72060
  13   29663.6    337.1   0.091543218   1.01596  -0.02246   0.98539  -0.21087
  14   30271.4    330.3   0.061462770   0.66843  -0.02078   0.81637  -0.03921
  15   31094.3    321.6   0.895111981   9.47701   0.47298   2.82241  -1.13458
  16   31152.2    321.0   0.024245913   0.25623  -0.17287   0.46726   0.08952
  17   31705.3    315.4   0.038815505   0.40304  -0.10994   0.58266   0.22685
  18   32420.0    308.5   0.008898101   0.09036   0.06961   0.13948   0.25701
  19   33687.0    296.9   0.015879060   0.15518   0.11495  -0.09020   0.36583
  20   34568.3    289.3   0.018776192   0.17882   0.07435  -0.03376   0.41491
  21   35254.9    283.6   0.072518066   0.67718  -0.11144   0.14951   0.80150
  22   35452.9    282.1   0.116175997   1.07880  -0.04265   0.30609  -0.99161
  23   35609.0    280.8   0.059484973   0.54995   0.01303   0.37193  -0.64144
  24   35940.5    278.2   0.115601727   1.05890   0.06399  -0.47408   0.91107
  25   36763.5    272.0   0.094484560   0.84610   0.18013   0.85852   0.27677
  26   37189.0    268.9   0.002252523   0.01994  -0.00965  -0.06364  -0.12569
  27   37267.3    268.3   0.020026760   0.17691   0.23310   0.29793   0.18389
  28   37514.5    266.6   0.008315654   0.07297  -0.00356   0.07377   0.25985
  29   38354.1    260.7   0.009606656   0.08246  -0.04210   0.13012   0.25250
  30   38577.7    259.2   0.031124834   0.26561  -0.07424  -0.22483   0.45777
  31   39079.1    255.9   0.002569595   0.02165   0.02999  -0.03494   0.13974
  32   39245.1    254.8   0.017732503   0.14875   0.02650  -0.21101   0.32175
  33   39985.5    250.1   0.420341272   3.46079   0.62978   1.54092   0.83050

FINAL SINGLE POINT ENERGY     -3870.253709890355

DIPOLE MOMENT
-------------
                                X             Y             Z
Electronic contribution:      7.29185      18.19918      -5.37338
Nuclear contribution   :     -7.47084     -17.73087       4.93760
                        -----------------------------------------
Total Dipole Moment    :     -0.17899       0.46831      -0.43578
                        -----------------------------------------
Magnitude (a.u.)       :      0.66427
Magnitude (Debye)      :      1.68844

Rotational constants in cm-1:     0.007243     0.000135     0.000134
Rotational constants in MHz :   217.127022     4.051813     4.004870

                             ****ORCA TERMINATED NORMALLY****
TOTAL RUN TIME: 0 days 0 hours 7 minutes 49 seconds 929 msec
