                         Program Version 4.2.0 -  RELEASE  -
|  1> # ORCA input file
|  2> # SCF done       -175.217257912754          0.000686982272
|  3> ! CAM-B3LYP def2-SVP def2/J RIJCOSX Grid4 TightSCF
|  4> %maxcore 5000
|  5> %tddft
|  6>     Mode sTDDFT
|  7>     Ethresh 5.0
|  8>     maxcore 5000
|  9> end
| 10>
| 11> %pal
| 12>   nprocs 6
| 13>   end
| 14> * xyz 0 1
| 15>    C       10.07957        -8.46474         7.15554
| 16>    C       10.96271        -8.21127         8.20802
| 17>    C       10.99834        -9.22940         9.12922
| 18>    S       11.92743        -9.37826        10.59525
| 19>    C       12.82899        -7.80204        10.61983
| 20>    S        9.93206       -10.52249         8.69841
| 21>    C        9.42549        -9.67674         7.25018
| 22>    C        8.46703       -10.27330         6.39652
| 23>    C        7.98393        -9.71703         5.25250
| 24>    C        7.01146       -10.31531         4.41741
| 25>    C        6.36776       -11.52945         4.55353
| 26>    C        5.44595       -11.69254         3.48736
| 27>    C        5.58099       -10.47965         2.67160
| 28>    C        6.50044        -9.66444         3.20690
| 29>    F        4.87544       -10.25430         1.55644
| 30>    C        4.58048       -12.74284         3.25906
| 31>    C        3.60810       -12.88120         2.23174
| 32>    C        2.92819       -14.07177         2.41114
| 33>    C        3.48912       -14.74409         3.58545
| 34>    C        4.45556       -13.95369         4.07452
| 35>    F        5.21735       -14.20730         5.14907
| 36>    C        1.85046       -14.60559         1.67261
| 37>    C        1.27330       -14.02143         0.58499
| 38>    C        0.15816       -14.55792        -0.08878
| 39>    S       -0.59899       -16.03583         0.44836
| 40>    C       -0.50982       -14.02893        -1.19625
| 41>    C       -0.09689       -12.78801        -1.87632
| 42>    O        0.86508       -12.10976        -1.55165
| 43>    C       -0.96614       -12.45085        -2.99213
| 44>    C       -0.90478       -11.37826        -3.85428
| 45>    N       -1.93002       -11.47165        -4.73465
| 46>    C       -2.16102       -10.57352        -5.83734
| 47>    C       -1.40056       -11.02649        -7.08226
| 48>    C       -2.65085       -12.58771        -4.47207
| 49>    C       -2.08968       -13.22933        -3.38932
| 50>    C       -2.50273       -14.45534        -2.72699
| 51>    O       -3.47052       -15.11183        -3.08113
| 52>    C       -1.62742       -14.80632        -1.59388
| 53>    C       -1.81787       -15.93685        -0.79531
| 54>    C       -2.84212       -16.89993        -0.89492
| 55>    C       -2.94763       -17.98323        -0.07569
| 56>    C       -3.98621       -18.93618        -0.11902
| 57>    C       -4.10486       -20.03118         0.71467
| 58>    C       -5.30425       -20.72883         0.40567
| 59>    C       -5.90582       -19.97567        -0.69805
| 60>    C       -5.14076       -18.92271        -1.02223
| 61>    F       -7.06085       -20.32416        -1.28479
| 62>    C       -5.81955       -21.85393         1.01234
| 63>    C       -7.05261       -22.51186         0.75300
| 64>    C       -7.18535       -23.58280         1.61085
| 65>    C       -5.98762       -23.64042         2.45481
| 66>    C       -5.19737       -22.61809         2.09896
| 67>    F       -4.00471       -22.31458         2.63030
| 68>    C       -8.25325       -24.50751         1.74274
| 69>    C       -9.41223       -24.44674         1.04091
| 70>    C      -10.50326       -25.36088         1.16782
| 71>    C      -10.48978       -26.52218         1.98837
| 72>    C      -11.64567       -27.23609         1.94178
| 73>    S      -11.95724       -28.71126         2.82333
| 74>    C      -13.64608       -29.09603         2.28442
| 75>    S      -12.81416       -26.50417         0.88191
| 76>    C      -11.71550       -25.21284         0.49339
| 77>    C      -12.12034       -24.17650        -0.40601
| 78>    C      -13.31289       -24.10400        -0.99915
| 79>    H        9.92574        -7.77494         6.34608
| 80>    H       11.54801        -7.31343         8.28220
| 81>    H       13.42528        -7.81645        11.52653
| 82>    H       12.12399        -6.97713        10.65169
| 83>    H       13.47615        -7.73508         9.75072
| 84>    H        8.10204       -11.24352         6.70164
| 85>    H        8.34706        -8.74606         4.94379
| 86>    H        6.51800       -12.24341         5.33794
| 87>    H        6.82059        -8.70805         2.84104
| 88>    H        3.43025       -12.16106         1.45815
| 89>    H        3.16470       -15.69408         3.96371
| 90>    H        1.44930       -15.55053         2.02307
| 91>    H        1.65355       -13.08858         0.19451
| 92>    H       -0.20363       -10.56788        -3.87918
| 93>    H       -1.83506        -9.57219        -5.54410
| 94>    H       -3.23401       -10.54549        -6.04419
| 95>    H       -0.33187       -11.05305        -6.88360
| 96>    H       -1.58666       -10.33929        -7.90270
| 97>    H       -1.72124       -12.02189        -7.37999
| 98>    H       -3.51180       -12.85921        -5.05007
| 99>    H       -3.56698       -16.72494        -1.67657
|100>    H       -2.19033       -18.13720         0.68523
|101>    H       -3.41259       -20.30759         1.48554
|102>    H       -5.32577       -18.19792        -1.78985
|103>    H       -7.75500       -22.20129         0.00588
|104>    H       -5.80621       -24.37506         3.21535
|105>    H       -8.10881       -25.29129         2.47333
|106>    H       -9.53520       -23.64112         0.33291
|107>    H       -9.65505       -26.83063         2.58884
|108>    H      -13.92522       -30.01454         2.79057
|109>    H      -13.66122       -29.23981         1.20788
|110>    H      -14.31343       -28.28918         2.57342
|111>    H      -11.38541       -23.40727        -0.59810
|112>    H      -14.07444       -24.84829        -0.83234
|113>    H      -13.56024       -23.29837        -1.66653
|114> *
|115>
|116>                          ****END OF INPUT****

CARTESIAN COORDINATES (ANGSTROEM)
---------------------------------
  C     10.079570   -8.464740    7.155540
  C     10.962710   -8.211270    8.208020
  C     10.998340   -9.229400    9.129220
  S     11.927430   -9.378260   10.595250
  C     12.828990   -7.802040   10.619830
  S      9.932060  -10.522490    8.698410
  C      9.425490   -9.676740    7.250180
  C      8.467030  -10.273300    6.396520
  C      7.983930   -9.717030    5.252500
  C      7.011460  -10.315310    4.417410
  C      6.367760  -11.529450    4.553530
  C      5.445950  -11.692540    3.487360
  C      5.580990  -10.479650    2.671600
  C      6.500440   -9.664440    3.206900
  F      4.875440  -10.254300    1.556440
  C      4.580480  -12.742840    3.259060
  C      3.608100  -12.881200    2.231740
  C      2.928190  -14.071770    2.411140
  C      3.489120  -14.744090    3.585450
  C      4.455560  -13.953690    4.074520
  F      5.217350  -14.207300    5.149070
  C      1.850460  -14.605590    1.672610
  C      1.273300  -14.021430    0.584990
  C      0.158160  -14.557920   -0.088780
  S     -0.598990  -16.035830    0.448360
  C     -0.509820  -14.028930   -1.196250
  C     -0.096890  -12.788010   -1.876320
  O      0.865080  -12.109760   -1.551650
  C     -0.966140  -12.450850   -2.992130
  C     -0.904780  -11.378260   -3.854280
  N     -1.930020  -11.471650   -4.734650
  C     -2.161020  -10.573520   -5.837340
  C     -1.400560  -11.026490   -7.082260
  C     -2.650850  -12.587710   -4.472070
  C     -2.089680  -13.229330   -3.389320
  C     -2.502730  -14.455340   -2.726990
  O     -3.470520  -15.111830   -3.081130
  C     -1.627420  -14.806320   -1.593880
  C     -1.817870  -15.936850   -0.795310
  C     -2.842120  -16.899930   -0.894920
  C     -2.947630  -17.983230   -0.075690
  C     -3.986210  -18.936180   -0.119020
  C     -4.104860  -20.031180    0.714670
  C     -5.304250  -20.728830    0.405670
  C     -5.905820  -19.975670   -0.698050
  C     -5.140760  -18.922710   -1.022230
  F     -7.060850  -20.324160   -1.284790
  C     -5.819550  -21.853930    1.012340
  C     -7.052610  -22.511860    0.753000
  C     -7.185350  -23.582800    1.610850
  C     -5.987620  -23.640420    2.454810
  C     -5.197370  -22.618090    2.098960
  F     -4.004710  -22.314580    2.630300
  C     -8.253250  -24.507510    1.742740
  C     -9.412230  -24.446740    1.040910
  C    -10.503260  -25.360880    1.167820
  C    -10.489780  -26.522180    1.988370
  C    -11.645670  -27.236090    1.941780
  S    -11.957240  -28.711260    2.823330
  C    -13.646080  -29.096030    2.284420
  S    -12.814160  -26.504170    0.881910
  C    -11.715500  -25.212840    0.493390
  C    -12.120340  -24.176500   -0.406010
  C    -13.312890  -24.104000   -0.999150
  H      9.925740   -7.774940    6.346080
  H     11.548010   -7.313430    8.282200
  H     13.425280   -7.816450   11.526530
  H     12.123990   -6.977130   10.651690
  H     13.476150   -7.735080    9.750720
  H      8.102040  -11.243520    6.701640
  H      8.347060   -8.746060    4.943790
  H      6.518000  -12.243410    5.337940
  H      6.820590   -8.708050    2.841040
  H      3.430250  -12.161060    1.458150
  H      3.164700  -15.694080    3.963710
  H      1.449300  -15.550530    2.023070
  H      1.653550  -13.088580    0.194510
  H     -0.203630  -10.567880   -3.879180
  H     -1.835060   -9.572190   -5.544100
  H     -3.234010  -10.545490   -6.044190
  H     -0.331870  -11.053050   -6.883600
  H     -1.586660  -10.339290   -7.902700
  H     -1.721240  -12.021890   -7.379990
  H     -3.511800  -12.859210   -5.050070
  H     -3.566980  -16.724940   -1.676570
  H     -2.190330  -18.137200    0.685230
  H     -3.412590  -20.307590    1.485540
  H     -5.325770  -18.197920   -1.789850
  H     -7.755000  -22.201290    0.005880
  H     -5.806210  -24.375060    3.215350
  H     -8.108810  -25.291290    2.473330
  H     -9.535200  -23.641120    0.332910
  H     -9.655050  -26.830630    2.588840
  H    -13.925220  -30.014540    2.790570
  H    -13.661220  -29.239810    1.207880
  H    -14.313430  -28.289180    2.573420
  H    -11.385410  -23.407270   -0.598100
  H    -14.074440  -24.848290   -0.832340
  H    -13.560240  -23.298370   -1.666530

 Total Charge           Charge          ....    0
 Multiplicity           Mult            ....    1
 Number of Electrons    NEL             ....  486
 Basis Dimension        Dim             .... 1091

ORBITAL ENERGIES
----------------

  NO   OCC          E(Eh)            E(eV)
   0   2.0000     -88.955557     -2420.6038
   1   2.0000     -88.955507     -2420.6024
   2   2.0000     -88.954165     -2420.5659
   3   2.0000     -88.937002     -2420.0989
   4   2.0000     -88.933470     -2420.0027
   5   2.0000     -24.778241      -674.2502
   6   2.0000     -24.777257      -674.2234
   7   2.0000     -24.776631      -674.2064
   8   2.0000     -24.774649      -674.1525
   9   2.0000     -19.189990      -522.1862
  10   2.0000     -19.188760      -522.1527
  11   2.0000     -14.479783      -394.0149
  12   2.0000     -10.350178      -281.6427
  13   2.0000     -10.348975      -281.6099
  14   2.0000     -10.342985      -281.4469
  15   2.0000     -10.342535      -281.4347
  16   2.0000     -10.342404      -281.4311
  17   2.0000     -10.338509      -281.3251
  18   2.0000     -10.327710      -281.0313
  19   2.0000     -10.321145      -280.8526
  20   2.0000     -10.316524      -280.7269
  21   2.0000     -10.308867      -280.5185
  22   2.0000     -10.308684      -280.5136
  23   2.0000     -10.303562      -280.3742
  24   2.0000     -10.303066      -280.3607
  25   2.0000     -10.302576      -280.3473
  26   2.0000     -10.298368      -280.2328
  27   2.0000     -10.296715      -280.1879
  28   2.0000     -10.295402      -280.1521
  29   2.0000     -10.292099      -280.0622
  30   2.0000     -10.291181      -280.0373
  31   2.0000     -10.290727      -280.0249
  32   2.0000     -10.287143      -279.9274
  33   2.0000     -10.285323      -279.8779
  34   2.0000     -10.280227      -279.7392
  35   2.0000     -10.278604      -279.6950
  36   2.0000     -10.277700      -279.6704
  37   2.0000     -10.277529      -279.6658
  38   2.0000     -10.277493      -279.6648
  39   2.0000     -10.277157      -279.6557
  40   2.0000     -10.276935      -279.6496
  41   2.0000     -10.276859      -279.6476
  42   2.0000     -10.276852      -279.6474
  43   2.0000     -10.276145      -279.6281
  44   2.0000     -10.275605      -279.6134
  45   2.0000     -10.274406      -279.5808
  46   2.0000     -10.273277      -279.5501
  47   2.0000     -10.272317      -279.5239
  48   2.0000     -10.272032      -279.5162
  49   2.0000     -10.271292      -279.4961
  50   2.0000     -10.271092      -279.4906
  51   2.0000     -10.269988      -279.4606
  52   2.0000     -10.264878      -279.3215
  53   2.0000     -10.262250      -279.2500
  54   2.0000     -10.260933      -279.2142
  55   2.0000     -10.260480      -279.2019
  56   2.0000     -10.259959      -279.1877
  57   2.0000     -10.259677      -279.1800
  58   2.0000     -10.259260      -279.1687
  59   2.0000     -10.257209      -279.1128
  60   2.0000     -10.253776      -279.0194
  61   2.0000     -10.248626      -278.8793
  62   2.0000     -10.248074      -278.8643
  63   2.0000     -10.245315      -278.7892
  64   2.0000      -8.051581      -219.0947
  65   2.0000      -8.050966      -219.0779
  66   2.0000      -8.049589      -219.0405
  67   2.0000      -8.032729      -218.5817
  68   2.0000      -8.029105      -218.4830
  69   2.0000      -6.020988      -163.8394
  70   2.0000      -6.020000      -163.8125
  71   2.0000      -6.019124      -163.7887
  72   2.0000      -6.016833      -163.7264
  73   2.0000      -6.016169      -163.7083
  74   2.0000      -6.014818      -163.6715
  75   2.0000      -6.013377      -163.6323
  76   2.0000      -6.013277      -163.6296
  77   2.0000      -6.011403      -163.5786
  78   2.0000      -6.003257      -163.3569
  79   2.0000      -5.999570      -163.2566
  80   2.0000      -5.998964      -163.2401
  81   2.0000      -5.995471      -163.1451
  82   2.0000      -5.992340      -163.0599
  83   2.0000      -5.988680      -162.9603
  84   2.0000      -1.289867       -35.0991
  85   2.0000      -1.288866       -35.0718
  86   2.0000      -1.288620       -35.0651
  87   2.0000      -1.286135       -34.9975
  88   2.0000      -1.109182       -30.1824
  89   2.0000      -1.103916       -30.0391
  90   2.0000      -1.098324       -29.8869
  91   2.0000      -0.986161       -26.8348
  92   2.0000      -0.986085       -26.8327
  93   2.0000      -0.985532       -26.8177
  94   2.0000      -0.975514       -26.5451
  95   2.0000      -0.972907       -26.4742
  96   2.0000      -0.957236       -26.0477
  97   2.0000      -0.954671       -25.9779
  98   2.0000      -0.929253       -25.2863
  99   2.0000      -0.909094       -24.7377
 100   2.0000      -0.908563       -24.7233
 101   2.0000      -0.902401       -24.5556
 102   2.0000      -0.888517       -24.1778
 103   2.0000      -0.884608       -24.0714
 104   2.0000      -0.879121       -23.9221
 105   2.0000      -0.865876       -23.5617
 106   2.0000      -0.862840       -23.4791
 107   2.0000      -0.846781       -23.0421
 108   2.0000      -0.837017       -22.7764
 109   2.0000      -0.831912       -22.6375
 110   2.0000      -0.831429       -22.6243
 111   2.0000      -0.825507       -22.4632
 112   2.0000      -0.822449       -22.3800
 113   2.0000      -0.814781       -22.1713
 114   2.0000      -0.809240       -22.0205
 115   2.0000      -0.801552       -21.8113
 116   2.0000      -0.789501       -21.4834
 117   2.0000      -0.781163       -21.2565
 118   2.0000      -0.775009       -21.0891
 119   2.0000      -0.769458       -20.9380
 120   2.0000      -0.761248       -20.7146
 121   2.0000      -0.757598       -20.6153
 122   2.0000      -0.752759       -20.4836
 123   2.0000      -0.739018       -20.1097
 124   2.0000      -0.733837       -19.9687
 125   2.0000      -0.727108       -19.7856
 126   2.0000      -0.713742       -19.4219
 127   2.0000      -0.699719       -19.0403
 128   2.0000      -0.696208       -18.9448
 129   2.0000      -0.688481       -18.7345
 130   2.0000      -0.684710       -18.6319
 131   2.0000      -0.667193       -18.1553
 132   2.0000      -0.659623       -17.9492
 133   2.0000      -0.655863       -17.8469
 134   2.0000      -0.649226       -17.6663
 135   2.0000      -0.646459       -17.5910
 136   2.0000      -0.642628       -17.4868
 137   2.0000      -0.641772       -17.4635
 138   2.0000      -0.635889       -17.3034
 139   2.0000      -0.634881       -17.2760
 140   2.0000      -0.626028       -17.0351
 141   2.0000      -0.623239       -16.9592
 142   2.0000      -0.618672       -16.8349
 143   2.0000      -0.612193       -16.6586
 144   2.0000      -0.610486       -16.6122
 145   2.0000      -0.608745       -16.5648
 146   2.0000      -0.605391       -16.4735
 147   2.0000      -0.598953       -16.2984
 148   2.0000      -0.593694       -16.1552
 149   2.0000      -0.587628       -15.9902
 150   2.0000      -0.584180       -15.8963
 151   2.0000      -0.577285       -15.7087
 152   2.0000      -0.572209       -15.5706
 153   2.0000      -0.561079       -15.2677
 154   2.0000      -0.555851       -15.1255
 155   2.0000      -0.552959       -15.0468
 156   2.0000      -0.548168       -14.9164
 157   2.0000      -0.546386       -14.8679
 158   2.0000      -0.546191       -14.8626
 159   2.0000      -0.542697       -14.7675
 160   2.0000      -0.541154       -14.7255
 161   2.0000      -0.539987       -14.6938
 162   2.0000      -0.539019       -14.6674
 163   2.0000      -0.538012       -14.6400
 164   2.0000      -0.536521       -14.5995
 165   2.0000      -0.535259       -14.5652
 166   2.0000      -0.529988       -14.4217
 167   2.0000      -0.527040       -14.3415
 168   2.0000      -0.525220       -14.2920
 169   2.0000      -0.522373       -14.2145
 170   2.0000      -0.520018       -14.1504
 171   2.0000      -0.519009       -14.1230
 172   2.0000      -0.514635       -14.0039
 173   2.0000      -0.512908       -13.9569
 174   2.0000      -0.509717       -13.8701
 175   2.0000      -0.508059       -13.8250
 176   2.0000      -0.506969       -13.7953
 177   2.0000      -0.505968       -13.7681
 178   2.0000      -0.502259       -13.6672
 179   2.0000      -0.499756       -13.5991
 180   2.0000      -0.497569       -13.5396
 181   2.0000      -0.494017       -13.4429
 182   2.0000      -0.491859       -13.3842
 183   2.0000      -0.488698       -13.2981
 184   2.0000      -0.483373       -13.1533
 185   2.0000      -0.480647       -13.0791
 186   2.0000      -0.479688       -13.0530
 187   2.0000      -0.478901       -13.0316
 188   2.0000      -0.475959       -12.9515
 189   2.0000      -0.471792       -12.8381
 190   2.0000      -0.467253       -12.7146
 191   2.0000      -0.466530       -12.6949
 192   2.0000      -0.465630       -12.6704
 193   2.0000      -0.463628       -12.6160
 194   2.0000      -0.460631       -12.5344
 195   2.0000      -0.459466       -12.5027
 196   2.0000      -0.458145       -12.4668
 197   2.0000      -0.457324       -12.4444
 198   2.0000      -0.455960       -12.4073
 199   2.0000      -0.451238       -12.2788
 200   2.0000      -0.450005       -12.2453
 201   2.0000      -0.447393       -12.1742
 202   2.0000      -0.445715       -12.1285
 203   2.0000      -0.445335       -12.1182
 204   2.0000      -0.443582       -12.0705
 205   2.0000      -0.441221       -12.0062
 206   2.0000      -0.440893       -11.9973
 207   2.0000      -0.439289       -11.9537
 208   2.0000      -0.436271       -11.8715
 209   2.0000      -0.432221       -11.7613
 210   2.0000      -0.428659       -11.6644
 211   2.0000      -0.425838       -11.5876
 212   2.0000      -0.425121       -11.5681
 213   2.0000      -0.417003       -11.3472
 214   2.0000      -0.407371       -11.0851
 215   2.0000      -0.405976       -11.0472
 216   2.0000      -0.402829       -10.9615
 217   2.0000      -0.401952       -10.9377
 218   2.0000      -0.401164       -10.9162
 219   2.0000      -0.398953       -10.8561
 220   2.0000      -0.395160       -10.7529
 221   2.0000      -0.392033       -10.6678
 222   2.0000      -0.390817       -10.6347
 223   2.0000      -0.380283       -10.3480
 224   2.0000      -0.358698        -9.7607
 225   2.0000      -0.340294        -9.2599
 226   2.0000      -0.328506        -8.9391
 227   2.0000      -0.325226        -8.8499
 228   2.0000      -0.324427        -8.8281
 229   2.0000      -0.320299        -8.7158
 230   2.0000      -0.319059        -8.6820
 231   2.0000      -0.315739        -8.5917
 232   2.0000      -0.315234        -8.5780
 233   2.0000      -0.306097        -8.3293
 234   2.0000      -0.295607        -8.0439
 235   2.0000      -0.295163        -8.0318
 236   2.0000      -0.289693        -7.8829
 237   2.0000      -0.278957        -7.5908
 238   2.0000      -0.267669        -7.2837
 239   2.0000      -0.260015        -7.0754
 240   2.0000      -0.246187        -6.6991
 241   2.0000      -0.232421        -6.3245
 242   2.0000      -0.216668        -5.8958
 243   0.0000      -0.101763        -2.7691
 244   0.0000      -0.089939        -2.4474
 245   0.0000      -0.037323        -1.0156
 246   0.0000      -0.035843        -0.9753
 247   0.0000      -0.012267        -0.3338

MULLIKEN ATOMIC CHARGES
-----------------------
   0 C :    0.027249
   1 C :    0.013661
   2 C :   -0.138400
   3 S :    0.009091
   4 C :   -0.094674
   5 S :    0.141672
   6 C :   -0.107179
   7 C :    0.094733
   8 C :   -0.017615
   9 C :    0.115154
  10 C :   -0.105543
  11 C :    0.011841
  12 C :    0.260192
  13 C :   -0.084838
  14 F :   -0.174519
  15 C :    0.003506
  16 C :   -0.087734
  17 C :    0.103140
  18 C :   -0.081777
  19 C :    0.255351
  20 F :   -0.181968
  21 C :    0.001089
  22 C :    0.006069
  23 C :   -0.112409
  24 S :    0.113823
  25 C :    0.020676
  26 C :    0.131207
  27 O :   -0.171592
  28 C :   -0.013045
  29 C :    0.001989
  30 N :   -0.133267
  31 C :    0.091560
  32 C :    0.001613
  33 C :    0.007973
  34 C :   -0.015734
  35 C :    0.132216
  36 O :   -0.177559
  37 C :    0.020151
  38 C :   -0.113219
  39 C :   -0.011019
  40 C :    0.004076
  41 C :    0.111696
  42 C :   -0.089154
  43 C :    0.010954
  44 C :    0.254408
  45 C :   -0.079991
  46 F :   -0.180070
  47 C :    0.011353
  48 C :   -0.100511
  49 C :    0.112304
  50 C :   -0.085052
  51 C :    0.255873
  52 F :   -0.180098
  53 C :    0.001488
  54 C :   -0.004664
  55 C :    0.137657
  56 C :    0.000223
  57 C :   -0.125618
  58 S :    0.000039
  59 C :   -0.094994
  60 S :    0.087693
  61 C :   -0.118370
  62 C :    0.006179
  63 C :   -0.032703
  64 H :   -0.013227
  65 H :   -0.021494
  66 H :    0.068068
  67 H :    0.072015
  68 H :    0.071954
  69 H :   -0.012825
  70 H :   -0.029600
  71 H :   -0.020791
  72 H :   -0.024200
  73 H :   -0.007050
  74 H :   -0.023758
  75 H :   -0.017805
  76 H :    0.024693
  77 H :    0.005736
  78 H :    0.031868
  79 H :    0.032646
  80 H :    0.031802
  81 H :    0.029379
  82 H :    0.029312
  83 H :    0.003044
  84 H :    0.021621
  85 H :   -0.012403
  86 H :   -0.017405
  87 H :   -0.007338
  88 H :   -0.021277
  89 H :   -0.021252
  90 H :   -0.028436
  91 H :   -0.019657
  92 H :   -0.019568
  93 H :    0.067439
  94 H :    0.072234
  95 H :    0.072020
  96 H :   -0.005770
  97 H :    0.020387
  98 H :    0.025060
Sum of atomic charges:   -0.0000000

LOEWDIN ATOMIC CHARGES
----------------------
   0 C :   -0.040175
   1 C :   -0.104863
   2 C :   -0.316880
   3 S :    0.293577
   4 C :   -0.148665
   5 S :    0.423951
   6 C :   -0.180959
   7 C :   -0.004903
   8 C :   -0.033359
   9 C :    0.004063
  10 C :   -0.075082
  11 C :    0.006224
  12 C :    0.081295
  13 C :   -0.062053
  14 F :   -0.051734
  15 C :   -0.007718
  16 C :   -0.048840
  17 C :   -0.011227
  18 C :   -0.060855
  19 C :    0.076252
  20 F :   -0.058100
  21 C :   -0.015891
  22 C :   -0.018882
  23 C :   -0.122995
  24 S :    0.449607
  25 C :   -0.086691
  26 C :    0.079684
  27 O :   -0.169201
  28 C :   -0.100270
  29 C :    0.027503
  30 N :    0.088283
  31 C :    0.043883
  32 C :   -0.057703
  33 C :    0.028042
  34 C :   -0.101086
  35 C :    0.080982
  36 O :   -0.173070
  37 C :   -0.085574
  38 C :   -0.124851
  39 C :   -0.031018
  40 C :   -0.011443
  41 C :   -0.003944
  42 C :   -0.051801
  43 C :   -0.004546
  44 C :    0.079939
  45 C :   -0.054284
  46 F :   -0.057449
  47 C :    0.002678
  48 C :   -0.069110
  49 C :    0.001241
  50 C :   -0.060224
  51 C :    0.078848
  52 F :   -0.055804
  53 C :   -0.028274
  54 C :    0.013095
  55 C :   -0.051004
  56 C :   -0.091697
  57 C :   -0.306034
  58 S :    0.294406
  59 C :   -0.161660
  60 S :    0.422563
  61 C :   -0.172661
  62 C :   -0.038968
  63 C :   -0.054769
  64 H :    0.029695
  65 H :    0.026535
  66 H :    0.036373
  67 H :    0.028573
  68 H :    0.028234
  69 H :    0.031639
  70 H :    0.025918
  71 H :    0.017974
  72 H :    0.027365
  73 H :    0.024738
  74 H :    0.027755
  75 H :    0.019277
  76 H :    0.040518
  77 H :    0.028805
  78 H :    0.033093
  79 H :    0.033227
  80 H :    0.030879
  81 H :    0.032365
  82 H :    0.030297
  83 H :    0.028190
  84 H :    0.037670
  85 H :    0.023358
  86 H :    0.022682
  87 H :    0.033807
  88 H :    0.018220
  89 H :    0.028356
  90 H :    0.026431
  91 H :    0.029761
  92 H :    0.026579
  93 H :    0.035787
  94 H :    0.024847
  95 H :    0.024756
  96 H :    0.034415
  97 H :    0.015244
  98 H :    0.026836

  Mayer bond orders larger than 0.100000
B(  0-C ,  1-C ) :   1.2795 B(  0-C ,  6-C ) :   1.4998 B(  0-C , 64-H ) :   0.9898
B(  1-C ,  2-C ) :   1.5123 B(  1-C , 65-H ) :   0.9947 B(  2-C ,  3-S ) :   1.0217
B(  2-C ,  5-S ) :   1.1350 B(  3-S ,  4-C ) :   1.0255 B(  4-C , 66-H ) :   0.9713
B(  4-C , 67-H ) :   0.9661 B(  4-C , 68-H ) :   0.9661 B(  5-S ,  6-C ) :   1.1050
B(  6-C ,  7-C ) :   1.1404 B(  7-C ,  8-C ) :   1.6500 B(  7-C , 69-H ) :   0.9622
B(  8-C ,  9-C ) :   1.1456 B(  8-C , 70-H ) :   0.9749 B(  9-C , 10-C ) :   1.5141
B(  9-C , 13-C ) :   1.0065 B( 10-C , 11-C ) :   1.1625 B( 10-C , 71-H ) :   1.0090
B( 11-C , 12-C ) :   1.0078 B( 11-C , 15-C ) :   1.4278 B( 12-C , 13-C ) :   1.6631
B( 12-C , 14-F ) :   1.1248 B( 13-C , 72-H ) :   1.0201 B( 15-C , 16-C ) :   1.1456
B( 15-C , 19-C ) :   1.0205 B( 16-C , 17-C ) :   1.5208 B( 16-C , 73-H ) :   1.0117
B( 17-C , 18-C ) :   1.0129 B( 17-C , 21-C ) :   1.1443 B( 18-C , 19-C ) :   1.6540
B( 18-C , 74-H ) :   1.0209 B( 19-C , 20-F ) :   1.1139 B( 21-C , 22-C ) :   1.5664
B( 21-C , 75-H ) :   0.9703 B( 22-C , 23-C ) :   1.2001 B( 22-C , 76-H ) :   0.9581
B( 23-C , 24-S ) :   1.1062 B( 23-C , 25-C ) :   1.4507 B( 24-S , 38-C ) :   1.1096
B( 25-C , 26-C ) :   0.9453 B( 25-C , 37-C ) :   1.1936 B( 26-C , 27-O ) :   2.1886
B( 26-C , 28-C ) :   0.9965 B( 28-C , 29-C ) :   1.4264 B( 28-C , 34-C ) :   1.2957
B( 29-C , 30-N ) :   1.2315 B( 29-C , 77-H ) :   0.9933 B( 30-N , 31-C ) :   0.9537
B( 30-N , 33-C ) :   1.2323 B( 31-C , 32-C ) :   1.1114 B( 31-C , 78-H ) :   0.9513
B( 31-C , 79-H ) :   0.9510 B( 32-C , 80-H ) :   0.9674 B( 32-C , 81-H ) :   0.9681
B( 32-C , 82-H ) :   0.9675 B( 33-C , 34-C ) :   1.4246 B( 33-C , 83-H ) :   0.9936
B( 34-C , 35-C ) :   0.9998 B( 35-C , 36-O ) :   2.1799 B( 35-C , 37-C ) :   0.9451
B( 37-C , 38-C ) :   1.4553 B( 38-C , 39-C ) :   1.1963 B( 39-C , 40-C ) :   1.5491
B( 39-C , 84-H ) :   0.9561 B( 40-C , 41-C ) :   1.1611 B( 40-C , 85-H ) :   0.9754
B( 41-C , 42-C ) :   1.4919 B( 41-C , 45-C ) :   1.0233 B( 42-C , 43-C ) :   1.1257
B( 42-C , 86-H ) :   1.0236 B( 43-C , 44-C ) :   1.0235 B( 43-C , 47-C ) :   1.4450
B( 44-C , 45-C ) :   1.6604 B( 44-C , 46-F ) :   1.1185 B( 45-C , 87-H ) :   1.0174
B( 47-C , 48-C ) :   1.1445 B( 47-C , 51-C ) :   1.0137 B( 48-C , 49-C ) :   1.5361
B( 48-C , 88-H ) :   1.0095 B( 49-C , 50-C ) :   1.0078 B( 49-C , 53-C ) :   1.1161
B( 50-C , 51-C ) :   1.6582 B( 50-C , 89-H ) :   1.0213 B( 51-C , 52-F ) :   1.1202
B( 53-C , 54-C ) :   1.6578 B( 53-C , 90-H ) :   0.9766 B( 54-C , 55-C ) :   1.1127
B( 54-C , 91-H ) :   0.9781 B( 55-C , 56-C ) :   1.2215 B( 55-C , 61-C ) :   1.4413
B( 56-C , 57-C ) :   1.5950 B( 56-C , 92-H ) :   0.9890 B( 57-C , 58-S ) :   1.0246
B( 57-C , 60-S ) :   1.1027 B( 58-S , 59-C ) :   1.0138 B( 59-C , 93-H ) :   0.9727
B( 59-C , 94-H ) :   0.9654 B( 59-C , 95-H ) :   0.9652 B( 60-S , 61-C ) :   1.0868
B( 61-C , 62-C ) :   1.1488 B( 62-C , 63-C ) :   1.9133 B( 62-C , 96-H ) :   0.9593
B( 63-C , 97-H ) :   0.9554 B( 63-C , 98-H ) :   0.9477

-----------------------------------------------------------------------------
         ABSORPTION SPECTRUM VIA TRANSITION ELECTRIC DIPOLE MOMENTS
-----------------------------------------------------------------------------
State   Energy  Wavelength   fosc         T2         TX        TY        TZ
        (cm-1)    (nm)                  (au**2)     (au)      (au)      (au)
-----------------------------------------------------------------------------
   0   11221.7    891.1   1.705475202  50.03348  -5.31834  -4.23723  -1.94797
   1   13697.4    730.1   0.359549503   8.64162   0.91149   1.96942  -1.98298
   2   15595.9    641.2   0.009725245   0.20529  -0.17792  -0.41264   0.05798
   3   16290.9    613.8   0.016011787   0.32357  -0.27867   0.31163  -0.38575
   4   19304.7    518.0   0.006898097   0.11764  -0.19599  -0.01196  -0.28121
   5   20355.2    491.3   0.319634656   5.16955   1.80390   1.04689   0.90527
   6   21222.5    471.2   0.028119438   0.43620   0.61173   0.22330  -0.11011
   7   22658.9    441.3   0.530179413   7.70300  -1.85595  -0.60708  -1.97229
   8   24077.6    415.3   0.510139587   6.97510  -1.45104  -2.12480   0.59565
   9   24801.1    403.2   0.095885921   1.27280  -0.56004   0.61562  -0.76169
  10   25253.8    396.0   0.015692645   0.20457   0.02487   0.31752  -0.32115
  11   25656.4    389.8   0.088564264   1.13642   0.51520   0.84510  -0.39597
  12   26491.1    377.5   0.295677476   3.67447  -1.05538  -1.41204   0.75284
  13   28034.8    356.7   0.000197732   0.00232  -0.02693  -0.00784  -0.03919
  14   28079.5    356.1   0.075616628   0.88655  -0.57364  -0.31395  -0.67744
  15   28606.6    349.6   0.000081219   0.00093   0.02422   0.01185   0.01441
  16   29592.0    337.9   0.110877639   1.23352  -0.83673  -0.25599  -0.68401
  17   29702.5    336.7   0.018438706   0.20437  -0.34746  -0.13592  -0.25528
  18   30332.4    329.7   0.005048723   0.05480  -0.05747  -0.16300   0.15787
  19   31158.5    320.9   0.048631928   0.51383   0.35921   0.61631  -0.07048
  20   31360.2    318.9   0.085238033   0.89481  -0.64596  -0.47208  -0.50466
  21   31703.7    315.4   0.555704097   5.77045  -1.92916  -0.49916  -1.34150
  22   32088.0    311.6   0.054696820   0.56117   0.40614  -0.37703   0.50405
  23   32190.3    310.7   0.062440100   0.63858   0.73028   0.17110  -0.27566
  24   32705.1    305.8   0.079519364   0.80045  -0.07541  -0.59893   0.66034
  25   33271.9    300.6   0.008878357   0.08785   0.01530  -0.27855   0.10013
  26   33300.6    300.3   0.000163014   0.00161  -0.02181  -0.01150   0.03168
  27   33370.2    299.7   0.002524860   0.02491  -0.04793  -0.08401   0.12471
  28   33649.0    297.2   0.025335238   0.24787  -0.12292   0.32552  -0.35609
  29   33676.6    296.9   0.064196425   0.62756   0.19798  -0.51228   0.57091
  30   33932.1    294.7   0.000668444   0.00649   0.03203  -0.06405  -0.03684
  31   34130.8    293.0   0.005842099   0.05635  -0.16467   0.11630  -0.12533
  32   34549.6    289.4   0.074144829   0.70650  -0.36880   0.54184  -0.52621
  33   35048.8    285.3   0.045173373   0.42431  -0.01517  -0.51326   0.40080
  34   35658.4    280.4   0.005694314   0.05257   0.13993   0.18121  -0.01246
  35   35882.5    278.7   0.024637067   0.22604  -0.04886   0.40231  -0.24859
  36   36014.3    277.7   0.281944784   2.57730   0.28084  -1.18443   1.04668
  37   36772.6    271.9   0.001893518   0.01695   0.10035   0.07607  -0.03307
  38   37338.1    267.8   0.050046170   0.44126  -0.10967   0.53321  -0.38068
  39   37637.3    265.7   0.009876038   0.08639   0.14328  -0.10801   0.23279
  40   37812.6    264.5   0.030398845   0.26466   0.45872   0.06269   0.22430
  41   37959.7    263.4   0.063210331   0.54820  -0.26524   0.54008  -0.43147
  42   37989.8    263.2   0.003461091   0.02999   0.03121  -0.13918   0.09822
  43   38121.5    262.3   0.022791569   0.19682   0.22471   0.36992   0.09740
  44   38223.2    261.6   0.051784290   0.44601  -0.46103   0.00469  -0.48316
  45   38531.7    259.5   0.000076634   0.00065  -0.01300  -0.01992  -0.00942
  46   39270.7    254.6   0.100816440   0.84516   0.65892  -0.04913   0.63920
  47   39883.3    250.7   0.041973552   0.34647   0.39449   0.38424   0.20786
  48   40107.0    249.3   0.048614902   0.39905  -0.53269  -0.18796  -0.28278
  49   40240.1    248.5   0.076828881   0.62855   0.04732   0.61832  -0.49396

FINAL SINGLE POINT ENERGY     -4594.097286859230

DIPOLE MOMENT
-------------
                                X             Y             Z
Electronic contribution:     16.65488     -10.58612      18.74851
Nuclear contribution   :    -16.62342      12.37629     -19.36136
                        -----------------------------------------
Total Dipole Moment    :      0.03146       1.79017      -0.61285
                        -----------------------------------------
Magnitude (a.u.)       :      1.89243
Magnitude (Debye)      :      4.81017

Rotational constants in cm-1:     0.001155     0.000189     0.000163
Rotational constants in MHz :    34.630112     5.659629     4.894642

                             ****ORCA TERMINATED NORMALLY****
TOTAL RUN TIME: 0 days 0 hours 8 minutes 29 seconds 597 msec
