                         Program Version 4.2.0 -  RELEASE  -
|  1> # ORCA input file
|  2> # SCF done       -208.374961337067          0.000491922905
|  3> ! CAM-B3LYP def2-SVP def2/J RIJCOSX Grid4 TightSCF
|  4> %maxcore 5000
|  5> %tddft
|  6>     Mode sTDDFT
|  7>     Ethresh 5.0
|  8>     maxcore 5000
|  9> end
| 10>
| 11> %pal
| 12>   nprocs 6
| 13>   end
| 14> * xyz 0 1
| 15>    C       -0.45110       -10.02621         5.70721
| 16>    C       -0.44576        -9.95692         7.09283
| 17>    F       -1.04338       -10.92764         7.79301
| 18>    C        0.16950        -8.90384         7.77005
| 19>    F        0.14377        -8.87374         9.10820
| 20>    C        0.81000        -7.89044         7.07389
| 21>    C        0.81615        -7.96426         5.69533
| 22>    C        0.18799        -9.01733         5.00673
| 23>    C        0.32745        -8.78307         3.56925
| 24>    C       -0.49707        -9.29720         2.60042
| 25>    C       -1.45108       -10.30676         2.83338
| 26>    N       -2.22672       -11.14185         2.96931
| 27>    C       -0.54430        -8.78610         1.28744
| 28>    N       -0.64425        -8.35701         0.22723
| 29>    C        1.25917        -7.69521         3.40259
| 30>    C        1.44754        -7.04214         4.71959
| 31>    O        2.03121        -6.00875         4.94967
| 32>    C        1.99106        -7.28046         2.32271
| 33>    C        2.32775        -7.98531         1.15904
| 34>    S        2.25041        -9.72960         0.99075
| 35>    C        2.91107        -9.71807        -0.61815
| 36>    C        3.20293        -8.40245        -1.01029
| 37>    C        2.89254        -7.45819         0.00280
| 38>    S        3.28914        -5.84039        -0.44348
| 39>    C        3.90039        -6.42365        -1.97403
| 40>    C        4.52247        -5.50444        -2.93167
| 41>    O        4.89154        -5.83429        -4.03298
| 42>    O        4.65370        -4.28168        -2.41066
| 43>    C        5.32149        -3.30065        -3.20674
| 44>    C        4.38458        -2.65463        -4.21556
| 45>    C        3.78869        -7.77337        -2.13402
| 46>    C        3.07772       -10.94617        -1.28689
| 47>    C        3.35191       -11.07345        -2.61526
| 48>    C        3.55379       -12.29425        -3.28906
| 49>    S        3.67943       -13.79460        -2.41786
| 50>    C        3.99615       -14.64219        -3.87348
| 51>    C        4.01704       -13.85283        -4.98196
| 52>    C        4.24530       -14.41692        -6.34404
| 53>    C        3.75272       -12.48273        -4.67013
| 54>    C        3.61329       -11.39411        -5.58125
| 55>    C        4.01874       -11.28742        -6.87296
| 56>    C        3.75822       -10.10665        -7.60907
| 57>    C        4.14724        -9.89477        -8.89450
| 58>    C        3.87148        -8.71049        -9.61285
| 59>    S        4.41666        -8.52276       -11.25446
| 60>    C        3.72262        -6.92854       -11.42966
| 61>    C        3.09601        -6.55363       -10.23035
| 62>    C        3.18373        -7.56211        -9.23387
| 63>    S        2.38664        -7.10462        -7.76694
| 64>    C        1.95112        -5.57860        -8.48059
| 65>    C        1.14746        -4.62894        -7.70327
| 66>    O        0.84519        -3.52452        -8.08058
| 67>    O        0.77546        -5.17578        -6.54068
| 68>    C       -0.03483        -4.38542        -5.67045
| 69>    C        0.81877        -3.51707        -4.75908
| 70>    C        2.39181        -5.42027        -9.76182
| 71>    C        3.88926        -6.27421       -12.65768
| 72>    C        3.34749        -5.07366       -13.02880
| 73>    C        3.52505        -4.46718       -14.28494
| 74>    C        4.46502        -4.67511       -15.26349
| 75>    C        4.14409        -4.22534       -16.64226
| 76>    O        3.21989        -3.52398       -16.98335
| 77>    C        5.16490        -4.85878       -17.50833
| 78>    C        6.09959        -5.53317       -16.70461
| 79>    C        7.13711        -6.23885       -17.29113
| 80>    C        7.21665        -6.24603       -18.67623
| 81>    C        6.29355        -5.56132       -19.46658
| 82>    C        5.25052        -4.85684       -18.88621
| 83>    F        6.41362        -5.58997       -20.79955
| 84>    F        8.20311        -6.93260       -19.26419
| 85>    C        5.75809        -5.31301       -15.29567
| 86>    C        6.63822        -5.47121       -14.25384
| 87>    C        6.39054        -5.03774       -12.93704
| 88>    N        6.25081        -4.68865       -11.85240
| 89>    C        7.92620        -6.02815       -14.38589
| 90>    N        8.97451        -6.49392       -14.42813
| 91>    H       -0.93718       -10.85850         5.22451
| 92>    H        1.28455        -7.07605         7.59760
| 93>    H        2.44821        -6.29919         2.41551
| 94>    H        6.15945        -3.78045        -3.72315
| 95>    H        5.69445        -2.56789        -2.48864
| 96>    H        4.04170        -3.39638        -4.93267
| 97>    H        4.91479        -1.87161        -4.74962
| 98>    H        3.52597        -2.22105        -3.70851
| 99>    H        4.14981        -8.25796        -3.02162
|100>    H        2.94123       -11.83822        -0.68917
|101>    H        3.40922       -10.17799        -3.21262
|102>    H        4.14740       -15.70350        -3.83346
|103>    H        4.21274       -15.50302        -6.30455
|104>    H        5.22270       -14.12091        -6.72350
|105>    H        3.48037       -14.06740        -7.03487
|106>    H        3.11038       -10.52482        -5.17696
|107>    H        4.56863       -12.07083        -7.36790
|108>    H        3.20942        -9.32801        -7.09746
|109>    H        4.70222       -10.65771        -9.42348
|110>    H       -0.61911        -5.10610        -5.09468
|111>    H       -0.69898        -3.76213        -6.27814
|112>    H        1.51527        -4.13608        -4.19818
|113>    H        0.17866        -2.98259        -4.06324
|114>    H        1.37750        -2.79544        -5.35057
|115>    H        2.20761        -4.51721       -10.31180
|116>    H        4.46614        -6.82517       -13.39046
|117>    H        2.66081        -4.58221       -12.35773
|118>    H        2.75581        -3.75741       -14.57701
|119>    H        7.87277        -6.78548       -16.72411
|120>    H        4.53432        -4.32850       -19.49495
|121> *
|122>
|123>                          ****END OF INPUT****

CARTESIAN COORDINATES (ANGSTROEM)
---------------------------------
  C     -0.451100  -10.026210    5.707210
  C     -0.445760   -9.956920    7.092830
  F     -1.043380  -10.927640    7.793010
  C      0.169500   -8.903840    7.770050
  F      0.143770   -8.873740    9.108200
  C      0.810000   -7.890440    7.073890
  C      0.816150   -7.964260    5.695330
  C      0.187990   -9.017330    5.006730
  C      0.327450   -8.783070    3.569250
  C     -0.497070   -9.297200    2.600420
  C     -1.451080  -10.306760    2.833380
  N     -2.226720  -11.141850    2.969310
  C     -0.544300   -8.786100    1.287440
  N     -0.644250   -8.357010    0.227230
  C      1.259170   -7.695210    3.402590
  C      1.447540   -7.042140    4.719590
  O      2.031210   -6.008750    4.949670
  C      1.991060   -7.280460    2.322710
  C      2.327750   -7.985310    1.159040
  S      2.250410   -9.729600    0.990750
  C      2.911070   -9.718070   -0.618150
  C      3.202930   -8.402450   -1.010290
  C      2.892540   -7.458190    0.002800
  S      3.289140   -5.840390   -0.443480
  C      3.900390   -6.423650   -1.974030
  C      4.522470   -5.504440   -2.931670
  O      4.891540   -5.834290   -4.032980
  O      4.653700   -4.281680   -2.410660
  C      5.321490   -3.300650   -3.206740
  C      4.384580   -2.654630   -4.215560
  C      3.788690   -7.773370   -2.134020
  C      3.077720  -10.946170   -1.286890
  C      3.351910  -11.073450   -2.615260
  C      3.553790  -12.294250   -3.289060
  S      3.679430  -13.794600   -2.417860
  C      3.996150  -14.642190   -3.873480
  C      4.017040  -13.852830   -4.981960
  C      4.245300  -14.416920   -6.344040
  C      3.752720  -12.482730   -4.670130
  C      3.613290  -11.394110   -5.581250
  C      4.018740  -11.287420   -6.872960
  C      3.758220  -10.106650   -7.609070
  C      4.147240   -9.894770   -8.894500
  C      3.871480   -8.710490   -9.612850
  S      4.416660   -8.522760  -11.254460
  C      3.722620   -6.928540  -11.429660
  C      3.096010   -6.553630  -10.230350
  C      3.183730   -7.562110   -9.233870
  S      2.386640   -7.104620   -7.766940
  C      1.951120   -5.578600   -8.480590
  C      1.147460   -4.628940   -7.703270
  O      0.845190   -3.524520   -8.080580
  O      0.775460   -5.175780   -6.540680
  C     -0.034830   -4.385420   -5.670450
  C      0.818770   -3.517070   -4.759080
  C      2.391810   -5.420270   -9.761820
  C      3.889260   -6.274210  -12.657680
  C      3.347490   -5.073660  -13.028800
  C      3.525050   -4.467180  -14.284940
  C      4.465020   -4.675110  -15.263490
  C      4.144090   -4.225340  -16.642260
  O      3.219890   -3.523980  -16.983350
  C      5.164900   -4.858780  -17.508330
  C      6.099590   -5.533170  -16.704610
  C      7.137110   -6.238850  -17.291130
  C      7.216650   -6.246030  -18.676230
  C      6.293550   -5.561320  -19.466580
  C      5.250520   -4.856840  -18.886210
  F      6.413620   -5.589970  -20.799550
  F      8.203110   -6.932600  -19.264190
  C      5.758090   -5.313010  -15.295670
  C      6.638220   -5.471210  -14.253840
  C      6.390540   -5.037740  -12.937040
  N      6.250810   -4.688650  -11.852400
  C      7.926200   -6.028150  -14.385890
  N      8.974510   -6.493920  -14.428130
  H     -0.937180  -10.858500    5.224510
  H      1.284550   -7.076050    7.597600
  H      2.448210   -6.299190    2.415510
  H      6.159450   -3.780450   -3.723150
  H      5.694450   -2.567890   -2.488640
  H      4.041700   -3.396380   -4.932670
  H      4.914790   -1.871610   -4.749620
  H      3.525970   -2.221050   -3.708510
  H      4.149810   -8.257960   -3.021620
  H      2.941230  -11.838220   -0.689170
  H      3.409220  -10.177990   -3.212620
  H      4.147400  -15.703500   -3.833460
  H      4.212740  -15.503020   -6.304550
  H      5.222700  -14.120910   -6.723500
  H      3.480370  -14.067400   -7.034870
  H      3.110380  -10.524820   -5.176960
  H      4.568630  -12.070830   -7.367900
  H      3.209420   -9.328010   -7.097460
  H      4.702220  -10.657710   -9.423480
  H     -0.619110   -5.106100   -5.094680
  H     -0.698980   -3.762130   -6.278140
  H      1.515270   -4.136080   -4.198180
  H      0.178660   -2.982590   -4.063240
  H      1.377500   -2.795440   -5.350570
  H      2.207610   -4.517210  -10.311800
  H      4.466140   -6.825170  -13.390460
  H      2.660810   -4.582210  -12.357730
  H      2.755810   -3.757410  -14.577010
  H      7.872770   -6.785480  -16.724110
  H      4.534320   -4.328500  -19.494950

 Total Charge           Charge          ....    0
 Multiplicity           Mult            ....    1
 Number of Electrons    NEL             ....  564
 Basis Dimension        Dim             .... 1234

ORBITAL ENERGIES
----------------

  NO   OCC          E(Eh)            E(eV)
   0   2.0000     -88.982504     -2421.3370
   1   2.0000     -88.981123     -2421.2994
   2   2.0000     -88.974849     -2421.1287
   3   2.0000     -88.971384     -2421.0344
   4   2.0000     -88.970242     -2421.0034
   5   2.0000     -24.800279      -674.8499
   6   2.0000     -24.799954      -674.8411
   7   2.0000     -24.799806      -674.8370
   8   2.0000     -24.799332      -674.8241
   9   2.0000     -19.270129      -524.3669
  10   2.0000     -19.268574      -524.3246
  11   2.0000     -19.216237      -522.9004
  12   2.0000     -19.215233      -522.8731
  13   2.0000     -19.212885      -522.8092
  14   2.0000     -19.212754      -522.8056
  15   2.0000     -14.416325      -392.2882
  16   2.0000     -14.416316      -392.2879
  17   2.0000     -14.415851      -392.2753
  18   2.0000     -14.414055      -392.2264
  19   2.0000     -10.414653      -283.3971
  20   2.0000     -10.413807      -283.3741
  21   2.0000     -10.385635      -282.6075
  22   2.0000     -10.385061      -282.5919
  23   2.0000     -10.384823      -282.5854
  24   2.0000     -10.384403      -282.5740
  25   2.0000     -10.368785      -282.1490
  26   2.0000     -10.366623      -282.0901
  27   2.0000     -10.344413      -281.4858
  28   2.0000     -10.344072      -281.4765
  29   2.0000     -10.343435      -281.4592
  30   2.0000     -10.342868      -281.4437
  31   2.0000     -10.342596      -281.4363
  32   2.0000     -10.331878      -281.1447
  33   2.0000     -10.330458      -281.1060
  34   2.0000     -10.329457      -281.0788
  35   2.0000     -10.329026      -281.0671
  36   2.0000     -10.324727      -280.9501
  37   2.0000     -10.324409      -280.9414
  38   2.0000     -10.324204      -280.9359
  39   2.0000     -10.320746      -280.8418
  40   2.0000     -10.320567      -280.8369
  41   2.0000     -10.319194      -280.7995
  42   2.0000     -10.319010      -280.7945
  43   2.0000     -10.318929      -280.7923
  44   2.0000     -10.318143      -280.7709
  45   2.0000     -10.317173      -280.7446
  46   2.0000     -10.316831      -280.7353
  47   2.0000     -10.316540      -280.7273
  48   2.0000     -10.316181      -280.7176
  49   2.0000     -10.315536      -280.7000
  50   2.0000     -10.313901      -280.6555
  51   2.0000     -10.312762      -280.6245
  52   2.0000     -10.308309      -280.5033
  53   2.0000     -10.308165      -280.4994
  54   2.0000     -10.308044      -280.4961
  55   2.0000     -10.307627      -280.4848
  56   2.0000     -10.307428      -280.4794
  57   2.0000     -10.307068      -280.4696
  58   2.0000     -10.306704      -280.4597
  59   2.0000     -10.305597      -280.4296
  60   2.0000     -10.305556      -280.4284
  61   2.0000     -10.303051      -280.3603
  62   2.0000     -10.302049      -280.3330
  63   2.0000     -10.301697      -280.3234
  64   2.0000     -10.301300      -280.3126
  65   2.0000     -10.300635      -280.2945
  66   2.0000     -10.298270      -280.2302
  67   2.0000     -10.297053      -280.1971
  68   2.0000     -10.296928      -280.1937
  69   2.0000     -10.295337      -280.1504
  70   2.0000     -10.294711      -280.1333
  71   2.0000     -10.293806      -280.1087
  72   2.0000     -10.291170      -280.0370
  73   2.0000     -10.283208      -279.8203
  74   2.0000     -10.266194      -279.3574
  75   2.0000     -10.265213      -279.3306
  76   2.0000      -8.077165      -219.7908
  77   2.0000      -8.076349      -219.7686
  78   2.0000      -8.070091      -219.5983
  79   2.0000      -8.066259      -219.4941
  80   2.0000      -8.066065      -219.4888
  81   2.0000      -6.046496      -164.5335
  82   2.0000      -6.045491      -164.5062
  83   2.0000      -6.042352      -164.4207
  84   2.0000      -6.041448      -164.3961
  85   2.0000      -6.039742      -164.3497
  86   2.0000      -6.039239      -164.3361
  87   2.0000      -6.038707      -164.3216
  88   2.0000      -6.035819      -164.2430
  89   2.0000      -6.035453      -164.2330
  90   2.0000      -6.035438      -164.2326
  91   2.0000      -6.031553      -164.1269
  92   2.0000      -6.031420      -164.1233
  93   2.0000      -6.031283      -164.1196
  94   2.0000      -6.028546      -164.0451
  95   2.0000      -6.027522      -164.0172
  96   2.0000      -1.323686       -36.0193
  97   2.0000      -1.323266       -36.0079
  98   2.0000      -1.308444       -35.6046
  99   2.0000      -1.308064       -35.5942
 100   2.0000      -1.201620       -32.6977
 101   2.0000      -1.200413       -32.6649
 102   2.0000      -1.131949       -30.8019
 103   2.0000      -1.130863       -30.7723
 104   2.0000      -1.107387       -30.1335
 105   2.0000      -1.107132       -30.1266
 106   2.0000      -1.030703       -28.0469
 107   2.0000      -1.025607       -27.9082
 108   2.0000      -1.020750       -27.7760
 109   2.0000      -1.020186       -27.7607
 110   2.0000      -1.003451       -27.3053
 111   2.0000      -1.002018       -27.2663
 112   2.0000      -1.001848       -27.2617
 113   2.0000      -0.994828       -27.0706
 114   2.0000      -0.994013       -27.0485
 115   2.0000      -0.970366       -26.4050
 116   2.0000      -0.968254       -26.3475
 117   2.0000      -0.957374       -26.0515
 118   2.0000      -0.957316       -26.0499
 119   2.0000      -0.938569       -25.5398
 120   2.0000      -0.930261       -25.3137
 121   2.0000      -0.922046       -25.0901
 122   2.0000      -0.905426       -24.6379
 123   2.0000      -0.903511       -24.5858
 124   2.0000      -0.895701       -24.3733
 125   2.0000      -0.894857       -24.3503
 126   2.0000      -0.876612       -23.8538
 127   2.0000      -0.875412       -23.8212
 128   2.0000      -0.874047       -23.7840
 129   2.0000      -0.873606       -23.7720
 130   2.0000      -0.871161       -23.7055
 131   2.0000      -0.864295       -23.5186
 132   2.0000      -0.854135       -23.2422
 133   2.0000      -0.847359       -23.0578
 134   2.0000      -0.836501       -22.7624
 135   2.0000      -0.834857       -22.7176
 136   2.0000      -0.831225       -22.6188
 137   2.0000      -0.817951       -22.2576
 138   2.0000      -0.807719       -21.9791
 139   2.0000      -0.793388       -21.5892
 140   2.0000      -0.776504       -21.1298
 141   2.0000      -0.772854       -21.0304
 142   2.0000      -0.768553       -20.9134
 143   2.0000      -0.767850       -20.8943
 144   2.0000      -0.765572       -20.8323
 145   2.0000      -0.761798       -20.7296
 146   2.0000      -0.744275       -20.2528
 147   2.0000      -0.737659       -20.0727
 148   2.0000      -0.721210       -19.6251
 149   2.0000      -0.718173       -19.5425
 150   2.0000      -0.711613       -19.3640
 151   2.0000      -0.708046       -19.2669
 152   2.0000      -0.702360       -19.1122
 153   2.0000      -0.700752       -19.0684
 154   2.0000      -0.691952       -18.8290
 155   2.0000      -0.687631       -18.7114
 156   2.0000      -0.681123       -18.5343
 157   2.0000      -0.677662       -18.4401
 158   2.0000      -0.669923       -18.2295
 159   2.0000      -0.660882       -17.9835
 160   2.0000      -0.657591       -17.8940
 161   2.0000      -0.650629       -17.7045
 162   2.0000      -0.649971       -17.6866
 163   2.0000      -0.641342       -17.4518
 164   2.0000      -0.640900       -17.4398
 165   2.0000      -0.639484       -17.4012
 166   2.0000      -0.637563       -17.3490
 167   2.0000      -0.633734       -17.2448
 168   2.0000      -0.629128       -17.1194
 169   2.0000      -0.623490       -16.9660
 170   2.0000      -0.613182       -16.6855
 171   2.0000      -0.609646       -16.5893
 172   2.0000      -0.607549       -16.5322
 173   2.0000      -0.603479       -16.4215
 174   2.0000      -0.597904       -16.2698
 175   2.0000      -0.594437       -16.1755
 176   2.0000      -0.592068       -16.1110
 177   2.0000      -0.589282       -16.0352
 178   2.0000      -0.588758       -16.0209
 179   2.0000      -0.588056       -16.0018
 180   2.0000      -0.587662       -15.9911
 181   2.0000      -0.580232       -15.7889
 182   2.0000      -0.572242       -15.5715
 183   2.0000      -0.571803       -15.5595
 184   2.0000      -0.568159       -15.4604
 185   2.0000      -0.565586       -15.3904
 186   2.0000      -0.561831       -15.2882
 187   2.0000      -0.558697       -15.2029
 188   2.0000      -0.552136       -15.0244
 189   2.0000      -0.551435       -15.0053
 190   2.0000      -0.549441       -14.9510
 191   2.0000      -0.548720       -14.9314
 192   2.0000      -0.548343       -14.9212
 193   2.0000      -0.547310       -14.8931
 194   2.0000      -0.541916       -14.7463
 195   2.0000      -0.536770       -14.6063
 196   2.0000      -0.536578       -14.6010
 197   2.0000      -0.535204       -14.5636
 198   2.0000      -0.532971       -14.5029
 199   2.0000      -0.528892       -14.3919
 200   2.0000      -0.528485       -14.3808
 201   2.0000      -0.528163       -14.3721
 202   2.0000      -0.527732       -14.3603
 203   2.0000      -0.526214       -14.3190
 204   2.0000      -0.525545       -14.3008
 205   2.0000      -0.524813       -14.2809
 206   2.0000      -0.523287       -14.2394
 207   2.0000      -0.516136       -14.0448
 208   2.0000      -0.512606       -13.9487
 209   2.0000      -0.506858       -13.7923
 210   2.0000      -0.500782       -13.6270
 211   2.0000      -0.499355       -13.5881
 212   2.0000      -0.498587       -13.5672
 213   2.0000      -0.497165       -13.5285
 214   2.0000      -0.494858       -13.4658
 215   2.0000      -0.494492       -13.4558
 216   2.0000      -0.493228       -13.4214
 217   2.0000      -0.491943       -13.3865
 218   2.0000      -0.490340       -13.3428
 219   2.0000      -0.489116       -13.3095
 220   2.0000      -0.487807       -13.2739
 221   2.0000      -0.481376       -13.0989
 222   2.0000      -0.477566       -12.9952
 223   2.0000      -0.476249       -12.9594
 224   2.0000      -0.473541       -12.8857
 225   2.0000      -0.470147       -12.7933
 226   2.0000      -0.468906       -12.7596
 227   2.0000      -0.466658       -12.6984
 228   2.0000      -0.461793       -12.5660
 229   2.0000      -0.460676       -12.5356
 230   2.0000      -0.458449       -12.4750
 231   2.0000      -0.457704       -12.4548
 232   2.0000      -0.455220       -12.3872
 233   2.0000      -0.454526       -12.3683
 234   2.0000      -0.453161       -12.3311
 235   2.0000      -0.452745       -12.3198
 236   2.0000      -0.450031       -12.2460
 237   2.0000      -0.449915       -12.2428
 238   2.0000      -0.449722       -12.2376
 239   2.0000      -0.446557       -12.1514
 240   2.0000      -0.444772       -12.1029
 241   2.0000      -0.444082       -12.0841
 242   2.0000      -0.442998       -12.0546
 243   2.0000      -0.441681       -12.0188
 244   2.0000      -0.441249       -12.0070
 245   2.0000      -0.437400       -11.9023
 246   2.0000      -0.436562       -11.8795
 247   2.0000      -0.432445       -11.7674
 248   2.0000      -0.429291       -11.6816
 249   2.0000      -0.428532       -11.6610
 250   2.0000      -0.427185       -11.6243
 251   2.0000      -0.425340       -11.5741
 252   2.0000      -0.424274       -11.5451
 253   2.0000      -0.422289       -11.4911
 254   2.0000      -0.420287       -11.4366
 255   2.0000      -0.419418       -11.4129
 256   2.0000      -0.415057       -11.2943
 257   2.0000      -0.409179       -11.1343
 258   2.0000      -0.408897       -11.1267
 259   2.0000      -0.399440       -10.8693
 260   2.0000      -0.394227       -10.7275
 261   2.0000      -0.385494       -10.4898
 262   2.0000      -0.383331       -10.4310
 263   2.0000      -0.376666       -10.2496
 264   2.0000      -0.373424       -10.1614
 265   2.0000      -0.365413        -9.9434
 266   2.0000      -0.364793        -9.9265
 267   2.0000      -0.351443        -9.5633
 268   2.0000      -0.350722        -9.5436
 269   2.0000      -0.348474        -9.4825
 270   2.0000      -0.345344        -9.3973
 271   2.0000      -0.339048        -9.2260
 272   2.0000      -0.336298        -9.1511
 273   2.0000      -0.325996        -8.8708
 274   2.0000      -0.324285        -8.8242
 275   2.0000      -0.323584        -8.8052
 276   2.0000      -0.316087        -8.6012
 277   2.0000      -0.313827        -8.5397
 278   2.0000      -0.309478        -8.4213
 279   2.0000      -0.296689        -8.0733
 280   2.0000      -0.258654        -7.0383
 281   2.0000      -0.239892        -6.5278
 282   0.0000      -0.112707        -3.0669
 283   0.0000      -0.099623        -2.7109
 284   0.0000      -0.071056        -1.9335
 285   0.0000      -0.065947        -1.7945
 286   0.0000      -0.053467        -1.4549

MULLIKEN ATOMIC CHARGES
-----------------------
   0 C :   -0.088336
   1 C :    0.234310
   2 F :   -0.167227
   3 C :    0.232407
   4 F :   -0.170274
   5 C :   -0.103241
   6 C :    0.007760
   7 C :    0.028866
   8 C :    0.243683
   9 C :   -0.321640
  10 C :   -0.180362
  11 N :    0.154504
  12 C :   -0.212450
  13 N :    0.169622
  14 C :   -0.145048
  15 C :    0.139000
  16 O :   -0.141454
  17 C :    0.021761
  18 C :   -0.159560
  19 S :    0.174771
  20 C :   -0.086453
  21 C :    0.124155
  22 C :    0.011559
  23 S :    0.193832
  24 C :   -0.130890
  25 C :    0.212784
  26 O :   -0.202116
  27 O :   -0.307624
  28 C :    0.172772
  29 C :   -0.033256
  30 C :   -0.017645
  31 C :    0.030779
  32 C :    0.016107
  33 C :   -0.119324
  34 S :    0.125678
  35 C :   -0.104151
  36 C :   -0.091875
  37 C :    0.112761
  38 C :    0.161535
  39 C :   -0.065662
  40 C :    0.018656
  41 C :    0.006053
  42 C :    0.039818
  43 C :   -0.125551
  44 S :    0.171757
  45 C :   -0.142798
  46 C :    0.160812
  47 C :   -0.048916
  48 S :    0.157852
  49 C :   -0.105794
  50 C :    0.216546
  51 O :   -0.193631
  52 O :   -0.307978
  53 C :    0.169127
  54 C :   -0.034375
  55 C :   -0.020299
  56 C :    0.095979
  57 C :   -0.004120
  58 C :    0.045735
  59 C :   -0.137712
  60 C :    0.132047
  61 O :   -0.142773
  62 C :    0.013055
  63 C :    0.020577
  64 C :   -0.089058
  65 C :    0.232901
  66 C :    0.232525
  67 C :   -0.102771
  68 F :   -0.170370
  69 F :   -0.167490
  70 C :    0.270987
  71 C :   -0.347987
  72 C :   -0.205593
  73 N :    0.174420
  74 C :   -0.179218
  75 N :    0.155389
  76 H :    0.016358
  77 H :    0.011491
  78 H :    0.023015
  79 H :    0.032889
  80 H :    0.026928
  81 H :    0.038935
  82 H :    0.027981
  83 H :    0.030658
  84 H :    0.011406
  85 H :   -0.004524
  86 H :   -0.018482
  87 H :    0.023555
  88 H :    0.011799
  89 H :    0.041536
  90 H :    0.034805
  91 H :   -0.001555
  92 H :   -0.015653
  93 H :    0.001924
  94 H :   -0.017940
  95 H :    0.031868
  96 H :    0.034121
  97 H :    0.029354
  98 H :    0.028029
  99 H :    0.038081
 100 H :    0.012131
 101 H :    0.001548
 102 H :   -0.012757
 103 H :    0.027595
 104 H :    0.015661
 105 H :    0.011376
Sum of atomic charges:   -0.0000000

LOEWDIN ATOMIC CHARGES
----------------------
   0 C :   -0.021672
   1 C :    0.073191
   2 F :   -0.044795
   3 C :    0.068270
   4 F :   -0.046977
   5 C :   -0.005915
   6 C :   -0.046161
   7 C :   -0.012025
   8 C :    0.059920
   9 C :   -0.148099
  10 C :   -0.022610
  11 N :   -0.051902
  12 C :   -0.035827
  13 N :   -0.051992
  14 C :   -0.113776
  15 C :    0.081619
  16 O :   -0.143600
  17 C :    0.049409
  18 C :   -0.214134
  19 S :    0.491514
  20 C :   -0.119140
  21 C :   -0.085715
  22 C :   -0.146774
  23 S :    0.449165
  24 C :   -0.200984
  25 C :    0.067094
  26 O :   -0.177755
  27 O :   -0.092827
  28 C :    0.087798
  29 C :   -0.066614
  30 C :   -0.008983
  31 C :   -0.059065
  32 C :   -0.005191
  33 C :   -0.170426
  34 S :    0.446158
  35 C :   -0.174192
  36 C :   -0.052747
  37 C :   -0.044093
  38 C :   -0.044552
  39 C :   -0.013925
  40 C :   -0.017846
  41 C :   -0.010889
  42 C :   -0.048389
  43 C :   -0.171047
  44 S :    0.477033
  45 C :   -0.173161
  46 C :   -0.050770
  47 C :   -0.185346
  48 S :    0.451152
  49 C :   -0.190433
  50 C :    0.069393
  51 O :   -0.171647
  52 O :   -0.093134
  53 C :    0.087068
  54 C :   -0.066832
  55 C :   -0.008962
  56 C :    0.023069
  57 C :   -0.052722
  58 C :    0.068631
  59 C :   -0.108460
  60 C :    0.081973
  61 O :   -0.142314
  62 C :   -0.046341
  63 C :   -0.013087
  64 C :   -0.022220
  65 C :    0.072892
  66 C :    0.068391
  67 C :   -0.005662
  68 F :   -0.046937
  69 F :   -0.045134
  70 C :    0.063645
  71 C :   -0.147830
  72 C :   -0.018448
  73 N :   -0.040708
  74 C :   -0.023238
  75 N :   -0.053614
  76 H :    0.050882
  77 H :    0.051931
  78 H :    0.048592
  79 H :    0.024054
  80 H :    0.025691
  81 H :    0.030661
  82 H :    0.036485
  83 H :    0.027245
  84 H :    0.038213
  85 H :    0.026709
  86 H :    0.034134
  87 H :    0.025791
  88 H :    0.035366
  89 H :    0.036314
  90 H :    0.037250
  91 H :    0.030968
  92 H :    0.029047
  93 H :    0.017487
  94 H :    0.030597
  95 H :    0.027076
  96 H :    0.023449
  97 H :    0.027007
  98 H :    0.035772
  99 H :    0.030728
 100 H :    0.040848
 101 H :    0.034190
 102 H :    0.033136
 103 H :    0.048199
 104 H :    0.050496
 105 H :    0.051934

  Mayer bond orders larger than 0.100000
B(  0-C ,  1-C ) :   1.3316 B(  0-C ,  5-C ) :   0.1047 B(  0-C ,  7-C ) :   1.3232
B(  0-C , 76-H ) :   0.9950 B(  1-C ,  2-F ) :   1.1388 B(  1-C ,  3-C ) :   1.2960
B(  3-C ,  4-F ) :   1.1297 B(  3-C ,  5-C ) :   1.3181 B(  5-C ,  6-C ) :   1.3275
B(  5-C , 77-H ) :   1.0196 B(  6-C ,  7-C ) :   1.3445 B(  6-C , 15-C ) :   0.9249
B(  7-C ,  8-C ) :   1.0151 B(  8-C ,  9-C ) :   1.6365 B(  8-C , 14-C ) :   1.0669
B(  9-C , 10-C ) :   1.1315 B(  9-C , 12-C ) :   1.1565 B( 10-C , 11-N ) :   2.9960
B( 12-C , 13-N ) :   3.0271 B( 14-C , 15-C ) :   0.9596 B( 14-C , 17-C ) :   1.5785
B( 15-C , 16-O ) :   2.2723 B( 17-C , 18-C ) :   1.2118 B( 17-C , 78-H ) :   0.9453
B( 18-C , 19-S ) :   1.0851 B( 18-C , 22-C ) :   1.4058 B( 19-S , 20-C ) :   1.1700
B( 20-C , 21-C ) :   1.3118 B( 20-C , 31-C ) :   1.1890 B( 21-C , 22-C ) :   1.2778
B( 21-C , 30-C ) :   1.1391 B( 22-C , 23-S ) :   1.0916 B( 23-S , 24-C ) :   1.0615
B( 24-C , 25-C ) :   0.9526 B( 24-C , 30-C ) :   1.6356 B( 25-C , 26-O ) :   2.1107
B( 25-C , 27-O ) :   1.2399 B( 27-O , 28-C ) :   0.8975 B( 28-C , 29-C ) :   1.1231
B( 28-C , 79-H ) :   0.9469 B( 28-C , 80-H ) :   0.9608 B( 29-C , 81-H ) :   0.9662
B( 29-C , 82-H ) :   0.9611 B( 29-C , 83-H ) :   0.9655 B( 30-C , 84-H ) :   0.9951
B( 31-C , 32-C ) :   1.6003 B( 31-C , 85-H ) :   0.9562 B( 32-C , 33-C ) :   1.2131
B( 32-C , 86-H ) :   0.9631 B( 33-C , 34-S ) :   1.1262 B( 33-C , 38-C ) :   1.3680
B( 34-S , 35-C ) :   1.1463 B( 35-C , 36-C ) :   1.5978 B( 35-C , 87-H ) :   0.9641
B( 36-C , 37-C ) :   1.0979 B( 36-C , 38-C ) :   1.2294 B( 37-C , 88-H ) :   0.9441
B( 37-C , 89-H ) :   0.9399 B( 37-C , 90-H ) :   0.9436 B( 38-C , 39-C ) :   1.1050
B( 39-C , 40-C ) :   1.6336 B( 39-C , 91-H ) :   0.9655 B( 40-C , 41-C ) :   1.1515
B( 40-C , 92-H ) :   0.9903 B( 41-C , 42-C ) :   1.6058 B( 41-C , 93-H ) :   0.9760
B( 42-C , 43-C ) :   1.1461 B( 42-C , 94-H ) :   0.9676 B( 43-C , 44-S ) :   1.1504
B( 43-C , 47-C ) :   1.4357 B( 44-S , 45-C ) :   1.1177 B( 45-C , 46-C ) :   1.3086
B( 45-C , 56-C ) :   1.2564 B( 46-C , 47-C ) :   1.2839 B( 46-C , 55-C ) :   1.1465
B( 47-C , 48-S ) :   1.0631 B( 48-S , 49-C ) :   1.0815 B( 49-C , 50-C ) :   0.9408
B( 49-C , 55-C ) :   1.6247 B( 50-C , 51-O ) :   2.1281 B( 50-C , 52-O ) :   1.2376
B( 52-O , 53-C ) :   0.8966 B( 53-C , 54-C ) :   1.1241 B( 53-C , 95-H ) :   0.9602
B( 53-C , 96-H ) :   0.9441 B( 54-C , 97-H ) :   0.9662 B( 54-C , 98-H ) :   0.9624
B( 54-C , 99-H ) :   0.9657 B( 55-C ,100-H ) :   1.0033 B( 56-C , 57-C ) :   1.5365
B( 56-C ,101-H ) :   0.9362 B( 57-C , 58-C ) :   1.2429 B( 57-C ,102-H ) :   0.9644
B( 58-C , 59-C ) :   1.5721 B( 58-C ,103-H ) :   0.9304 B( 59-C , 60-C ) :   0.9614
B( 59-C , 70-C ) :   1.0687 B( 60-C , 61-O ) :   2.2599 B( 60-C , 62-C ) :   0.9271
B( 62-C , 63-C ) :   1.3462 B( 62-C , 67-C ) :   1.3269 B( 63-C , 64-C ) :   1.3208
B( 63-C , 70-C ) :   1.0081 B( 64-C , 65-C ) :   1.3350 B( 64-C , 67-C ) :   0.1047
B( 64-C ,104-H ) :   0.9942 B( 65-C , 66-C ) :   1.2951 B( 65-C , 69-F ) :   1.1401
B( 66-C , 67-C ) :   1.3167 B( 66-C , 68-F ) :   1.1296 B( 67-C ,105-H ) :   1.0199
B( 70-C , 71-C ) :   1.6232 B( 71-C , 72-C ) :   1.1751 B( 71-C , 74-C ) :   1.1255
B( 72-C , 73-N ) :   2.9905 B( 74-C , 75-N ) :   2.9913

-----------------------------------------------------------------------------
         ABSORPTION SPECTRUM VIA TRANSITION ELECTRIC DIPOLE MOMENTS
-----------------------------------------------------------------------------
State   Energy  Wavelength   fosc         T2         TX        TY        TZ
        (cm-1)    (nm)                  (au**2)     (au)      (au)      (au)
-----------------------------------------------------------------------------
   0   13299.4    751.9   1.717209069  42.50759  -1.83706  -0.87977   6.19345
   1   16197.7    617.4   0.250592268   5.09320  -0.22982   2.24326  -0.09030
   2   19291.2    518.4   0.048726882   0.83154  -0.63734   0.64682   0.08345
   3   21405.3    467.2   0.140540665   2.16151   1.38189   0.14061   0.48178
   4   23365.2    428.0   0.260682481   3.67297   0.02012  -1.54649   1.13178
   5   23919.4    418.1   0.163431742   2.24937  -0.31157   1.11281   0.95600
   6   25926.3    385.7   0.074690912   0.94843  -0.22539  -0.29029  -0.90186
   7   26462.0    377.9   0.071291903   0.88694  -0.74058  -0.58137   0.02197
   8   27515.3    363.4   0.154988510   1.85439   0.09335  -1.30424  -0.38029
   9   27937.3    357.9   0.235059733   2.76993   0.44610  -0.67322   1.45523
  10   28499.7    350.9   0.188056564   2.17232   0.27782  -1.40185  -0.36048
  11   28814.0    347.1   0.038601809   0.44104  -0.10259   0.41775   0.50596
  12   29031.1    344.5   0.005622950   0.06376   0.09770  -0.02811   0.23115
  13   29800.5    335.6   0.314878416   3.47853   0.56503   1.24708  -1.26652
  14   29987.7    333.5   0.307903440   3.38024   0.27766  -1.51176   1.00883
  15   30411.7    328.8   0.031153344   0.33724   0.03523   0.49364   0.30384
  16   30433.7    328.6   0.147831684   1.59915   0.71425  -0.00437  -1.04354
  17   30633.6    326.4   0.044356712   0.47669   0.03513   0.24242  -0.64551
  18   30718.2    325.5   0.063637862   0.68202  -0.23612  -0.78903  -0.06073
  19   31035.6    322.2   0.076777669   0.81442  -0.26389   0.31116   0.80496
  20   32036.6    312.1   0.046411175   0.47693   0.45062  -0.14617   0.50250
  21   32444.5    308.2   0.023389451   0.23733  -0.32454  -0.30638  -0.19528
  22   32566.7    307.1   0.047875630   0.48397  -0.20938   0.09733  -0.65624
  23   33065.8    302.4   0.045504416   0.45305  -0.05932   0.58896   0.32041
  24   33835.8    295.5   0.041730514   0.40602   0.09950  -0.62884   0.02618
  25   34007.4    294.1   0.201717061   1.95274   0.46308  -0.11957  -1.31301
  26   34223.8    292.2   0.074132782   0.71311   0.30268   0.74163  -0.26736
  27   35580.7    281.1   0.026126317   0.24173  -0.23188   0.31169  -0.30135
  28   35824.0    279.1   0.010812766   0.09937   0.10748   0.24904   0.16059
  29   36080.4    277.2   0.071990465   0.65687   0.26640   0.14882  -0.75084
  30   36242.0    275.9   0.033120478   0.30086   0.12142  -0.37947   0.37699
  31   36293.7    275.5   0.042190153   0.38270  -0.23307  -0.01686  -0.57279
  32   36649.9    272.9   0.049476167   0.44443  -0.23958  -0.08723  -0.61597
  33   36750.6    272.1   0.338887630   3.03575  -0.34775  -0.38789  -1.66264
  34   37110.8    269.5   0.248671725   2.20598  -0.68401  -0.30281  -1.28313
  35   37284.9    268.2   0.088453575   0.78101   0.24560  -0.33879   0.77841
  36   37545.2    266.3   0.196316583   1.72138  -0.23630   0.35598  -1.24049
  37   37952.8    263.5   0.250335340   2.17147   0.26494   0.58723   1.32530
  38   38013.6    263.1   0.068850745   0.59627  -0.36329   0.37657  -0.56788
  39   38403.3    260.4   0.064268725   0.55094  -0.46889   0.52717  -0.23061
  40   38854.9    257.4   0.065883535   0.55822   0.40354   0.11249   0.61865
  41   39066.7    256.0   0.084420024   0.71140   0.20370   0.14024   0.80637
  42   39549.3    252.8   0.059713315   0.49706   0.43310  -0.50449  -0.23447
  43   39679.3    252.0   0.058563479   0.48589  -0.22118  -0.00615   0.66101
  44   39973.1    250.2   0.004288491   0.03532  -0.18260   0.04395  -0.00682
  45   40011.3    249.9   0.180725346   1.48701  -0.20304  -0.97156   0.70841
  46   40205.8    248.7   0.091682035   0.75071   0.54849   0.57172  -0.35072

FINAL SINGLE POINT ENERGY     -5246.073963444094

DIPOLE MOMENT
-------------
                                X             Y             Z
Electronic contribution:     -0.00063     -12.47240       9.96350
Nuclear contribution   :      0.47950      10.60424      -9.77782
                        -----------------------------------------
Total Dipole Moment    :      0.47888      -1.86816       0.18569
                        -----------------------------------------
Magnitude (a.u.)       :      1.93748
Magnitude (Debye)      :      4.92469

Rotational constants in cm-1:     0.001720     0.000223     0.000209
Rotational constants in MHz :    51.555724     6.679483     6.263245

                             ****ORCA TERMINATED NORMALLY****
TOTAL RUN TIME: 0 days 0 hours 11 minutes 11 seconds 456 msec
