                         Program Version 4.2.0 -  RELEASE  -
|  1> # ORCA input file
|  2> # SCF done       -223.827038422596          0.000920333113
|  3> ! CAM-B3LYP def2-SVP def2/J RIJCOSX Grid4 TightSCF
|  4> %maxcore 5000
|  5> %tddft
|  6>     Mode sTDDFT
|  7>     Ethresh 5.0
|  8>     maxcore 5000
|  9> end
| 10>
| 11> %pal
| 12>   nprocs 6
| 13>   end
| 14> * xyz 0 1
| 15>    C        5.15515        -1.42939         4.28460
| 16>    C        6.04021        -1.85480         5.26497
| 17>    F        6.43234        -0.98584         6.20254
| 18>    C        6.52841        -3.16132         5.29638
| 19>    F        7.38103        -3.52711         6.26038
| 20>    C        6.13801        -4.08357         4.33853
| 21>    C        5.25655        -3.65924         3.36439
| 22>    C        4.75979        -2.34518         3.32261
| 23>    C        3.85582        -2.21778         2.17696
| 24>    C        3.20441        -1.06882         1.81074
| 25>    C        3.31385         0.15665         2.50275
| 26>    N        3.35733         1.18148         3.01765
| 27>    C        2.34354        -0.92722         0.70147
| 28>    N        1.63707        -0.72353        -0.18081
| 29>    C        3.80263        -3.50979         1.52571
| 30>    C        4.68485        -4.43202         2.24316
| 31>    O        4.91184        -5.59958         1.98131
| 32>    C        3.04363        -3.83629         0.42634
| 33>    C        2.92699        -5.05161        -0.25184
| 34>    S        3.73295        -6.56946         0.07673
| 35>    C        2.94224        -7.38295        -1.24045
| 36>    C        2.07503        -6.51658        -1.92824
| 37>    C        2.08582        -5.22152        -1.35954
| 38>    S        1.04594        -4.11721        -2.17724
| 39>    C        0.59675        -5.38450        -3.28926
| 40>    C       -0.35106        -5.10279        -4.37301
| 41>    O       -0.68915        -5.91402        -5.19985
| 42>    O       -0.78386        -3.84201        -4.30626
| 43>    C       -1.69349        -3.40582        -5.31688
| 44>    C       -0.95166        -2.94054        -6.56125
| 45>    C        1.20552        -6.58019        -3.04279
| 46>    C        3.26289        -8.74420        -1.43669
| 47>    C        2.73567        -9.55997        -2.38689
| 48>    C        3.07615       -10.91652        -2.62348
| 49>    O        2.75273       -11.40687        -3.83295
| 50>    C        3.26203       -12.65067        -3.96169
| 51>    C        3.92788       -13.00327        -2.77156
| 52>    C        3.76645       -11.90137        -1.89807
| 53>    C        4.05823       -11.82433        -0.44018
| 54>    F        3.17319       -11.05846         0.21580
| 55>    F        4.00308       -13.01778         0.16994
| 56>    F        5.27862       -11.31751        -0.15820
| 57>    O        4.56342       -14.17252        -2.66407
| 58>    C        5.56819       -14.37837        -1.68257
| 59>    C        3.05630       -13.35996        -5.16524
| 60>    C        3.62046       -14.56201        -5.45522
| 61>    C        3.41431       -15.27906        -6.65007
| 62>    S        2.23959       -14.85572        -7.86617
| 63>    C        2.66625       -16.19844        -8.90292
| 64>    C        3.68752       -16.95418        -8.30901
| 65>    C        4.08284       -16.42801        -7.05256
| 66>    S        5.32683       -17.36119        -6.29805
| 67>    C        5.29400       -18.46665        -7.64718
| 68>    C        6.22265       -19.60286        -7.60247
| 69>    O        6.98408       -19.80255        -6.68786
| 70>    O        6.11308       -20.37000        -8.69054
| 71>    C        6.98329       -21.50205        -8.76705
| 72>    C        8.35469       -21.11320        -9.29992
| 73>    C        4.39226       -18.13999        -8.61787
| 74>    C        1.95610       -16.39840       -10.09599
| 75>    C        2.33905       -17.21315       -11.12552
| 76>    C        1.58177       -17.44147       -12.29005
| 77>    C        0.22993       -17.33863       -12.49056
| 78>    C       -0.27753       -17.22235       -13.88081
| 79>    O        0.35234       -17.37770       -14.90139
| 80>    C       -1.69982       -16.83261       -13.74520
| 81>    C       -2.05382       -16.83287       -12.38484
| 82>    C       -3.33479       -16.47057       -12.00158
| 83>    C       -4.23664       -16.12157       -12.99628
| 84>    C       -3.88162       -16.13754       -14.34544
| 85>    C       -2.60046       -16.49435       -14.73553
| 86>    F       -4.78694       -15.80090       -15.27174
| 87>    F       -5.47575       -15.75811       -12.64796
| 88>    C       -0.90166       -17.27871       -11.59609
| 89>    C       -0.98372       -17.78239       -10.32212
| 90>    C        0.06891       -18.44188        -9.65776
| 91>    N        0.87274       -19.02025        -9.07707
| 92>    C       -2.16052       -17.77548        -9.54578
| 93>    N       -3.08148       -17.77530        -8.86078
| 94>    H        4.80824        -0.40951         4.30714
| 95>    H        6.51185        -5.09479         4.35863
| 96>    H        2.42374        -3.05566         0.00070
| 97>    H       -2.25096        -2.58627        -4.85965
| 98>    H       -2.37000        -4.23098        -5.56248
| 99>    H       -0.24076        -2.15917        -6.30382
|100>    H       -1.66274        -2.55029        -7.28330
|101>    H       -0.41614        -3.77396        -7.00978
|102>    H        1.01323        -7.43997        -3.65608
|103>    H        4.01203        -9.11929        -0.75513
|104>    H        2.03888        -9.16496        -3.10974
|105>    H        6.26387       -15.09181        -2.12408
|106>    H        5.14356       -14.80900        -0.77432
|107>    H        6.09892       -13.45505        -1.44508
|108>    H        2.41669       -12.87261        -5.88915
|109>    H        4.29241       -15.02388        -4.74690
|110>    H        6.47923       -22.19778        -9.44059
|111>    H        7.07571       -21.94520        -7.77026
|112>    H        8.25996       -20.63048       -10.26985
|113>    H        8.96859       -22.00297        -9.40440
|114>    H        8.84210       -20.42919        -8.60925
|115>    H        4.23928       -18.75149        -9.48598
|116>    H        1.05620       -15.80626       -10.21215
|117>    H        3.32889       -17.64370       -11.10415
|118>    H        2.14092       -17.69094       -13.18724
|119>    H       -3.65560       -16.44018       -10.97313
|120>    H       -2.32340       -16.50637       -15.77753
|121> *
|122>
|123>                          ****END OF INPUT****

CARTESIAN COORDINATES (ANGSTROEM)
---------------------------------
  C      5.155150   -1.429390    4.284600
  C      6.040210   -1.854800    5.264970
  F      6.432340   -0.985840    6.202540
  C      6.528410   -3.161320    5.296380
  F      7.381030   -3.527110    6.260380
  C      6.138010   -4.083570    4.338530
  C      5.256550   -3.659240    3.364390
  C      4.759790   -2.345180    3.322610
  C      3.855820   -2.217780    2.176960
  C      3.204410   -1.068820    1.810740
  C      3.313850    0.156650    2.502750
  N      3.357330    1.181480    3.017650
  C      2.343540   -0.927220    0.701470
  N      1.637070   -0.723530   -0.180810
  C      3.802630   -3.509790    1.525710
  C      4.684850   -4.432020    2.243160
  O      4.911840   -5.599580    1.981310
  C      3.043630   -3.836290    0.426340
  C      2.926990   -5.051610   -0.251840
  S      3.732950   -6.569460    0.076730
  C      2.942240   -7.382950   -1.240450
  C      2.075030   -6.516580   -1.928240
  C      2.085820   -5.221520   -1.359540
  S      1.045940   -4.117210   -2.177240
  C      0.596750   -5.384500   -3.289260
  C     -0.351060   -5.102790   -4.373010
  O     -0.689150   -5.914020   -5.199850
  O     -0.783860   -3.842010   -4.306260
  C     -1.693490   -3.405820   -5.316880
  C     -0.951660   -2.940540   -6.561250
  C      1.205520   -6.580190   -3.042790
  C      3.262890   -8.744200   -1.436690
  C      2.735670   -9.559970   -2.386890
  C      3.076150  -10.916520   -2.623480
  O      2.752730  -11.406870   -3.832950
  C      3.262030  -12.650670   -3.961690
  C      3.927880  -13.003270   -2.771560
  C      3.766450  -11.901370   -1.898070
  C      4.058230  -11.824330   -0.440180
  F      3.173190  -11.058460    0.215800
  F      4.003080  -13.017780    0.169940
  F      5.278620  -11.317510   -0.158200
  O      4.563420  -14.172520   -2.664070
  C      5.568190  -14.378370   -1.682570
  C      3.056300  -13.359960   -5.165240
  C      3.620460  -14.562010   -5.455220
  C      3.414310  -15.279060   -6.650070
  S      2.239590  -14.855720   -7.866170
  C      2.666250  -16.198440   -8.902920
  C      3.687520  -16.954180   -8.309010
  C      4.082840  -16.428010   -7.052560
  S      5.326830  -17.361190   -6.298050
  C      5.294000  -18.466650   -7.647180
  C      6.222650  -19.602860   -7.602470
  O      6.984080  -19.802550   -6.687860
  O      6.113080  -20.370000   -8.690540
  C      6.983290  -21.502050   -8.767050
  C      8.354690  -21.113200   -9.299920
  C      4.392260  -18.139990   -8.617870
  C      1.956100  -16.398400  -10.095990
  C      2.339050  -17.213150  -11.125520
  C      1.581770  -17.441470  -12.290050
  C      0.229930  -17.338630  -12.490560
  C     -0.277530  -17.222350  -13.880810
  O      0.352340  -17.377700  -14.901390
  C     -1.699820  -16.832610  -13.745200
  C     -2.053820  -16.832870  -12.384840
  C     -3.334790  -16.470570  -12.001580
  C     -4.236640  -16.121570  -12.996280
  C     -3.881620  -16.137540  -14.345440
  C     -2.600460  -16.494350  -14.735530
  F     -4.786940  -15.800900  -15.271740
  F     -5.475750  -15.758110  -12.647960
  C     -0.901660  -17.278710  -11.596090
  C     -0.983720  -17.782390  -10.322120
  C      0.068910  -18.441880   -9.657760
  N      0.872740  -19.020250   -9.077070
  C     -2.160520  -17.775480   -9.545780
  N     -3.081480  -17.775300   -8.860780
  H      4.808240   -0.409510    4.307140
  H      6.511850   -5.094790    4.358630
  H      2.423740   -3.055660    0.000700
  H     -2.250960   -2.586270   -4.859650
  H     -2.370000   -4.230980   -5.562480
  H     -0.240760   -2.159170   -6.303820
  H     -1.662740   -2.550290   -7.283300
  H     -0.416140   -3.773960   -7.009780
  H      1.013230   -7.439970   -3.656080
  H      4.012030   -9.119290   -0.755130
  H      2.038880   -9.164960   -3.109740
  H      6.263870  -15.091810   -2.124080
  H      5.143560  -14.809000   -0.774320
  H      6.098920  -13.455050   -1.445080
  H      2.416690  -12.872610   -5.889150
  H      4.292410  -15.023880   -4.746900
  H      6.479230  -22.197780   -9.440590
  H      7.075710  -21.945200   -7.770260
  H      8.259960  -20.630480  -10.269850
  H      8.968590  -22.002970   -9.404400
  H      8.842100  -20.429190   -8.609250
  H      4.239280  -18.751490   -9.485980
  H      1.056200  -15.806260  -10.212150
  H      3.328890  -17.643700  -11.104150
  H      2.140920  -17.690940  -13.187240
  H     -3.655600  -16.440180  -10.973130
  H     -2.323400  -16.506370  -15.777530

 Total Charge           Charge          ....    0
 Multiplicity           Mult            ....    1
 Number of Electrons    NEL             ....  582
 Basis Dimension        Dim             .... 1257

ORBITAL ENERGIES
----------------

  NO   OCC          E(Eh)            E(eV)
   0   2.0000     -88.981195     -2421.3014
   1   2.0000     -88.978999     -2421.2417
   2   2.0000     -88.974400     -2421.1165
   3   2.0000     -88.967963     -2420.9414
   4   2.0000     -24.819383      -675.3697
   5   2.0000     -24.816325      -675.2865
   6   2.0000     -24.815967      -675.2768
   7   2.0000     -24.804278      -674.9587
   8   2.0000     -24.802788      -674.9182
   9   2.0000     -24.801236      -674.8759
  10   2.0000     -24.800321      -674.8510
  11   2.0000     -19.320909      -525.7487
  12   2.0000     -19.281510      -524.6766
  13   2.0000     -19.268532      -524.3234
  14   2.0000     -19.266054      -524.2560
  15   2.0000     -19.230127      -523.2783
  16   2.0000     -19.216740      -522.9141
  17   2.0000     -19.212306      -522.7934
  18   2.0000     -19.212022      -522.7857
  19   2.0000     -14.422358      -392.4523
  20   2.0000     -14.418536      -392.3483
  21   2.0000     -14.417244      -392.3132
  22   2.0000     -14.415950      -392.2780
  23   2.0000     -10.542088      -286.8648
  24   2.0000     -10.413766      -283.3730
  25   2.0000     -10.412761      -283.3456
  26   2.0000     -10.389281      -282.7067
  27   2.0000     -10.388824      -282.6943
  28   2.0000     -10.386316      -282.6260
  29   2.0000     -10.385692      -282.6091
  30   2.0000     -10.378227      -282.4059
  31   2.0000     -10.372155      -282.2407
  32   2.0000     -10.371832      -282.2319
  33   2.0000     -10.368169      -282.1322
  34   2.0000     -10.351739      -281.6851
  35   2.0000     -10.348260      -281.5905
  36   2.0000     -10.347646      -281.5738
  37   2.0000     -10.345584      -281.5177
  38   2.0000     -10.343537      -281.4620
  39   2.0000     -10.342194      -281.4254
  40   2.0000     -10.332853      -281.1712
  41   2.0000     -10.330345      -281.1030
  42   2.0000     -10.330122      -281.0969
  43   2.0000     -10.328914      -281.0640
  44   2.0000     -10.328506      -281.0529
  45   2.0000     -10.328301      -281.0474
  46   2.0000     -10.327570      -281.0275
  47   2.0000     -10.324803      -280.9522
  48   2.0000     -10.322828      -280.8984
  49   2.0000     -10.321415      -280.8600
  50   2.0000     -10.320376      -280.8317
  51   2.0000     -10.320219      -280.8274
  52   2.0000     -10.319885      -280.8183
  53   2.0000     -10.319012      -280.7946
  54   2.0000     -10.318932      -280.7924
  55   2.0000     -10.318695      -280.7860
  56   2.0000     -10.316886      -280.7367
  57   2.0000     -10.316764      -280.7334
  58   2.0000     -10.315869      -280.7091
  59   2.0000     -10.315045      -280.6866
  60   2.0000     -10.313698      -280.6500
  61   2.0000     -10.312424      -280.6153
  62   2.0000     -10.311697      -280.5956
  63   2.0000     -10.311042      -280.5777
  64   2.0000     -10.308751      -280.5154
  65   2.0000     -10.308464      -280.5076
  66   2.0000     -10.305995      -280.4404
  67   2.0000     -10.305599      -280.4296
  68   2.0000     -10.305412      -280.4245
  69   2.0000     -10.305063      -280.4150
  70   2.0000     -10.304341      -280.3954
  71   2.0000     -10.302146      -280.3356
  72   2.0000     -10.302061      -280.3333
  73   2.0000     -10.300011      -280.2776
  74   2.0000     -10.299131      -280.2536
  75   2.0000     -10.295299      -280.1493
  76   2.0000     -10.292288      -280.0674
  77   2.0000     -10.265237      -279.3313
  78   2.0000     -10.264796      -279.3193
  79   2.0000      -8.074134      -219.7084
  80   2.0000      -8.074090      -219.7072
  81   2.0000      -8.069469      -219.5814
  82   2.0000      -8.063247      -219.4121
  83   2.0000      -6.043528      -164.4528
  84   2.0000      -6.043263      -164.4455
  85   2.0000      -6.039301      -164.3377
  86   2.0000      -6.039068      -164.3314
  87   2.0000      -6.038930      -164.3276
  88   2.0000      -6.036485      -164.2611
  89   2.0000      -6.036325      -164.2567
  90   2.0000      -6.034747      -164.2138
  91   2.0000      -6.032926      -164.1643
  92   2.0000      -6.031047      -164.1131
  93   2.0000      -6.028727      -164.0500
  94   2.0000      -6.024553      -163.9364
  95   2.0000      -1.408333       -38.3227
  96   2.0000      -1.327410       -36.1207
  97   2.0000      -1.324562       -36.0432
  98   2.0000      -1.312150       -35.7054
  99   2.0000      -1.310106       -35.6498
 100   2.0000      -1.309340       -35.6290
 101   2.0000      -1.307330       -35.5743
 102   2.0000      -1.242762       -33.8173
 103   2.0000      -1.200841       -32.6765
 104   2.0000      -1.198764       -32.6200
 105   2.0000      -1.183772       -32.2121
 106   2.0000      -1.145602       -31.1734
 107   2.0000      -1.132272       -30.8107
 108   2.0000      -1.106807       -30.1178
 109   2.0000      -1.106664       -30.1138
 110   2.0000      -1.028964       -27.9995
 111   2.0000      -1.025259       -27.8987
 112   2.0000      -1.024351       -27.8740
 113   2.0000      -1.021471       -27.7956
 114   2.0000      -1.007716       -27.4214
 115   2.0000      -1.003031       -27.2939
 116   2.0000      -0.998724       -27.1767
 117   2.0000      -0.995308       -27.0837
 118   2.0000      -0.970251       -26.4019
 119   2.0000      -0.966126       -26.2896
 120   2.0000      -0.961743       -26.1704
 121   2.0000      -0.958652       -26.0863
 122   2.0000      -0.948547       -25.8113
 123   2.0000      -0.939899       -25.5759
 124   2.0000      -0.930465       -25.3192
 125   2.0000      -0.920359       -25.0442
 126   2.0000      -0.908371       -24.7180
 127   2.0000      -0.903663       -24.5899
 128   2.0000      -0.897175       -24.4134
 129   2.0000      -0.882987       -24.0273
 130   2.0000      -0.877998       -23.8915
 131   2.0000      -0.874999       -23.8099
 132   2.0000      -0.874630       -23.7999
 133   2.0000      -0.871742       -23.7213
 134   2.0000      -0.861499       -23.4426
 135   2.0000      -0.852836       -23.2068
 136   2.0000      -0.846174       -23.0256
 137   2.0000      -0.836947       -22.7745
 138   2.0000      -0.833009       -22.6673
 139   2.0000      -0.832048       -22.6412
 140   2.0000      -0.819811       -22.3082
 141   2.0000      -0.810389       -22.0518
 142   2.0000      -0.807167       -21.9641
 143   2.0000      -0.793720       -21.5982
 144   2.0000      -0.779048       -21.1990
 145   2.0000      -0.775178       -21.0937
 146   2.0000      -0.770619       -20.9696
 147   2.0000      -0.766423       -20.8554
 148   2.0000      -0.760061       -20.6823
 149   2.0000      -0.752261       -20.4700
 150   2.0000      -0.737918       -20.0798
 151   2.0000      -0.734700       -19.9922
 152   2.0000      -0.721492       -19.6328
 153   2.0000      -0.716457       -19.4958
 154   2.0000      -0.709893       -19.3172
 155   2.0000      -0.707724       -19.2581
 156   2.0000      -0.707269       -19.2458
 157   2.0000      -0.704021       -19.1574
 158   2.0000      -0.694934       -18.9101
 159   2.0000      -0.692574       -18.8459
 160   2.0000      -0.691928       -18.8283
 161   2.0000      -0.686296       -18.6751
 162   2.0000      -0.677967       -18.4484
 163   2.0000      -0.677613       -18.4388
 164   2.0000      -0.667383       -18.1604
 165   2.0000      -0.661601       -18.0031
 166   2.0000      -0.655247       -17.8302
 167   2.0000      -0.652402       -17.7528
 168   2.0000      -0.648145       -17.6369
 169   2.0000      -0.646536       -17.5931
 170   2.0000      -0.642016       -17.4702
 171   2.0000      -0.639030       -17.3889
 172   2.0000      -0.637042       -17.3348
 173   2.0000      -0.633772       -17.2458
 174   2.0000      -0.630449       -17.1554
 175   2.0000      -0.624190       -16.9851
 176   2.0000      -0.618869       -16.8403
 177   2.0000      -0.610662       -16.6169
 178   2.0000      -0.608678       -16.5630
 179   2.0000      -0.607634       -16.5346
 180   2.0000      -0.598780       -16.2936
 181   2.0000      -0.598387       -16.2829
 182   2.0000      -0.592664       -16.1272
 183   2.0000      -0.592389       -16.1197
 184   2.0000      -0.591642       -16.0994
 185   2.0000      -0.591280       -16.0895
 186   2.0000      -0.589234       -16.0339
 187   2.0000      -0.585130       -15.9222
 188   2.0000      -0.582472       -15.8499
 189   2.0000      -0.580345       -15.7920
 190   2.0000      -0.573354       -15.6018
 191   2.0000      -0.571540       -15.5524
 192   2.0000      -0.569390       -15.4939
 193   2.0000      -0.565528       -15.3888
 194   2.0000      -0.563536       -15.3346
 195   2.0000      -0.560436       -15.2502
 196   2.0000      -0.557261       -15.1638
 197   2.0000      -0.556009       -15.1298
 198   2.0000      -0.554771       -15.0961
 199   2.0000      -0.553403       -15.0589
 200   2.0000      -0.552443       -15.0327
 201   2.0000      -0.552204       -15.0262
 202   2.0000      -0.551385       -15.0039
 203   2.0000      -0.549536       -14.9536
 204   2.0000      -0.545927       -14.8554
 205   2.0000      -0.544421       -14.8145
 206   2.0000      -0.540842       -14.7171
 207   2.0000      -0.538869       -14.6634
 208   2.0000      -0.536115       -14.5884
 209   2.0000      -0.535529       -14.5725
 210   2.0000      -0.533459       -14.5161
 211   2.0000      -0.527848       -14.3635
 212   2.0000      -0.526927       -14.3384
 213   2.0000      -0.525681       -14.3045
 214   2.0000      -0.525350       -14.2955
 215   2.0000      -0.523390       -14.2422
 216   2.0000      -0.523001       -14.2316
 217   2.0000      -0.520597       -14.1662
 218   2.0000      -0.516473       -14.0539
 219   2.0000      -0.512219       -13.9382
 220   2.0000      -0.503645       -13.7049
 221   2.0000      -0.502697       -13.6791
 222   2.0000      -0.502441       -13.6721
 223   2.0000      -0.501417       -13.6443
 224   2.0000      -0.500562       -13.6210
 225   2.0000      -0.499092       -13.5810
 226   2.0000      -0.495686       -13.4883
 227   2.0000      -0.492656       -13.4059
 228   2.0000      -0.491613       -13.3775
 229   2.0000      -0.491118       -13.3640
 230   2.0000      -0.490075       -13.3356
 231   2.0000      -0.487646       -13.2695
 232   2.0000      -0.484535       -13.1849
 233   2.0000      -0.483168       -13.1477
 234   2.0000      -0.478601       -13.0234
 235   2.0000      -0.472229       -12.8500
 236   2.0000      -0.471801       -12.8384
 237   2.0000      -0.468213       -12.7407
 238   2.0000      -0.463028       -12.5996
 239   2.0000      -0.462446       -12.5838
 240   2.0000      -0.461117       -12.5476
 241   2.0000      -0.460556       -12.5324
 242   2.0000      -0.459600       -12.5063
 243   2.0000      -0.458402       -12.4738
 244   2.0000      -0.457095       -12.4382
 245   2.0000      -0.455600       -12.3975
 246   2.0000      -0.454106       -12.3568
 247   2.0000      -0.452756       -12.3201
 248   2.0000      -0.452395       -12.3103
 249   2.0000      -0.451109       -12.2753
 250   2.0000      -0.447804       -12.1854
 251   2.0000      -0.445797       -12.1308
 252   2.0000      -0.442862       -12.0509
 253   2.0000      -0.442342       -12.0367
 254   2.0000      -0.440209       -11.9787
 255   2.0000      -0.436716       -11.8836
 256   2.0000      -0.435574       -11.8526
 257   2.0000      -0.433717       -11.8020
 258   2.0000      -0.431401       -11.7390
 259   2.0000      -0.430730       -11.7208
 260   2.0000      -0.429606       -11.6902
 261   2.0000      -0.423164       -11.5149
 262   2.0000      -0.419977       -11.4281
 263   2.0000      -0.419441       -11.4136
 264   2.0000      -0.417898       -11.3716
 265   2.0000      -0.416356       -11.3296
 266   2.0000      -0.414797       -11.2872
 267   2.0000      -0.411997       -11.2110
 268   2.0000      -0.409529       -11.1438
 269   2.0000      -0.406716       -11.0673
 270   2.0000      -0.390232       -10.6188
 271   2.0000      -0.383386       -10.4325
 272   2.0000      -0.382367       -10.4047
 273   2.0000      -0.375962       -10.2304
 274   2.0000      -0.365323        -9.9409
 275   2.0000      -0.364811        -9.9270
 276   2.0000      -0.361243        -9.8299
 277   2.0000      -0.358655        -9.7595
 278   2.0000      -0.350266        -9.5312
 279   2.0000      -0.349744        -9.5170
 280   2.0000      -0.345273        -9.3954
 281   2.0000      -0.341908        -9.3038
 282   2.0000      -0.340122        -9.2552
 283   2.0000      -0.325951        -8.8696
 284   2.0000      -0.324869        -8.8401
 285   2.0000      -0.322865        -8.7856
 286   2.0000      -0.317240        -8.6325
 287   2.0000      -0.313483        -8.5303
 288   2.0000      -0.297916        -8.1067
 289   2.0000      -0.267522        -7.2796
 290   2.0000      -0.235851        -6.4178
 291   0.0000      -0.115107        -3.1322
 292   0.0000      -0.099758        -2.7146
 293   0.0000      -0.073876        -2.0103
 294   0.0000      -0.067845        -1.8462
 295   0.0000      -0.056393        -1.5345

MULLIKEN ATOMIC CHARGES
-----------------------
   0 C :   -0.087260
   1 C :    0.235043
   2 F :   -0.164088
   3 C :    0.233414
   4 F :   -0.168245
   5 C :   -0.103051
   6 C :   -0.004369
   7 C :    0.038151
   8 C :    0.322503
   9 C :   -0.351637
  10 C :   -0.193453
  11 N :    0.158330
  12 C :   -0.187155
  13 N :    0.148644
  14 C :   -0.103263
  15 C :    0.162833
  16 O :   -0.179337
  17 C :   -0.047790
  18 C :   -0.096090
  19 S :    0.224004
  20 C :   -0.114335
  21 C :    0.146449
  22 C :   -0.052463
  23 S :    0.200601
  24 C :   -0.126735
  25 C :    0.216827
  26 O :   -0.201797
  27 O :   -0.304762
  28 C :    0.171256
  29 C :   -0.027037
  30 C :   -0.020368
  31 C :    0.062694
  32 C :    0.001258
  33 C :    0.142605
  34 O :   -0.175638
  35 C :    0.138359
  36 C :    0.133034
  37 C :   -0.198475
  38 C :    0.537268
  39 F :   -0.154096
  40 F :   -0.155773
  41 F :   -0.167649
  42 O :   -0.300749
  43 C :    0.174717
  44 C :   -0.027072
  45 C :   -0.024480
  46 C :   -0.094709
  47 S :    0.154606
  48 C :   -0.137483
  49 C :    0.157877
  50 C :   -0.040841
  51 S :    0.174552
  52 C :   -0.147447
  53 C :    0.220855
  54 O :   -0.204523
  55 O :   -0.296888
  56 C :    0.172479
  57 C :   -0.026841
  58 C :    0.014997
  59 C :    0.067666
  60 C :   -0.009941
  61 C :    0.045547
  62 C :   -0.131842
  63 C :    0.131904
  64 O :   -0.142716
  65 C :    0.013555
  66 C :    0.022866
  67 C :   -0.093906
  68 C :    0.236290
  69 C :    0.235632
  70 C :   -0.108814
  71 F :   -0.168968
  72 F :   -0.165807
  73 C :    0.266520
  74 C :   -0.347452
  75 C :   -0.196908
  76 N :    0.172846
  77 C :   -0.182566
  78 N :    0.155803
  79 H :    0.015960
  80 H :    0.010919
  81 H :    0.009776
  82 H :    0.030040
  83 H :    0.032466
  84 H :    0.032149
  85 H :    0.026178
  86 H :    0.034282
  87 H :    0.009324
  88 H :   -0.008429
  89 H :   -0.008730
  90 H :    0.044310
  91 H :    0.050536
  92 H :    0.032422
  93 H :    0.002818
  94 H :    0.012801
  95 H :    0.027258
  96 H :    0.032329
  97 H :    0.025207
  98 H :    0.026367
  99 H :    0.037630
 100 H :    0.007443
 101 H :    0.006616
 102 H :   -0.000481
 103 H :    0.025418
 104 H :    0.016894
 105 H :    0.011335
Sum of atomic charges:   -0.0000000

LOEWDIN ATOMIC CHARGES
----------------------
   0 C :   -0.017701
   1 C :    0.073507
   2 F :   -0.042909
   3 C :    0.069917
   4 F :   -0.045082
   5 C :   -0.005954
   6 C :   -0.044875
   7 C :   -0.013444
   8 C :    0.074954
   9 C :   -0.140042
  10 C :   -0.020380
  11 N :   -0.049188
  12 C :   -0.021762
  13 N :   -0.049551
  14 C :   -0.115256
  15 C :    0.084691
  16 O :   -0.165853
  17 C :    0.051179
  18 C :   -0.212918
  19 S :    0.538105
  20 C :   -0.144326
  21 C :   -0.084528
  22 C :   -0.156461
  23 S :    0.465189
  24 C :   -0.198898
  25 C :    0.068676
  26 O :   -0.177790
  27 O :   -0.090695
  28 C :    0.087145
  29 C :   -0.066906
  30 C :   -0.012194
  31 C :   -0.028561
  32 C :   -0.026898
  33 C :    0.054632
  34 O :    0.037658
  35 C :    0.000980
  36 C :    0.038324
  37 C :   -0.157936
  38 C :    0.170679
  39 F :   -0.047105
  40 F :   -0.047476
  41 F :   -0.068265
  42 O :   -0.079657
  43 C :    0.083360
  44 C :   -0.026731
  45 C :   -0.041414
  46 C :   -0.170321
  47 S :    0.461386
  48 C :   -0.175585
  49 C :   -0.050699
  50 C :   -0.184841
  51 S :    0.442086
  52 C :   -0.186885
  53 C :    0.066392
  54 O :   -0.179203
  55 O :   -0.083990
  56 C :    0.086952
  57 C :   -0.067686
  58 C :   -0.011407
  59 C :    0.017778
  60 C :   -0.051256
  61 C :    0.066827
  62 C :   -0.107264
  63 C :    0.081385
  64 O :   -0.142708
  65 C :   -0.046507
  66 C :   -0.012990
  67 C :   -0.021612
  68 C :    0.073240
  69 C :    0.068648
  70 C :   -0.005919
  71 F :   -0.046244
  72 F :   -0.044020
  73 C :    0.064285
  74 C :   -0.145651
  75 C :   -0.014092
  76 N :   -0.046313
  77 C :   -0.023127
  78 N :   -0.052856
  79 H :    0.051736
  80 H :    0.051880
  81 H :    0.045585
  82 H :    0.026658
  83 H :    0.023147
  84 H :    0.030011
  85 H :    0.034511
  86 H :    0.031357
  87 H :    0.038401
  88 H :    0.026419
  89 H :    0.040743
  90 H :    0.030964
  91 H :    0.023071
  92 H :    0.018384
  93 H :    0.035583
  94 H :    0.035117
  95 H :    0.025202
  96 H :    0.023488
  97 H :    0.027495
  98 H :    0.034369
  99 H :    0.032031
 100 H :    0.039038
 101 H :    0.034826
 102 H :    0.034018
 103 H :    0.047039
 104 H :    0.050946
 105 H :    0.051938

  Mayer bond orders larger than 0.100000
B(  0-C ,  1-C ) :   1.3310 B(  0-C ,  5-C ) :   0.1047 B(  0-C ,  7-C ) :   1.3187
B(  0-C , 79-H ) :   0.9910 B(  1-C ,  2-F ) :   1.1466 B(  1-C ,  3-C ) :   1.2959
B(  3-C ,  4-F ) :   1.1317 B(  3-C ,  5-C ) :   1.3124 B(  5-C ,  6-C ) :   1.3203
B(  5-C , 80-H ) :   1.0203 B(  6-C ,  7-C ) :   1.3424 B(  6-C , 15-C ) :   0.9663
B(  7-C ,  8-C ) :   0.9986 B(  8-C ,  9-C ) :   1.6244 B(  8-C , 14-C ) :   1.0932
B(  9-C , 10-C ) :   1.1425 B(  9-C , 12-C ) :   1.1465 B( 10-C , 11-N ) :   2.9767
B( 12-C , 13-N ) :   2.9578 B( 14-C , 15-C ) :   0.9889 B( 14-C , 17-C ) :   1.4844
B( 15-C , 16-O ) :   2.1289 B( 17-C , 18-C ) :   1.3040 B( 17-C , 81-H ) :   0.9399
B( 18-C , 19-S ) :   1.0848 B( 18-C , 22-C ) :   1.3480 B( 19-S , 20-C ) :   1.1512
B( 20-C , 21-C ) :   1.2697 B( 20-C , 31-C ) :   1.2067 B( 21-C , 22-C ) :   1.3002
B( 21-C , 30-C ) :   1.1358 B( 22-C , 23-S ) :   1.1085 B( 23-S , 24-C ) :   1.0678
B( 24-C , 25-C ) :   0.9471 B( 24-C , 30-C ) :   1.6392 B( 25-C , 26-O ) :   2.1165
B( 25-C , 27-O ) :   1.2442 B( 27-O , 28-C ) :   0.8958 B( 28-C , 29-C ) :   1.1215
B( 28-C , 82-H ) :   0.9615 B( 28-C , 83-H ) :   0.9460 B( 29-C , 84-H ) :   0.9677
B( 29-C , 85-H ) :   0.9650 B( 29-C , 86-H ) :   0.9673 B( 30-C , 87-H ) :   1.0013
B( 31-C , 32-C ) :   1.6155 B( 31-C , 88-H ) :   0.9368 B( 32-C , 33-C ) :   1.1890
B( 32-C , 89-H ) :   0.9444 B( 33-C , 34-O ) :   1.1785 B( 33-C , 35-C ) :   0.1144
B( 33-C , 37-C ) :   1.3956 B( 34-O , 35-C ) :   1.1132 B( 35-C , 36-C ) :   1.3723
B( 35-C , 44-C ) :   1.1849 B( 36-C , 37-C ) :   1.2623 B( 36-C , 42-O ) :   1.2084
B( 37-C , 38-C ) :   0.9456 B( 38-C , 39-F ) :   1.1658 B( 38-C , 40-F ) :   1.1558
B( 38-C , 41-F ) :   1.1239 B( 42-O , 43-C ) :   0.9107 B( 43-C , 90-H ) :   0.9773
B( 43-C , 91-H ) :   0.9750 B( 43-C , 92-H ) :   0.9646 B( 44-C , 45-C ) :   1.6033
B( 44-C , 93-H ) :   0.9579 B( 45-C , 46-C ) :   1.1790 B( 45-C , 94-H ) :   0.9675
B( 46-C , 47-S ) :   1.1348 B( 46-C , 50-C ) :   1.4349 B( 47-S , 48-C ) :   1.1036
B( 48-C , 49-C ) :   1.3247 B( 48-C , 59-C ) :   1.2428 B( 49-C , 50-C ) :   1.2751
B( 49-C , 58-C ) :   1.1483 B( 50-C , 51-S ) :   1.0508 B( 51-S , 52-C ) :   1.0898
B( 52-C , 53-C ) :   0.9530 B( 52-C , 58-C ) :   1.6000 B( 53-C , 54-O ) :   2.1199
B( 53-C , 55-O ) :   1.2547 B( 55-O , 56-C ) :   0.8961 B( 56-C , 57-C ) :   1.1224
B( 56-C , 95-H ) :   0.9616 B( 56-C , 96-H ) :   0.9455 B( 57-C , 97-H ) :   0.9672
B( 57-C , 98-H ) :   0.9644 B( 57-C , 99-H ) :   0.9667 B( 58-C ,100-H ) :   0.9963
B( 59-C , 60-C ) :   1.5551 B( 59-C ,101-H ) :   0.9480 B( 60-C , 61-C ) :   1.2188
B( 60-C ,102-H ) :   0.9601 B( 61-C , 62-C ) :   1.5890 B( 61-C ,103-H ) :   0.9330
B( 62-C , 63-C ) :   0.9597 B( 62-C , 73-C ) :   1.0632 B( 63-C , 64-O ) :   2.2653
B( 63-C , 65-C ) :   0.9250 B( 65-C , 66-C ) :   1.3476 B( 65-C , 70-C ) :   1.3208
B( 66-C , 67-C ) :   1.3174 B( 66-C , 73-C ) :   1.0089 B( 67-C , 68-C ) :   1.3340
B( 67-C , 70-C ) :   0.1055 B( 67-C ,104-H ) :   0.9952 B( 68-C , 69-C ) :   1.2935
B( 68-C , 72-F ) :   1.1417 B( 69-C , 70-C ) :   1.3166 B( 69-C , 71-F ) :   1.1314
B( 70-C ,105-H ) :   1.0217 B( 73-C , 74-C ) :   1.6317 B( 74-C , 75-C ) :   1.1718
B( 74-C , 77-C ) :   1.1280 B( 75-C , 76-N ) :   2.9989 B( 77-C , 78-N ) :   2.9918

-----------------------------------------------------------------------------
         ABSORPTION SPECTRUM VIA TRANSITION ELECTRIC DIPOLE MOMENTS
-----------------------------------------------------------------------------
State   Energy  Wavelength   fosc         T2         TX        TY        TZ
        (cm-1)    (nm)                  (au**2)     (au)      (au)      (au)
-----------------------------------------------------------------------------
   0   12374.4    808.1   1.791045985  47.64952   1.84994   4.65411   4.75042
   1   16400.9    609.7   0.576468951  11.57133   1.27317  -3.05869  -0.77123
   2   20436.2    489.3   0.104076877   1.67660  -0.08688   1.13373   0.61944
   3   21888.5    456.9   0.112103560   1.68609  -0.60144   0.27297   1.11796
   4   23051.9    433.8   0.033533054   0.47890   0.39558  -0.34690   0.44953
   5   24140.9    414.2   0.216273631   2.94934  -1.52971   0.16432  -0.76310
   6   25752.4    388.3   0.122838169   1.57033   0.78478  -0.69676   0.68482
   7   27330.2    365.9   0.025392638   0.30587   0.04450  -0.05028  -0.54897
   8   27888.4    358.6   0.160452207   1.89408   0.60201  -0.73713   0.99414
   9   28245.2    354.0   0.028876406   0.33657   0.24183  -0.11871  -0.51381
  10   28792.9    347.3   0.007636009   0.08731   0.21492   0.11735   0.16537
  11   29086.2    343.8   0.001527016   0.01728   0.05346   0.03393  -0.11521
  12   29668.2    337.1   0.071516197   0.79358   0.24920  -0.36494  -0.77349
  13   30027.4    333.0   0.058343776   0.63967  -0.49890   0.46496  -0.41783
  14   30175.3    331.4   0.021331348   0.23272  -0.47939  -0.01453  -0.05196
  15   30325.9    329.8   0.195314175   2.12029  -1.12933   0.27073  -0.87842
  16   30443.9    328.5   0.078325582   0.84699   0.06074   0.91803   0.02306
  17   30825.4    324.4   0.209428905   2.23668  -0.48297   1.23401   0.69327
  18   31385.1    318.6   0.087244971   0.91515  -0.43807   0.33976  -0.77962
  19   32255.0    310.0   0.048351343   0.49350   0.47518   0.04046   0.51581
  20   32435.0    308.3   0.207226614   2.10333  -0.72936   0.13803  -1.24592
  21   32625.7    306.5   0.000796078   0.00803  -0.01628   0.04505  -0.07575
  22   33180.8    301.4   0.010251159   0.10171   0.29947  -0.08962   0.06320
  23   33449.7    299.0   0.128187237   1.26162   0.42064   0.59242   0.85658
  24   35130.1    284.7   0.002715094   0.02544  -0.13735  -0.07140  -0.03847
  25   35642.4    280.6   0.007148496   0.06603  -0.10094   0.05987  -0.22859
  26   35713.7    280.0   0.489932642   4.51624   1.31050  -1.15202   1.21313
  27   35950.2    278.2   0.164555631   1.50691   0.45222  -1.14098   0.02372
  28   36330.3    275.3   0.048272348   0.43743  -0.16123   0.37550  -0.52003
  29   36488.7    274.1   0.316068245   2.85166   0.70008  -0.76457   1.33303
  30   36907.0    271.0   0.030218757   0.26955   0.16724  -0.48546   0.07689
  31   37489.4    266.7   0.291094935   2.55624   0.38139  -0.56220   1.44731
  32   37544.3    266.4   0.050473774   0.44259   0.14749  -0.62152  -0.18585
  33   37784.7    264.7   0.172233024   1.50064   0.58305  -0.16804   1.06417
  34   38042.6    262.9   0.013625621   0.11791   0.20931   0.02685   0.27089
  35   38434.0    260.2   0.035981842   0.30821  -0.39007  -0.21360  -0.33231
  36   38609.2    259.0   0.048459693   0.41321  -0.05955   0.17821  -0.61474
  37   38807.3    257.7   0.033522727   0.28438  -0.23928  -0.02902  -0.47569
  38   39193.2    255.1   0.003874723   0.03255   0.11280   0.10816  -0.09013
  39   39332.9    254.2   0.010008032   0.08377  -0.23817   0.04935   0.15686
  40   39598.5    252.5   0.081072116   0.67401  -0.55571   0.51887   0.30980
  41   39663.7    252.1   0.018960541   0.15737   0.11437   0.25381   0.28262
  42   40325.4    248.0   0.152332089   1.24362  -0.06765  -0.41728  -1.03195

FINAL SINGLE POINT ENERGY     -5257.680188185602

DIPOLE MOMENT
-------------
                                X             Y             Z
Electronic contribution:    -14.47134      35.82052      51.29733
Nuclear contribution   :     16.43960     -36.95717     -52.24970
                        -----------------------------------------
Total Dipole Moment    :      1.96827      -1.13665      -0.95237
                        -----------------------------------------
Magnitude (a.u.)       :      2.46436
Magnitude (Debye)      :      6.26390

Rotational constants in cm-1:     0.000957     0.000208     0.000176
Rotational constants in MHz :    28.693743     6.235907     5.286813

                             ****ORCA TERMINATED NORMALLY****
TOTAL RUN TIME: 0 days 0 hours 12 minutes 11 seconds 833 msec
