                         Program Version 4.2.0 -  RELEASE  -
|  1> # ORCA input file
|  2> # SCF done       -178.731641627110          0.000538132880
|  3> ! CAM-B3LYP def2-SVP def2/J RIJCOSX Grid4 TightSCF
|  4> %maxcore 5000
|  5> %tddft
|  6>     Mode sTDDFT
|  7>     Ethresh 5.0
|  8>     maxcore 5000
|  9> end
| 10>
| 11> %pal
| 12>   nprocs 6
| 13>   end
| 14> * xyz 0 1
| 15>    C       -0.63869        -0.65323         1.55589
| 16>    C       -1.63639        -0.45151         2.49938
| 17>    F       -2.03905         0.79916         2.75900
| 18>    C       -2.22378        -1.51483         3.18237
| 19>    F       -3.18521        -1.27482         4.08485
| 20>    C       -1.82291        -2.81950         2.93897
| 21>    C       -0.83347        -3.01995         1.99864
| 22>    C       -0.23591        -1.95443         1.30596
| 23>    C        0.76755        -2.49932         0.38990
| 24>    C        1.49932        -1.77373        -0.51852
| 25>    C        1.43775        -0.37178        -0.64279
| 26>    N        1.43601         0.76785        -0.78347
| 27>    C        2.38379        -2.33593        -1.46125
| 28>    N        3.10050        -2.72607        -2.26980
| 29>    C        0.78279        -3.92899         0.55655
| 30>    C       -0.22158        -4.30089         1.56726
| 31>    O       -0.45180        -5.39769         2.03605
| 32>    C        1.74514        -4.78772         0.05839
| 33>    C        1.69006        -6.17952         0.03236
| 34>    C        0.59926        -7.07625        -0.03989
| 35>    C        0.99815        -8.43848         0.04515
| 36>    C        0.02708        -9.45167         0.00617
| 37>    C       -1.29037        -9.11266        -0.15581
| 38>    C       -1.67207        -7.77353        -0.32413
| 39>    C       -0.74759        -6.76302        -0.27756
| 40>    C        2.40176        -8.60081         0.14014
| 41>    S        3.19356        -7.06503         0.06704
| 42>    C        3.11018        -9.80359         0.28578
| 43>    C        4.47060        -9.88579         0.37048
| 44>    C        5.20934       -11.07188         0.54031
| 45>    N        6.58835       -11.03791         0.63324
| 46>    C        7.04495       -12.30310         0.80800
| 47>    C        8.18689       -13.06806         0.98296
| 48>    C        7.75020       -14.40023         1.10294
| 49>    N        6.37218       -14.43596         1.00152
| 50>    C        5.91475       -13.17093         0.82217
| 51>    C        4.77251       -12.40473         0.65562
| 52>    C        8.49139       -15.58113         1.30117
| 53>    C        9.85060       -15.64642         1.41627
| 54>    C       10.57484       -16.83065         1.61666
| 55>    C       11.97924       -16.96245         1.73184
| 56>    C       12.39384       -18.30778         1.92963
| 57>    C       13.76053       -18.60247         2.05016
| 58>    C       14.67697       -17.58656         1.97757
| 59>    C       14.26810       -16.25813         1.78576
| 60>    C       12.94103       -15.94157         1.66385
| 61>    C       11.31143       -19.21863         1.96516
| 62>    S        9.80523       -18.37695         1.75065
| 63>    C       11.37700       -20.60375         2.09062
| 64>    C       10.29535       -21.45210         2.10685
| 65>    C       10.35857       -22.84430         2.22243
| 66>    C       11.41879       -23.71166         2.06172
| 67>    C       11.33662       -25.04278         2.70407
| 68>    O       10.36489       -25.54983         3.21909
| 69>    C       12.70783       -25.60182         2.62543
| 70>    C       13.52103       -24.72542         1.88756
| 71>    C       14.86284       -25.01289         1.70405
| 72>    C       15.35991       -26.18066         2.26558
| 73>    C       14.54362       -27.05187         2.98477
| 74>    C       13.19943       -26.76905         3.17315
| 75>    F       15.06451       -28.17184         3.50391
| 76>    F       16.65845       -26.47012         2.11348
| 77>    C       12.69794       -23.60718         1.41376
| 78>    C       13.04061       -22.78714         0.36324
| 79>    C       12.14942       -21.89477        -0.26129
| 80>    N       11.45982       -21.16957        -0.82476
| 81>    C       14.30517       -22.78135        -0.25497
| 82>    N       15.32762       -22.70475        -0.77261
| 83>    H       -0.21145         0.20172         1.05806
| 84>    H       -2.27267        -3.64451         3.46791
| 85>    H        2.67673        -4.34997        -0.28177
| 86>    H        0.32080       -10.48663         0.08829
| 87>    H       -2.04546        -9.88369        -0.18349
| 88>    H       -2.71148        -7.54136        -0.49971
| 89>    H       -1.04137        -5.73999        -0.44628
| 90>    H        2.52314       -10.70784         0.34185
| 91>    H        5.04127        -8.96670         0.31092
| 92>    H        7.14012       -10.19889         0.58126
| 93>    H        9.20379       -12.73567         1.02230
| 94>    H        5.82099       -15.27542         1.05211
| 95>    H        3.75484       -12.73524         0.61918
| 96>    H        7.92680       -16.50326         1.36602
| 97>    H       10.42613       -14.73536         1.34930
| 98>    H       14.08560       -19.62101         2.19530
| 99>    H       15.72998       -17.80599         2.06579
|100>    H       15.01461       -15.48053         1.73140
|101>    H       12.63429       -14.91836         1.51272
|102>    H       12.36595       -21.02058         2.22402
|103>    H        9.30812       -21.00800         2.09675
|104>    H        9.45261       -23.33585         2.56475
|105>    H       15.53395       -24.37104         1.15706
|106>    H       12.56637       -27.44156         3.72949
|107> *
|108>
|109>                          ****END OF INPUT****

CARTESIAN COORDINATES (ANGSTROEM)
---------------------------------
  C     -0.638690   -0.653230    1.555890
  C     -1.636390   -0.451510    2.499380
  F     -2.039050    0.799160    2.759000
  C     -2.223780   -1.514830    3.182370
  F     -3.185210   -1.274820    4.084850
  C     -1.822910   -2.819500    2.938970
  C     -0.833470   -3.019950    1.998640
  C     -0.235910   -1.954430    1.305960
  C      0.767550   -2.499320    0.389900
  C      1.499320   -1.773730   -0.518520
  C      1.437750   -0.371780   -0.642790
  N      1.436010    0.767850   -0.783470
  C      2.383790   -2.335930   -1.461250
  N      3.100500   -2.726070   -2.269800
  C      0.782790   -3.928990    0.556550
  C     -0.221580   -4.300890    1.567260
  O     -0.451800   -5.397690    2.036050
  C      1.745140   -4.787720    0.058390
  C      1.690060   -6.179520    0.032360
  C      0.599260   -7.076250   -0.039890
  C      0.998150   -8.438480    0.045150
  C      0.027080   -9.451670    0.006170
  C     -1.290370   -9.112660   -0.155810
  C     -1.672070   -7.773530   -0.324130
  C     -0.747590   -6.763020   -0.277560
  C      2.401760   -8.600810    0.140140
  S      3.193560   -7.065030    0.067040
  C      3.110180   -9.803590    0.285780
  C      4.470600   -9.885790    0.370480
  C      5.209340  -11.071880    0.540310
  N      6.588350  -11.037910    0.633240
  C      7.044950  -12.303100    0.808000
  C      8.186890  -13.068060    0.982960
  C      7.750200  -14.400230    1.102940
  N      6.372180  -14.435960    1.001520
  C      5.914750  -13.170930    0.822170
  C      4.772510  -12.404730    0.655620
  C      8.491390  -15.581130    1.301170
  C      9.850600  -15.646420    1.416270
  C     10.574840  -16.830650    1.616660
  C     11.979240  -16.962450    1.731840
  C     12.393840  -18.307780    1.929630
  C     13.760530  -18.602470    2.050160
  C     14.676970  -17.586560    1.977570
  C     14.268100  -16.258130    1.785760
  C     12.941030  -15.941570    1.663850
  C     11.311430  -19.218630    1.965160
  S      9.805230  -18.376950    1.750650
  C     11.377000  -20.603750    2.090620
  C     10.295350  -21.452100    2.106850
  C     10.358570  -22.844300    2.222430
  C     11.418790  -23.711660    2.061720
  C     11.336620  -25.042780    2.704070
  O     10.364890  -25.549830    3.219090
  C     12.707830  -25.601820    2.625430
  C     13.521030  -24.725420    1.887560
  C     14.862840  -25.012890    1.704050
  C     15.359910  -26.180660    2.265580
  C     14.543620  -27.051870    2.984770
  C     13.199430  -26.769050    3.173150
  F     15.064510  -28.171840    3.503910
  F     16.658450  -26.470120    2.113480
  C     12.697940  -23.607180    1.413760
  C     13.040610  -22.787140    0.363240
  C     12.149420  -21.894770   -0.261290
  N     11.459820  -21.169570   -0.824760
  C     14.305170  -22.781350   -0.254970
  N     15.327620  -22.704750   -0.772610
  H     -0.211450    0.201720    1.058060
  H     -2.272670   -3.644510    3.467910
  H      2.676730   -4.349970   -0.281770
  H      0.320800  -10.486630    0.088290
  H     -2.045460   -9.883690   -0.183490
  H     -2.711480   -7.541360   -0.499710
  H     -1.041370   -5.739990   -0.446280
  H      2.523140  -10.707840    0.341850
  H      5.041270   -8.966700    0.310920
  H      7.140120  -10.198890    0.581260
  H      9.203790  -12.735670    1.022300
  H      5.820990  -15.275420    1.052110
  H      3.754840  -12.735240    0.619180
  H      7.926800  -16.503260    1.366020
  H     10.426130  -14.735360    1.349300
  H     14.085600  -19.621010    2.195300
  H     15.729980  -17.805990    2.065790
  H     15.014610  -15.480530    1.731400
  H     12.634290  -14.918360    1.512720
  H     12.365950  -21.020580    2.224020
  H      9.308120  -21.008000    2.096750
  H      9.452610  -23.335850    2.564750
  H     15.533950  -24.371040    1.157060
  H     12.566370  -27.441560    3.729490

 Total Charge           Charge          ....    0
 Multiplicity           Mult            ....    1
 Number of Electrons    NEL             ....  474
 Basis Dimension        Dim             .... 1080

ORBITAL ENERGIES
----------------

  NO   OCC          E(Eh)            E(eV)
   0   2.0000     -88.980689     -2421.2876
   1   2.0000     -88.979242     -2421.2483
   2   2.0000     -24.795310      -674.7147
   3   2.0000     -24.794818      -674.7013
   4   2.0000     -24.794634      -674.6963
   5   2.0000     -24.792549      -674.6396
   6   2.0000     -19.208185      -522.6813
   7   2.0000     -19.207442      -522.6611
   8   2.0000     -14.483388      -394.1130
   9   2.0000     -14.483215      -394.1083
  10   2.0000     -14.410423      -392.1275
  11   2.0000     -14.410047      -392.1173
  12   2.0000     -14.407778      -392.0556
  13   2.0000     -14.407011      -392.0347
  14   2.0000     -10.379786      -282.4483
  15   2.0000     -10.379178      -282.4318
  16   2.0000     -10.378203      -282.4053
  17   2.0000     -10.377360      -282.3823
  18   2.0000     -10.359812      -281.9048
  19   2.0000     -10.359085      -281.8850
  20   2.0000     -10.337706      -281.3033
  21   2.0000     -10.337211      -281.2898
  22   2.0000     -10.334569      -281.2179
  23   2.0000     -10.334379      -281.2128
  24   2.0000     -10.334319      -281.2111
  25   2.0000     -10.333634      -281.1925
  26   2.0000     -10.333563      -281.1905
  27   2.0000     -10.332695      -281.1669
  28   2.0000     -10.322550      -280.8909
  29   2.0000     -10.321954      -280.8746
  30   2.0000     -10.315867      -280.7090
  31   2.0000     -10.314933      -280.6836
  32   2.0000     -10.314827      -280.6807
  33   2.0000     -10.313886      -280.6551
  34   2.0000     -10.313505      -280.6447
  35   2.0000     -10.312304      -280.6121
  36   2.0000     -10.312038      -280.6048
  37   2.0000     -10.311526      -280.5909
  38   2.0000     -10.311383      -280.5870
  39   2.0000     -10.310484      -280.5625
  40   2.0000     -10.309759      -280.5428
  41   2.0000     -10.307526      -280.4820
  42   2.0000     -10.307011      -280.4680
  43   2.0000     -10.304985      -280.4129
  44   2.0000     -10.304040      -280.3872
  45   2.0000     -10.302573      -280.3473
  46   2.0000     -10.302569      -280.3472
  47   2.0000     -10.302336      -280.3408
  48   2.0000     -10.300718      -280.2968
  49   2.0000     -10.300356      -280.2869
  50   2.0000     -10.299413      -280.2613
  51   2.0000     -10.297910      -280.2204
  52   2.0000     -10.296504      -280.1821
  53   2.0000     -10.294842      -280.1369
  54   2.0000     -10.293412      -280.0980
  55   2.0000     -10.293258      -280.0938
  56   2.0000     -10.292343      -280.0689
  57   2.0000     -10.290849      -280.0282
  58   2.0000     -10.289639      -279.9953
  59   2.0000     -10.289154      -279.9821
  60   2.0000     -10.289065      -279.9797
  61   2.0000     -10.286808      -279.9183
  62   2.0000     -10.285979      -279.8957
  63   2.0000     -10.284515      -279.8559
  64   2.0000     -10.284295      -279.8499
  65   2.0000     -10.283583      -279.8305
  66   2.0000     -10.282724      -279.8071
  67   2.0000     -10.281914      -279.7851
  68   2.0000      -8.075832      -219.7546
  69   2.0000      -8.074761      -219.7254
  70   2.0000      -6.044770      -164.4865
  71   2.0000      -6.043742      -164.4586
  72   2.0000      -6.040855      -164.3800
  73   2.0000      -6.039805      -164.3514
  74   2.0000      -6.038493      -164.3157
  75   2.0000      -6.037291      -164.2830
  76   2.0000      -1.318326       -35.8735
  77   2.0000      -1.316745       -35.8305
  78   2.0000      -1.303186       -35.4615
  79   2.0000      -1.301546       -35.4169
  80   2.0000      -1.123294       -30.5664
  81   2.0000      -1.122407       -30.5423
  82   2.0000      -1.116237       -30.3744
  83   2.0000      -1.079608       -29.3776
  84   2.0000      -1.015834       -27.6423
  85   2.0000      -1.013734       -27.5851
  86   2.0000      -1.013496       -27.5786
  87   2.0000      -1.010624       -27.5005
  88   2.0000      -0.996356       -27.1122
  89   2.0000      -0.994348       -27.0576
  90   2.0000      -0.989164       -26.9165
  91   2.0000      -0.986351       -26.8400
  92   2.0000      -0.952263       -25.9124
  93   2.0000      -0.950467       -25.8635
  94   2.0000      -0.948301       -25.8046
  95   2.0000      -0.944861       -25.7110
  96   2.0000      -0.935256       -25.4496
  97   2.0000      -0.928475       -25.2651
  98   2.0000      -0.912516       -24.8308
  99   2.0000      -0.901595       -24.5336
 100   2.0000      -0.896362       -24.3913
 101   2.0000      -0.891959       -24.2714
 102   2.0000      -0.890514       -24.2321
 103   2.0000      -0.882730       -24.0203
 104   2.0000      -0.870333       -23.6830
 105   2.0000      -0.868291       -23.6274
 106   2.0000      -0.866554       -23.5801
 107   2.0000      -0.854222       -23.2446
 108   2.0000      -0.848892       -23.0995
 109   2.0000      -0.843388       -22.9498
 110   2.0000      -0.841405       -22.8958
 111   2.0000      -0.830479       -22.5985
 112   2.0000      -0.814852       -22.1733
 113   2.0000      -0.801893       -21.8206
 114   2.0000      -0.792161       -21.5558
 115   2.0000      -0.768446       -20.9105
 116   2.0000      -0.763948       -20.7881
 117   2.0000      -0.761565       -20.7232
 118   2.0000      -0.752210       -20.4687
 119   2.0000      -0.735946       -20.0261
 120   2.0000      -0.725791       -19.7498
 121   2.0000      -0.721714       -19.6388
 122   2.0000      -0.719539       -19.5797
 123   2.0000      -0.717187       -19.5157
 124   2.0000      -0.711923       -19.3724
 125   2.0000      -0.705977       -19.2106
 126   2.0000      -0.699617       -19.0376
 127   2.0000      -0.698404       -19.0046
 128   2.0000      -0.686875       -18.6908
 129   2.0000      -0.685018       -18.6403
 130   2.0000      -0.679205       -18.4821
 131   2.0000      -0.678426       -18.4609
 132   2.0000      -0.665962       -18.1218
 133   2.0000      -0.662923       -18.0391
 134   2.0000      -0.654084       -17.7985
 135   2.0000      -0.650839       -17.7102
 136   2.0000      -0.644292       -17.5321
 137   2.0000      -0.641785       -17.4638
 138   2.0000      -0.635259       -17.2863
 139   2.0000      -0.633634       -17.2421
 140   2.0000      -0.632941       -17.2232
 141   2.0000      -0.623353       -16.9623
 142   2.0000      -0.612430       -16.6651
 143   2.0000      -0.607866       -16.5409
 144   2.0000      -0.605443       -16.4749
 145   2.0000      -0.596532       -16.2325
 146   2.0000      -0.593890       -16.1606
 147   2.0000      -0.589980       -16.0542
 148   2.0000      -0.585598       -15.9349
 149   2.0000      -0.583463       -15.8768
 150   2.0000      -0.582112       -15.8401
 151   2.0000      -0.581842       -15.8327
 152   2.0000      -0.575814       -15.6687
 153   2.0000      -0.566660       -15.4196
 154   2.0000      -0.565666       -15.3926
 155   2.0000      -0.560845       -15.2614
 156   2.0000      -0.560228       -15.2446
 157   2.0000      -0.558143       -15.1879
 158   2.0000      -0.553557       -15.0631
 159   2.0000      -0.550727       -14.9860
 160   2.0000      -0.546636       -14.8747
 161   2.0000      -0.545711       -14.8496
 162   2.0000      -0.544503       -14.8167
 163   2.0000      -0.543792       -14.7973
 164   2.0000      -0.542152       -14.7527
 165   2.0000      -0.536367       -14.5953
 166   2.0000      -0.535341       -14.5674
 167   2.0000      -0.533862       -14.5271
 168   2.0000      -0.530058       -14.4236
 169   2.0000      -0.527423       -14.3519
 170   2.0000      -0.524612       -14.2754
 171   2.0000      -0.521675       -14.1955
 172   2.0000      -0.519723       -14.1424
 173   2.0000      -0.519241       -14.1293
 174   2.0000      -0.517979       -14.0949
 175   2.0000      -0.516009       -14.0413
 176   2.0000      -0.512434       -13.9440
 177   2.0000      -0.507844       -13.8191
 178   2.0000      -0.505195       -13.7471
 179   2.0000      -0.503017       -13.6878
 180   2.0000      -0.498870       -13.5750
 181   2.0000      -0.496224       -13.5029
 182   2.0000      -0.492448       -13.4002
 183   2.0000      -0.491728       -13.3806
 184   2.0000      -0.488922       -13.3042
 185   2.0000      -0.487281       -13.2596
 186   2.0000      -0.486655       -13.2426
 187   2.0000      -0.484054       -13.1718
 188   2.0000      -0.480379       -13.0718
 189   2.0000      -0.476028       -12.9534
 190   2.0000      -0.469051       -12.7635
 191   2.0000      -0.467347       -12.7172
 192   2.0000      -0.463069       -12.6008
 193   2.0000      -0.455209       -12.3869
 194   2.0000      -0.450951       -12.2710
 195   2.0000      -0.450097       -12.2478
 196   2.0000      -0.448729       -12.2105
 197   2.0000      -0.448370       -12.2008
 198   2.0000      -0.446023       -12.1369
 199   2.0000      -0.445955       -12.1350
 200   2.0000      -0.444989       -12.1088
 201   2.0000      -0.443454       -12.0670
 202   2.0000      -0.441760       -12.0209
 203   2.0000      -0.440587       -11.9890
 204   2.0000      -0.439037       -11.9468
 205   2.0000      -0.436557       -11.8793
 206   2.0000      -0.435931       -11.8623
 207   2.0000      -0.435430       -11.8486
 208   2.0000      -0.425495       -11.5783
 209   2.0000      -0.424910       -11.5624
 210   2.0000      -0.422914       -11.5081
 211   2.0000      -0.422327       -11.4921
 212   2.0000      -0.418950       -11.4002
 213   2.0000      -0.417959       -11.3733
 214   2.0000      -0.417287       -11.3550
 215   2.0000      -0.411008       -11.1841
 216   2.0000      -0.404716       -11.0129
 217   2.0000      -0.402891       -10.9632
 218   2.0000      -0.398058       -10.8317
 219   2.0000      -0.388408       -10.5691
 220   2.0000      -0.375395       -10.2150
 221   2.0000      -0.366661        -9.9774
 222   2.0000      -0.345032        -9.3888
 223   2.0000      -0.343851        -9.3566
 224   2.0000      -0.343459        -9.3460
 225   2.0000      -0.336824        -9.1654
 226   2.0000      -0.333088        -9.0638
 227   2.0000      -0.332766        -9.0550
 228   2.0000      -0.329797        -8.9742
 229   2.0000      -0.320103        -8.7104
 230   2.0000      -0.319411        -8.6916
 231   2.0000      -0.316016        -8.5992
 232   2.0000      -0.306934        -8.3521
 233   2.0000      -0.303982        -8.2718
 234   2.0000      -0.283945        -7.7265
 235   2.0000      -0.252045        -6.8585
 236   2.0000      -0.223071        -6.0701
 237   0.0000      -0.117162        -3.1881
 238   0.0000      -0.094583        -2.5737
 239   0.0000      -0.066305        -1.8043
 240   0.0000      -0.062136        -1.6908
 241   0.0000      -0.043940        -1.1957

MULLIKEN ATOMIC CHARGES
-----------------------
   0 C :   -0.092142
   1 C :    0.232413
   2 F :   -0.169532
   3 C :    0.231019
   4 F :   -0.174164
   5 C :   -0.107057
   6 C :   -0.013513
   7 C :    0.049111
   8 C :    0.292056
   9 C :   -0.346741
  10 C :   -0.191983
  11 N :    0.149269
  12 C :   -0.208150
  13 N :    0.150857
  14 C :   -0.133546
  15 C :    0.118812
  16 O :   -0.148787
  17 C :    0.018637
  18 C :   -0.132087
  19 C :    0.149605
  20 C :    0.087065
  21 C :   -0.035261
  22 C :    0.030112
  23 C :    0.024449
  24 C :    0.015963
  25 C :   -0.051108
  26 S :    0.150611
  27 C :   -0.024088
  28 C :    0.014028
  29 C :    0.105350
  30 N :   -0.034451
  31 C :    0.126047
  32 C :   -0.163360
  33 C :    0.108704
  34 N :   -0.035273
  35 C :    0.124105
  36 C :   -0.159022
  37 C :    0.010256
  38 C :   -0.027493
  39 C :   -0.050974
  40 C :    0.097639
  41 C :    0.133018
  42 C :   -0.034531
  43 C :    0.035418
  44 C :    0.025094
  45 C :   -0.026972
  46 C :   -0.091647
  47 S :    0.143242
  48 C :    0.032841
  49 C :   -0.010704
  50 C :    0.050357
  51 C :   -0.147310
  52 C :    0.131331
  53 O :   -0.148256
  54 C :    0.015389
  55 C :    0.020316
  56 C :   -0.095809
  57 C :    0.235513
  58 C :    0.232358
  59 C :   -0.109529
  60 F :   -0.173379
  61 F :   -0.169673
  62 C :    0.270059
  63 C :   -0.362622
  64 C :   -0.206553
  65 N :    0.166095
  66 C :   -0.178738
  67 N :    0.146293
  68 H :    0.013124
  69 H :    0.005689
  70 H :    0.022565
  71 H :   -0.028090
  72 H :   -0.009636
  73 H :   -0.006647
  74 H :   -0.016013
  75 H :   -0.010208
  76 H :   -0.011577
  77 H :    0.127481
  78 H :   -0.027053
  79 H :    0.126979
  80 H :   -0.026095
  81 H :   -0.013816
  82 H :   -0.011376
  83 H :   -0.019343
  84 H :   -0.001757
  85 H :   -0.006828
  86 H :   -0.026106
  87 H :    0.013425
  88 H :   -0.007832
  89 H :    0.021030
  90 H :    0.013454
  91 H :    0.009656
Sum of atomic charges:    0.0000000

LOEWDIN ATOMIC CHARGES
----------------------
   0 C :   -0.020016
   1 C :    0.068852
   2 F :   -0.047969
   3 C :    0.067428
   4 F :   -0.050284
   5 C :   -0.011442
   6 C :   -0.042602
   7 C :   -0.016225
   8 C :    0.073508
   9 C :   -0.150779
  10 C :   -0.021418
  11 N :   -0.058863
  12 C :   -0.024626
  13 N :   -0.060731
  14 C :   -0.126481
  15 C :    0.069714
  16 O :   -0.145756
  17 C :    0.036403
  18 C :   -0.185183
  19 C :   -0.006860
  20 C :   -0.048763
  21 C :   -0.012245
  22 C :   -0.021558
  23 C :   -0.004319
  24 C :    0.003992
  25 C :   -0.125643
  26 S :    0.475866
  27 C :   -0.053098
  28 C :   -0.009444
  29 C :    0.000726
  30 N :    0.073353
  31 C :   -0.006933
  32 C :   -0.083378
  33 C :    0.006090
  34 N :    0.072394
  35 C :   -0.009495
  36 C :   -0.078158
  37 C :   -0.018737
  38 C :   -0.046502
  39 C :   -0.135515
  40 C :   -0.048342
  41 C :   -0.017107
  42 C :   -0.014236
  43 C :   -0.005476
  44 C :   -0.022628
  45 C :   -0.008787
  46 C :   -0.182205
  47 S :    0.480241
  48 C :    0.029876
  49 C :   -0.069899
  50 C :    0.065087
  51 C :   -0.119457
  52 C :    0.080020
  53 O :   -0.149954
  54 C :   -0.045719
  55 C :   -0.013064
  56 C :   -0.024332
  57 C :    0.071110
  58 C :    0.066718
  59 C :   -0.007826
  60 F :   -0.049618
  61 F :   -0.047575
  62 C :    0.063443
  63 C :   -0.159284
  64 C :   -0.017587
  65 N :   -0.049249
  66 C :   -0.024494
  67 N :   -0.062000
  68 H :    0.050415
  69 H :    0.049422
  70 H :    0.042143
  71 H :    0.026884
  72 H :    0.031127
  73 H :    0.032975
  74 H :    0.031582
  75 H :    0.033796
  76 H :    0.025525
  77 H :    0.093174
  78 H :    0.026611
  79 H :    0.092898
  80 H :    0.027163
  81 H :    0.024768
  82 H :    0.033867
  83 H :    0.030638
  84 H :    0.034765
  85 H :    0.032169
  86 H :    0.027860
  87 H :    0.039149
  88 H :    0.024028
  89 H :    0.045526
  90 H :    0.049597
  91 H :    0.050957

  Mayer bond orders larger than 0.100000
B(  0-C ,  1-C ) :   1.3262 B(  0-C ,  5-C ) :   0.1043 B(  0-C ,  7-C ) :   1.3196
B(  0-C , 68-H ) :   0.9931 B(  1-C ,  2-F ) :   1.1404 B(  1-C ,  3-C ) :   1.3007
B(  3-C ,  4-F ) :   1.1256 B(  3-C ,  5-C ) :   1.3066 B(  5-C ,  6-C ) :   1.3327
B(  5-C , 69-H ) :   1.0202 B(  6-C ,  7-C ) :   1.3424 B(  6-C , 15-C ) :   0.9377
B(  7-C ,  8-C ) :   0.9995 B(  8-C ,  9-C ) :   1.6161 B(  8-C , 14-C ) :   1.1174
B(  9-C , 10-C ) :   1.1409 B(  9-C , 12-C ) :   1.1449 B( 10-C , 11-N ) :   2.9772
B( 12-C , 13-N ) :   2.9944 B( 14-C , 15-C ) :   0.9841 B( 14-C , 17-C ) :   1.4593
B( 15-C , 16-O ) :   2.2117 B( 17-C , 18-C ) :   1.3204 B( 17-C , 70-H ) :   0.9312
B( 18-C , 19-C ) :   1.2544 B( 18-C , 26-S ) :   1.0812 B( 19-C , 20-C ) :   1.2551
B( 19-C , 24-C ) :   1.2571 B( 20-C , 21-C ) :   1.2335 B( 20-C , 25-C ) :   1.2383
B( 21-C , 22-C ) :   1.5212 B( 21-C , 71-H ) :   0.9912 B( 22-C , 23-C ) :   1.2463
B( 22-C , 72-H ) :   0.9858 B( 23-C , 24-C ) :   1.5109 B( 23-C , 73-H ) :   0.9869
B( 24-C , 74-H ) :   0.9830 B( 25-C , 26-S ) :   1.1832 B( 25-C , 27-C ) :   1.2312
B( 27-C , 28-C ) :   1.5702 B( 27-C , 75-H ) :   0.9735 B( 28-C , 29-C ) :   1.1646
B( 28-C , 76-H ) :   0.9635 B( 29-C , 30-N ) :   1.1621 B( 29-C , 36-C ) :   1.3603
B( 30-N , 31-C ) :   1.1751 B( 30-N , 77-H ) :   0.9356 B( 31-C , 32-C ) :   1.2867
B( 31-C , 35-C ) :   1.2738 B( 32-C , 33-C ) :   1.3657 B( 32-C , 78-H ) :   1.0317
B( 33-C , 34-N ) :   1.1666 B( 33-C , 37-C ) :   1.1579 B( 34-N , 35-C ) :   1.1693
B( 34-N , 79-H ) :   0.9358 B( 35-C , 36-C ) :   1.2928 B( 36-C , 80-H ) :   1.0317
B( 37-C , 38-C ) :   1.5736 B( 37-C , 81-H ) :   0.9641 B( 38-C , 39-C ) :   1.2344
B( 38-C , 82-H ) :   0.9727 B( 39-C , 40-C ) :   1.2550 B( 39-C , 47-S ) :   1.1669
B( 40-C , 41-C ) :   1.2393 B( 40-C , 45-C ) :   1.2333 B( 41-C , 42-C ) :   1.2456
B( 41-C , 46-C ) :   1.2466 B( 42-C , 43-C ) :   1.5201 B( 42-C , 83-H ) :   0.9918
B( 43-C , 44-C ) :   1.2415 B( 43-C , 84-H ) :   0.9857 B( 44-C , 45-C ) :   1.5277
B( 44-C , 85-H ) :   0.9853 B( 45-C , 86-H ) :   0.9913 B( 46-C , 47-S ) :   1.0880
B( 46-C , 48-C ) :   1.3454 B( 48-C , 49-C ) :   1.4584 B( 48-C , 87-H ) :   0.9517
B( 49-C , 50-C ) :   1.2897 B( 49-C , 88-H ) :   0.9623 B( 50-C , 51-C ) :   1.5123
B( 50-C , 89-H ) :   0.9341 B( 51-C , 52-C ) :   0.9741 B( 51-C , 62-C ) :   1.0953
B( 52-C , 53-O ) :   2.2568 B( 52-C , 54-C ) :   0.9238 B( 54-C , 55-C ) :   1.3471
B( 54-C , 59-C ) :   1.3259 B( 55-C , 56-C ) :   1.3248 B( 55-C , 62-C ) :   1.0082
B( 56-C , 57-C ) :   1.3281 B( 56-C , 59-C ) :   0.1053 B( 56-C , 90-H ) :   0.9947
B( 57-C , 58-C ) :   1.2991 B( 57-C , 61-F ) :   1.1379 B( 58-C , 59-C ) :   1.3121
B( 58-C , 60-F ) :   1.1264 B( 59-C , 91-H ) :   1.0208 B( 62-C , 63-C ) :   1.5951
B( 63-C , 64-C ) :   1.1805 B( 63-C , 66-C ) :   1.1293 B( 64-C , 65-N ) :   2.9890
B( 66-C , 67-N ) :   2.9857

-----------------------------------------------------------------------------
         ABSORPTION SPECTRUM VIA TRANSITION ELECTRIC DIPOLE MOMENTS
-----------------------------------------------------------------------------
State   Energy  Wavelength   fosc         T2         TX        TY        TZ
        (cm-1)    (nm)                  (au**2)     (au)      (au)      (au)
-----------------------------------------------------------------------------
   0    9825.8   1017.7   2.368880793  79.36929   4.48221  -7.68737   0.42823
   1   14855.9    673.1   0.117101550   2.59501   1.08023  -1.16654   0.25940
   2   18027.7    554.7   0.003573752   0.06526  -0.19479   0.14989  -0.06964
   3   20223.2    494.5   0.092622949   1.50781  -0.94215  -0.08195  -0.78323
   4   21639.9    462.1   0.087833693   1.33623  -0.87269  -0.59060   0.47523
   5   22351.2    447.4   0.151334628   2.22901   1.14590   0.81755   0.49755
   6   24467.2    408.7   0.043700861   0.58801  -0.50439  -0.57201  -0.07999
   7   25432.0    393.2   0.024734404   0.32018   0.50357   0.00095  -0.25806
   8   25868.8    386.6   0.065521361   0.83384  -0.61955  -0.60451  -0.29080
   9   26727.5    374.1   0.067309082   0.82907  -0.04494  -0.59167   0.69064
  10   28063.1    356.3   0.047602726   0.55843   0.51580   0.30900   0.44375
  11   28491.8    351.0   0.100948355   1.16642   1.01573   0.08485  -0.35708
  12   28558.8    350.2   0.075152278   0.86632  -0.74602  -0.39756  -0.38952
  13   28989.2    345.0   0.044969537   0.51069  -0.66664   0.11582   0.22992
  14   29781.3    335.8   0.044389212   0.49069  -0.06483  -0.63458   0.28949
  15   29954.1    333.8   0.060639604   0.66646  -0.42946   0.63741  -0.27519
  16   30113.2    332.1   0.009830291   0.10747  -0.22080  -0.04119   0.23879
  17   30471.6    328.2   0.006959798   0.07519  -0.16385  -0.21813   0.02772
  18   31067.2    321.9   0.029921750   0.31707  -0.54537   0.12136   0.07012
  19   31181.6    320.7   0.044224450   0.46692   0.20736   0.64830   0.06017
  20   31865.3    313.8   0.112653295   1.16386   1.06552   0.15940   0.05580
  21   31993.9    312.6   0.206293929   2.12273   1.35780  -0.50656   0.14999
  22   32245.4    310.1   0.062269861   0.63575  -0.12673   0.67307  -0.40825
  23   32955.3    303.4   0.028350825   0.28322  -0.17984   0.38619   0.31895
  24   33474.1    298.7   0.090537086   0.89042  -0.47514   0.73026   0.36246
  25   33831.0    295.6   0.056148536   0.54638   0.51709  -0.52813   0.00898
  26   34498.6    289.9   0.033272936   0.31752  -0.37906  -0.13987   0.39277
  27   35177.4    284.3   0.050018445   0.46810   0.16717   0.54258  -0.38179
  28   35469.3    281.9   0.043400611   0.40283  -0.06290   0.56726  -0.27765
  29   35762.3    279.6   0.054060450   0.49766   0.41492   0.53131  -0.20788
  30   35870.4    278.8   0.037463237   0.34383  -0.06562   0.38608  -0.43643
  31   36069.1    277.2   0.358633541   3.27334   1.08237   0.34425  -1.40830
  32   36485.7    274.1   0.397119372   3.58323  -0.75455  -1.51639   0.84525
  33   36735.1    272.2   0.002215676   0.01986   0.06994   0.10367   0.06494
  34   36900.2    271.0   0.137596325   1.22759   0.80499  -0.19916  -0.73479
  35   37087.7    269.6   0.158588117   1.40772  -0.34288   0.71630  -0.88151
  36   37745.0    264.9   0.171747653   1.49798   0.17875  -0.98133   0.70924
  37   37754.9    264.9   0.019975096   0.17418   0.18247   0.06539  -0.36960
  38   38536.5    259.5   0.063710337   0.54427  -0.45710  -0.53082   0.23142
  39   38819.8    257.6   0.122469236   1.03860   0.58974   0.58696  -0.58845
  40   38909.8    257.0   0.004713011   0.03988   0.08267   0.02640   0.17985
  41   39415.1    253.7   0.001719008   0.01436  -0.06132   0.08095   0.06360
  42   39613.0    252.4   0.002664883   0.02215   0.05356   0.13883   0.00205
  43   40070.4    249.6   0.035653375   0.29292  -0.44271   0.00489   0.31129
  44   40277.7    248.3   0.023658491   0.19337  -0.14178   0.41562   0.02305

FINAL SINGLE POINT ENERGY     -3742.868797537831

DIPOLE MOMENT
-------------
                                X             Y             Z
Electronic contribution:     -3.52845       5.77950       8.74428
Nuclear contribution   :      3.07305      -6.98474      -6.94577
                        -----------------------------------------
Total Dipole Moment    :     -0.45540      -1.20524       1.79851
                        -----------------------------------------
Magnitude (a.u.)       :      2.21238
Magnitude (Debye)      :      5.62342

Rotational constants in cm-1:     0.003552     0.000161     0.000158
Rotational constants in MHz :   106.489737     4.838410     4.742487

                             ****ORCA TERMINATED NORMALLY****
TOTAL RUN TIME: 0 days 0 hours 9 minutes 9 seconds 708 msec
