                         Program Version 4.2.0 -  RELEASE  -
|  1> # ORCA input file
|  2> # SCF done       -183.939169952374          0.000485720943
|  3> ! CAM-B3LYP def2-SVP def2/J RIJCOSX Grid4 TightSCF
|  4> %maxcore 5000
|  5> %tddft
|  6>     Mode sTDDFT
|  7>     Ethresh 5.0
|  8>     maxcore 5000
|  9> end
| 10>
| 11> %pal
| 12>   nprocs 6
| 13>   end
| 14> * xyz 0 1
| 15>    C       -1.83312        -3.50864        -0.14396
| 16>    C       -2.73202        -2.46032        -0.00683
| 17>    F       -3.76495        -2.37956        -0.85323
| 18>    C       -2.58412        -1.49268         0.98626
| 19>    F       -3.47499        -0.49801         1.08191
| 20>    C       -1.52215        -1.55118         1.87509
| 21>    C       -0.63020        -2.59546         1.73975
| 22>    C       -0.76990        -3.57426         0.74206
| 23>    C        0.33246        -4.53158         0.86487
| 24>    C        0.50737        -5.64039         0.06961
| 25>    C       -0.35318        -5.99326        -0.99058
| 26>    N       -1.01339        -6.33837        -1.86413
| 27>    C        1.54157        -6.59128         0.18883
| 28>    N        2.34150        -7.41637         0.22343
| 29>    C        1.15520        -4.10817         1.97073
| 30>    C        0.58298        -2.87588         2.54453
| 31>    O        1.01445        -2.19527         3.45002
| 32>    C        2.32656        -4.72715         2.36459
| 33>    C        3.12609        -4.49709         3.47009
| 34>    C        4.36964        -5.08348         3.85747
| 35>    C        4.27886        -4.43492         5.17806
| 36>    C        4.67968        -4.13422         6.42448
| 37>    S        3.52328        -3.03573         7.14571
| 38>    C        2.50201        -3.01187         5.71891
| 39>    C        3.04172        -3.80121         4.77862
| 40>    C        5.33485        -5.89355         3.27713
| 41>    C        5.36230        -6.23203         1.94061
| 42>    C        6.32296        -7.09000         1.39200
| 43>    O        7.21428        -7.69113         2.20637
| 44>    C        8.03200        -8.46701         1.46335
| 45>    C        7.65546        -8.37326         0.09538
| 46>    C        6.56694        -7.48786         0.05516
| 47>    C        5.83192        -6.99831        -1.14776
| 48>    F        4.91738        -6.06250        -0.88094
| 49>    F        6.66733        -6.43105        -2.04763
| 50>    F        5.19055        -7.97622        -1.80841
| 51>    O        8.33906        -9.07937        -0.79933
| 52>    C        7.97882        -9.11061        -2.17123
| 53>    C        9.08141        -9.20035         2.01180
| 54>    C        9.35074        -9.26178         3.36406
| 55>    C       10.42523        -9.92767         3.92579
| 56>    C       11.59898       -10.60831         3.47987
| 57>    C       11.99911       -10.85702         4.88479
| 58>    C       12.78544       -11.29822         5.87789
| 59>    S       12.07029       -10.85691         7.41725
| 60>    C       10.70232       -10.06203         6.66667
| 61>    C       10.81714       -10.15607         5.33196
| 62>    C       12.23480       -10.84852         2.27722
| 63>    C       13.47084       -11.46234         2.21278
| 64>    C       14.17227       -11.62139         1.01978
| 65>    C       15.45648       -12.08900         0.84579
| 66>    C       15.87851       -12.54076        -0.50032
| 67>    O       15.28182       -12.38321        -1.54172
| 68>    C       17.15500       -13.26064        -0.28772
| 69>    C       17.51891       -13.16809         1.06716
| 70>    C       18.66941       -13.79344         1.51785
| 71>    C       19.43351       -14.49500         0.59584
| 72>    C       19.07150       -14.57155        -0.74864
| 73>    C       17.91943       -13.95115        -1.20635
| 74>    F       19.84182       -15.25388        -1.60472
| 75>    F       20.54340       -15.11384         1.01364
| 76>    C       16.53278       -12.33647         1.76713
| 77>    C       16.73918       -11.75773         2.99670
| 78>    C       15.94975       -10.73718         3.56456
| 79>    N       15.38734        -9.87874         4.08064
| 80>    C       17.84561       -12.04179         3.82384
| 81>    N       18.70413       -12.24660         4.55818
| 82>    H       -1.99206        -4.22756        -0.93056
| 83>    H       -1.40215        -0.80352         2.64276
| 84>    H        2.67354        -5.53190         1.73114
| 85>    H        5.53057        -4.44215         6.99881
| 86>    H        1.62267        -2.40206         5.71774
| 87>    H        6.12690        -6.25667         3.91905
| 88>    H        4.63794        -5.80773         1.26961
| 89>    H        6.95038        -9.44784        -2.30797
| 90>    H        8.65785        -9.83222        -2.62193
| 91>    H        8.12192        -8.13837        -2.64516
| 92>    H        9.68554        -9.74374         1.30329
| 93>    H        8.67441        -8.75689         4.04124
| 94>    H       13.71632       -11.82833         5.88239
| 95>    H        9.96065        -9.60879         7.29345
| 96>    H       11.78112       -10.49017         1.36312
| 97>    H       13.89610       -11.82656         3.13548
| 98>    H       13.64350       -11.41335         0.09470
| 99>    H       18.99165       -13.76686         2.54582
|100>    H       17.63628       -14.00943        -2.24514
|101> *
|102>
|103>                          ****END OF INPUT****

CARTESIAN COORDINATES (ANGSTROEM)
---------------------------------
  C     -1.833120   -3.508640   -0.143960
  C     -2.732020   -2.460320   -0.006830
  F     -3.764950   -2.379560   -0.853230
  C     -2.584120   -1.492680    0.986260
  F     -3.474990   -0.498010    1.081910
  C     -1.522150   -1.551180    1.875090
  C     -0.630200   -2.595460    1.739750
  C     -0.769900   -3.574260    0.742060
  C      0.332460   -4.531580    0.864870
  C      0.507370   -5.640390    0.069610
  C     -0.353180   -5.993260   -0.990580
  N     -1.013390   -6.338370   -1.864130
  C      1.541570   -6.591280    0.188830
  N      2.341500   -7.416370    0.223430
  C      1.155200   -4.108170    1.970730
  C      0.582980   -2.875880    2.544530
  O      1.014450   -2.195270    3.450020
  C      2.326560   -4.727150    2.364590
  C      3.126090   -4.497090    3.470090
  C      4.369640   -5.083480    3.857470
  C      4.278860   -4.434920    5.178060
  C      4.679680   -4.134220    6.424480
  S      3.523280   -3.035730    7.145710
  C      2.502010   -3.011870    5.718910
  C      3.041720   -3.801210    4.778620
  C      5.334850   -5.893550    3.277130
  C      5.362300   -6.232030    1.940610
  C      6.322960   -7.090000    1.392000
  O      7.214280   -7.691130    2.206370
  C      8.032000   -8.467010    1.463350
  C      7.655460   -8.373260    0.095380
  C      6.566940   -7.487860    0.055160
  C      5.831920   -6.998310   -1.147760
  F      4.917380   -6.062500   -0.880940
  F      6.667330   -6.431050   -2.047630
  F      5.190550   -7.976220   -1.808410
  O      8.339060   -9.079370   -0.799330
  C      7.978820   -9.110610   -2.171230
  C      9.081410   -9.200350    2.011800
  C      9.350740   -9.261780    3.364060
  C     10.425230   -9.927670    3.925790
  C     11.598980  -10.608310    3.479870
  C     11.999110  -10.857020    4.884790
  C     12.785440  -11.298220    5.877890
  S     12.070290  -10.856910    7.417250
  C     10.702320  -10.062030    6.666670
  C     10.817140  -10.156070    5.331960
  C     12.234800  -10.848520    2.277220
  C     13.470840  -11.462340    2.212780
  C     14.172270  -11.621390    1.019780
  C     15.456480  -12.089000    0.845790
  C     15.878510  -12.540760   -0.500320
  O     15.281820  -12.383210   -1.541720
  C     17.155000  -13.260640   -0.287720
  C     17.518910  -13.168090    1.067160
  C     18.669410  -13.793440    1.517850
  C     19.433510  -14.495000    0.595840
  C     19.071500  -14.571550   -0.748640
  C     17.919430  -13.951150   -1.206350
  F     19.841820  -15.253880   -1.604720
  F     20.543400  -15.113840    1.013640
  C     16.532780  -12.336470    1.767130
  C     16.739180  -11.757730    2.996700
  C     15.949750  -10.737180    3.564560
  N     15.387340   -9.878740    4.080640
  C     17.845610  -12.041790    3.823840
  N     18.704130  -12.246600    4.558180
  H     -1.992060   -4.227560   -0.930560
  H     -1.402150   -0.803520    2.642760
  H      2.673540   -5.531900    1.731140
  H      5.530570   -4.442150    6.998810
  H      1.622670   -2.402060    5.717740
  H      6.126900   -6.256670    3.919050
  H      4.637940   -5.807730    1.269610
  H      6.950380   -9.447840   -2.307970
  H      8.657850   -9.832220   -2.621930
  H      8.121920   -8.138370   -2.645160
  H      9.685540   -9.743740    1.303290
  H      8.674410   -8.756890    4.041240
  H     13.716320  -11.828330    5.882390
  H      9.960650   -9.608790    7.293450
  H     11.781120  -10.490170    1.363120
  H     13.896100  -11.826560    3.135480
  H     13.643500  -11.413350    0.094700
  H     18.991650  -13.766860    2.545820
  H     17.636280  -14.009430   -2.245140

 Total Charge           Charge          ....    0
 Multiplicity           Mult            ....    1
 Number of Electrons    NEL             ....  474
 Basis Dimension        Dim             .... 1041

ORBITAL ENERGIES
----------------

  NO   OCC          E(Eh)            E(eV)
   0   2.0000     -88.956056     -2420.6174
   1   2.0000     -88.951507     -2420.4936
   2   2.0000     -24.828465      -675.6169
   3   2.0000     -24.820676      -675.4049
   4   2.0000     -24.820190      -675.3917
   5   2.0000     -24.802304      -674.9050
   6   2.0000     -24.800722      -674.8620
   7   2.0000     -24.799072      -674.8171
   8   2.0000     -24.798280      -674.7955
   9   2.0000     -19.336846      -526.1823
  10   2.0000     -19.296624      -525.0878
  11   2.0000     -19.221537      -523.0446
  12   2.0000     -19.215722      -522.8864
  13   2.0000     -14.424229      -392.5032
  14   2.0000     -14.416887      -392.3034
  15   2.0000     -14.415071      -392.2540
  16   2.0000     -14.414509      -392.2387
  17   2.0000     -10.550858      -287.1034
  18   2.0000     -10.392761      -282.8014
  19   2.0000     -10.390710      -282.7456
  20   2.0000     -10.387042      -282.6458
  21   2.0000     -10.386550      -282.6324
  22   2.0000     -10.383897      -282.5602
  23   2.0000     -10.383261      -282.5429
  24   2.0000     -10.373252      -282.2705
  25   2.0000     -10.371952      -282.2352
  26   2.0000     -10.366381      -282.0836
  27   2.0000     -10.348798      -281.6051
  28   2.0000     -10.345899      -281.5262
  29   2.0000     -10.345187      -281.5069
  30   2.0000     -10.343329      -281.4563
  31   2.0000     -10.342155      -281.4243
  32   2.0000     -10.338610      -281.3279
  33   2.0000     -10.337905      -281.3087
  34   2.0000     -10.329387      -281.0769
  35   2.0000     -10.329003      -281.0665
  36   2.0000     -10.328277      -281.0467
  37   2.0000     -10.324559      -280.9455
  38   2.0000     -10.320307      -280.8298
  39   2.0000     -10.317972      -280.7663
  40   2.0000     -10.317620      -280.7567
  41   2.0000     -10.317569      -280.7553
  42   2.0000     -10.317266      -280.7471
  43   2.0000     -10.317118      -280.7431
  44   2.0000     -10.316809      -280.7346
  45   2.0000     -10.316726      -280.7324
  46   2.0000     -10.314732      -280.6781
  47   2.0000     -10.312755      -280.6243
  48   2.0000     -10.312017      -280.6043
  49   2.0000     -10.309806      -280.5441
  50   2.0000     -10.309616      -280.5389
  51   2.0000     -10.309029      -280.5229
  52   2.0000     -10.309011      -280.5224
  53   2.0000     -10.308882      -280.5189
  54   2.0000     -10.306687      -280.4592
  55   2.0000     -10.305738      -280.4334
  56   2.0000     -10.303192      -280.3641
  57   2.0000     -10.302811      -280.3537
  58   2.0000     -10.301958      -280.3305
  59   2.0000     -10.301842      -280.3274
  60   2.0000     -10.299713      -280.2695
  61   2.0000     -10.295419      -280.1526
  62   2.0000     -10.294010      -280.1143
  63   2.0000     -10.289177      -279.9827
  64   2.0000     -10.285338      -279.8783
  65   2.0000     -10.285154      -279.8733
  66   2.0000     -10.282385      -279.7979
  67   2.0000      -8.051935      -219.1043
  68   2.0000      -8.047353      -218.9796
  69   2.0000      -6.021758      -163.8604
  70   2.0000      -6.017268      -163.7382
  71   2.0000      -6.016974      -163.7302
  72   2.0000      -6.013543      -163.6368
  73   2.0000      -6.012486      -163.6081
  74   2.0000      -6.008777      -163.5071
  75   2.0000      -1.414730       -38.4968
  76   2.0000      -1.325144       -36.0590
  77   2.0000      -1.322376       -35.9837
  78   2.0000      -1.318354       -35.8742
  79   2.0000      -1.311031       -35.6750
  80   2.0000      -1.309952       -35.6456
  81   2.0000      -1.307201       -35.5708
  82   2.0000      -1.258576       -34.2476
  83   2.0000      -1.200003       -32.6537
  84   2.0000      -1.136658       -30.9300
  85   2.0000      -1.130553       -30.7639
  86   2.0000      -1.025284       -27.8994
  87   2.0000      -1.021424       -27.7944
  88   2.0000      -1.019855       -27.7517
  89   2.0000      -1.017641       -27.6914
  90   2.0000      -1.006852       -27.3978
  91   2.0000      -1.001200       -27.2440
  92   2.0000      -0.998232       -27.1633
  93   2.0000      -0.993412       -27.0321
  94   2.0000      -0.966483       -26.2993
  95   2.0000      -0.960282       -26.1306
  96   2.0000      -0.957205       -26.0469
  97   2.0000      -0.956523       -26.0283
  98   2.0000      -0.948263       -25.8035
  99   2.0000      -0.940322       -25.5875
 100   2.0000      -0.921692       -25.0805
 101   2.0000      -0.910870       -24.7860
 102   2.0000      -0.905292       -24.6342
 103   2.0000      -0.899225       -24.4692
 104   2.0000      -0.883358       -24.0374
 105   2.0000      -0.875751       -23.8304
 106   2.0000      -0.873870       -23.7792
 107   2.0000      -0.872398       -23.7392
 108   2.0000      -0.859055       -23.3761
 109   2.0000      -0.840962       -22.8837
 110   2.0000      -0.827486       -22.5170
 111   2.0000      -0.822022       -22.3684
 112   2.0000      -0.818235       -22.2653
 113   2.0000      -0.811014       -22.0688
 114   2.0000      -0.804283       -21.8857
 115   2.0000      -0.801205       -21.8019
 116   2.0000      -0.775724       -21.1085
 117   2.0000      -0.772606       -21.0237
 118   2.0000      -0.763157       -20.7666
 119   2.0000      -0.758615       -20.6430
 120   2.0000      -0.747348       -20.3364
 121   2.0000      -0.744050       -20.2466
 122   2.0000      -0.733501       -19.9596
 123   2.0000      -0.726179       -19.7603
 124   2.0000      -0.716797       -19.5050
 125   2.0000      -0.713902       -19.4263
 126   2.0000      -0.709016       -19.2933
 127   2.0000      -0.696148       -18.9432
 128   2.0000      -0.694995       -18.9118
 129   2.0000      -0.689828       -18.7712
 130   2.0000      -0.686893       -18.6913
 131   2.0000      -0.681327       -18.5399
 132   2.0000      -0.675557       -18.3828
 133   2.0000      -0.668060       -18.1788
 134   2.0000      -0.661982       -18.0134
 135   2.0000      -0.653715       -17.7885
 136   2.0000      -0.651746       -17.7349
 137   2.0000      -0.649369       -17.6702
 138   2.0000      -0.642454       -17.4821
 139   2.0000      -0.640252       -17.4221
 140   2.0000      -0.639214       -17.3939
 141   2.0000      -0.632083       -17.1999
 142   2.0000      -0.626889       -17.0585
 143   2.0000      -0.621696       -16.9172
 144   2.0000      -0.618183       -16.8216
 145   2.0000      -0.614054       -16.7093
 146   2.0000      -0.612719       -16.6729
 147   2.0000      -0.611782       -16.6474
 148   2.0000      -0.606708       -16.5094
 149   2.0000      -0.596549       -16.2329
 150   2.0000      -0.594508       -16.1774
 151   2.0000      -0.590232       -16.0610
 152   2.0000      -0.587271       -15.9805
 153   2.0000      -0.586967       -15.9722
 154   2.0000      -0.584306       -15.8998
 155   2.0000      -0.581254       -15.8167
 156   2.0000      -0.579027       -15.7561
 157   2.0000      -0.574240       -15.6259
 158   2.0000      -0.569451       -15.4955
 159   2.0000      -0.568566       -15.4715
 160   2.0000      -0.564578       -15.3629
 161   2.0000      -0.562469       -15.3056
 162   2.0000      -0.554225       -15.0812
 163   2.0000      -0.552897       -15.0451
 164   2.0000      -0.550087       -14.9686
 165   2.0000      -0.550073       -14.9682
 166   2.0000      -0.547385       -14.8951
 167   2.0000      -0.540765       -14.7150
 168   2.0000      -0.540422       -14.7056
 169   2.0000      -0.535164       -14.5626
 170   2.0000      -0.534692       -14.5497
 171   2.0000      -0.534571       -14.5464
 172   2.0000      -0.528903       -14.3922
 173   2.0000      -0.527397       -14.3512
 174   2.0000      -0.526130       -14.3167
 175   2.0000      -0.522099       -14.2070
 176   2.0000      -0.518099       -14.0982
 177   2.0000      -0.513939       -13.9850
 178   2.0000      -0.512740       -13.9524
 179   2.0000      -0.511298       -13.9131
 180   2.0000      -0.508724       -13.8431
 181   2.0000      -0.504856       -13.7378
 182   2.0000      -0.500354       -13.6153
 183   2.0000      -0.500000       -13.6057
 184   2.0000      -0.497331       -13.5331
 185   2.0000      -0.496952       -13.5228
 186   2.0000      -0.494757       -13.4630
 187   2.0000      -0.493530       -13.4296
 188   2.0000      -0.490995       -13.3606
 189   2.0000      -0.490320       -13.3423
 190   2.0000      -0.489427       -13.3180
 191   2.0000      -0.474351       -12.9077
 192   2.0000      -0.472502       -12.8574
 193   2.0000      -0.471607       -12.8331
 194   2.0000      -0.469025       -12.7628
 195   2.0000      -0.468002       -12.7350
 196   2.0000      -0.458967       -12.4891
 197   2.0000      -0.458187       -12.4679
 198   2.0000      -0.457474       -12.4485
 199   2.0000      -0.456044       -12.4096
 200   2.0000      -0.455347       -12.3906
 201   2.0000      -0.452043       -12.3007
 202   2.0000      -0.450466       -12.2578
 203   2.0000      -0.448000       -12.1907
 204   2.0000      -0.447187       -12.1686
 205   2.0000      -0.446301       -12.1445
 206   2.0000      -0.443415       -12.0659
 207   2.0000      -0.441860       -12.0236
 208   2.0000      -0.441248       -12.0070
 209   2.0000      -0.438786       -11.9400
 210   2.0000      -0.434762       -11.8305
 211   2.0000      -0.431906       -11.7528
 212   2.0000      -0.431438       -11.7400
 213   2.0000      -0.426423       -11.6036
 214   2.0000      -0.424284       -11.5453
 215   2.0000      -0.421206       -11.4616
 216   2.0000      -0.414293       -11.2735
 217   2.0000      -0.407494       -11.0885
 218   2.0000      -0.405803       -11.0424
 219   2.0000      -0.400468       -10.8973
 220   2.0000      -0.396581       -10.7915
 221   2.0000      -0.394804       -10.7432
 222   2.0000      -0.373454       -10.1622
 223   2.0000      -0.372933       -10.1480
 224   2.0000      -0.353491        -9.6190
 225   2.0000      -0.348540        -9.4843
 226   2.0000      -0.345359        -9.3977
 227   2.0000      -0.343695        -9.3524
 228   2.0000      -0.340069        -9.2538
 229   2.0000      -0.334560        -9.1038
 230   2.0000      -0.326727        -8.8907
 231   2.0000      -0.319463        -8.6930
 232   2.0000      -0.315398        -8.5824
 233   2.0000      -0.304641        -8.2897
 234   2.0000      -0.301628        -8.2077
 235   2.0000      -0.259380        -7.0581
 236   2.0000      -0.233566        -6.3557
 237   0.0000      -0.142701        -3.8831
 238   0.0000      -0.104609        -2.8466
 239   0.0000      -0.073727        -2.0062
 240   0.0000      -0.067176        -1.8279
 241   0.0000      -0.051964        -1.4140

MULLIKEN ATOMIC CHARGES
-----------------------
   0 C :   -0.088817
   1 C :    0.233262
   2 F :   -0.166140
   3 C :    0.234002
   4 F :   -0.170080
   5 C :   -0.104568
   6 C :   -0.013659
   7 C :    0.044747
   8 C :    0.316011
   9 C :   -0.364147
  10 C :   -0.195946
  11 N :    0.151389
  12 C :   -0.167769
  13 N :    0.136361
  14 C :   -0.098057
  15 C :    0.137183
  16 O :   -0.146252
  17 C :   -0.053141
  18 C :    0.074875
  19 C :    0.085098
  20 C :    0.147450
  21 C :   -0.196282
  22 S :    0.078741
  23 C :   -0.211402
  24 C :    0.159504
  25 C :   -0.013441
  26 C :   -0.029505
  27 C :    0.142586
  28 O :   -0.191930
  29 C :    0.120517
  30 C :    0.171557
  31 C :   -0.147604
  32 C :    0.535186
  33 F :   -0.137658
  34 F :   -0.166886
  35 F :   -0.148996
  36 O :   -0.282774
  37 C :    0.171008
  38 C :   -0.034049
  39 C :   -0.014750
  40 C :    0.088587
  41 C :    0.053373
  42 C :    0.151401
  43 C :   -0.200309
  44 S :    0.078791
  45 C :   -0.208812
  46 C :    0.155830
  47 C :   -0.010892
  48 C :    0.006576
  49 C :    0.022629
  50 C :   -0.111523
  51 C :    0.135455
  52 O :   -0.147819
  53 C :    0.004203
  54 C :    0.028938
  55 C :   -0.091076
  56 C :    0.234769
  57 C :    0.232770
  58 C :   -0.105620
  59 F :   -0.170276
  60 F :   -0.166734
  61 C :    0.289784
  62 C :   -0.344373
  63 C :   -0.224917
  64 N :    0.175765
  65 C :   -0.189834
  66 N :    0.151319
  67 H :    0.015615
  68 H :    0.009697
  69 H :   -0.027313
  70 H :    0.030661
  71 H :    0.044453
  72 H :    0.006568
  73 H :    0.030381
  74 H :    0.046486
  75 H :    0.049441
  76 H :    0.046260
  77 H :    0.013055
  78 H :   -0.000355
  79 H :    0.035399
  80 H :    0.027508
  81 H :   -0.013103
  82 H :    0.014361
  83 H :    0.011127
  84 H :    0.016359
  85 H :    0.009773
Sum of atomic charges:   -0.0000000

LOEWDIN ATOMIC CHARGES
----------------------
   0 C :   -0.019424
   1 C :    0.072682
   2 F :   -0.044356
   3 C :    0.069889
   4 F :   -0.046381
   5 C :   -0.007871
   6 C :   -0.044565
   7 C :   -0.014383
   8 C :    0.072989
   9 C :   -0.147661
  10 C :   -0.021187
  11 N :   -0.054020
  12 C :   -0.015549
  13 N :   -0.069512
  14 C :   -0.095756
  15 C :    0.082837
  16 O :   -0.137477
  17 C :    0.031997
  18 C :   -0.010387
  19 C :    0.062215
  20 C :   -0.062495
  21 C :   -0.154596
  22 S :    0.400507
  23 C :   -0.153224
  24 C :   -0.043238
  25 C :   -0.022982
  26 C :    0.010245
  27 C :    0.065705
  28 O :    0.032032
  29 C :    0.014031
  30 C :    0.053025
  31 C :   -0.137196
  32 C :    0.176751
  33 F :   -0.035314
  34 F :   -0.064666
  35 F :   -0.048459
  36 O :   -0.072949
  37 C :    0.081028
  38 C :    0.007120
  39 C :   -0.032621
  40 C :    0.042263
  41 C :   -0.007004
  42 C :   -0.043537
  43 C :   -0.161825
  44 S :    0.398798
  45 C :   -0.164316
  46 C :   -0.054013
  47 C :    0.010050
  48 C :   -0.018585
  49 C :    0.054306
  50 C :   -0.101175
  51 C :    0.079953
  52 O :   -0.147187
  53 C :   -0.046858
  54 C :   -0.011203
  55 C :   -0.022526
  56 C :    0.072851
  57 C :    0.067557
  58 C :   -0.006927
  59 F :   -0.047130
  60 F :   -0.044688
  61 C :    0.066138
  62 C :   -0.144220
  63 C :   -0.026524
  64 N :   -0.049614
  65 C :   -0.022221
  66 N :   -0.053149
  67 H :    0.051266
  68 H :    0.050802
  69 H :    0.040476
  70 H :    0.026842
  71 H :    0.028048
  72 H :    0.039857
  73 H :    0.040403
  74 H :    0.022873
  75 H :    0.035434
  76 H :    0.021897
  77 H :    0.044296
  78 H :    0.038125
  79 H :    0.026430
  80 H :    0.025611
  81 H :    0.032268
  82 H :    0.034854
  83 H :    0.042409
  84 H :    0.050822
  85 H :    0.051287

  Mayer bond orders larger than 0.100000
B(  0-C ,  1-C ) :   1.3310 B(  0-C ,  5-C ) :   0.1037 B(  0-C ,  7-C ) :   1.3204
B(  0-C , 67-H ) :   0.9915 B(  1-C ,  2-F ) :   1.1447 B(  1-C ,  3-C ) :   1.2952
B(  3-C ,  4-F ) :   1.1298 B(  3-C ,  5-C ) :   1.3123 B(  5-C ,  6-C ) :   1.3252
B(  5-C , 68-H ) :   1.0196 B(  6-C ,  7-C ) :   1.3409 B(  6-C , 15-C ) :   0.9438
B(  7-C ,  8-C ) :   0.9970 B(  8-C ,  9-C ) :   1.5891 B(  8-C , 14-C ) :   1.1166
B(  9-C , 10-C ) :   1.1486 B(  9-C , 12-C ) :   1.1603 B( 10-C , 11-N ) :   2.9718
B( 12-C , 13-N ) :   2.9390 B( 14-C , 15-C ) :   0.9538 B( 14-C , 17-C ) :   1.4807
B( 15-C , 16-O ) :   2.2175 B( 17-C , 18-C ) :   1.3012 B( 17-C , 69-H ) :   0.9106
B( 18-C , 19-C ) :   1.2993 B( 18-C , 24-C ) :   0.8786 B( 19-C , 20-C ) :   0.8972
B( 19-C , 25-C ) :   1.2361 B( 20-C , 21-C ) :   1.5912 B( 20-C , 24-C ) :   1.1210
B( 21-C , 22-S ) :   1.1299 B( 21-C , 70-H ) :   0.9792 B( 22-S , 23-C ) :   1.0813
B( 23-C , 24-C ) :   1.6680 B( 23-C , 71-H ) :   0.9666 B( 25-C , 26-C ) :   1.4839
B( 25-C , 72-H ) :   0.9713 B( 26-C , 27-C ) :   1.2596 B( 26-C , 73-H ) :   0.9493
B( 27-C , 28-O ) :   1.1689 B( 27-C , 29-C ) :   0.1044 B( 27-C , 31-C ) :   1.3203
B( 28-O , 29-C ) :   1.1271 B( 29-C , 30-C ) :   1.2756 B( 29-C , 38-C ) :   1.2719
B( 30-C , 31-C ) :   1.2993 B( 30-C , 36-O ) :   1.2704 B( 31-C , 32-C ) :   0.9348
B( 32-C , 33-F ) :   1.1477 B( 32-C , 34-F ) :   1.1467 B( 32-C , 35-F ) :   1.1669
B( 36-O , 37-C ) :   0.9021 B( 37-C , 74-H ) :   0.9656 B( 37-C , 75-H ) :   0.9766
B( 37-C , 76-H ) :   0.9666 B( 38-C , 39-C ) :   1.4493 B( 38-C , 77-H ) :   0.9657
B( 39-C , 40-C ) :   1.2583 B( 39-C , 78-H ) :   0.9708 B( 40-C , 41-C ) :   1.2943
B( 40-C , 46-C ) :   0.8931 B( 41-C , 42-C ) :   0.8909 B( 41-C , 47-C ) :   1.2565
B( 42-C , 43-C ) :   1.6493 B( 42-C , 46-C ) :   1.1419 B( 43-C , 44-S ) :   1.0913
B( 43-C , 79-H ) :   0.9708 B( 44-S , 45-C ) :   1.1180 B( 45-C , 46-C ) :   1.6091
B( 45-C , 80-H ) :   0.9783 B( 47-C , 48-C ) :   1.4765 B( 47-C , 81-H ) :   0.9739
B( 48-C , 49-C ) :   1.2147 B( 48-C , 82-H ) :   0.9739 B( 49-C , 50-C ) :   1.5027
B( 49-C , 83-H ) :   0.9552 B( 50-C , 51-C ) :   0.9608 B( 50-C , 61-C ) :   1.0841
B( 51-C , 52-O ) :   2.2549 B( 51-C , 53-C ) :   0.9304 B( 53-C , 54-C ) :   1.3436
B( 53-C , 58-C ) :   1.3261 B( 54-C , 55-C ) :   1.3237 B( 54-C , 61-C ) :   1.0080
B( 55-C , 56-C ) :   1.3282 B( 55-C , 58-C ) :   0.1044 B( 55-C , 84-H ) :   0.9924
B( 56-C , 57-C ) :   1.2971 B( 56-C , 60-F ) :   1.1421 B( 57-C , 58-C ) :   1.3144
B( 57-C , 59-F ) :   1.1293 B( 58-C , 85-H ) :   1.0207 B( 61-C , 62-C ) :   1.6071
B( 62-C , 63-C ) :   1.1718 B( 62-C , 65-C ) :   1.1309 B( 63-C , 64-N ) :   2.9922
B( 65-C , 66-N ) :   2.9843

-----------------------------------------------------------------------------
         ABSORPTION SPECTRUM VIA TRANSITION ELECTRIC DIPOLE MOMENTS
-----------------------------------------------------------------------------
State   Energy  Wavelength   fosc         T2         TX        TY        TZ
        (cm-1)    (nm)                  (au**2)     (au)      (au)      (au)
-----------------------------------------------------------------------------
   0    6671.4   1498.9   0.858343574  42.35673   5.76995  -3.00738   0.14179
   1   11019.8    907.5   0.032720472   0.97751   0.24674   0.16097   0.94378
   2   14261.0    701.2   0.046280139   1.06836  -0.58978   0.13069   0.83871
   3   18800.6    531.9   0.338928647   5.93488   2.00557  -1.37166   0.17649
   4   20186.3    495.4   0.128958146   2.10314   0.47006  -1.29111  -0.46391
   5   21313.5    469.2   0.078917841   1.21898   1.09211  -0.11351  -0.11572
   6   21515.1    464.8   0.032454887   0.49661  -0.52539  -0.40333  -0.24061
   7   21800.4    458.7   0.034893745   0.52694  -0.35133   0.20053   0.60274
   8   22750.2    439.6   0.077356414   1.11941  -0.47753  -0.60194  -0.72735
   9   24194.3    413.3   0.056238333   0.76523  -0.62001   0.49538  -0.36799
  10   25176.5    397.2   0.035618491   0.46575  -0.17426   0.62648   0.20714
  11   25541.5    391.5   0.089779699   1.15720  -0.38805  -0.01804   1.00314
  12   25707.6    389.0   0.122698026   1.57127   1.13608  -0.45220  -0.27590
  13   27058.8    369.6   0.041038705   0.49930  -0.24897  -0.05259  -0.65920
  14   27262.5    366.8   0.018880329   0.22799   0.39124  -0.26341  -0.07441
  15   28088.8    356.0   0.039894553   0.46758  -0.48307  -0.17980  -0.44932
  16   28666.4    348.8   0.228191695   2.62061  -0.48796  -0.23843  -1.52501
  17   29384.1    340.3   0.357680834   4.00736  -0.00841   0.13431   1.99731
  18   29652.3    337.2   0.351712942   3.90486  -1.32003   0.78602   1.24280
  19   30934.3    323.3   0.221558247   2.35789   0.82921   0.00040   1.29240
  20   31581.0    316.6   0.035177837   0.36671   0.03927  -0.14923  -0.58557
  21   31888.7    313.6   0.025574695   0.26403  -0.48967   0.14482  -0.05723
  22   32090.0    311.6   0.018502864   0.18982   0.34647  -0.26121  -0.03932
  23   32504.1    307.7   0.062862633   0.63669   0.12289  -0.29945  -0.72933
  24   32672.4    306.1   0.005884550   0.05929   0.21630  -0.11156  -0.00797
  25   33302.1    300.3   0.120799453   1.19418   0.21787   0.15688   1.05929
  26   33922.6    294.8   0.072770734   0.70623   0.25654  -0.26649   0.75458
  27   34188.9    292.5   0.003291056   0.03169  -0.08503   0.03837   0.15162
  28   34556.4    289.4   0.165985523   1.58131   0.10415  -0.88052  -0.89171
  29   34863.8    286.8   0.126445530   1.19400   0.88508  -0.63817  -0.05809
  30   35349.8    282.9   0.210702451   1.96227   0.54600  -0.99716  -0.81842
  31   35664.0    280.4   0.226469261   2.09052   0.10718   0.08591   1.43932
  32   35893.2    278.6   0.156040358   1.43120   0.43532  -0.92117   0.62701
  33   36401.6    274.7   0.217895441   1.97062  -0.52965   0.89027   0.94737
  34   36482.6    274.1   0.713230259   6.43605  -0.80662   1.34603   1.99340
  35   36813.4    271.6   0.016340288   0.14613  -0.25979   0.25552   0.11551
  36   37378.0    267.5   0.039932246   0.35171   0.03243  -0.25119  -0.53625
  37   37674.9    265.4   0.005902632   0.05158  -0.09154   0.20628   0.02547
  38   37909.0    263.8   0.084470296   0.73356  -0.25028  -0.45194  -0.68313
  39   38271.6    261.3   0.015893438   0.13672  -0.23692   0.15477   0.23797
  40   38353.2    260.7   0.168910995   1.44988  -0.02755  -0.46913  -1.10862
  41   38809.2    257.7   0.020153881   0.17096  -0.25936  -0.05181  -0.31782
  42   38971.3    256.6   0.032722443   0.27642   0.33209  -0.06496  -0.40239
  43   39292.5    254.5   0.018999654   0.15919   0.33438  -0.14069   0.16608
  44   39367.9    254.0   0.063793531   0.53347   0.59488  -0.22227   0.36081
  45   40143.5    249.1   0.005610680   0.04601  -0.10289   0.01763  -0.18739

FINAL SINGLE POINT ENERGY     -3927.595544776567

DIPOLE MOMENT
-------------
                                X             Y             Z
Electronic contribution:    -13.25444       8.65082     -17.51668
Nuclear contribution   :     12.20813      -8.23983      17.78701
                        -----------------------------------------
Total Dipole Moment    :     -1.04631       0.41099       0.27033
                        -----------------------------------------
Magnitude (a.u.)       :      1.15618
Magnitude (Debye)      :      2.93878

Rotational constants in cm-1:     0.002199     0.000277     0.000251
Rotational constants in MHz :    65.918708     8.293147     7.519044

                             ****ORCA TERMINATED NORMALLY****
TOTAL RUN TIME: 0 days 0 hours 8 minutes 50 seconds 570 msec
