                         Program Version 4.2.0 -  RELEASE  -
|  1> # ORCA input file
|  2> # SCF done       -199.244230832685          0.000848029487
|  3> ! CAM-B3LYP def2-SVP def2/J RIJCOSX Grid4 TightSCF
|  4> %maxcore 5000
|  5> %tddft
|  6>     Mode sTDDFT
|  7>     Ethresh 5.0
|  8>     maxcore 5000
|  9> end
| 10>
| 11> %pal
| 12>   nprocs 6
| 13>   end
| 14> * xyz 0 1
| 15>    C       -1.25564        -2.10569         3.72802
| 16>    C       -0.68882        -0.83984         3.75473
| 17>    F       -1.45605         0.20648         4.07646
| 18>    C        0.65733        -0.63315         3.45018
| 19>    F        1.16178         0.60515         3.48949
| 20>    C        1.47660        -1.69683         3.10627
| 21>    C        0.91339        -2.95734         3.08283
| 22>    C       -0.44141        -3.17398         3.38744
| 23>    C       -0.72470        -4.60209         3.26906
| 24>    C       -1.89249        -5.22731         3.62039
| 25>    C       -3.04187        -4.55265         4.08150
| 26>    N       -4.00465        -4.05105         4.45350
| 27>    C       -2.07179        -6.62711         3.61126
| 28>    N       -2.26223        -7.75810         3.66107
| 29>    C        0.48744        -5.25475         2.82561
| 30>    C        1.56000        -4.24266         2.73329
| 31>    O        2.69905        -4.39589         2.34778
| 32>    C        0.57036        -6.52207         2.31076
| 33>    C        1.72989        -7.28772         2.06302
| 34>    S        1.68699        -8.40308         0.71434
| 35>    C        3.24430        -9.05773         1.11268
| 36>    C        3.72688        -8.47158         2.28232
| 37>    C        2.90081        -7.46135         2.79362
| 38>    C        3.30428        -6.76822         4.05487
| 39>    C        4.62689        -6.05066         3.83198
| 40>    S        5.89874        -7.22655         3.24906
| 41>    O        6.41165        -6.79206         1.98151
| 42>    O        6.84533        -7.45531         4.30735
| 43>    C        4.98556        -8.80271         2.97791
| 44>    C        3.86746       -10.04929         0.32048
| 45>    C        3.41092       -10.45878        -0.89146
| 46>    C        4.01893       -11.45451        -1.69103
| 47>    N        3.60552       -11.67531        -2.98953
| 48>    C        4.35956       -12.66948        -3.52274
| 49>    C        4.59751       -13.40964        -4.67384
| 50>    C        5.62364       -14.31018        -4.35272
| 51>    N        6.00280       -14.12329        -3.03802
| 52>    C        5.26039       -13.11325        -2.51570
| 53>    C        5.05469       -12.34811        -1.37617
| 54>    C        6.20509       -15.26756        -5.21623
| 55>    C        7.05198       -16.26652        -4.85354
| 56>    C        7.63030       -17.17512        -5.77496
| 57>    S        7.54600       -16.87267        -7.48012
| 58>    C        8.39014       -18.35115        -7.83298
| 59>    C        8.70362       -19.04334        -6.65777
| 60>    C        8.30561       -18.36777        -5.49911
| 61>    C        8.50137       -18.86842        -4.09752
| 62>    C        9.68813       -19.80062        -3.97899
| 63>    S        9.33020       -21.19254        -5.08484
| 64>    O       10.39499       -22.15343        -5.03545
| 65>    O        7.99451       -21.64996        -4.83202
| 66>    C        9.39527       -20.36190        -6.70167
| 67>    C        8.69293       -18.71824        -9.15769
| 68>    C        8.44892       -17.92482       -10.24159
| 69>    C        8.77333       -18.31053       -11.55127
| 70>    C        8.57622       -17.60915       -12.71121
| 71>    C        9.34027       -17.99654       -13.92148
| 72>    O        9.96358       -19.01842       -14.09518
| 73>    C        9.22278       -16.84091       -14.84068
| 74>    C        8.37005       -15.87871       -14.27188
| 75>    C        8.14035       -14.68190       -14.93086
| 76>    C        8.76962       -14.47914       -16.15041
| 77>    C        9.60392       -15.44463       -16.71398
| 78>    C        9.84061       -16.64300       -16.05934
| 79>    F       10.18645       -15.20800       -17.89562
| 80>    F        8.57189       -13.32431       -16.79632
| 81>    C        7.84656       -16.39876       -13.00498
| 82>    C        6.73879       -15.90967       -12.36139
| 83>    C        6.05705       -16.55510       -11.30824
| 84>    N        5.42026       -17.03335       -10.48122
| 85>    C        6.06750       -14.72773       -12.73943
| 86>    N        5.49209       -13.76369       -12.97920
| 87>    H       -2.30169        -2.21515         3.96332
| 88>    H        2.51590        -1.53847         2.86640
| 89>    H       -0.35548        -6.99868         2.00733
| 90>    H        3.42469        -7.51270         4.84872
| 91>    H        2.54164        -6.05782         4.37424
| 92>    H        5.01805        -5.62221         4.74969
| 93>    H        4.53186        -5.29274         3.05993
| 94>    H        4.82510        -9.21712         3.97158
| 95>    H        5.64820        -9.44485         2.40764
| 96>    H        4.77878       -10.47546         0.71169
| 97>    H        2.52746        -9.98240        -1.29912
| 98>    H        2.88762       -11.14769        -3.45602
| 99>    H        4.10907       -13.34365        -5.62476
|100>    H        6.74889       -14.61465        -2.57895
|101>    H        5.55781       -12.41805        -0.43367
|102>    H        5.91519       -15.18874        -6.25533
|103>    H        7.28828       -16.42186        -3.81021
|104>    H        7.60828       -19.42822        -3.80042
|105>    H        8.61796       -18.02527        -3.41275
|106>    H        9.80596       -20.18987        -2.97171
|107>    H       10.62011       -19.35871        -4.31988
|108>    H        8.92134       -21.03754        -7.41157
|109>    H       10.45344       -20.27096        -6.94442
|110>    H        9.14575       -19.68894        -9.30986
|111>    H        8.02273       -16.94697       -10.07186
|112>    H        9.32606       -19.23673       -11.67236
|113>    H        7.50814       -13.90364       -14.53589
|114>    H       10.48757       -17.38996       -16.49086
|115> *
|116>
|117>                          ****END OF INPUT****

CARTESIAN COORDINATES (ANGSTROEM)
---------------------------------
  C     -1.255640   -2.105690    3.728020
  C     -0.688820   -0.839840    3.754730
  F     -1.456050    0.206480    4.076460
  C      0.657330   -0.633150    3.450180
  F      1.161780    0.605150    3.489490
  C      1.476600   -1.696830    3.106270
  C      0.913390   -2.957340    3.082830
  C     -0.441410   -3.173980    3.387440
  C     -0.724700   -4.602090    3.269060
  C     -1.892490   -5.227310    3.620390
  C     -3.041870   -4.552650    4.081500
  N     -4.004650   -4.051050    4.453500
  C     -2.071790   -6.627110    3.611260
  N     -2.262230   -7.758100    3.661070
  C      0.487440   -5.254750    2.825610
  C      1.560000   -4.242660    2.733290
  O      2.699050   -4.395890    2.347780
  C      0.570360   -6.522070    2.310760
  C      1.729890   -7.287720    2.063020
  S      1.686990   -8.403080    0.714340
  C      3.244300   -9.057730    1.112680
  C      3.726880   -8.471580    2.282320
  C      2.900810   -7.461350    2.793620
  C      3.304280   -6.768220    4.054870
  C      4.626890   -6.050660    3.831980
  S      5.898740   -7.226550    3.249060
  O      6.411650   -6.792060    1.981510
  O      6.845330   -7.455310    4.307350
  C      4.985560   -8.802710    2.977910
  C      3.867460  -10.049290    0.320480
  C      3.410920  -10.458780   -0.891460
  C      4.018930  -11.454510   -1.691030
  N      3.605520  -11.675310   -2.989530
  C      4.359560  -12.669480   -3.522740
  C      4.597510  -13.409640   -4.673840
  C      5.623640  -14.310180   -4.352720
  N      6.002800  -14.123290   -3.038020
  C      5.260390  -13.113250   -2.515700
  C      5.054690  -12.348110   -1.376170
  C      6.205090  -15.267560   -5.216230
  C      7.051980  -16.266520   -4.853540
  C      7.630300  -17.175120   -5.774960
  S      7.546000  -16.872670   -7.480120
  C      8.390140  -18.351150   -7.832980
  C      8.703620  -19.043340   -6.657770
  C      8.305610  -18.367770   -5.499110
  C      8.501370  -18.868420   -4.097520
  C      9.688130  -19.800620   -3.978990
  S      9.330200  -21.192540   -5.084840
  O     10.394990  -22.153430   -5.035450
  O      7.994510  -21.649960   -4.832020
  C      9.395270  -20.361900   -6.701670
  C      8.692930  -18.718240   -9.157690
  C      8.448920  -17.924820  -10.241590
  C      8.773330  -18.310530  -11.551270
  C      8.576220  -17.609150  -12.711210
  C      9.340270  -17.996540  -13.921480
  O      9.963580  -19.018420  -14.095180
  C      9.222780  -16.840910  -14.840680
  C      8.370050  -15.878710  -14.271880
  C      8.140350  -14.681900  -14.930860
  C      8.769620  -14.479140  -16.150410
  C      9.603920  -15.444630  -16.713980
  C      9.840610  -16.643000  -16.059340
  F     10.186450  -15.208000  -17.895620
  F      8.571890  -13.324310  -16.796320
  C      7.846560  -16.398760  -13.004980
  C      6.738790  -15.909670  -12.361390
  C      6.057050  -16.555100  -11.308240
  N      5.420260  -17.033350  -10.481220
  C      6.067500  -14.727730  -12.739430
  N      5.492090  -13.763690  -12.979200
  H     -2.301690   -2.215150    3.963320
  H      2.515900   -1.538470    2.866400
  H     -0.355480   -6.998680    2.007330
  H      3.424690   -7.512700    4.848720
  H      2.541640   -6.057820    4.374240
  H      5.018050   -5.622210    4.749690
  H      4.531860   -5.292740    3.059930
  H      4.825100   -9.217120    3.971580
  H      5.648200   -9.444850    2.407640
  H      4.778780  -10.475460    0.711690
  H      2.527460   -9.982400   -1.299120
  H      2.887620  -11.147690   -3.456020
  H      4.109070  -13.343650   -5.624760
  H      6.748890  -14.614650   -2.578950
  H      5.557810  -12.418050   -0.433670
  H      5.915190  -15.188740   -6.255330
  H      7.288280  -16.421860   -3.810210
  H      7.608280  -19.428220   -3.800420
  H      8.617960  -18.025270   -3.412750
  H      9.805960  -20.189870   -2.971710
  H     10.620110  -19.358710   -4.319880
  H      8.921340  -21.037540   -7.411570
  H     10.453440  -20.270960   -6.944420
  H      9.145750  -19.688940   -9.309860
  H      8.022730  -16.946970  -10.071860
  H      9.326060  -19.236730  -11.672360
  H      7.508140  -13.903640  -14.535890
  H     10.487570  -17.389960  -16.490860

 Total Charge           Charge          ....    0
 Multiplicity           Mult            ....    1
 Number of Electrons    NEL             ....  530
 Basis Dimension        Dim             .... 1164

ORBITAL ENERGIES
----------------

  NO   OCC          E(Eh)            E(eV)
   0   2.0000     -89.144807     -2425.7535
   1   2.0000     -89.131784     -2425.3991
   2   2.0000     -88.977216     -2421.1931
   3   2.0000     -88.974060     -2421.1073
   4   2.0000     -24.809108      -675.0902
   5   2.0000     -24.808130      -675.0635
   6   2.0000     -24.802416      -674.9081
   7   2.0000     -24.801745      -674.8898
   8   2.0000     -19.232883      -523.3534
   9   2.0000     -19.218811      -522.9704
  10   2.0000     -19.200956      -522.4846
  11   2.0000     -19.196026      -522.3504
  12   2.0000     -19.186008      -522.0778
  13   2.0000     -19.184181      -522.0281
  14   2.0000     -14.478761      -393.9871
  15   2.0000     -14.476348      -393.9214
  16   2.0000     -14.425197      -392.5296
  17   2.0000     -14.425028      -392.5250
  18   2.0000     -14.419966      -392.3872
  19   2.0000     -14.418877      -392.3576
  20   2.0000     -10.395189      -282.8675
  21   2.0000     -10.394788      -282.8566
  22   2.0000     -10.387714      -282.6641
  23   2.0000     -10.387129      -282.6481
  24   2.0000     -10.385033      -282.5911
  25   2.0000     -10.370063      -282.1838
  26   2.0000     -10.354921      -281.7717
  27   2.0000     -10.352896      -281.7166
  28   2.0000     -10.348527      -281.5977
  29   2.0000     -10.347456      -281.5686
  30   2.0000     -10.337096      -281.2867
  31   2.0000     -10.336072      -281.2588
  32   2.0000     -10.329473      -281.0793
  33   2.0000     -10.327815      -281.0341
  34   2.0000     -10.327593      -281.0281
  35   2.0000     -10.327352      -281.0215
  36   2.0000     -10.326908      -281.0095
  37   2.0000     -10.325974      -280.9840
  38   2.0000     -10.325931      -280.9829
  39   2.0000     -10.323149      -280.9072
  40   2.0000     -10.322632      -280.8931
  41   2.0000     -10.321570      -280.8642
  42   2.0000     -10.320994      -280.8485
  43   2.0000     -10.320666      -280.8396
  44   2.0000     -10.318626      -280.7841
  45   2.0000     -10.318616      -280.7838
  46   2.0000     -10.318566      -280.7824
  47   2.0000     -10.318411      -280.7782
  48   2.0000     -10.318195      -280.7724
  49   2.0000     -10.317346      -280.7492
  50   2.0000     -10.316007      -280.7128
  51   2.0000     -10.315875      -280.7092
  52   2.0000     -10.315575      -280.7011
  53   2.0000     -10.313847      -280.6540
  54   2.0000     -10.312518      -280.6179
  55   2.0000     -10.311571      -280.5921
  56   2.0000     -10.310450      -280.5616
  57   2.0000     -10.310181      -280.5543
  58   2.0000     -10.309862      -280.5456
  59   2.0000     -10.308163      -280.4994
  60   2.0000     -10.307298      -280.4758
  61   2.0000     -10.307272      -280.4751
  62   2.0000     -10.306489      -280.4538
  63   2.0000     -10.305548      -280.4282
  64   2.0000     -10.303647      -280.3765
  65   2.0000     -10.302931      -280.3570
  66   2.0000     -10.302739      -280.3518
  67   2.0000     -10.302448      -280.3438
  68   2.0000     -10.297104      -280.1985
  69   2.0000     -10.296209      -280.1741
  70   2.0000     -10.286193      -279.9015
  71   2.0000     -10.285838      -279.8919
  72   2.0000      -8.211164      -223.4371
  73   2.0000      -8.198573      -223.0945
  74   2.0000      -8.072997      -219.6774
  75   2.0000      -8.069501      -219.5823
  76   2.0000      -6.179997      -168.1663
  77   2.0000      -6.179753      -168.1596
  78   2.0000      -6.179319      -168.1478
  79   2.0000      -6.167322      -167.8214
  80   2.0000      -6.167244      -167.8193
  81   2.0000      -6.166552      -167.8004
  82   2.0000      -6.042283      -164.4189
  83   2.0000      -6.038619      -164.3192
  84   2.0000      -6.038243      -164.3089
  85   2.0000      -6.034956      -164.2195
  86   2.0000      -6.034714      -164.2129
  87   2.0000      -6.031643      -164.1294
  88   2.0000      -1.332625       -36.2626
  89   2.0000      -1.325732       -36.0750
  90   2.0000      -1.317351       -35.8469
  91   2.0000      -1.310540       -35.6616
  92   2.0000      -1.206996       -32.8440
  93   2.0000      -1.192890       -32.4602
  94   2.0000      -1.148518       -31.2528
  95   2.0000      -1.134121       -30.8610
  96   2.0000      -1.110010       -30.2049
  97   2.0000      -1.085889       -29.5486
  98   2.0000      -1.073620       -29.2147
  99   2.0000      -1.071456       -29.1558
 100   2.0000      -1.031656       -28.0728
 101   2.0000      -1.024179       -27.8693
 102   2.0000      -1.018965       -27.7274
 103   2.0000      -1.016653       -27.6645
 104   2.0000      -1.012207       -27.5435
 105   2.0000      -1.005305       -27.3557
 106   2.0000      -1.003645       -27.3106
 107   2.0000      -0.997940       -27.1553
 108   2.0000      -0.968487       -26.3539
 109   2.0000      -0.961084       -26.1524
 110   2.0000      -0.943108       -25.6633
 111   2.0000      -0.941694       -25.6248
 112   2.0000      -0.939075       -25.5535
 113   2.0000      -0.931614       -25.3505
 114   2.0000      -0.916559       -24.9409
 115   2.0000      -0.913290       -24.8519
 116   2.0000      -0.905811       -24.6484
 117   2.0000      -0.903382       -24.5823
 118   2.0000      -0.897145       -24.4125
 119   2.0000      -0.884303       -24.0631
 120   2.0000      -0.883607       -24.0442
 121   2.0000      -0.877763       -23.8851
 122   2.0000      -0.877183       -23.8694
 123   2.0000      -0.876263       -23.8443
 124   2.0000      -0.868918       -23.6445
 125   2.0000      -0.844924       -22.9916
 126   2.0000      -0.842099       -22.9147
 127   2.0000      -0.830943       -22.6111
 128   2.0000      -0.823787       -22.4164
 129   2.0000      -0.809239       -22.0205
 130   2.0000      -0.795865       -21.6566
 131   2.0000      -0.783351       -21.3161
 132   2.0000      -0.778156       -21.1747
 133   2.0000      -0.772785       -21.0285
 134   2.0000      -0.761043       -20.7090
 135   2.0000      -0.755936       -20.5701
 136   2.0000      -0.754558       -20.5326
 137   2.0000      -0.738229       -20.0882
 138   2.0000      -0.727770       -19.8036
 139   2.0000      -0.719722       -19.5846
 140   2.0000      -0.717060       -19.5122
 141   2.0000      -0.712484       -19.3877
 142   2.0000      -0.709181       -19.2978
 143   2.0000      -0.706345       -19.2206
 144   2.0000      -0.696305       -18.9474
 145   2.0000      -0.691542       -18.8178
 146   2.0000      -0.684916       -18.6375
 147   2.0000      -0.682804       -18.5800
 148   2.0000      -0.679075       -18.4786
 149   2.0000      -0.674037       -18.3415
 150   2.0000      -0.669101       -18.2072
 151   2.0000      -0.657396       -17.8887
 152   2.0000      -0.652791       -17.7633
 153   2.0000      -0.652091       -17.7443
 154   2.0000      -0.647140       -17.6096
 155   2.0000      -0.644048       -17.5254
 156   2.0000      -0.638379       -17.3712
 157   2.0000      -0.635076       -17.2813
 158   2.0000      -0.632316       -17.2062
 159   2.0000      -0.625396       -17.0179
 160   2.0000      -0.622476       -16.9384
 161   2.0000      -0.611466       -16.6388
 162   2.0000      -0.609338       -16.5809
 163   2.0000      -0.604719       -16.4552
 164   2.0000      -0.600051       -16.3282
 165   2.0000      -0.598067       -16.2742
 166   2.0000      -0.597104       -16.2480
 167   2.0000      -0.595092       -16.1933
 168   2.0000      -0.591165       -16.0864
 169   2.0000      -0.590551       -16.0697
 170   2.0000      -0.587364       -15.9830
 171   2.0000      -0.580324       -15.7914
 172   2.0000      -0.573408       -15.6032
 173   2.0000      -0.572114       -15.5680
 174   2.0000      -0.568756       -15.4766
 175   2.0000      -0.566145       -15.4056
 176   2.0000      -0.562577       -15.3085
 177   2.0000      -0.561189       -15.2707
 178   2.0000      -0.558604       -15.2004
 179   2.0000      -0.557303       -15.1650
 180   2.0000      -0.554105       -15.0780
 181   2.0000      -0.553750       -15.0683
 182   2.0000      -0.550633       -14.9835
 183   2.0000      -0.549583       -14.9549
 184   2.0000      -0.546961       -14.8836
 185   2.0000      -0.546202       -14.8629
 186   2.0000      -0.543241       -14.7823
 187   2.0000      -0.542159       -14.7529
 188   2.0000      -0.539508       -14.6808
 189   2.0000      -0.538196       -14.6450
 190   2.0000      -0.535942       -14.5837
 191   2.0000      -0.532160       -14.4808
 192   2.0000      -0.530175       -14.4268
 193   2.0000      -0.527569       -14.3559
 194   2.0000      -0.524953       -14.2847
 195   2.0000      -0.523027       -14.2323
 196   2.0000      -0.521077       -14.1792
 197   2.0000      -0.515293       -14.0218
 198   2.0000      -0.512762       -13.9530
 199   2.0000      -0.509215       -13.8564
 200   2.0000      -0.508800       -13.8452
 201   2.0000      -0.504993       -13.7416
 202   2.0000      -0.502796       -13.6818
 203   2.0000      -0.501133       -13.6365
 204   2.0000      -0.500282       -13.6134
 205   2.0000      -0.499071       -13.5804
 206   2.0000      -0.497336       -13.5332
 207   2.0000      -0.495681       -13.4882
 208   2.0000      -0.494266       -13.4497
 209   2.0000      -0.493826       -13.4377
 210   2.0000      -0.489584       -13.3223
 211   2.0000      -0.484356       -13.1800
 212   2.0000      -0.483270       -13.1504
 213   2.0000      -0.477325       -12.9887
 214   2.0000      -0.474520       -12.9123
 215   2.0000      -0.471106       -12.8195
 216   2.0000      -0.468897       -12.7593
 217   2.0000      -0.467896       -12.7321
 218   2.0000      -0.466848       -12.7036
 219   2.0000      -0.462574       -12.5873
 220   2.0000      -0.461315       -12.5530
 221   2.0000      -0.460139       -12.5210
 222   2.0000      -0.458536       -12.4774
 223   2.0000      -0.457649       -12.4533
 224   2.0000      -0.455835       -12.4039
 225   2.0000      -0.455058       -12.3828
 226   2.0000      -0.452884       -12.3236
 227   2.0000      -0.452423       -12.3111
 228   2.0000      -0.446578       -12.1520
 229   2.0000      -0.444548       -12.0968
 230   2.0000      -0.438926       -11.9438
 231   2.0000      -0.436022       -11.8648
 232   2.0000      -0.433972       -11.8090
 233   2.0000      -0.431139       -11.7319
 234   2.0000      -0.428161       -11.6509
 235   2.0000      -0.427391       -11.6299
 236   2.0000      -0.426824       -11.6145
 237   2.0000      -0.420426       -11.4404
 238   2.0000      -0.416023       -11.3206
 239   2.0000      -0.411663       -11.2019
 240   2.0000      -0.409585       -11.1454
 241   2.0000      -0.407150       -11.0791
 242   2.0000      -0.396428       -10.7873
 243   2.0000      -0.394971       -10.7477
 244   2.0000      -0.392148       -10.6709
 245   2.0000      -0.381068       -10.3694
 246   2.0000      -0.376954       -10.2574
 247   2.0000      -0.373658       -10.1677
 248   2.0000      -0.364219        -9.9109
 249   2.0000      -0.362111        -9.8535
 250   2.0000      -0.360339        -9.8053
 251   2.0000      -0.360110        -9.7991
 252   2.0000      -0.356923        -9.7124
 253   2.0000      -0.354361        -9.6427
 254   2.0000      -0.350528        -9.5383
 255   2.0000      -0.343401        -9.3444
 256   2.0000      -0.336859        -9.1664
 257   2.0000      -0.334308        -9.0970
 258   2.0000      -0.329614        -8.9693
 259   2.0000      -0.324184        -8.8215
 260   2.0000      -0.316646        -8.6164
 261   2.0000      -0.310002        -8.4356
 262   2.0000      -0.299603        -8.1526
 263   2.0000      -0.274324        -7.4647
 264   2.0000      -0.234240        -6.3740
 265   0.0000      -0.111253        -3.0273
 266   0.0000      -0.100486        -2.7344
 267   0.0000      -0.078250        -2.1293
 268   0.0000      -0.068620        -1.8672
 269   0.0000      -0.052598        -1.4313

MULLIKEN ATOMIC CHARGES
-----------------------
   0 C :   -0.089218
   1 C :    0.237422
   2 F :   -0.161869
   3 C :    0.234344
   4 F :   -0.166476
   5 C :   -0.099475
   6 C :   -0.017342
   7 C :    0.048101
   8 C :    0.283717
   9 C :   -0.327487
  10 C :   -0.190519
  11 N :    0.164018
  12 C :   -0.213862
  13 N :    0.168223
  14 C :   -0.117924
  15 C :    0.142161
  16 O :   -0.152195
  17 C :    0.007210
  18 C :   -0.141517
  19 S :    0.132236
  20 C :   -0.050826
  21 C :   -0.092506
  22 C :   -0.022002
  23 C :    0.104042
  24 C :    0.020303
  25 S :    0.634436
  26 O :   -0.454423
  27 O :   -0.466572
  28 C :    0.113138
  29 C :   -0.019551
  30 C :    0.010688
  31 C :    0.099519
  32 N :   -0.030054
  33 C :    0.122935
  34 C :   -0.155274
  35 C :    0.079421
  36 N :   -0.038126
  37 C :    0.118815
  38 C :   -0.160408
  39 C :    0.032719
  40 C :   -0.034705
  41 C :   -0.075638
  42 S :    0.140573
  43 C :   -0.085232
  44 C :   -0.050715
  45 C :   -0.080486
  46 C :    0.113649
  47 C :   -0.054885
  48 S :    0.671549
  49 O :   -0.449808
  50 O :   -0.447989
  51 C :    0.056022
  52 C :    0.005467
  53 C :   -0.003294
  54 C :    0.027685
  55 C :   -0.119467
  56 C :    0.138782
  57 O :   -0.141568
  58 C :    0.002603
  59 C :    0.032105
  60 C :   -0.094126
  61 C :    0.235432
  62 C :    0.234525
  63 C :   -0.104815
  64 F :   -0.168830
  65 F :   -0.165543
  66 C :    0.285587
  67 C :   -0.339063
  68 C :   -0.220380
  69 N :    0.173105
  70 C :   -0.187984
  71 N :    0.153892
  72 H :    0.018202
  73 H :    0.013747
  74 H :    0.042976
  75 H :    0.032730
  76 H :    0.024038
  77 H :    0.058200
  78 H :    0.082598
  79 H :    0.053028
  80 H :    0.055262
  81 H :   -0.012008
  82 H :   -0.011652
  83 H :    0.127285
  84 H :   -0.021795
  85 H :    0.125580
  86 H :   -0.029269
  87 H :    0.008829
  88 H :   -0.036961
  89 H :    0.064074
  90 H :    0.023418
  91 H :    0.070132
  92 H :    0.054389
  93 H :    0.082626
  94 H :    0.072105
  95 H :    0.003463
  96 H :    0.024051
  97 H :    0.013084
  98 H :    0.017470
  99 H :    0.012126
Sum of atomic charges:   -0.0000000

LOEWDIN ATOMIC CHARGES
----------------------
   0 C :   -0.017289
   1 C :    0.075001
   2 F :   -0.041094
   3 C :    0.071485
   4 F :   -0.043380
   5 C :   -0.005091
   6 C :   -0.046399
   7 C :   -0.014567
   8 C :    0.071392
   9 C :   -0.135018
  10 C :   -0.021531
  11 N :   -0.043913
  12 C :   -0.026763
  13 N :   -0.045647
  14 C :   -0.110194
  15 C :    0.082094
  16 O :   -0.140551
  17 C :    0.054453
  18 C :   -0.181838
  19 S :    0.445519
  20 C :   -0.129492
  21 C :   -0.096205
  22 C :   -0.012924
  23 C :   -0.031094
  24 C :   -0.130819
  25 S :    1.157603
  26 O :   -0.514396
  27 O :   -0.525456
  28 C :   -0.131501
  29 C :   -0.052880
  30 C :   -0.010535
  31 C :   -0.001404
  32 N :    0.076290
  33 C :   -0.017310
  34 C :   -0.073690
  35 C :   -0.000956
  36 N :    0.068147
  37 C :   -0.008420
  38 C :   -0.082656
  39 C :   -0.007052
  40 C :   -0.074970
  41 C :   -0.139431
  42 S :    0.472094
  43 C :   -0.185301
  44 C :   -0.055507
  45 C :   -0.073157
  46 C :   -0.042975
  47 C :   -0.136853
  48 S :    1.162659
  49 O :   -0.512665
  50 O :   -0.506758
  51 C :   -0.139728
  52 C :    0.017672
  53 C :   -0.047240
  54 C :    0.067511
  55 C :   -0.105080
  56 C :    0.081347
  57 O :   -0.142817
  58 C :   -0.046005
  59 C :   -0.012294
  60 C :   -0.021670
  61 C :    0.073499
  62 C :    0.069407
  63 C :   -0.005652
  64 F :   -0.046021
  65 F :   -0.044096
  66 C :    0.070743
  67 C :   -0.141636
  68 C :   -0.025780
  69 N :   -0.051009
  70 C :   -0.021117
  71 N :   -0.051398
  72 H :    0.052250
  73 H :    0.052687
  74 H :    0.046818
  75 H :    0.039509
  76 H :    0.039979
  77 H :    0.039310
  78 H :    0.040691
  79 H :    0.039531
  80 H :    0.042154
  81 H :    0.033058
  82 H :    0.025533
  83 H :    0.093151
  84 H :    0.030879
  85 H :    0.088190
  86 H :    0.025728
  87 H :    0.035632
  88 H :    0.021602
  89 H :    0.046946
  90 H :    0.033591
  91 H :    0.044332
  92 H :    0.033149
  93 H :    0.051992
  94 H :    0.045151
  95 H :    0.037960
  96 H :    0.024985
  97 H :    0.044346
  98 H :    0.050920
  99 H :    0.052235

  Mayer bond orders larger than 0.100000
B(  0-C ,  1-C ) :   1.3330 B(  0-C ,  5-C ) :   0.1040 B(  0-C ,  7-C ) :   1.3143
B(  0-C , 72-H ) :   0.9927 B(  1-C ,  2-F ) :   1.1481 B(  1-C ,  3-C ) :   1.2905
B(  3-C ,  4-F ) :   1.1339 B(  3-C ,  5-C ) :   1.3173 B(  5-C ,  6-C ) :   1.3239
B(  5-C , 73-H ) :   1.0192 B(  6-C ,  7-C ) :   1.3386 B(  6-C , 15-C ) :   0.9478
B(  7-C ,  8-C ) :   1.0121 B(  8-C ,  9-C ) :   1.6528 B(  8-C , 14-C ) :   1.0701
B(  9-C , 10-C ) :   1.1360 B(  9-C , 12-C ) :   1.1396 B( 10-C , 11-N ) :   2.9849
B( 12-C , 13-N ) :   3.0063 B( 14-C , 15-C ) :   0.9710 B( 14-C , 17-C ) :   1.5753
B( 15-C , 16-O ) :   2.1700 B( 17-C , 18-C ) :   1.1853 B( 17-C , 74-H ) :   0.9352
B( 18-C , 19-S ) :   1.0845 B( 18-C , 22-C ) :   1.4775 B( 19-S , 20-C ) :   1.1428
B( 20-C , 21-C ) :   1.4444 B( 20-C , 29-C ) :   1.1784 B( 21-C , 22-C ) :   1.3425
B( 21-C , 28-C ) :   1.0387 B( 22-C , 23-C ) :   1.0666 B( 23-C , 24-C ) :   1.0982
B( 23-C , 75-H ) :   0.9028 B( 23-C , 76-H ) :   0.9055 B( 24-C , 25-S ) :   0.8259
B( 24-C , 77-H ) :   0.9255 B( 24-C , 78-H ) :   0.9088 B( 25-S , 26-O ) :   1.7215
B( 25-S , 27-O ) :   1.7162 B( 25-S , 28-C ) :   0.8398 B( 28-C , 79-H ) :   0.9030
B( 28-C , 80-H ) :   0.9064 B( 29-C , 30-C ) :   1.6296 B( 29-C , 81-H ) :   0.9727
B( 30-C , 31-C ) :   1.1336 B( 30-C , 82-H ) :   0.9638 B( 31-C , 32-N ) :   1.1759
B( 31-C , 38-C ) :   1.3781 B( 32-N , 33-C ) :   1.1716 B( 32-N , 83-H ) :   0.9355
B( 33-C , 34-C ) :   1.2555 B( 33-C , 37-C ) :   1.2927 B( 34-C , 35-C ) :   1.3489
B( 34-C , 84-H ) :   1.0424 B( 35-C , 36-N ) :   1.1887 B( 35-C , 39-C ) :   1.1796
B( 36-N , 37-C ) :   1.1676 B( 36-N , 85-H ) :   0.9324 B( 37-C , 38-C ) :   1.2845
B( 38-C , 86-H ) :   1.0298 B( 39-C , 40-C ) :   1.5873 B( 39-C , 87-H ) :   0.9576
B( 40-C , 41-C ) :   1.1952 B( 40-C , 88-H ) :   0.9642 B( 41-C , 42-S ) :   1.1494
B( 41-C , 45-C ) :   1.4516 B( 42-S , 43-C ) :   1.1030 B( 43-C , 44-C ) :   1.4416
B( 43-C , 52-C ) :   1.2024 B( 44-C , 45-C ) :   1.3575 B( 44-C , 51-C ) :   1.0041
B( 45-C , 46-C ) :   1.0555 B( 46-C , 47-C ) :   1.0306 B( 46-C , 89-H ) :   0.9050
B( 46-C , 90-H ) :   0.9072 B( 47-C , 48-S ) :   0.8706 B( 47-C , 91-H ) :   0.9308
B( 47-C , 92-H ) :   0.9415 B( 48-S , 49-O ) :   1.7460 B( 48-S , 50-O ) :   1.7068
B( 48-S , 51-C ) :   0.8401 B( 51-C , 93-H ) :   0.8986 B( 51-C , 94-H ) :   0.9151
B( 52-C , 53-C ) :   1.5700 B( 52-C , 95-H ) :   0.9755 B( 53-C , 54-C ) :   1.1823
B( 53-C , 96-H ) :   0.9612 B( 54-C , 55-C ) :   1.5599 B( 54-C , 97-H ) :   0.9561
B( 55-C , 56-C ) :   0.9557 B( 55-C , 66-C ) :   1.0556 B( 56-C , 57-O ) :   2.2627
B( 56-C , 58-C ) :   0.9293 B( 58-C , 59-C ) :   1.3427 B( 58-C , 63-C ) :   1.3261
B( 59-C , 60-C ) :   1.3189 B( 59-C , 66-C ) :   1.0144 B( 60-C , 61-C ) :   1.3337
B( 60-C , 63-C ) :   0.1049 B( 60-C , 98-H ) :   0.9927 B( 61-C , 62-C ) :   1.2939
B( 61-C , 65-F ) :   1.1431 B( 62-C , 63-C ) :   1.3167 B( 62-C , 64-F ) :   1.1308
B( 63-C , 99-H ) :   1.0205 B( 66-C , 67-C ) :   1.6359 B( 67-C , 68-C ) :   1.1616
B( 67-C , 70-C ) :   1.1273 B( 68-C , 69-N ) :   3.0144 B( 70-C , 71-N ) :   2.9896

-----------------------------------------------------------------------------
         ABSORPTION SPECTRUM VIA TRANSITION ELECTRIC DIPOLE MOMENTS
-----------------------------------------------------------------------------
State   Energy  Wavelength   fosc         T2         TX        TY        TZ
        (cm-1)    (nm)                  (au**2)     (au)      (au)      (au)
-----------------------------------------------------------------------------
   0   13198.3    757.7   2.091185965  52.16167   2.73068  -3.95611  -5.39020
   1   16900.2    591.7   0.357046397   6.95518   1.38714  -2.11957   0.73380
   2   22129.2    451.9   0.175246682   2.60711   0.27707  -1.56239  -0.29878
   3   22835.1    437.9   0.261900860   3.77581  -1.11965   1.42207  -0.70704
   4   23712.1    421.7   0.121582752   1.68802   0.40057  -0.44516  -1.15300
   5   25318.0    395.0   0.100556683   1.30754  -0.50530  -0.02391   1.02550
   6   27042.2    369.8   0.264087716   3.21500  -0.72633   1.52677   0.59701
   7   28611.4    349.5   0.070993762   0.81688  -0.43815  -0.18034   0.76966
   8   29147.5    343.1   0.032819643   0.37069  -0.29158  -0.14086   0.51558
   9   29548.8    338.4   0.039163292   0.43633   0.23537   0.23859   0.56921
  10   30025.3    333.1   0.068127339   0.74698   0.82909   0.15575  -0.18797
  11   30695.9    325.8   0.084960566   0.91120  -0.55370  -0.51515   0.58244
  12   30760.6    325.1   0.033888638   0.36269   0.09140  -0.21458   0.55524
  13   30810.5    324.6   0.005214000   0.05571   0.08209  -0.22000   0.02395
  14   31330.5    319.2   0.164618455   1.72976   0.16337   1.23216   0.42995
  15   31770.2    314.8   0.125857377   1.30417  -0.77378   0.17198  -0.82210
  16   32340.7    309.2   0.117866637   1.19982   0.63176   0.00328  -0.89481
  17   32514.8    307.6   0.044378329   0.44933  -0.38486   0.10849   0.53800
  18   32764.2    305.2   0.038406536   0.38591   0.27976  -0.43387  -0.34554
  19   33103.6    302.1   0.021593581   0.21475   0.22995  -0.31660   0.24826
  20   33924.1    294.8   0.158139678   1.53465  -0.54854   1.04323  -0.38134
  21   34199.1    292.4   0.100445048   0.96692   0.61674  -0.58266   0.49705
  22   35085.2    285.0   0.051121810   0.47969  -0.05541   0.29927  -0.62213
  23   36175.6    276.4   0.031208281   0.28401  -0.15342   0.50977  -0.02448
  24   36467.3    274.2   0.275039395   2.48294   1.14451   1.06208  -0.21215
  25   37096.8    269.6   0.552052235   4.89914  -1.18502  -1.49658   1.12032
  26   37148.9    269.2   0.136108302   1.20619  -0.08069  -0.41793  -1.01243
  27   37479.4    266.8   0.125140488   1.09921  -0.59111  -0.45633   0.73591
  28   37616.6    265.8   0.228887030   2.00317  -0.94347   0.24987   1.02499
  29   37887.7    263.9   0.082601308   0.71773   0.83065  -0.00394   0.16657
  30   38332.5    260.9   0.317477168   2.72660   0.95683  -1.22916  -0.54795
  31   38532.0    259.5   0.102834049   0.87860  -0.82971   0.11591   0.42040
  32   38850.7    257.4   0.047441678   0.40201   0.27348  -0.06955  -0.56779
  33   39219.2    255.0   0.003383675   0.02840  -0.02718   0.02160  -0.16492
  34   39570.0    252.7   0.044703593   0.37192  -0.60664   0.01041  -0.06163
  35   39839.4    251.0   0.006002555   0.04960  -0.07871   0.02768  -0.20649
  36   40118.7    249.3   0.013463619   0.11048   0.21518  -0.23159  -0.10270
  37   40320.8    248.0   0.038475195   0.31414   0.31874  -0.42515   0.17830

FINAL SINGLE POINT ENERGY     -4765.747756209073

DIPOLE MOMENT
-------------
                                X             Y             Z
Electronic contribution:    -22.77733      49.06154     -32.89508
Nuclear contribution   :     24.15064     -48.86309      33.64722
                        -----------------------------------------
Total Dipole Moment    :      1.37331       0.19846       0.75214
                        -----------------------------------------
Magnitude (a.u.)       :      1.57832
Magnitude (Debye)      :      4.01176

Rotational constants in cm-1:     0.001181     0.000180     0.000164
Rotational constants in MHz :    35.399011     5.381510     4.924477

                             ****ORCA TERMINATED NORMALLY****
TOTAL RUN TIME: 0 days 0 hours 18 minutes 50 seconds 745 msec
