                         Program Version 4.2.0 -  RELEASE  -
|  1> # ORCA input file
|  2> # SCF done       -159.551159674231          0.000825915885
|  3> ! CAM-B3LYP def2-SVP def2/J RIJCOSX Grid4 TightSCF
|  4> %maxcore 5000
|  5> %tddft
|  6>     Mode sTDDFT
|  7>     Ethresh 5.0
|  8>     maxcore 5000
|  9> end
| 10>
| 11> %pal
| 12>   nprocs 6
| 13>   end
| 14> * xyz 0 1
| 15>    C        1.16920         4.23894        -7.01426
| 16>    S       -0.30337         3.66739        -7.71831
| 17>    C       -0.95990         3.38826        -6.14616
| 18>    C       -0.04692         3.73684        -5.14909
| 19>    C        1.17190         4.22340        -5.65469
| 20>    S       -0.66432         3.47909        -3.54306
| 21>    C       -2.16281         2.89807        -4.21751
| 22>    C       -3.34705         2.42882        -3.65660
| 23>    C       -4.27211         2.06989        -4.62057
| 24>    S       -3.65509         2.32539        -6.24915
| 25>    C       -2.16544         2.90829        -5.61998
| 26>    C       -5.57265         1.54941        -4.42626
| 27>    C       -6.21185         1.30545        -3.23020
| 28>    C       -7.50246         0.77377        -3.49693
| 29>    C       -7.59981         0.71190        -4.96090
| 30>    C       -6.47060         1.16989        -5.51984
| 31>    F       -8.67812         0.26012        -5.61086
| 32>    C       -8.47497         0.39554        -2.59712
| 33>    C       -9.76220        -0.14680        -2.86398
| 34>    C      -10.41648        -0.37637        -1.66818
| 35>    C       -9.52701         0.02973        -0.57570
| 36>    C       -8.39306         0.47655        -1.13616
| 37>    F       -7.31917         0.94227        -0.48536
| 38>    C      -11.71596        -0.90645        -1.53724
| 39>    C      -12.35779        -1.10974        -0.35121
| 40>    C      -13.66167        -1.63421        -0.24675
| 41>    C      -14.42805        -1.85551         0.90892
| 42>    N      -13.93873        -1.58418         2.21282
| 43>    O      -12.73362        -1.58376         2.39412
| 44>    O      -14.75220        -1.35898         3.08965
| 45>    C      -15.72844        -2.35527         0.66570
| 46>    C      -16.68152        -2.77667         1.73012
| 47>    C      -15.97721        -2.50528        -0.69098
| 48>    S      -14.59387        -2.04353        -1.65063
| 49>    C      -17.14143        -2.95335        -1.37392
| 50>    C      -17.16795        -3.42230        -2.66871
| 51>    C      -18.50579        -3.76066        -3.01933
| 52>    C      -19.30038        -3.42470        -1.83872
| 53>    C      -18.51146        -2.95257        -0.85900
| 54>    F      -20.63053        -3.56912        -1.77276
| 55>    C      -18.97286        -4.29571        -4.19960
| 56>    C      -20.30491        -4.64952        -4.54285
| 57>    C      -20.32326        -5.15581        -5.82673
| 58>    C      -18.95002        -5.13282        -6.34507
| 59>    C      -18.16766        -4.62661        -5.38285
| 60>    F      -16.84439        -4.43623        -5.45234
| 61>    C      -21.41376        -5.63555        -6.58956
| 62>    C      -22.70341        -5.67515        -6.15655
| 63>    C      -23.80068        -6.15387        -6.91103
| 64>    S      -25.40170        -6.11937        -6.17742
| 65>    C      -26.09820        -6.79668        -7.59596
| 66>    C      -25.12589        -7.03152        -8.57748
| 67>    C      -23.83633        -6.67123        -8.19390
| 68>    S      -25.79321        -7.71874       -10.03403
| 69>    C      -27.37864        -7.68695        -9.31777
| 70>    C      -28.65564        -8.06959        -9.76665
| 71>    C      -29.59922        -7.84233        -8.81502
| 72>    S      -28.97165        -7.16051        -7.35443
| 73>    C      -27.37923        -7.17126        -8.02094
| 74>    H        1.95795         4.55760        -7.66619
| 75>    H        1.99767         4.54114        -5.04622
| 76>    H       -3.53075         2.34722        -2.60209
| 77>    H       -5.81449         1.48059        -2.25097
| 78>    H       -6.23693         1.25278        -6.56354
| 79>    H      -10.15815        -0.34498        -3.84077
| 80>    H       -9.74946        -0.02926         0.47114
| 81>    H      -12.22471        -1.16495        -2.45883
| 82>    H      -11.85940        -0.87378         0.57719
| 83>    H      -16.14820        -3.07359         2.62976
| 84>    H      -17.28994        -3.60816         1.38506
| 85>    H      -17.32961        -1.94531         2.00746
| 86>    H      -16.31397        -3.54298        -3.30629
| 87>    H      -18.82873        -2.58900         0.09666
| 88>    H      -21.14786        -4.53283        -3.89180
| 89>    H      -18.65589        -5.46705        -7.32109
| 90>    H      -21.18057        -5.99078        -7.58403
| 91>    H      -22.93531        -5.31873        -5.16286
| 92>    H      -22.97126        -6.78181        -8.82009
| 93>    H      -28.85856        -8.48759       -10.73517
| 94>    H      -30.65185        -8.03518        -8.87794
| 95> *
| 96>
| 97>                          ****END OF INPUT****

CARTESIAN COORDINATES (ANGSTROEM)
---------------------------------
  C      1.169200    4.238940   -7.014260
  S     -0.303370    3.667390   -7.718310
  C     -0.959900    3.388260   -6.146160
  C     -0.046920    3.736840   -5.149090
  C      1.171900    4.223400   -5.654690
  S     -0.664320    3.479090   -3.543060
  C     -2.162810    2.898070   -4.217510
  C     -3.347050    2.428820   -3.656600
  C     -4.272110    2.069890   -4.620570
  S     -3.655090    2.325390   -6.249150
  C     -2.165440    2.908290   -5.619980
  C     -5.572650    1.549410   -4.426260
  C     -6.211850    1.305450   -3.230200
  C     -7.502460    0.773770   -3.496930
  C     -7.599810    0.711900   -4.960900
  C     -6.470600    1.169890   -5.519840
  F     -8.678120    0.260120   -5.610860
  C     -8.474970    0.395540   -2.597120
  C     -9.762200   -0.146800   -2.863980
  C    -10.416480   -0.376370   -1.668180
  C     -9.527010    0.029730   -0.575700
  C     -8.393060    0.476550   -1.136160
  F     -7.319170    0.942270   -0.485360
  C    -11.715960   -0.906450   -1.537240
  C    -12.357790   -1.109740   -0.351210
  C    -13.661670   -1.634210   -0.246750
  C    -14.428050   -1.855510    0.908920
  N    -13.938730   -1.584180    2.212820
  O    -12.733620   -1.583760    2.394120
  O    -14.752200   -1.358980    3.089650
  C    -15.728440   -2.355270    0.665700
  C    -16.681520   -2.776670    1.730120
  C    -15.977210   -2.505280   -0.690980
  S    -14.593870   -2.043530   -1.650630
  C    -17.141430   -2.953350   -1.373920
  C    -17.167950   -3.422300   -2.668710
  C    -18.505790   -3.760660   -3.019330
  C    -19.300380   -3.424700   -1.838720
  C    -18.511460   -2.952570   -0.859000
  F    -20.630530   -3.569120   -1.772760
  C    -18.972860   -4.295710   -4.199600
  C    -20.304910   -4.649520   -4.542850
  C    -20.323260   -5.155810   -5.826730
  C    -18.950020   -5.132820   -6.345070
  C    -18.167660   -4.626610   -5.382850
  F    -16.844390   -4.436230   -5.452340
  C    -21.413760   -5.635550   -6.589560
  C    -22.703410   -5.675150   -6.156550
  C    -23.800680   -6.153870   -6.911030
  S    -25.401700   -6.119370   -6.177420
  C    -26.098200   -6.796680   -7.595960
  C    -25.125890   -7.031520   -8.577480
  C    -23.836330   -6.671230   -8.193900
  S    -25.793210   -7.718740  -10.034030
  C    -27.378640   -7.686950   -9.317770
  C    -28.655640   -8.069590   -9.766650
  C    -29.599220   -7.842330   -8.815020
  S    -28.971650   -7.160510   -7.354430
  C    -27.379230   -7.171260   -8.020940
  H      1.957950    4.557600   -7.666190
  H      1.997670    4.541140   -5.046220
  H     -3.530750    2.347220   -2.602090
  H     -5.814490    1.480590   -2.250970
  H     -6.236930    1.252780   -6.563540
  H    -10.158150   -0.344980   -3.840770
  H     -9.749460   -0.029260    0.471140
  H    -12.224710   -1.164950   -2.458830
  H    -11.859400   -0.873780    0.577190
  H    -16.148200   -3.073590    2.629760
  H    -17.289940   -3.608160    1.385060
  H    -17.329610   -1.945310    2.007460
  H    -16.313970   -3.542980   -3.306290
  H    -18.828730   -2.589000    0.096660
  H    -21.147860   -4.532830   -3.891800
  H    -18.655890   -5.467050   -7.321090
  H    -21.180570   -5.990780   -7.584030
  H    -22.935310   -5.318730   -5.162860
  H    -22.971260   -6.781810   -8.820090
  H    -28.858560   -8.487590  -10.735170
  H    -30.651850   -8.035180   -8.877940

 Total Charge           Charge          ....    0
 Multiplicity           Mult            ....    1
 Number of Electrons    NEL             ....  462
 Basis Dimension        Dim             ....  959

ORBITAL ENERGIES
----------------

  NO   OCC          E(Eh)            E(eV)
   0   2.0000     -88.966813     -2420.9101
   1   2.0000     -88.965143     -2420.8646
   2   2.0000     -88.964309     -2420.8419
   3   2.0000     -88.962393     -2420.7898
   4   2.0000     -88.962358     -2420.7888
   5   2.0000     -88.959102     -2420.7002
   6   2.0000     -88.958748     -2420.6906
   7   2.0000     -24.789547      -674.5579
   8   2.0000     -24.787405      -674.4996
   9   2.0000     -24.786174      -674.4661
  10   2.0000     -24.784330      -674.4159
  11   2.0000     -19.235155      -523.4152
  12   2.0000     -19.233624      -523.3735
  13   2.0000     -14.643187      -398.4614
  14   2.0000     -10.355993      -281.8009
  15   2.0000     -10.352750      -281.7127
  16   2.0000     -10.351089      -281.6675
  17   2.0000     -10.349915      -281.6355
  18   2.0000     -10.327170      -281.0166
  19   2.0000     -10.323803      -280.9250
  20   2.0000     -10.311072      -280.5785
  21   2.0000     -10.310812      -280.5715
  22   2.0000     -10.310344      -280.5587
  23   2.0000     -10.310197      -280.5547
  24   2.0000     -10.309788      -280.5436
  25   2.0000     -10.306163      -280.4449
  26   2.0000     -10.306058      -280.4421
  27   2.0000     -10.305398      -280.4241
  28   2.0000     -10.304757      -280.4067
  29   2.0000     -10.303527      -280.3732
  30   2.0000     -10.303523      -280.3731
  31   2.0000     -10.302935      -280.3571
  32   2.0000     -10.302163      -280.3361
  33   2.0000     -10.301358      -280.3142
  34   2.0000     -10.301261      -280.3116
  35   2.0000     -10.300599      -280.2936
  36   2.0000     -10.298933      -280.2482
  37   2.0000     -10.298004      -280.2229
  38   2.0000     -10.295530      -280.1556
  39   2.0000     -10.294811      -280.1360
  40   2.0000     -10.292600      -280.0759
  41   2.0000     -10.289487      -279.9912
  42   2.0000     -10.288786      -279.9721
  43   2.0000     -10.288717      -279.9702
  44   2.0000     -10.288116      -279.9539
  45   2.0000     -10.285129      -279.8726
  46   2.0000     -10.285084      -279.8714
  47   2.0000     -10.284967      -279.8682
  48   2.0000     -10.284647      -279.8595
  49   2.0000     -10.281713      -279.7796
  50   2.0000     -10.274071      -279.5717
  51   2.0000     -10.271038      -279.4891
  52   2.0000     -10.270367      -279.4709
  53   2.0000     -10.268014      -279.4069
  54   2.0000     -10.265463      -279.3375
  55   2.0000     -10.264637      -279.3150
  56   2.0000     -10.261120      -279.2193
  57   2.0000     -10.258919      -279.1594
  58   2.0000     -10.256343      -279.0893
  59   2.0000      -8.062180      -219.3831
  60   2.0000      -8.060048      -219.3251
  61   2.0000      -8.059615      -219.3133
  62   2.0000      -8.057902      -219.2667
  63   2.0000      -8.057797      -219.2638
  64   2.0000      -8.054426      -219.1721
  65   2.0000      -8.053967      -219.1596
  66   2.0000      -6.031390      -164.1225
  67   2.0000      -6.029552      -164.0724
  68   2.0000      -6.029064      -164.0592
  69   2.0000      -6.027497      -164.0165
  70   2.0000      -6.027411      -164.0142
  71   2.0000      -6.027373      -164.0132
  72   2.0000      -6.025488      -163.9619
  73   2.0000      -6.025110      -163.9516
  74   2.0000      -6.024276      -163.9289
  75   2.0000      -6.024142      -163.9252
  76   2.0000      -6.023729      -163.9140
  77   2.0000      -6.023181      -163.8991
  78   2.0000      -6.023047      -163.8954
  79   2.0000      -6.021783      -163.8611
  80   2.0000      -6.021262      -163.8469
  81   2.0000      -6.020359      -163.8223
  82   2.0000      -6.019866      -163.8089
  83   2.0000      -6.019623      -163.8023
  84   2.0000      -6.019551      -163.8003
  85   2.0000      -6.015352      -163.6860
  86   2.0000      -6.014909      -163.6740
  87   2.0000      -1.314920       -35.7808
  88   2.0000      -1.302106       -35.4321
  89   2.0000      -1.299621       -35.3645
  90   2.0000      -1.298103       -35.3232
  91   2.0000      -1.296529       -35.2803
  92   2.0000      -1.131682       -30.7946
  93   2.0000      -1.019520       -27.7426
  94   2.0000      -1.019451       -27.7407
  95   2.0000      -1.006873       -27.3984
  96   2.0000      -0.988930       -26.9102
  97   2.0000      -0.983785       -26.7702
  98   2.0000      -0.978970       -26.6391
  99   2.0000      -0.977324       -26.5943
 100   2.0000      -0.965545       -26.2738
 101   2.0000      -0.963686       -26.2232
 102   2.0000      -0.927906       -25.2496
 103   2.0000      -0.922337       -25.0981
 104   2.0000      -0.908648       -24.7256
 105   2.0000      -0.901829       -24.5400
 106   2.0000      -0.892772       -24.2936
 107   2.0000      -0.871191       -23.7063
 108   2.0000      -0.863820       -23.5057
 109   2.0000      -0.859164       -23.3790
 110   2.0000      -0.846474       -23.0337
 111   2.0000      -0.842610       -22.9286
 112   2.0000      -0.835588       -22.7375
 113   2.0000      -0.834314       -22.7028
 114   2.0000      -0.818158       -22.2632
 115   2.0000      -0.815021       -22.1779
 116   2.0000      -0.806766       -21.9532
 117   2.0000      -0.801526       -21.8106
 118   2.0000      -0.791158       -21.5285
 119   2.0000      -0.788771       -21.4635
 120   2.0000      -0.784871       -21.3574
 121   2.0000      -0.781282       -21.2598
 122   2.0000      -0.761366       -20.7178
 123   2.0000      -0.756176       -20.5766
 124   2.0000      -0.754661       -20.5354
 125   2.0000      -0.738807       -20.1039
 126   2.0000      -0.720522       -19.6064
 127   2.0000      -0.706176       -19.2160
 128   2.0000      -0.701617       -19.0920
 129   2.0000      -0.675258       -18.3747
 130   2.0000      -0.672242       -18.2926
 131   2.0000      -0.669125       -18.2078
 132   2.0000      -0.662446       -18.0261
 133   2.0000      -0.659379       -17.9426
 134   2.0000      -0.655625       -17.8405
 135   2.0000      -0.652388       -17.7524
 136   2.0000      -0.647976       -17.6323
 137   2.0000      -0.645201       -17.5568
 138   2.0000      -0.641261       -17.4496
 139   2.0000      -0.635607       -17.2957
 140   2.0000      -0.630663       -17.1612
 141   2.0000      -0.628146       -17.0927
 142   2.0000      -0.627717       -17.0810
 143   2.0000      -0.621337       -16.9075
 144   2.0000      -0.620499       -16.8846
 145   2.0000      -0.618151       -16.8207
 146   2.0000      -0.607199       -16.5227
 147   2.0000      -0.605322       -16.4717
 148   2.0000      -0.595105       -16.1936
 149   2.0000      -0.589897       -16.0519
 150   2.0000      -0.575217       -15.6524
 151   2.0000      -0.572837       -15.5877
 152   2.0000      -0.569883       -15.5073
 153   2.0000      -0.566921       -15.4267
 154   2.0000      -0.560860       -15.2618
 155   2.0000      -0.558607       -15.2005
 156   2.0000      -0.557644       -15.1743
 157   2.0000      -0.553897       -15.0723
 158   2.0000      -0.550845       -14.9892
 159   2.0000      -0.550520       -14.9804
 160   2.0000      -0.549973       -14.9655
 161   2.0000      -0.549796       -14.9607
 162   2.0000      -0.545470       -14.8430
 163   2.0000      -0.540799       -14.7159
 164   2.0000      -0.532833       -14.4991
 165   2.0000      -0.528251       -14.3744
 166   2.0000      -0.526547       -14.3281
 167   2.0000      -0.525089       -14.2884
 168   2.0000      -0.517200       -14.0737
 169   2.0000      -0.517159       -14.0726
 170   2.0000      -0.517093       -14.0708
 171   2.0000      -0.513086       -13.9618
 172   2.0000      -0.511035       -13.9060
 173   2.0000      -0.507564       -13.8115
 174   2.0000      -0.497818       -13.5463
 175   2.0000      -0.493794       -13.4368
 176   2.0000      -0.488202       -13.2847
 177   2.0000      -0.485806       -13.2195
 178   2.0000      -0.485097       -13.2001
 179   2.0000      -0.479285       -13.0420
 180   2.0000      -0.478119       -13.0103
 181   2.0000      -0.475323       -12.9342
 182   2.0000      -0.472492       -12.8572
 183   2.0000      -0.472376       -12.8540
 184   2.0000      -0.472037       -12.8448
 185   2.0000      -0.470232       -12.7957
 186   2.0000      -0.468118       -12.7381
 187   2.0000      -0.465903       -12.6779
 188   2.0000      -0.463518       -12.6130
 189   2.0000      -0.460251       -12.5241
 190   2.0000      -0.459039       -12.4911
 191   2.0000      -0.456497       -12.4219
 192   2.0000      -0.454206       -12.3596
 193   2.0000      -0.452017       -12.3000
 194   2.0000      -0.451245       -12.2790
 195   2.0000      -0.449945       -12.2436
 196   2.0000      -0.444488       -12.0951
 197   2.0000      -0.440494       -11.9864
 198   2.0000      -0.439625       -11.9628
 199   2.0000      -0.436384       -11.8746
 200   2.0000      -0.434247       -11.8165
 201   2.0000      -0.423616       -11.5272
 202   2.0000      -0.421552       -11.4710
 203   2.0000      -0.418477       -11.3873
 204   2.0000      -0.413924       -11.2634
 205   2.0000      -0.412604       -11.2275
 206   2.0000      -0.411081       -11.1861
 207   2.0000      -0.410400       -11.1675
 208   2.0000      -0.409007       -11.1296
 209   2.0000      -0.400913       -10.9094
 210   2.0000      -0.390170       -10.6171
 211   2.0000      -0.382097       -10.3974
 212   2.0000      -0.377704       -10.2778
 213   2.0000      -0.370945       -10.0939
 214   2.0000      -0.366712        -9.9787
 215   2.0000      -0.361908        -9.8480
 216   2.0000      -0.350290        -9.5319
 217   2.0000      -0.336175        -9.1478
 218   2.0000      -0.334833        -9.1113
 219   2.0000      -0.332965        -9.0604
 220   2.0000      -0.327878        -8.9220
 221   2.0000      -0.312920        -8.5150
 222   2.0000      -0.303157        -8.2493
 223   2.0000      -0.297529        -8.0962
 224   2.0000      -0.287644        -7.8272
 225   2.0000      -0.285630        -7.7724
 226   2.0000      -0.285137        -7.7590
 227   2.0000      -0.280209        -7.6249
 228   2.0000      -0.259774        -7.0688
 229   2.0000      -0.242229        -6.5914
 230   2.0000      -0.228236        -6.2106
 231   0.0000      -0.110575        -3.0089
 232   0.0000      -0.095564        -2.6004
 233   0.0000      -0.047324        -1.2877
 234   0.0000      -0.030137        -0.8201
 235   0.0000      -0.013984        -0.3805

MULLIKEN ATOMIC CHARGES
-----------------------
   0 C :   -0.075295
   1 S :    0.146654
   2 C :   -0.104197
   3 C :   -0.053077
   4 C :    0.022039
   5 S :    0.153272
   6 C :   -0.022425
   7 C :   -0.044459
   8 C :   -0.066797
   9 S :    0.142229
  10 C :   -0.062435
  11 C :    0.132164
  12 C :   -0.119159
  13 C :    0.025079
  14 C :    0.258765
  15 C :   -0.100552
  16 F :   -0.174801
  17 C :    0.002811
  18 C :   -0.085128
  19 C :    0.113660
  20 C :   -0.084494
  21 C :    0.257719
  22 F :   -0.177976
  23 C :    0.004960
  24 C :   -0.029081
  25 C :   -0.083769
  26 C :    0.127431
  27 N :    0.256867
  28 O :   -0.248466
  29 O :   -0.245391
  30 C :   -0.090571
  31 C :    0.139073
  32 C :   -0.124049
  33 S :    0.146524
  34 C :    0.090686
  35 C :   -0.111271
  36 C :    0.014420
  37 C :    0.251582
  38 C :   -0.092258
  39 F :   -0.177252
  40 C :    0.008679
  41 C :   -0.104404
  42 C :    0.117760
  43 C :   -0.082199
  44 C :    0.259964
  45 F :   -0.176590
  46 C :   -0.013264
  47 C :    0.081044
  48 C :   -0.079564
  49 S :    0.152042
  50 C :   -0.071852
  51 C :   -0.037023
  52 C :   -0.029106
  53 S :    0.149084
  54 C :   -0.053075
  55 C :    0.022463
  56 C :   -0.077417
  57 S :    0.145930
  58 C :   -0.101859
  59 H :    0.031849
  60 H :   -0.008036
  61 H :   -0.009236
  62 H :   -0.019148
  63 H :   -0.006496
  64 H :   -0.014000
  65 H :   -0.006355
  66 H :   -0.008292
  67 H :    0.019481
  68 H :    0.027539
  69 H :    0.026096
  70 H :    0.037472
  71 H :   -0.009377
  72 H :   -0.020520
  73 H :   -0.018499
  74 H :   -0.019751
  75 H :   -0.026412
  76 H :   -0.011011
  77 H :   -0.012659
  78 H :   -0.008765
  79 H :    0.032473
Sum of atomic charges:   -0.0000000

LOEWDIN ATOMIC CHARGES
----------------------
   0 C :   -0.170830
   1 S :    0.428522
   2 C :   -0.225364
   3 C :   -0.192422
   4 C :   -0.072187
   5 S :    0.405163
   6 C :   -0.191905
   7 C :   -0.043268
   8 C :   -0.159808
   9 S :    0.433430
  10 C :   -0.210203
  11 C :   -0.008268
  12 C :   -0.070864
  13 C :    0.006854
  14 C :    0.085808
  15 C :   -0.067530
  16 F :   -0.049951
  17 C :   -0.008855
  18 C :   -0.043326
  19 C :   -0.008494
  20 C :   -0.055875
  21 C :    0.080393
  22 F :   -0.054152
  23 C :    0.000524
  24 C :   -0.042504
  25 C :   -0.134868
  26 C :   -0.073898
  27 N :    0.288078
  28 O :   -0.211847
  29 O :   -0.202177
  30 C :   -0.031652
  31 C :   -0.048305
  32 C :   -0.164118
  33 S :    0.474319
  34 C :   -0.025644
  35 C :   -0.068890
  36 C :   -0.009431
  37 C :    0.080492
  38 C :   -0.062746
  39 F :   -0.054135
  40 C :    0.009299
  41 C :   -0.072384
  42 C :    0.005715
  43 C :   -0.057915
  44 C :    0.081069
  45 F :   -0.052237
  46 C :   -0.029625
  47 C :   -0.005556
  48 C :   -0.165686
  49 S :    0.431309
  50 C :   -0.212515
  51 C :   -0.192053
  52 C :   -0.054265
  53 S :    0.401991
  54 C :   -0.193440
  55 C :   -0.072401
  56 C :   -0.171478
  57 S :    0.428306
  58 C :   -0.225086
  59 H :    0.025610
  60 H :    0.034968
  61 H :    0.037221
  62 H :    0.021096
  63 H :    0.026738
  64 H :    0.023922
  65 H :    0.033500
  66 H :    0.025730
  67 H :    0.034987
  68 H :    0.035827
  69 H :    0.033241
  70 H :    0.044577
  71 H :    0.017571
  72 H :    0.030370
  73 H :    0.019239
  74 H :    0.029205
  75 H :    0.027097
  76 H :    0.032361
  77 H :    0.033284
  78 H :    0.034735
  79 H :    0.025611

  Mayer bond orders larger than 0.100000
B(  0-C ,  1-S ) :   1.1462 B(  0-C ,  4-C ) :   1.5903 B(  0-C , 59-H ) :   0.9678
B(  1-S ,  2-C ) :   1.0787 B(  2-C ,  3-C ) :   1.4717 B(  2-C , 10-C ) :   1.3058
B(  3-C ,  4-C ) :   1.2635 B(  3-C ,  5-S ) :   1.0550 B(  4-C , 60-H ) :   1.0000
B(  5-S ,  6-C ) :   1.0483 B(  6-C ,  7-C ) :   1.2763 B(  6-C , 10-C ) :   1.4454
B(  7-C ,  8-C ) :   1.4912 B(  7-C , 61-H ) :   1.0046 B(  8-C ,  9-S ) :   1.0791
B(  8-C , 11-C ) :   1.1393 B(  9-S , 10-C ) :   1.0860 B( 11-C , 12-C ) :   1.5415
B( 11-C , 15-C ) :   1.0095 B( 12-C , 13-C ) :   1.1458 B( 12-C , 62-H ) :   1.0153
B( 13-C , 14-C ) :   1.0147 B( 13-C , 17-C ) :   1.4374 B( 14-C , 15-C ) :   1.6731
B( 14-C , 16-F ) :   1.1257 B( 15-C , 63-H ) :   1.0098 B( 17-C , 18-C ) :   1.1232
B( 17-C , 21-C ) :   1.0269 B( 18-C , 19-C ) :   1.4893 B( 18-C , 64-H ) :   1.0240
B( 19-C , 20-C ) :   1.0230 B( 19-C , 23-C ) :   1.1620 B( 20-C , 21-C ) :   1.6592
B( 20-C , 65-H ) :   1.0161 B( 21-C , 22-F ) :   1.1209 B( 23-C , 24-C ) :   1.5517
B( 23-C , 66-H ) :   0.9767 B( 24-C , 25-C ) :   1.1851 B( 24-C , 67-H ) :   0.9698
B( 25-C , 26-C ) :   1.4083 B( 25-C , 33-S ) :   1.1461 B( 26-C , 27-N ) :   0.9358
B( 26-C , 30-C ) :   1.2614 B( 27-N , 28-O ) :   1.5007 B( 27-N , 29-O ) :   1.5108
B( 28-O , 29-O ) :   0.2547 B( 30-C , 31-C ) :   1.1260 B( 30-C , 32-C ) :   1.5166
B( 31-C , 68-H ) :   0.9271 B( 31-C , 69-H ) :   0.9371 B( 31-C , 70-H ) :   0.9264
B( 32-C , 33-S ) :   1.1009 B( 32-C , 34-C ) :   1.1079 B( 34-C , 35-C ) :   1.5314
B( 34-C , 38-C ) :   1.0376 B( 35-C , 36-C ) :   1.1375 B( 35-C , 71-H ) :   1.0093
B( 36-C , 37-C ) :   1.0310 B( 36-C , 40-C ) :   1.4386 B( 37-C , 38-C ) :   1.6465
B( 37-C , 39-F ) :   1.1225 B( 38-C , 72-H ) :   1.0164 B( 40-C , 41-C ) :   1.1548
B( 40-C , 44-C ) :   1.0073 B( 41-C , 42-C ) :   1.5190 B( 41-C , 73-H ) :   1.0099
B( 42-C , 43-C ) :   1.0039 B( 42-C , 46-C ) :   1.1450 B( 43-C , 44-C ) :   1.6657
B( 43-C , 74-H ) :   1.0202 B( 44-C , 45-F ) :   1.1231 B( 46-C , 47-C ) :   1.6459
B( 46-C , 75-H ) :   0.9737 B( 47-C , 48-C ) :   1.1404 B( 47-C , 76-H ) :   0.9617
B( 48-C , 49-S ) :   1.0848 B( 48-C , 52-C ) :   1.4909 B( 49-S , 50-C ) :   1.0856
B( 50-C , 51-C ) :   1.4536 B( 50-C , 58-C ) :   1.3071 B( 51-C , 52-C ) :   1.2864
B( 51-C , 53-S ) :   1.0496 B( 52-C , 77-H ) :   0.9974 B( 53-S , 54-C ) :   1.0537
B( 54-C , 55-C ) :   1.2619 B( 54-C , 58-C ) :   1.4748 B( 55-C , 56-C ) :   1.5914
B( 55-C , 78-H ) :   1.0003 B( 56-C , 57-S ) :   1.1460 B( 56-C , 79-H ) :   0.9681
B( 57-S , 58-C ) :   1.0796

-----------------------------------------------------------------------------
         ABSORPTION SPECTRUM VIA TRANSITION ELECTRIC DIPOLE MOMENTS
-----------------------------------------------------------------------------
State   Energy  Wavelength   fosc         T2         TX        TY        TZ
        (cm-1)    (nm)                  (au**2)     (au)      (au)      (au)
-----------------------------------------------------------------------------
   0   11619.4    860.6   1.616319543  45.79518  -6.15584  -2.71160  -0.74027
   1   14209.6    703.7   0.455046513  10.54263  -0.89154  -0.14824   3.11862
   2   16307.6    613.2   0.024532141   0.49525   0.42650   0.05469  -0.55709
   3   16673.3    599.8   0.017465138   0.34485   0.06623   0.06260   0.58012
   4   19992.4    500.2   0.005636805   0.09282  -0.09213  -0.04425   0.28701
   5   21226.6    471.1   0.428820624   6.65076   2.38351   0.93484   0.30935
   6   22774.7    439.1   0.376670975   5.44484   1.47900   0.57920   1.70937
   7   23511.3    425.3   0.542003310   7.58927  -2.38207  -0.93809   1.01735
   8   24878.5    402.0   0.104384599   1.38130   1.08068   0.45945  -0.04823
   9   25082.2    398.7   0.075162066   0.98653   0.41029   0.09960  -0.89904
  10   25414.4    393.5   0.020108605   0.26048   0.27884   0.09417   0.41697
  11   25760.1    388.2   0.046076223   0.58885   0.67484   0.33271   0.15082
  12   26776.6    373.5   0.021638373   0.26604   0.39288  -0.09059  -0.32168
  13   28544.1    350.3   0.052079878   0.60066  -0.70579  -0.30685   0.09143
  14   29355.4    340.7   0.459454153   5.15264   1.42298   0.55226   1.68011
  15   30659.5    326.2   0.400732259   4.30293  -1.49773  -0.18412   1.42331
  16   31131.4    321.2   0.007756731   0.08203  -0.10011  -0.18098  -0.19812
  17   31970.3    312.8   0.128007693   1.31815  -1.01446  -0.37732   0.38294
  18   32165.7    310.9   0.040967334   0.41930   0.43285   0.24523  -0.41449
  19   32732.0    305.5   0.115811909   1.16481   0.87331   0.46438   0.43185
  20   33081.9    302.3   0.062676817   0.62372  -0.71699  -0.26593  -0.19731
  21   33242.0    300.8   0.172383948   1.70720  -1.13607  -0.53817   0.35627
  22   34027.8    293.9   0.083836641   0.81110   0.80214   0.35997  -0.19520
  23   34269.4    291.8   0.105484726   1.01335   0.89486   0.41509   0.20068
  24   34333.8    291.3   0.007854008   0.07531  -0.23650   0.01165   0.13871
  25   34618.1    288.9   0.040553696   0.38566   0.48915   0.18022   0.33751
  26   35064.3    285.2   0.044637355   0.41909  -0.58056  -0.11800   0.26099
  27   35175.6    284.3   0.058283908   0.54548   0.68026   0.15448  -0.24263
  28   35648.3    280.5   0.034842257   0.32177  -0.46669  -0.16533  -0.27682
  29   36079.4    277.2   0.003363127   0.03069   0.17112   0.03620  -0.00973
  30   36491.8    274.0   0.082889946   0.74779  -0.55833  -0.28953  -0.59349
  31   36771.2    272.0   0.019642472   0.17586  -0.36855  -0.08667   0.18032
  32   37269.9    268.3   0.006443504   0.05692  -0.12662  -0.10179  -0.17471
  33   37758.8    264.8   0.004397227   0.03834   0.04409  -0.05091   0.18385
  34   38603.4    259.0   0.023713789   0.20223  -0.36637  -0.00709   0.26069
  35   39746.5    251.6   0.019442269   0.16104   0.28655   0.19157   0.20550
  36   40018.7    249.9   0.042136832   0.34664  -0.21765  -0.01977   0.54670
  37   40107.9    249.3   0.069567470   0.57102  -0.65499  -0.11443   0.35905
  38   40231.1    248.6   0.004480269   0.03666  -0.16029  -0.10413  -0.01128
  39   40305.7    248.1   0.053677522   0.43843   0.17923   0.11085   0.62771

FINAL SINGLE POINT ENERGY     -5115.371291742253

DIPOLE MOMENT
-------------
                                X             Y             Z
Electronic contribution:     13.97485       6.84875      -9.00431
Nuclear contribution   :    -14.41284      -7.19967       6.57401
                        -----------------------------------------
Total Dipole Moment    :     -0.43799      -0.35091      -2.43030
                        -----------------------------------------
Magnitude (a.u.)       :      2.49426
Magnitude (Debye)      :      6.33991

Rotational constants in cm-1:     0.001837     0.000189     0.000172
Rotational constants in MHz :    55.070268     5.676970     5.162799

                             ****ORCA TERMINATED NORMALLY****
TOTAL RUN TIME: 0 days 0 hours 6 minutes 53 seconds 859 msec
