                         Program Version 4.2.0 -  RELEASE  -
|  1> # ORCA input file
|  2> # SCF done       -163.831765115389          0.000730587889
|  3> ! CAM-B3LYP def2-SVP def2/J RIJCOSX Grid4 TightSCF
|  4> %maxcore 5000
|  5> %tddft
|  6>     Mode sTDDFT
|  7>     Ethresh 5.0
|  8>     maxcore 5000
|  9> end
| 10>
| 11> %pal
| 12>   nprocs 6
| 13>   end
| 14> * xyz 0 1
| 15>    C        0.16845         3.24608         5.62209
| 16>    C        0.47572         4.60039         5.70850
| 17>    C        0.68275         5.39096         4.52728
| 18>    N        0.93574         6.71005         4.65200
| 19>    C        1.02727         7.21806         5.85038
| 20>    C        0.86442         6.42961         7.00893
| 21>    N        0.58247         5.16160         6.93973
| 22>    C        0.60290         4.79583         3.23971
| 23>    C        0.24697         3.41923         3.18037
| 24>    C        0.04089         2.65139         4.37131
| 25>    N       -0.27084         1.33225         4.29415
| 26>    C       -0.37667         0.80478         3.10980
| 27>    C       -0.19321         1.56480         1.93369
| 28>    N        0.10948         2.83314         1.97176
| 29>    C        0.84871         5.46116         2.00570
| 30>    C        1.35718         6.71462         1.85167
| 31>    C        1.58978         7.39346         0.63923
| 32>    C        1.14215         7.19276        -0.68359
| 33>    C        1.69588         8.13690        -1.60088
| 34>    C        1.37640         8.05816        -2.96863
| 35>    C        0.51397         7.09105        -3.40521
| 36>    C       -0.07520         6.19539        -2.49718
| 37>    C        0.22112         6.24130        -1.16193
| 38>    C        2.55088         9.07475        -0.98624
| 39>    S        2.64633         8.77403         0.71415
| 40>    C        3.26808        10.10747        -1.61979
| 41>    C        4.15061        10.93372        -0.99332
| 42>    C        4.93928        11.93462        -1.60759
| 43>    S        5.61747        13.18625        -0.60228
| 44>    C        6.27431        13.97753        -1.97710
| 45>    C        6.00492        13.34299        -3.14936
| 46>    C        6.52300        13.83207        -4.46177
| 47>    C        5.24621        12.14745        -2.95546
| 48>    C        4.90896        11.19139        -3.96988
| 49>    C        4.57529        11.45491        -5.25604
| 50>    C        4.18554        10.44235        -6.16567
| 51>    C        3.79560        10.68902        -7.44624
| 52>    C        3.32529         9.71536        -8.34695
| 53>    C        2.98492         9.89035        -9.70396
| 54>    C        2.50774         8.69761       -10.32772
| 55>    C        2.21740         8.72421       -11.70488
| 56>    C        2.34056         9.89430       -12.40428
| 57>    C        2.76349        11.07654       -11.77567
| 58>    C        3.09432        11.07794       -10.44899
| 59>    C        2.44141         7.60547        -9.43438
| 60>    S        3.05289         8.07265        -7.87255
| 61>    C        1.97366         6.28328        -9.55257
| 62>    C        1.22285         5.77130       -10.56891
| 63>    C        0.75436         4.43771       -10.70631
| 64>    C       -0.06867         4.15149       -11.83164
| 65>    C       -0.66187         2.86619       -12.01662
| 66>    N       -1.44680         2.63669       -13.09612
| 67>    C       -1.64324         3.60950       -13.93881
| 68>    C       -1.05564         4.87683       -13.75627
| 69>    N       -0.28817         5.13238       -12.73305
| 70>    C       -0.46359         1.81870       -11.08740
| 71>    C        0.41927         2.06948       -10.01311
| 72>    C        1.02178         3.35960        -9.82055
| 73>    N        1.85615         3.55510        -8.77978
| 74>    C        2.08797         2.56875        -7.95794
| 75>    C        1.51488         1.30014        -8.15800
| 76>    N        0.71739         1.06378        -9.15983
| 77>    C       -1.17332         0.57941       -11.30786
| 78>    C       -1.31625        -0.43570       -10.45630
| 79>    H        0.03653         2.66313         6.51830
| 80>    H        1.22021         8.28112         5.91123
| 81>    H        0.94895         6.85876         7.99879
| 82>    H       -0.62354        -0.24790         3.06419
| 83>    H       -0.30533         1.12182         0.95283
| 84>    H        0.65502         4.84370         1.14156
| 85>    H        1.65886         7.24613         2.74417
| 86>    H        1.80685         8.76131        -3.66538
| 87>    H        0.26725         7.02028        -4.45398
| 88>    H       -0.77839         5.46312        -2.86493
| 89>    H       -0.26230         5.56451        -0.47802
| 90>    H        3.06862        10.24074        -2.67195
| 91>    H        4.24949        10.85282         0.08276
| 92>    H        6.84040        14.87824        -1.84028
| 93>    H        7.36769        14.49881        -4.30420
| 94>    H        5.75223        14.38641        -4.99729
| 95>    H        6.83981        12.99571        -5.08146
| 96>    H        4.90602        10.15699        -3.64667
| 97>    H        4.52428        12.47445        -5.60894
| 98>    H        4.17801         9.42030        -5.80634
| 99>    H        3.83513        11.70563        -7.81460
|100>    H        1.92340         7.82368       -12.21629
|101>    H        2.11761         9.91230       -13.46060
|102>    H        2.84393        11.98419       -12.35498
|103>    H        3.44709        11.98009        -9.97329
|104>    H        2.20954         5.63059        -8.72324
|105>    H        0.88478         6.41624       -11.36524
|106>    H       -2.26925         3.39375       -14.79470
|107>    H       -1.20695         5.68091       -14.46431
|108>    H        2.76273         2.76916        -7.13605
|109>    H        1.73424         0.46690        -7.50296
|110>    H       -1.65113         0.53653       -12.27812
|111>    H       -0.88322        -0.42190        -9.47288
|112>    H       -1.87107        -1.31447       -10.74034
|113> *
|114>
|115>                          ****END OF INPUT****

CARTESIAN COORDINATES (ANGSTROEM)
---------------------------------
  C      0.168450    3.246080    5.622090
  C      0.475720    4.600390    5.708500
  C      0.682750    5.390960    4.527280
  N      0.935740    6.710050    4.652000
  C      1.027270    7.218060    5.850380
  C      0.864420    6.429610    7.008930
  N      0.582470    5.161600    6.939730
  C      0.602900    4.795830    3.239710
  C      0.246970    3.419230    3.180370
  C      0.040890    2.651390    4.371310
  N     -0.270840    1.332250    4.294150
  C     -0.376670    0.804780    3.109800
  C     -0.193210    1.564800    1.933690
  N      0.109480    2.833140    1.971760
  C      0.848710    5.461160    2.005700
  C      1.357180    6.714620    1.851670
  C      1.589780    7.393460    0.639230
  C      1.142150    7.192760   -0.683590
  C      1.695880    8.136900   -1.600880
  C      1.376400    8.058160   -2.968630
  C      0.513970    7.091050   -3.405210
  C     -0.075200    6.195390   -2.497180
  C      0.221120    6.241300   -1.161930
  C      2.550880    9.074750   -0.986240
  S      2.646330    8.774030    0.714150
  C      3.268080   10.107470   -1.619790
  C      4.150610   10.933720   -0.993320
  C      4.939280   11.934620   -1.607590
  S      5.617470   13.186250   -0.602280
  C      6.274310   13.977530   -1.977100
  C      6.004920   13.342990   -3.149360
  C      6.523000   13.832070   -4.461770
  C      5.246210   12.147450   -2.955460
  C      4.908960   11.191390   -3.969880
  C      4.575290   11.454910   -5.256040
  C      4.185540   10.442350   -6.165670
  C      3.795600   10.689020   -7.446240
  C      3.325290    9.715360   -8.346950
  C      2.984920    9.890350   -9.703960
  C      2.507740    8.697610  -10.327720
  C      2.217400    8.724210  -11.704880
  C      2.340560    9.894300  -12.404280
  C      2.763490   11.076540  -11.775670
  C      3.094320   11.077940  -10.448990
  C      2.441410    7.605470   -9.434380
  S      3.052890    8.072650   -7.872550
  C      1.973660    6.283280   -9.552570
  C      1.222850    5.771300  -10.568910
  C      0.754360    4.437710  -10.706310
  C     -0.068670    4.151490  -11.831640
  C     -0.661870    2.866190  -12.016620
  N     -1.446800    2.636690  -13.096120
  C     -1.643240    3.609500  -13.938810
  C     -1.055640    4.876830  -13.756270
  N     -0.288170    5.132380  -12.733050
  C     -0.463590    1.818700  -11.087400
  C      0.419270    2.069480  -10.013110
  C      1.021780    3.359600   -9.820550
  N      1.856150    3.555100   -8.779780
  C      2.087970    2.568750   -7.957940
  C      1.514880    1.300140   -8.158000
  N      0.717390    1.063780   -9.159830
  C     -1.173320    0.579410  -11.307860
  C     -1.316250   -0.435700  -10.456300
  H      0.036530    2.663130    6.518300
  H      1.220210    8.281120    5.911230
  H      0.948950    6.858760    7.998790
  H     -0.623540   -0.247900    3.064190
  H     -0.305330    1.121820    0.952830
  H      0.655020    4.843700    1.141560
  H      1.658860    7.246130    2.744170
  H      1.806850    8.761310   -3.665380
  H      0.267250    7.020280   -4.453980
  H     -0.778390    5.463120   -2.864930
  H     -0.262300    5.564510   -0.478020
  H      3.068620   10.240740   -2.671950
  H      4.249490   10.852820    0.082760
  H      6.840400   14.878240   -1.840280
  H      7.367690   14.498810   -4.304200
  H      5.752230   14.386410   -4.997290
  H      6.839810   12.995710   -5.081460
  H      4.906020   10.156990   -3.646670
  H      4.524280   12.474450   -5.608940
  H      4.178010    9.420300   -5.806340
  H      3.835130   11.705630   -7.814600
  H      1.923400    7.823680  -12.216290
  H      2.117610    9.912300  -13.460600
  H      2.843930   11.984190  -12.354980
  H      3.447090   11.980090   -9.973290
  H      2.209540    5.630590   -8.723240
  H      0.884780    6.416240  -11.365240
  H     -2.269250    3.393750  -14.794700
  H     -1.206950    5.680910  -14.464310
  H      2.762730    2.769160   -7.136050
  H      1.734240    0.466900   -7.502960
  H     -1.651130    0.536530  -12.278120
  H     -0.883220   -0.421900   -9.472880
  H     -1.871070   -1.314470  -10.740340

 Total Charge           Charge          ....    0
 Multiplicity           Mult            ....    1
 Number of Electrons    NEL             ....  456
 Basis Dimension        Dim             .... 1078

ORBITAL ENERGIES
----------------

  NO   OCC          E(Eh)            E(eV)
   0   2.0000     -88.956388     -2420.6264
   1   2.0000     -88.955858     -2420.6120
   2   2.0000     -88.944808     -2420.3113
   3   2.0000     -14.421602      -392.4317
   4   2.0000     -14.421578      -392.4311
   5   2.0000     -14.420713      -392.4075
   6   2.0000     -14.420545      -392.4030
   7   2.0000     -14.419160      -392.3653
   8   2.0000     -14.418548      -392.3486
   9   2.0000     -14.417480      -392.3196
  10   2.0000     -14.416785      -392.3007
  11   2.0000     -10.317112      -280.7429
  12   2.0000     -10.316730      -280.7325
  13   2.0000     -10.316020      -280.7132
  14   2.0000     -10.315744      -280.7057
  15   2.0000     -10.315671      -280.7037
  16   2.0000     -10.314672      -280.6765
  17   2.0000     -10.314589      -280.6742
  18   2.0000     -10.314255      -280.6651
  19   2.0000     -10.314022      -280.6588
  20   2.0000     -10.313238      -280.6375
  21   2.0000     -10.312359      -280.6135
  22   2.0000     -10.312071      -280.6057
  23   2.0000     -10.311619      -280.5934
  24   2.0000     -10.311008      -280.5768
  25   2.0000     -10.310768      -280.5703
  26   2.0000     -10.310123      -280.5527
  27   2.0000     -10.298409      -280.2340
  28   2.0000     -10.297831      -280.2182
  29   2.0000     -10.295181      -280.1461
  30   2.0000     -10.294557      -280.1291
  31   2.0000     -10.293751      -280.1072
  32   2.0000     -10.287568      -279.9390
  33   2.0000     -10.285323      -279.8779
  34   2.0000     -10.281319      -279.7689
  35   2.0000     -10.279223      -279.7119
  36   2.0000     -10.278615      -279.6953
  37   2.0000     -10.277683      -279.6700
  38   2.0000     -10.277624      -279.6684
  39   2.0000     -10.275580      -279.6127
  40   2.0000     -10.275117      -279.6002
  41   2.0000     -10.274853      -279.5930
  42   2.0000     -10.274485      -279.5830
  43   2.0000     -10.272823      -279.5377
  44   2.0000     -10.272472      -279.5282
  45   2.0000     -10.272414      -279.5266
  46   2.0000     -10.272051      -279.5167
  47   2.0000     -10.270200      -279.4664
  48   2.0000     -10.270120      -279.4642
  49   2.0000     -10.268863      -279.4300
  50   2.0000     -10.268242      -279.4131
  51   2.0000     -10.267545      -279.3941
  52   2.0000     -10.267113      -279.3824
  53   2.0000     -10.266800      -279.3738
  54   2.0000     -10.266496      -279.3656
  55   2.0000     -10.265809      -279.3469
  56   2.0000     -10.265638      -279.3422
  57   2.0000     -10.265359      -279.3346
  58   2.0000     -10.264778      -279.3188
  59   2.0000     -10.262923      -279.2683
  60   2.0000     -10.258138      -279.1381
  61   2.0000     -10.257774      -279.1282
  62   2.0000     -10.251331      -278.9529
  63   2.0000     -10.243694      -278.7451
  64   2.0000      -8.051509      -219.0927
  65   2.0000      -8.051103      -219.0816
  66   2.0000      -8.041020      -218.8073
  67   2.0000      -6.020359      -163.8223
  68   2.0000      -6.019946      -163.8111
  69   2.0000      -6.016422      -163.7152
  70   2.0000      -6.016014      -163.7041
  71   2.0000      -6.014446      -163.6614
  72   2.0000      -6.014006      -163.6494
  73   2.0000      -6.010222      -163.5465
  74   2.0000      -6.006118      -163.4348
  75   2.0000      -6.003232      -163.3563
  76   2.0000      -1.079627       -29.3781
  77   2.0000      -1.077100       -29.3094
  78   2.0000      -1.072773       -29.1916
  79   2.0000      -1.070294       -29.1242
  80   2.0000      -1.002707       -27.2850
  81   2.0000      -1.000147       -27.2154
  82   2.0000      -0.996423       -27.1141
  83   2.0000      -0.994723       -27.0678
  84   2.0000      -0.987445       -26.8698
  85   2.0000      -0.987299       -26.8658
  86   2.0000      -0.976742       -26.5785
  87   2.0000      -0.942929       -25.6584
  88   2.0000      -0.939657       -25.5694
  89   2.0000      -0.924222       -25.1493
  90   2.0000      -0.922558       -25.1041
  91   2.0000      -0.909597       -24.7514
  92   2.0000      -0.901900       -24.5420
  93   2.0000      -0.890838       -24.2409
  94   2.0000      -0.877958       -23.8904
  95   2.0000      -0.875295       -23.8180
  96   2.0000      -0.859820       -23.3969
  97   2.0000      -0.858509       -23.3612
  98   2.0000      -0.856549       -23.3079
  99   2.0000      -0.852277       -23.1916
 100   2.0000      -0.838081       -22.8054
 101   2.0000      -0.831216       -22.6185
 102   2.0000      -0.823754       -22.4155
 103   2.0000      -0.821415       -22.3518
 104   2.0000      -0.817602       -22.2481
 105   2.0000      -0.811149       -22.0725
 106   2.0000      -0.800722       -21.7887
 107   2.0000      -0.785675       -21.3793
 108   2.0000      -0.785007       -21.3611
 109   2.0000      -0.779967       -21.2240
 110   2.0000      -0.759362       -20.6633
 111   2.0000      -0.757099       -20.6017
 112   2.0000      -0.754315       -20.5260
 113   2.0000      -0.750460       -20.4211
 114   2.0000      -0.727510       -19.7966
 115   2.0000      -0.719981       -19.5917
 116   2.0000      -0.719292       -19.5729
 117   2.0000      -0.718588       -19.5538
 118   2.0000      -0.698607       -19.0101
 119   2.0000      -0.697520       -18.9805
 120   2.0000      -0.696540       -18.9538
 121   2.0000      -0.689536       -18.7632
 122   2.0000      -0.684528       -18.6269
 123   2.0000      -0.677973       -18.4486
 124   2.0000      -0.665267       -18.1028
 125   2.0000      -0.663518       -18.0553
 126   2.0000      -0.656641       -17.8681
 127   2.0000      -0.644844       -17.5471
 128   2.0000      -0.642020       -17.4703
 129   2.0000      -0.633782       -17.2461
 130   2.0000      -0.631890       -17.1946
 131   2.0000      -0.628061       -17.0904
 132   2.0000      -0.626725       -17.0541
 133   2.0000      -0.623056       -16.9542
 134   2.0000      -0.618238       -16.8231
 135   2.0000      -0.607425       -16.5289
 136   2.0000      -0.602449       -16.3935
 137   2.0000      -0.591445       -16.0940
 138   2.0000      -0.586436       -15.9577
 139   2.0000      -0.584726       -15.9112
 140   2.0000      -0.579711       -15.7747
 141   2.0000      -0.577857       -15.7243
 142   2.0000      -0.570439       -15.5224
 143   2.0000      -0.567458       -15.4413
 144   2.0000      -0.566197       -15.4070
 145   2.0000      -0.562940       -15.3184
 146   2.0000      -0.560106       -15.2413
 147   2.0000      -0.548158       -14.9161
 148   2.0000      -0.542084       -14.7509
 149   2.0000      -0.541680       -14.7399
 150   2.0000      -0.540160       -14.6985
 151   2.0000      -0.537910       -14.6373
 152   2.0000      -0.535677       -14.5765
 153   2.0000      -0.534399       -14.5417
 154   2.0000      -0.532328       -14.4854
 155   2.0000      -0.526234       -14.3196
 156   2.0000      -0.519668       -14.1409
 157   2.0000      -0.512880       -13.9562
 158   2.0000      -0.510708       -13.8971
 159   2.0000      -0.508402       -13.8343
 160   2.0000      -0.508150       -13.8275
 161   2.0000      -0.506111       -13.7720
 162   2.0000      -0.505847       -13.7648
 163   2.0000      -0.504848       -13.7376
 164   2.0000      -0.502973       -13.6866
 165   2.0000      -0.502226       -13.6663
 166   2.0000      -0.499258       -13.5855
 167   2.0000      -0.496489       -13.5102
 168   2.0000      -0.494223       -13.4485
 169   2.0000      -0.491133       -13.3644
 170   2.0000      -0.490537       -13.3482
 171   2.0000      -0.487697       -13.2709
 172   2.0000      -0.484870       -13.1940
 173   2.0000      -0.478581       -13.0228
 174   2.0000      -0.476771       -12.9736
 175   2.0000      -0.470345       -12.7987
 176   2.0000      -0.463661       -12.6168
 177   2.0000      -0.460599       -12.5335
 178   2.0000      -0.455823       -12.4036
 179   2.0000      -0.452250       -12.3063
 180   2.0000      -0.449898       -12.2423
 181   2.0000      -0.448473       -12.2036
 182   2.0000      -0.445842       -12.1320
 183   2.0000      -0.445237       -12.1155
 184   2.0000      -0.442277       -12.0350
 185   2.0000      -0.438641       -11.9360
 186   2.0000      -0.437095       -11.8940
 187   2.0000      -0.426901       -11.6166
 188   2.0000      -0.425377       -11.5751
 189   2.0000      -0.424750       -11.5580
 190   2.0000      -0.423421       -11.5219
 191   2.0000      -0.420185       -11.4338
 192   2.0000      -0.419806       -11.4235
 193   2.0000      -0.416743       -11.3402
 194   2.0000      -0.414526       -11.2798
 195   2.0000      -0.412547       -11.2260
 196   2.0000      -0.411050       -11.1852
 197   2.0000      -0.408361       -11.1121
 198   2.0000      -0.406804       -11.0697
 199   2.0000      -0.405512       -11.0346
 200   2.0000      -0.404776       -11.0145
 201   2.0000      -0.401821       -10.9341
 202   2.0000      -0.401422       -10.9233
 203   2.0000      -0.396447       -10.7879
 204   2.0000      -0.380199       -10.3457
 205   2.0000      -0.379391       -10.3238
 206   2.0000      -0.377947       -10.2845
 207   2.0000      -0.373320       -10.1585
 208   2.0000      -0.366410        -9.9705
 209   2.0000      -0.354448        -9.6450
 210   2.0000      -0.351606        -9.5677
 211   2.0000      -0.335403        -9.1268
 212   2.0000      -0.328695        -8.9443
 213   2.0000      -0.326520        -8.8851
 214   2.0000      -0.324878        -8.8404
 215   2.0000      -0.323183        -8.7943
 216   2.0000      -0.320211        -8.7134
 217   2.0000      -0.318149        -8.6573
 218   2.0000      -0.311252        -8.4696
 219   2.0000      -0.309530        -8.4227
 220   2.0000      -0.308578        -8.3968
 221   2.0000      -0.306163        -8.3311
 222   2.0000      -0.295844        -8.0503
 223   2.0000      -0.289202        -7.8696
 224   2.0000      -0.272819        -7.4238
 225   2.0000      -0.259756        -7.0683
 226   2.0000      -0.217738        -5.9250
 227   2.0000      -0.203422        -5.5354
 228   0.0000      -0.087774        -2.3884
 229   0.0000      -0.080481        -2.1900
 230   0.0000      -0.052512        -1.4289
 231   0.0000      -0.040521        -1.1026
 232   0.0000      -0.002082        -0.0567

MULLIKEN ATOMIC CHARGES
-----------------------
   0 C :   -0.085578
   1 C :    0.039005
   2 C :   -0.054659
   3 N :   -0.029589
   4 C :    0.029740
   5 C :    0.022162
   6 N :   -0.022324
   7 C :    0.120322
   8 C :   -0.054675
   9 C :    0.040084
  10 N :   -0.019251
  11 C :    0.020531
  12 C :    0.022003
  13 N :   -0.024370
  14 C :   -0.129301
  15 C :    0.088288
  16 C :   -0.117758
  17 C :    0.118535
  18 C :    0.103905
  19 C :   -0.041535
  20 C :    0.025315
  21 C :    0.025048
  22 C :   -0.037885
  23 C :   -0.096253
  24 S :    0.145666
  25 C :   -0.028337
  26 C :    0.034853
  27 C :   -0.139443
  28 S :    0.111682
  29 C :   -0.126777
  30 C :   -0.078191
  31 C :    0.106881
  32 C :    0.120015
  33 C :   -0.070467
  34 C :    0.005124
  35 C :   -0.000049
  36 C :   -0.007507
  37 C :   -0.086428
  38 C :    0.106960
  39 C :    0.119489
  40 C :   -0.038618
  41 C :    0.024133
  42 C :    0.026390
  43 C :   -0.036394
  44 C :   -0.112091
  45 S :    0.139015
  46 C :    0.081236
  47 C :   -0.131424
  48 C :    0.108690
  49 C :   -0.048485
  50 C :   -0.034380
  51 N :   -0.019939
  52 C :    0.023624
  53 C :    0.022521
  54 N :   -0.025665
  55 C :    0.048990
  56 C :   -0.044057
  57 C :   -0.041478
  58 N :   -0.027358
  59 C :    0.030759
  60 C :    0.030372
  61 N :   -0.026990
  62 C :   -0.066521
  63 C :    0.022804
  64 H :   -0.039945
  65 H :    0.010153
  66 H :    0.012456
  67 H :    0.012783
  68 H :    0.008844
  69 H :    0.000113
  70 H :   -0.004233
  71 H :   -0.028716
  72 H :   -0.013770
  73 H :   -0.016316
  74 H :   -0.018850
  75 H :    0.004915
  76 H :   -0.012092
  77 H :    0.011198
  78 H :    0.009032
  79 H :    0.033000
  80 H :    0.030204
  81 H :    0.006628
  82 H :   -0.017690
  83 H :   -0.007704
  84 H :   -0.017509
  85 H :   -0.017846
  86 H :   -0.016050
  87 H :   -0.017383
  88 H :   -0.030688
  89 H :   -0.007732
  90 H :   -0.004018
  91 H :    0.011637
  92 H :    0.010720
  93 H :    0.010728
  94 H :    0.011335
  95 H :   -0.003773
  96 H :    0.021138
  97 H :    0.009069
Sum of atomic charges:   -0.0000000

LOEWDIN ATOMIC CHARGES
----------------------
   0 C :   -0.018383
   1 C :   -0.010461
   2 C :   -0.013993
   3 N :   -0.026775
   4 C :    0.002496
   5 C :    0.004258
   6 N :   -0.036484
   7 C :   -0.006879
   8 C :   -0.012789
   9 C :   -0.012878
  10 N :   -0.038118
  11 C :    0.004430
  12 C :    0.000075
  13 N :   -0.033581
  14 C :   -0.038930
  15 C :   -0.021506
  16 C :   -0.171099
  17 C :   -0.039448
  18 C :   -0.042076
  19 C :   -0.017317
  20 C :   -0.025588
  21 C :   -0.024445
  22 C :   -0.013150
  23 C :   -0.174844
  24 S :    0.477295
  25 C :   -0.042199
  26 C :   -0.047863
  27 C :   -0.166425
  28 S :    0.426492
  29 C :   -0.194983
  30 C :   -0.054623
  31 C :   -0.046242
  32 C :   -0.062545
  33 C :   -0.021838
  34 C :   -0.031719
  35 C :   -0.030362
  36 C :   -0.046205
  37 C :   -0.174222
  38 C :   -0.042408
  39 C :   -0.040204
  40 C :   -0.012467
  41 C :   -0.024606
  42 C :   -0.026811
  43 C :   -0.016411
  44 C :   -0.169517
  45 S :    0.474226
  46 C :   -0.026412
  47 C :   -0.037373
  48 C :   -0.014092
  49 C :   -0.009764
  50 C :   -0.006413
  51 N :   -0.031350
  52 C :    0.005485
  53 C :    0.001377
  54 N :   -0.032569
  55 C :   -0.024488
  56 C :   -0.003763
  57 C :   -0.009212
  58 N :   -0.024349
  59 C :    0.004016
  60 C :    0.006267
  61 N :   -0.022358
  62 C :   -0.031851
  63 C :   -0.024845
  64 H :    0.039468
  65 H :    0.025101
  66 H :    0.026131
  67 H :    0.026128
  68 H :    0.024884
  69 H :    0.026115
  70 H :    0.023733
  71 H :    0.027069
  72 H :    0.029307
  73 H :    0.028391
  74 H :    0.031418
  75 H :    0.035138
  76 H :    0.020873
  77 H :    0.019884
  78 H :    0.032084
  79 H :    0.033577
  80 H :    0.035297
  81 H :    0.030760
  82 H :    0.026853
  83 H :    0.020054
  84 H :    0.031072
  85 H :    0.031721
  86 H :    0.028414
  87 H :    0.027908
  88 H :    0.025805
  89 H :    0.022423
  90 H :    0.025627
  91 H :    0.026165
  92 H :    0.025515
  93 H :    0.025607
  94 H :    0.025768
  95 H :    0.028930
  96 H :    0.016484
  97 H :    0.019117

  Mayer bond orders larger than 0.100000
B(  0-C ,  1-C ) :   1.2404 B(  0-C ,  7-C ) :   0.1327 B(  0-C ,  9-C ) :   1.2435
B(  0-C , 64-H ) :   1.0546 B(  1-C ,  2-C ) :   1.1739 B(  1-C ,  6-N ) :   1.3753
B(  2-C ,  3-N ) :   1.4343 B(  2-C ,  7-C ) :   1.2183 B(  3-N ,  4-C ) :   1.6721
B(  4-C ,  5-C ) :   1.1893 B(  4-C , 65-H ) :   0.9733 B(  5-C ,  6-N ) :   1.7125
B(  5-C , 66-H ) :   0.9744 B(  7-C ,  8-C ) :   1.2233 B(  7-C , 14-C ) :   1.2129
B(  8-C ,  9-C ) :   1.1758 B(  8-C , 13-N ) :   1.4515 B(  9-C , 10-N ) :   1.3743
B( 10-N , 11-C ) :   1.7172 B( 11-C , 12-C ) :   1.1850 B( 11-C , 67-H ) :   0.9735
B( 12-C , 13-N ) :   1.6915 B( 12-C , 68-H ) :   0.9749 B( 14-C , 15-C ) :   1.5749
B( 14-C , 69-H ) :   0.9551 B( 15-C , 16-C ) :   1.1651 B( 15-C , 70-H ) :   0.9248
B( 16-C , 17-C ) :   1.3076 B( 16-C , 23-C ) :   0.1043 B( 16-C , 24-S ) :   1.1496
B( 17-C , 18-C ) :   1.2217 B( 17-C , 22-C ) :   1.2182 B( 18-C , 19-C ) :   1.2210
B( 18-C , 23-C ) :   1.2916 B( 19-C , 20-C ) :   1.5418 B( 19-C , 71-H ) :   0.9914
B( 20-C , 21-C ) :   1.2223 B( 20-C , 72-H ) :   0.9852 B( 21-C , 22-C ) :   1.5357
B( 21-C , 73-H ) :   0.9856 B( 22-C , 74-H ) :   0.9935 B( 23-C , 24-S ) :   1.1459
B( 23-C , 25-C ) :   1.2067 B( 25-C , 26-C ) :   1.6238 B( 25-C , 75-H ) :   0.9612
B( 26-C , 27-C ) :   1.1683 B( 26-C , 76-H ) :   0.9514 B( 27-C , 28-S ) :   1.1303
B( 27-C , 32-C ) :   1.4175 B( 28-S , 29-C ) :   1.1375 B( 29-C , 30-C ) :   1.5897
B( 29-C , 77-H ) :   0.9671 B( 30-C , 31-C ) :   1.0923 B( 30-C , 32-C ) :   1.2489
B( 31-C , 78-H ) :   0.9482 B( 31-C , 79-H ) :   0.9429 B( 31-C , 80-H ) :   0.9447
B( 32-C , 33-C ) :   1.0825 B( 33-C , 34-C ) :   1.6494 B( 33-C , 81-H ) :   0.9567
B( 34-C , 35-C ) :   1.1471 B( 34-C , 82-H ) :   0.9889 B( 35-C , 36-C ) :   1.6032
B( 35-C , 83-H ) :   0.9839 B( 36-C , 37-C ) :   1.1829 B( 36-C , 84-H ) :   0.9731
B( 37-C , 38-C ) :   1.2887 B( 37-C , 44-C ) :   0.1033 B( 37-C , 45-S ) :   1.1426
B( 38-C , 39-C ) :   1.2245 B( 38-C , 43-C ) :   1.2271 B( 39-C , 40-C ) :   1.2201
B( 39-C , 44-C ) :   1.2962 B( 40-C , 41-C ) :   1.5345 B( 40-C , 85-H ) :   0.9936
B( 41-C , 42-C ) :   1.2266 B( 41-C , 86-H ) :   0.9848 B( 42-C , 43-C ) :   1.5367
B( 42-C , 87-H ) :   0.9854 B( 43-C , 88-H ) :   0.9910 B( 44-C , 45-S ) :   1.1491
B( 44-C , 46-C ) :   1.1729 B( 46-C , 47-C ) :   1.5562 B( 46-C , 89-H ) :   0.9241
B( 47-C , 48-C ) :   1.2365 B( 47-C , 90-H ) :   0.9532 B( 48-C , 49-C ) :   1.2165
B( 48-C , 55-C ) :   0.1322 B( 48-C , 57-C ) :   1.2042 B( 49-C , 50-C ) :   1.1579
B( 49-C , 54-N ) :   1.4557 B( 50-C , 51-N ) :   1.4485 B( 50-C , 55-C ) :   1.2589
B( 51-N , 52-C ) :   1.7004 B( 52-C , 53-C ) :   1.1901 B( 52-C , 91-H ) :   0.9745
B( 53-C , 54-N ) :   1.6859 B( 53-C , 92-H ) :   0.9746 B( 55-C , 56-C ) :   1.2461
B( 55-C , 62-C ) :   1.1599 B( 56-C , 57-C ) :   1.1531 B( 56-C , 61-N ) :   1.4441
B( 57-C , 58-N ) :   1.4550 B( 58-N , 59-C ) :   1.6605 B( 59-C , 60-C ) :   1.2011
B( 59-C , 93-H ) :   0.9735 B( 60-C , 61-N ) :   1.6790 B( 60-C , 94-H ) :   0.9733
B( 62-C , 63-C ) :   1.9025 B( 62-C , 95-H ) :   0.9415 B( 63-C , 96-H ) :   0.9323
B( 63-C , 97-H ) :   0.9429

-----------------------------------------------------------------------------
         ABSORPTION SPECTRUM VIA TRANSITION ELECTRIC DIPOLE MOMENTS
-----------------------------------------------------------------------------
State   Energy  Wavelength   fosc         T2         TX        TY        TZ
        (cm-1)    (nm)                  (au**2)     (au)      (au)      (au)
-----------------------------------------------------------------------------
   0   11389.7    878.0   0.597341357  17.26583  -0.67979  -1.56968  -3.78679
   1   13584.6    736.1   1.040323815  25.21136  -1.96765  -4.04985   2.22226
   2   16820.0    594.5   0.098811888   1.93401  -0.68512  -1.16352   0.33294
   3   17664.8    566.1   0.065310180   1.21716   0.06999   0.43709   1.01055
   4   20121.7    497.0   0.134849186   2.20628  -0.07247  -0.22618  -1.46624
   5   21490.3    465.3   0.687140879  10.52637  -1.75441  -2.71845  -0.24181
   6   23184.0    431.3   0.023034503   0.32709   0.01461   0.01859  -0.57143
   7   24146.1    414.1   0.024133227   0.32904   0.31995   0.39270   0.26917
   8   24436.7    409.2   0.001979377   0.02667   0.15112  -0.06010  -0.01476
   9   25647.2    389.9   0.004830552   0.06201   0.06526   0.14441   0.19207
  10   25847.2    386.9   0.001023353   0.01303   0.00532  -0.11388  -0.00613
  11   26181.1    382.0   0.026939220   0.33875   0.43435   0.04677   0.38458
  12   27242.9    367.1   0.001589634   0.01921  -0.06602   0.08126   0.09082
  13   27406.8    364.9   0.001383844   0.01662  -0.10561   0.04950   0.05495
  14   27892.4    358.5   0.011095661   0.13096  -0.11015   0.20500  -0.27713
  15   28280.7    353.6   0.000920743   0.01072  -0.05472   0.01074  -0.08722
  16   28325.4    353.0   0.025881035   0.30080   0.29128   0.06958   0.45947
  17   29110.5    343.5   0.006190489   0.07001  -0.13646  -0.22657  -0.00737
  18   29354.5    340.7   0.016971286   0.19033   0.10327   0.21732  -0.36392
  19   29714.2    336.5   0.123706876   1.37058   0.24702   0.56354  -0.99599
  20   29989.7    333.4   0.020130913   0.22099   0.03677   0.35591   0.30489
  21   30626.3    326.5   0.011441625   0.12299   0.24548   0.20438   0.14478
  22   31553.8    316.9   0.049761515   0.51918   0.05578  -0.27019   0.66563
  23   32083.4    311.7   0.122533927   1.25734  -0.30324  -1.07286   0.11982
  24   32228.1    310.3   0.067110556   0.68554   0.18220   0.55441  -0.58734
  25   32609.7    306.7   0.037068847   0.37423  -0.26074  -0.22870   0.50392
  26   32647.0    306.3   0.511915461   5.16216   1.23205   1.06360   1.58524
  27   33370.6    299.7   0.130526112   1.28768   0.28191   0.80664  -0.74669
  28   33746.6    296.3   0.150918751   1.47228   0.13029  -0.60157   1.04566
  29   34083.2    293.4   0.356755928   3.44593  -0.91125   0.43489  -1.55770
  30   34298.4    291.6   0.311745819   2.99228   0.47421   0.79616   1.46066
  31   34603.1    289.0   0.037391291   0.35574  -0.06491   0.55552   0.20719
  32   34709.0    288.1   0.348089040   3.30159  -0.78543  -1.18345  -1.13320
  33   34823.6    287.2   0.112103872   1.05980   0.08529  -1.00692   0.19656
  34   35052.0    285.3   0.006205929   0.05829   0.03517   0.04667   0.23425
  35   35198.6    284.1   0.044462791   0.41586   0.21118  -0.16539   0.58644
  36   36876.7    271.2   0.008773190   0.07832  -0.01165  -0.05835  -0.27346
  37   36926.8    270.8   0.003275826   0.02920   0.01051   0.09857  -0.13920
  38   37104.1    269.5   0.036084851   0.32017   0.23034  -0.20911   0.47263
  39   37314.2    268.0   0.031735580   0.27999   0.12032   0.38238   0.34540
  40   37534.0    266.4   0.150127114   1.31677   0.44530  -0.33824   1.00203
  41   37895.3    263.9   0.068772264   0.59745  -0.52733  -0.38115  -0.41726
  42   37974.4    263.3   0.075307681   0.65287  -0.18839  -0.67281  -0.40583
  43   38181.0    261.9   0.007645048   0.06592   0.15580   0.20297  -0.02121
  44   38250.8    261.4   0.004081990   0.03513   0.14409   0.09788  -0.06921
  45   38803.4    257.7   0.045310170   0.38442  -0.27442  -0.45967  -0.31275
  46   38829.0    257.5   0.010991523   0.09319   0.16511  -0.22683  -0.12032
  47   39138.4    255.5   0.005140761   0.04324  -0.05080  -0.19225  -0.06083
  48   39393.1    253.9   0.068795528   0.57493  -0.12212  -0.58770   0.46328
  49   39527.4    253.0   0.064024086   0.53324   0.02494   0.52116  -0.51089
  50   39805.1    251.2   0.023888989   0.19758  -0.22027  -0.09608  -0.37393
  51   39851.2    250.9   0.005347932   0.04418  -0.11733  -0.11406  -0.13192
  52   40091.2    249.4   0.029496186   0.24221  -0.25514  -0.12966  -0.40038
  53   40174.0    248.9   0.007825830   0.06413   0.09294   0.23269   0.03669

FINAL SINGLE POINT ENERGY     -3669.079112415839

DIPOLE MOMENT
-------------
                                X             Y             Z
Electronic contribution:     -4.26785     -11.53142      25.56765
Nuclear contribution   :      4.69510      12.59804     -26.30438
                        -----------------------------------------
Total Dipole Moment    :      0.42725       1.06662      -0.73673
                        -----------------------------------------
Magnitude (a.u.)       :      1.36492
Magnitude (Debye)      :      3.46934

Rotational constants in cm-1:     0.001038     0.000495     0.000343
Rotational constants in MHz :    31.117303    14.826247    10.287458

                             ****ORCA TERMINATED NORMALLY****
TOTAL RUN TIME: 0 days 0 hours 9 minutes 27 seconds 178 msec
