                         Program Version 4.2.0 -  RELEASE  -
|  1> # ORCA input file
|  2> # SCF done       -184.589868259913          0.000661899078
|  3> ! CAM-B3LYP def2-SVP def2/J RIJCOSX Grid4 TightSCF
|  4> %maxcore 5000
|  5> %tddft
|  6>     Mode sTDDFT
|  7>     Ethresh 5.0
|  8>     maxcore 5000
|  9> end
| 10>
| 11> %pal
| 12>   nprocs 6
| 13>   end
| 14> * xyz 0 1
| 15>    C       -6.55091        -4.02605         8.22303
| 16>    C       -5.72660        -4.22282         9.32075
| 17>    C       -4.34492        -4.21682         9.19005
| 18>    C       -3.74673        -4.00842         7.95669
| 19>    C       -4.55940        -3.81634         6.85168
| 20>    C       -5.96785        -3.82693         6.98138
| 21>    C       -6.56643        -3.61023         5.67057
| 22>    C       -7.89589        -3.42870         5.40603
| 23>    C       -8.90825        -3.43910         6.38898
| 24>    N       -9.77734        -3.43719         7.13858
| 25>    C       -8.43402        -3.16132         4.12873
| 26>    N       -8.93704        -2.93225         3.12242
| 27>    C       -5.47042        -3.61738         4.70693
| 28>    C       -4.23182        -3.52505         5.46611
| 29>    C       -3.04222        -3.03290         4.99658
| 30>    C       -2.93893        -2.36418         3.75582
| 31>    N       -2.86262        -1.74403         2.79366
| 32>    C       -1.84579        -3.05194         5.73528
| 33>    N       -0.82963        -3.10673         6.26909
| 34>    C       -5.59743        -3.88902         3.37617
| 35>    C       -4.55185        -4.28401         2.49402
| 36>    C       -4.74513        -4.40816         1.19357
| 37>    C       -4.89823        -4.47794        -0.08470
| 38>    C       -4.57362        -3.34052        -1.04723
| 39>    C       -4.75089        -4.01263        -2.36365
| 40>    C       -5.18191        -5.27974        -2.26309
| 41>    C       -5.38433        -5.70559        -0.84713
| 42>    C       -5.26632        -5.88182        -3.58577
| 43>    C       -4.88220        -4.93296        -4.47764
| 44>    C       -4.54159        -3.64465        -3.79013
| 45>    C       -5.58374        -7.25076        -3.89483
| 46>    C       -6.19103        -8.12445        -3.07795
| 47>    C       -6.33394        -9.52475        -3.39911
| 48>    S       -7.84583       -10.34254        -3.13778
| 49>    C       -7.22579       -11.78452        -3.84455
| 50>    C       -5.93676       -11.66331        -4.25195
| 51>    C       -5.13999       -12.76026        -4.87594
| 52>    C       -5.40574       -10.36516        -3.98061
| 53>    C       -4.02205        -9.99419        -4.20788
| 54>    C       -3.32878        -9.25373        -3.32633
| 55>    C       -2.02462        -8.68521        -3.48746
| 56>    C       -1.16895        -8.84266        -4.51440
| 57>    C        0.05381        -8.07569        -4.62291
| 58>    C        0.26915        -7.00123        -3.90209
| 59>    C        0.32874        -5.93044        -3.17572
| 60>    C       -0.17707        -4.56115        -3.62337
| 61>    C        0.16344        -3.71780        -2.44751
| 62>    C        0.74458        -4.40288        -1.44891
| 63>    C        0.91072        -5.85083        -1.76700
| 64>    C        1.07939        -3.49240        -0.36451
| 65>    C        0.68515        -2.24398        -0.74874
| 66>    C        0.04830        -2.27478        -2.09989
| 67>    C        1.67480        -3.79057         0.90062
| 68>    C        1.85849        -5.03148         1.40545
| 69>    C        2.46909        -5.35627         2.65088
| 70>    C        2.61711        -4.60406         3.77949
| 71>    C        3.58638        -4.90230         4.83200
| 72>    C        4.16501        -6.11094         5.10848
| 73>    C        3.87534        -7.32549         4.45015
| 74>    N        3.68603        -8.35276         3.97287
| 75>    C        5.10629        -6.32148         6.13880
| 76>    N        5.87692        -6.56414         6.95409
| 77>    C        3.81426        -3.65820         5.55371
| 78>    C        2.89904        -2.68453         5.09122
| 79>    C        2.90361        -1.40367         5.61900
| 80>    C        3.82921        -1.09822         6.60466
| 81>    C        4.72781        -2.05264         7.06133
| 82>    C        4.72919        -3.33947         6.54519
| 83>    C        2.03227        -3.30553         4.10486
| 84>    C        0.78702        -2.86807         3.74450
| 85>    C        0.29349        -1.58144         4.04269
| 86>    N       -0.11824        -0.52395         4.21337
| 87>    C       -0.15373        -3.69704         3.10280
| 88>    N       -0.97934        -4.36862         2.67144
| 89>    H       -7.62179        -4.03406         8.34344
| 90>    H       -6.17000        -4.38405        10.29143
| 91>    H       -3.72522        -4.37574        10.05933
| 92>    H       -2.67244        -4.00759         7.86471
| 93>    H       -6.59165        -3.89925         2.95042
| 94>    H       -3.57551        -4.53046         2.89422
| 95>    H       -3.55892        -2.97052        -0.88010
| 96>    H       -5.26008        -2.50112        -0.90267
| 97>    H       -4.80498        -6.59249        -0.58140
| 98>    H       -6.43495        -5.90395        -0.61649
| 99>    H       -4.82856        -5.05225        -5.54438
|100>    H       -5.19869        -2.83285        -4.11139
|101>    H       -3.51707        -3.32933        -4.00188
|102>    H       -5.24719        -7.59188        -4.86559
|103>    H       -6.63192        -7.79629        -2.14662
|104>    H       -7.86111       -12.64556        -3.91347
|105>    H       -5.72690       -13.67327        -4.93295
|106>    H       -4.24175       -12.95305        -4.29053
|107>    H       -4.83243       -12.47959        -5.88314
|108>    H       -3.56472       -10.35317        -5.11957
|109>    H       -3.82701        -8.98622        -2.40303
|110>    H       -1.72535        -8.00381        -2.70021
|111>    H       -1.37227        -9.54357        -5.31104
|112>    H        0.78751        -8.40159        -5.34961
|113>    H       -1.25269        -4.59554        -3.82335
|114>    H        0.31853        -4.22809        -4.53973
|115>    H        0.34979        -6.49763        -1.08619
|116>    H        1.95716        -6.16756        -1.74966
|117>    H        0.77187        -1.34537        -0.16475
|118>    H        0.56933        -1.62487        -2.80709
|119>    H       -0.98771        -1.93005        -2.05569
|120>    H        1.99823        -2.92424         1.46461
|121>    H        1.59965        -5.88131         0.79053
|122>    H        2.93379        -6.33443         2.66509
|123>    H        2.21133        -0.65474         5.27076
|124>    H        3.84922        -0.10307         7.02205
|125>    H        5.43845        -1.79210         7.83082
|126>    H        5.43402        -4.06760         6.91168
|127> *
|128>
|129>                          ****END OF INPUT****

CARTESIAN COORDINATES (ANGSTROEM)
---------------------------------
  C     -6.550910   -4.026050    8.223030
  C     -5.726600   -4.222820    9.320750
  C     -4.344920   -4.216820    9.190050
  C     -3.746730   -4.008420    7.956690
  C     -4.559400   -3.816340    6.851680
  C     -5.967850   -3.826930    6.981380
  C     -6.566430   -3.610230    5.670570
  C     -7.895890   -3.428700    5.406030
  C     -8.908250   -3.439100    6.388980
  N     -9.777340   -3.437190    7.138580
  C     -8.434020   -3.161320    4.128730
  N     -8.937040   -2.932250    3.122420
  C     -5.470420   -3.617380    4.706930
  C     -4.231820   -3.525050    5.466110
  C     -3.042220   -3.032900    4.996580
  C     -2.938930   -2.364180    3.755820
  N     -2.862620   -1.744030    2.793660
  C     -1.845790   -3.051940    5.735280
  N     -0.829630   -3.106730    6.269090
  C     -5.597430   -3.889020    3.376170
  C     -4.551850   -4.284010    2.494020
  C     -4.745130   -4.408160    1.193570
  C     -4.898230   -4.477940   -0.084700
  C     -4.573620   -3.340520   -1.047230
  C     -4.750890   -4.012630   -2.363650
  C     -5.181910   -5.279740   -2.263090
  C     -5.384330   -5.705590   -0.847130
  C     -5.266320   -5.881820   -3.585770
  C     -4.882200   -4.932960   -4.477640
  C     -4.541590   -3.644650   -3.790130
  C     -5.583740   -7.250760   -3.894830
  C     -6.191030   -8.124450   -3.077950
  C     -6.333940   -9.524750   -3.399110
  S     -7.845830  -10.342540   -3.137780
  C     -7.225790  -11.784520   -3.844550
  C     -5.936760  -11.663310   -4.251950
  C     -5.139990  -12.760260   -4.875940
  C     -5.405740  -10.365160   -3.980610
  C     -4.022050   -9.994190   -4.207880
  C     -3.328780   -9.253730   -3.326330
  C     -2.024620   -8.685210   -3.487460
  C     -1.168950   -8.842660   -4.514400
  C      0.053810   -8.075690   -4.622910
  C      0.269150   -7.001230   -3.902090
  C      0.328740   -5.930440   -3.175720
  C     -0.177070   -4.561150   -3.623370
  C      0.163440   -3.717800   -2.447510
  C      0.744580   -4.402880   -1.448910
  C      0.910720   -5.850830   -1.767000
  C      1.079390   -3.492400   -0.364510
  C      0.685150   -2.243980   -0.748740
  C      0.048300   -2.274780   -2.099890
  C      1.674800   -3.790570    0.900620
  C      1.858490   -5.031480    1.405450
  C      2.469090   -5.356270    2.650880
  C      2.617110   -4.604060    3.779490
  C      3.586380   -4.902300    4.832000
  C      4.165010   -6.110940    5.108480
  C      3.875340   -7.325490    4.450150
  N      3.686030   -8.352760    3.972870
  C      5.106290   -6.321480    6.138800
  N      5.876920   -6.564140    6.954090
  C      3.814260   -3.658200    5.553710
  C      2.899040   -2.684530    5.091220
  C      2.903610   -1.403670    5.619000
  C      3.829210   -1.098220    6.604660
  C      4.727810   -2.052640    7.061330
  C      4.729190   -3.339470    6.545190
  C      2.032270   -3.305530    4.104860
  C      0.787020   -2.868070    3.744500
  C      0.293490   -1.581440    4.042690
  N     -0.118240   -0.523950    4.213370
  C     -0.153730   -3.697040    3.102800
  N     -0.979340   -4.368620    2.671440
  H     -7.621790   -4.034060    8.343440
  H     -6.170000   -4.384050   10.291430
  H     -3.725220   -4.375740   10.059330
  H     -2.672440   -4.007590    7.864710
  H     -6.591650   -3.899250    2.950420
  H     -3.575510   -4.530460    2.894220
  H     -3.558920   -2.970520   -0.880100
  H     -5.260080   -2.501120   -0.902670
  H     -4.804980   -6.592490   -0.581400
  H     -6.434950   -5.903950   -0.616490
  H     -4.828560   -5.052250   -5.544380
  H     -5.198690   -2.832850   -4.111390
  H     -3.517070   -3.329330   -4.001880
  H     -5.247190   -7.591880   -4.865590
  H     -6.631920   -7.796290   -2.146620
  H     -7.861110  -12.645560   -3.913470
  H     -5.726900  -13.673270   -4.932950
  H     -4.241750  -12.953050   -4.290530
  H     -4.832430  -12.479590   -5.883140
  H     -3.564720  -10.353170   -5.119570
  H     -3.827010   -8.986220   -2.403030
  H     -1.725350   -8.003810   -2.700210
  H     -1.372270   -9.543570   -5.311040
  H      0.787510   -8.401590   -5.349610
  H     -1.252690   -4.595540   -3.823350
  H      0.318530   -4.228090   -4.539730
  H      0.349790   -6.497630   -1.086190
  H      1.957160   -6.167560   -1.749660
  H      0.771870   -1.345370   -0.164750
  H      0.569330   -1.624870   -2.807090
  H     -0.987710   -1.930050   -2.055690
  H      1.998230   -2.924240    1.464610
  H      1.599650   -5.881310    0.790530
  H      2.933790   -6.334430    2.665090
  H      2.211330   -0.654740    5.270760
  H      3.849220   -0.103070    7.022050
  H      5.438450   -1.792100    7.830820
  H      5.434020   -4.067600    6.911680

 Total Charge           Charge          ....    0
 Multiplicity           Mult            ....    1
 Number of Electrons    NEL             ....  500
 Basis Dimension        Dim             .... 1230

ORBITAL ENERGIES
----------------

  NO   OCC          E(Eh)            E(eV)
   0   2.0000     -88.940624     -2420.1974
   1   2.0000     -14.425404      -392.5352
   2   2.0000     -14.424200      -392.5024
   3   2.0000     -14.420518      -392.4022
   4   2.0000     -14.419584      -392.3768
   5   2.0000     -14.418417      -392.3451
   6   2.0000     -14.418309      -392.3421
   7   2.0000     -14.417492      -392.3199
   8   2.0000     -14.411990      -392.1702
   9   2.0000     -10.349053      -281.6121
  10   2.0000     -10.348446      -281.5955
  11   2.0000     -10.348273      -281.5908
  12   2.0000     -10.348085      -281.5857
  13   2.0000     -10.346752      -281.5494
  14   2.0000     -10.346003      -281.5291
  15   2.0000     -10.345037      -281.5028
  16   2.0000     -10.344163      -281.4790
  17   2.0000     -10.328049      -281.0405
  18   2.0000     -10.325906      -280.9822
  19   2.0000     -10.322750      -280.8963
  20   2.0000     -10.322730      -280.8958
  21   2.0000     -10.322415      -280.8872
  22   2.0000     -10.321567      -280.8641
  23   2.0000     -10.321091      -280.8512
  24   2.0000     -10.320822      -280.8438
  25   2.0000     -10.319733      -280.8142
  26   2.0000     -10.316116      -280.7158
  27   2.0000     -10.314135      -280.6619
  28   2.0000     -10.311719      -280.5961
  29   2.0000     -10.311561      -280.5918
  30   2.0000     -10.311406      -280.5876
  31   2.0000     -10.311374      -280.5867
  32   2.0000     -10.311175      -280.5813
  33   2.0000     -10.306131      -280.4441
  34   2.0000     -10.300165      -280.2817
  35   2.0000     -10.299838      -280.2729
  36   2.0000     -10.299345      -280.2594
  37   2.0000     -10.299251      -280.2569
  38   2.0000     -10.298905      -280.2475
  39   2.0000     -10.298395      -280.2336
  40   2.0000     -10.298391      -280.2335
  41   2.0000     -10.298143      -280.2267
  42   2.0000     -10.297950      -280.2215
  43   2.0000     -10.295090      -280.1437
  44   2.0000     -10.292701      -280.0786
  45   2.0000     -10.292450      -280.0718
  46   2.0000     -10.288791      -279.9722
  47   2.0000     -10.287330      -279.9325
  48   2.0000     -10.287032      -279.9244
  49   2.0000     -10.286555      -279.9114
  50   2.0000     -10.285760      -279.8898
  51   2.0000     -10.283172      -279.8193
  52   2.0000     -10.281863      -279.7837
  53   2.0000     -10.281528      -279.7746
  54   2.0000     -10.280366      -279.7430
  55   2.0000     -10.277005      -279.6515
  56   2.0000     -10.276832      -279.6468
  57   2.0000     -10.274965      -279.5960
  58   2.0000     -10.272611      -279.5320
  59   2.0000     -10.272021      -279.5159
  60   2.0000     -10.269357      -279.4434
  61   2.0000     -10.268839      -279.4293
  62   2.0000     -10.268169      -279.4111
  63   2.0000     -10.268136      -279.4102
  64   2.0000     -10.267590      -279.3953
  65   2.0000     -10.267070      -279.3812
  66   2.0000     -10.265293      -279.3328
  67   2.0000     -10.264827      -279.3201
  68   2.0000     -10.264070      -279.2995
  69   2.0000     -10.262432      -279.2550
  70   2.0000     -10.261836      -279.2387
  71   2.0000     -10.261662      -279.2340
  72   2.0000     -10.261108      -279.2190
  73   2.0000     -10.260827      -279.2113
  74   2.0000      -8.036726      -218.6904
  75   2.0000      -6.006017      -163.4320
  76   2.0000      -6.001732      -163.3154
  77   2.0000      -5.998988      -163.2408
  78   2.0000      -1.035586       -28.1797
  79   2.0000      -1.033588       -28.1254
  80   2.0000      -1.020020       -27.7562
  81   2.0000      -1.014815       -27.6145
  82   2.0000      -1.007794       -27.4235
  83   2.0000      -1.005564       -27.3628
  84   2.0000      -0.998758       -27.1776
  85   2.0000      -0.997626       -27.1468
  86   2.0000      -0.997221       -27.1358
  87   2.0000      -0.995000       -27.0753
  88   2.0000      -0.986015       -26.8308
  89   2.0000      -0.979275       -26.6474
  90   2.0000      -0.972592       -26.4656
  91   2.0000      -0.958934       -26.0939
  92   2.0000      -0.958530       -26.0829
  93   2.0000      -0.939167       -25.5560
  94   2.0000      -0.938213       -25.5301
  95   2.0000      -0.928881       -25.2761
  96   2.0000      -0.928100       -25.2549
  97   2.0000      -0.915202       -24.9039
  98   2.0000      -0.906508       -24.6673
  99   2.0000      -0.902724       -24.5644
 100   2.0000      -0.893224       -24.3058
 101   2.0000      -0.891961       -24.2715
 102   2.0000      -0.884252       -24.0617
 103   2.0000      -0.873255       -23.7625
 104   2.0000      -0.865566       -23.5533
 105   2.0000      -0.865143       -23.5417
 106   2.0000      -0.864211       -23.5164
 107   2.0000      -0.851745       -23.1772
 108   2.0000      -0.845735       -23.0136
 109   2.0000      -0.830185       -22.5905
 110   2.0000      -0.824572       -22.4377
 111   2.0000      -0.814791       -22.1716
 112   2.0000      -0.806482       -21.9455
 113   2.0000      -0.800526       -21.7834
 114   2.0000      -0.793039       -21.5797
 115   2.0000      -0.789636       -21.4871
 116   2.0000      -0.788629       -21.4597
 117   2.0000      -0.777803       -21.1651
 118   2.0000      -0.766583       -20.8598
 119   2.0000      -0.765273       -20.8241
 120   2.0000      -0.754549       -20.5323
 121   2.0000      -0.744014       -20.2457
 122   2.0000      -0.722993       -19.6736
 123   2.0000      -0.717428       -19.5222
 124   2.0000      -0.716050       -19.4847
 125   2.0000      -0.714710       -19.4482
 126   2.0000      -0.712898       -19.3989
 127   2.0000      -0.709672       -19.3112
 128   2.0000      -0.708059       -19.2673
 129   2.0000      -0.690162       -18.7803
 130   2.0000      -0.685683       -18.6584
 131   2.0000      -0.675596       -18.3839
 132   2.0000      -0.672548       -18.3010
 133   2.0000      -0.665378       -18.1058
 134   2.0000      -0.665261       -18.1027
 135   2.0000      -0.662457       -18.0264
 136   2.0000      -0.657640       -17.8953
 137   2.0000      -0.650759       -17.7081
 138   2.0000      -0.639846       -17.4111
 139   2.0000      -0.632866       -17.2212
 140   2.0000      -0.629153       -17.1201
 141   2.0000      -0.624601       -16.9963
 142   2.0000      -0.622311       -16.9340
 143   2.0000      -0.609007       -16.5719
 144   2.0000      -0.597705       -16.2644
 145   2.0000      -0.597183       -16.2502
 146   2.0000      -0.596246       -16.2247
 147   2.0000      -0.588660       -16.0183
 148   2.0000      -0.586222       -15.9519
 149   2.0000      -0.584088       -15.8938
 150   2.0000      -0.582141       -15.8409
 151   2.0000      -0.573462       -15.6047
 152   2.0000      -0.571680       -15.5562
 153   2.0000      -0.564040       -15.3483
 154   2.0000      -0.561062       -15.2673
 155   2.0000      -0.559862       -15.2346
 156   2.0000      -0.555039       -15.1034
 157   2.0000      -0.553442       -15.0599
 158   2.0000      -0.548182       -14.9168
 159   2.0000      -0.545687       -14.8489
 160   2.0000      -0.544675       -14.8214
 161   2.0000      -0.542590       -14.7646
 162   2.0000      -0.539994       -14.6940
 163   2.0000      -0.536884       -14.6094
 164   2.0000      -0.536555       -14.6004
 165   2.0000      -0.535607       -14.5746
 166   2.0000      -0.528035       -14.3686
 167   2.0000      -0.526715       -14.3326
 168   2.0000      -0.519394       -14.1334
 169   2.0000      -0.517185       -14.0733
 170   2.0000      -0.512710       -13.9516
 171   2.0000      -0.510910       -13.9026
 172   2.0000      -0.508680       -13.8419
 173   2.0000      -0.505575       -13.7574
 174   2.0000      -0.505051       -13.7431
 175   2.0000      -0.504569       -13.7300
 176   2.0000      -0.501412       -13.6441
 177   2.0000      -0.493276       -13.4227
 178   2.0000      -0.492496       -13.4015
 179   2.0000      -0.490590       -13.3496
 180   2.0000      -0.489536       -13.3209
 181   2.0000      -0.489451       -13.3186
 182   2.0000      -0.485523       -13.2118
 183   2.0000      -0.484563       -13.1856
 184   2.0000      -0.484363       -13.1802
 185   2.0000      -0.479516       -13.0483
 186   2.0000      -0.470628       -12.8064
 187   2.0000      -0.467913       -12.7326
 188   2.0000      -0.467584       -12.7236
 189   2.0000      -0.463531       -12.6133
 190   2.0000      -0.461770       -12.5654
 191   2.0000      -0.460295       -12.5253
 192   2.0000      -0.458271       -12.4702
 193   2.0000      -0.457917       -12.4606
 194   2.0000      -0.455955       -12.4072
 195   2.0000      -0.454327       -12.3629
 196   2.0000      -0.453131       -12.3303
 197   2.0000      -0.452463       -12.3122
 198   2.0000      -0.451502       -12.2860
 199   2.0000      -0.451034       -12.2733
 200   2.0000      -0.447855       -12.1868
 201   2.0000      -0.446630       -12.1534
 202   2.0000      -0.446223       -12.1423
 203   2.0000      -0.445967       -12.1354
 204   2.0000      -0.444953       -12.1078
 205   2.0000      -0.443957       -12.0807
 206   2.0000      -0.442491       -12.0408
 207   2.0000      -0.441327       -12.0091
 208   2.0000      -0.440644       -11.9905
 209   2.0000      -0.439871       -11.9695
 210   2.0000      -0.436023       -11.8648
 211   2.0000      -0.435437       -11.8489
 212   2.0000      -0.433400       -11.7934
 213   2.0000      -0.432058       -11.7569
 214   2.0000      -0.431136       -11.7318
 215   2.0000      -0.429797       -11.6954
 216   2.0000      -0.429206       -11.6793
 217   2.0000      -0.426849       -11.6151
 218   2.0000      -0.424406       -11.5487
 219   2.0000      -0.423791       -11.5319
 220   2.0000      -0.422990       -11.5101
 221   2.0000      -0.421013       -11.4564
 222   2.0000      -0.417659       -11.3651
 223   2.0000      -0.413295       -11.2463
 224   2.0000      -0.412463       -11.2237
 225   2.0000      -0.410531       -11.1711
 226   2.0000      -0.409823       -11.1519
 227   2.0000      -0.406937       -11.0733
 228   2.0000      -0.406419       -11.0592
 229   2.0000      -0.403950       -10.9920
 230   2.0000      -0.393127       -10.6975
 231   2.0000      -0.384390       -10.4598
 232   2.0000      -0.382783       -10.4160
 233   2.0000      -0.379108       -10.3161
 234   2.0000      -0.370652       -10.0859
 235   2.0000      -0.356991        -9.7142
 236   2.0000      -0.342151        -9.3104
 237   2.0000      -0.333962        -9.0876
 238   2.0000      -0.332060        -9.0358
 239   2.0000      -0.329625        -8.9696
 240   2.0000      -0.327412        -8.9093
 241   2.0000      -0.321933        -8.7602
 242   2.0000      -0.316016        -8.5992
 243   2.0000      -0.304805        -8.2942
 244   2.0000      -0.298752        -8.1295
 245   2.0000      -0.292155        -7.9499
 246   2.0000      -0.288221        -7.8429
 247   2.0000      -0.272555        -7.4166
 248   2.0000      -0.266192        -7.2435
 249   2.0000      -0.238534        -6.4908
 250   0.0000      -0.096169        -2.6169
 251   0.0000      -0.087145        -2.3713
 252   0.0000      -0.086198        -2.3456
 253   0.0000      -0.083487        -2.2718
 254   0.0000      -0.032341        -0.8800

MULLIKEN ATOMIC CHARGES
-----------------------
   0 C :   -0.035632
   1 C :    0.048623
   2 C :    0.049100
   3 C :   -0.039422
   4 C :    0.019987
   5 C :    0.012993
   6 C :    0.295029
   7 C :   -0.337044
   8 C :   -0.189948
   9 N :    0.162074
  10 C :   -0.191552
  11 N :    0.158909
  12 C :   -0.063913
  13 C :    0.219861
  14 C :   -0.300499
  15 C :   -0.214506
  16 N :    0.177842
  17 C :   -0.136911
  18 N :    0.116986
  19 C :    0.036432
  20 C :   -0.190417
  21 C :    0.224589
  22 C :   -0.348944
  23 C :    0.286067
  24 C :   -0.312059
  25 C :   -0.132155
  26 C :    0.273692
  27 C :    0.107912
  28 C :   -0.190155
  29 C :    0.237995
  30 C :    0.041651
  31 C :   -0.029754
  32 C :   -0.168638
  33 S :    0.108744
  34 C :   -0.139284
  35 C :   -0.070308
  36 C :    0.118159
  37 C :    0.102661
  38 C :   -0.052345
  39 C :    0.067057
  40 C :    0.007984
  41 C :   -0.006661
  42 C :   -0.177738
  43 C :    0.173571
  44 C :   -0.324213
  45 C :    0.279915
  46 C :   -0.317135
  47 C :   -0.124038
  48 C :    0.268978
  49 C :    0.084023
  50 C :   -0.159640
  51 C :    0.236867
  52 C :    0.049197
  53 C :   -0.025499
  54 C :    0.052009
  55 C :   -0.057178
  56 C :    0.291216
  57 C :   -0.341448
  58 C :   -0.188055
  59 N :    0.160043
  60 C :   -0.187741
  61 N :    0.156592
  62 C :    0.010380
  63 C :    0.019084
  64 C :   -0.025808
  65 C :    0.048571
  66 C :    0.047491
  67 C :   -0.033504
  68 C :    0.218262
  69 C :   -0.325349
  70 C :   -0.188391
  71 N :    0.169279
  72 C :   -0.170271
  73 N :    0.166623
  74 H :    0.006968
  75 H :    0.003116
  76 H :    0.004072
  77 H :    0.006776
  78 H :    0.023456
  79 H :    0.056741
  80 H :    0.029459
  81 H :    0.033070
  82 H :    0.027169
  83 H :    0.038677
  84 H :   -0.022549
  85 H :    0.034370
  86 H :    0.020838
  87 H :   -0.010226
  88 H :   -0.010093
  89 H :    0.010783
  90 H :    0.006405
  91 H :    0.029448
  92 H :    0.022488
  93 H :   -0.015513
  94 H :   -0.012876
  95 H :   -0.013600
  96 H :   -0.016105
  97 H :    0.014050
  98 H :    0.025232
  99 H :    0.019100
 100 H :    0.036564
 101 H :    0.025601
 102 H :   -0.003363
 103 H :    0.038129
 104 H :    0.041523
 105 H :    0.005681
 106 H :   -0.003785
 107 H :    0.020731
 108 H :    0.004610
 109 H :    0.003205
 110 H :    0.003463
 111 H :    0.006095
Sum of atomic charges:   -0.0000000

LOEWDIN ATOMIC CHARGES
----------------------
   0 C :    0.005470
   1 C :    0.001353
   2 C :    0.004233
   3 C :    0.000183
   4 C :   -0.009274
   5 C :   -0.013110
   6 C :    0.080863
   7 C :   -0.132207
   8 C :   -0.018951
   9 N :   -0.046897
  10 C :   -0.021716
  11 N :   -0.044104
  12 C :   -0.066026
  13 C :    0.075434
  14 C :   -0.128092
  15 C :   -0.023779
  16 N :   -0.041908
  17 C :   -0.004623
  18 N :   -0.058641
  19 C :    0.083682
  20 C :   -0.072641
  21 C :    0.071704
  22 C :   -0.031981
  23 C :    0.000879
  24 C :   -0.038954
  25 C :   -0.037537
  26 C :   -0.004376
  27 C :   -0.032178
  28 C :   -0.021855
  29 C :   -0.023809
  30 C :   -0.003950
  31 C :   -0.050445
  32 C :   -0.175177
  33 S :    0.421656
  34 C :   -0.197995
  35 C :   -0.059505
  36 C :   -0.044727
  37 C :   -0.064341
  38 C :   -0.020542
  39 C :   -0.020959
  40 C :   -0.028714
  41 C :   -0.019043
  42 C :   -0.070389
  43 C :    0.016251
  44 C :   -0.052876
  45 C :   -0.007789
  46 C :   -0.032550
  47 C :   -0.039032
  48 C :   -0.011812
  49 C :   -0.037296
  50 C :    0.019230
  51 C :   -0.023108
  52 C :    0.045754
  53 C :   -0.050164
  54 C :    0.063211
  55 C :   -0.055458
  56 C :    0.081547
  57 C :   -0.134089
  58 C :   -0.022932
  59 N :   -0.045208
  60 C :   -0.018640
  61 N :   -0.048111
  62 C :   -0.011831
  63 C :   -0.005618
  64 C :    0.005877
  65 C :    0.005050
  66 C :    0.002140
  67 C :    0.004363
  68 C :    0.073005
  69 C :   -0.130058
  70 C :   -0.022243
  71 N :   -0.044249
  72 C :   -0.001858
  73 N :   -0.049761
  74 H :    0.041700
  75 H :    0.037400
  76 H :    0.037441
  77 H :    0.040639
  78 H :    0.048170
  79 H :    0.046560
  80 H :    0.040583
  81 H :    0.042528
  82 H :    0.039059
  83 H :    0.040850
  84 H :    0.018116
  85 H :    0.053442
  86 H :    0.043480
  87 H :    0.032827
  88 H :    0.025225
  89 H :    0.019040
  90 H :    0.031590
  91 H :    0.036116
  92 H :    0.032945
  93 H :    0.021834
  94 H :    0.027753
  95 H :    0.028171
  96 H :    0.023622
  97 H :    0.037960
  98 H :    0.038065
  99 H :    0.036356
 100 H :    0.037131
 101 H :    0.037626
 102 H :    0.025217
 103 H :    0.054901
 104 H :    0.055709
 105 H :    0.035012
 106 H :    0.038192
 107 H :    0.048672
 108 H :    0.041216
 109 H :    0.037357
 110 H :    0.037338
 111 H :    0.041407

  Mayer bond orders larger than 0.100000
B(  0-C ,  1-C ) :   1.3711 B(  0-C ,  5-C ) :   1.3816 B(  0-C , 74-H ) :   0.9851
B(  1-C ,  2-C ) :   1.3764 B(  1-C , 75-H ) :   0.9864 B(  2-C ,  3-C ) :   1.3654
B(  2-C , 76-H ) :   0.9863 B(  3-C ,  4-C ) :   1.3791 B(  3-C , 77-H ) :   0.9879
B(  4-C ,  5-C ) :   1.3111 B(  4-C , 13-C ) :   1.0226 B(  5-C ,  6-C ) :   1.0055
B(  6-C ,  7-C ) :   1.6514 B(  6-C , 12-C ) :   1.0376 B(  7-C ,  8-C ) :   1.1423
B(  7-C , 10-C ) :   1.1377 B(  8-C ,  9-N ) :   2.9820 B( 10-C , 11-N ) :   2.9861
B( 12-C , 13-C ) :   1.0222 B( 12-C , 19-C ) :   1.6069 B( 13-C , 14-C ) :   1.6404
B( 14-C , 15-C ) :   1.1686 B( 14-C , 17-C ) :   1.1438 B( 15-C , 16-N ) :   2.9616
B( 17-C , 18-N ) :   2.8860 B( 19-C , 20-C ) :   1.1500 B( 19-C , 78-H ) :   0.9416
B( 20-C , 21-C ) :   1.6736 B( 20-C , 22-C ) :  -0.1072 B( 20-C , 79-H ) :   0.9033
B( 21-C , 22-C ) :   1.7583 B( 22-C , 23-C ) :   1.0050 B( 22-C , 26-C ) :   0.9960
B( 23-C , 24-C ) :   1.0122 B( 23-C , 80-H ) :   0.9047 B( 23-C , 81-H ) :   0.8911
B( 24-C , 25-C ) :   1.8707 B( 24-C , 29-C ) :   1.0581 B( 25-C , 26-C ) :   1.0224
B( 25-C , 27-C ) :   1.0277 B( 26-C , 82-H ) :   0.9024 B( 26-C , 83-H ) :   0.8858
B( 27-C , 28-C ) :   1.6831 B( 27-C , 30-C ) :   1.0905 B( 28-C , 29-C ) :   1.0097
B( 28-C , 84-H ) :   0.9967 B( 29-C , 85-H ) :   0.8712 B( 29-C , 86-H ) :   0.8829
B( 30-C , 31-C ) :   1.7741 B( 30-C , 87-H ) :   0.9693 B( 31-C , 32-C ) :   1.0280
B( 31-C , 88-H ) :   0.9542 B( 32-C , 33-S ) :   1.1376 B( 32-C , 37-C ) :   1.5270
B( 33-S , 34-C ) :   1.1398 B( 34-C , 35-C ) :   1.5966 B( 34-C , 89-H ) :   0.9670
B( 35-C , 36-C ) :   1.0956 B( 35-C , 37-C ) :   1.2331 B( 36-C , 90-H ) :   0.9513
B( 36-C , 91-H ) :   0.9449 B( 36-C , 92-H ) :   0.9448 B( 37-C , 38-C ) :   1.0527
B( 38-C , 39-C ) :   1.7896 B( 38-C , 93-H ) :   0.9456 B( 39-C , 40-C ) :   1.1306
B( 39-C , 94-H ) :   0.9607 B( 40-C , 41-C ) :   1.7719 B( 40-C , 95-H ) :   0.9575
B( 41-C , 42-C ) :   1.0827 B( 41-C , 96-H ) :   0.9749 B( 42-C , 43-C ) :   1.7098
B( 42-C , 97-H ) :   0.9596 B( 43-C , 44-C ) :   1.7584 B( 44-C , 45-C ) :   1.0179
B( 44-C , 48-C ) :   0.9996 B( 45-C , 46-C ) :   1.0176 B( 45-C , 98-H ) :   0.8921
B( 45-C , 99-H ) :   0.8995 B( 46-C , 47-C ) :   1.8733 B( 46-C , 51-C ) :   1.0578
B( 47-C , 48-C ) :   1.0272 B( 47-C , 49-C ) :   1.0105 B( 48-C ,100-H ) :   0.8897
B( 48-C ,101-H ) :   0.8984 B( 49-C , 50-C ) :   1.6501 B( 49-C , 52-C ) :   1.1329
B( 50-C , 51-C ) :   1.0147 B( 50-C ,102-H ) :   0.9939 B( 51-C ,103-H ) :   0.8775
B( 51-C ,104-H ) :   0.8725 B( 52-C , 53-C ) :   1.6466 B( 52-C ,105-H ) :   0.9563
B( 53-C , 54-C ) :   1.1625 B( 53-C ,106-H ) :   0.9522 B( 54-C , 55-C ) :   1.6416
B( 54-C ,107-H ) :   0.9231 B( 55-C , 56-C ) :   1.0432 B( 55-C , 68-C ) :   0.9999
B( 56-C , 57-C ) :   1.6452 B( 56-C , 62-C ) :   1.0045 B( 57-C , 58-C ) :   1.1361
B( 57-C , 60-C ) :   1.1424 B( 58-C , 59-N ) :   2.9866 B( 60-C , 61-N ) :   2.9792
B( 62-C , 63-C ) :   1.3110 B( 62-C , 67-C ) :   1.3780 B( 63-C , 64-C ) :   1.3791
B( 63-C , 68-C ) :   1.0291 B( 64-C , 65-C ) :   1.3665 B( 64-C ,108-H ) :   0.9861
B( 65-C , 66-C ) :   1.3729 B( 65-C ,109-H ) :   0.9864 B( 66-C , 67-C ) :   1.3740
B( 66-C ,110-H ) :   0.9867 B( 67-C ,111-H ) :   0.9836 B( 68-C , 69-C ) :   1.6639
B( 69-C , 70-C ) :   1.1383 B( 69-C , 72-C ) :   1.1657 B( 70-C , 71-N ) :   2.9549
B( 72-C , 73-N ) :   2.9481

-----------------------------------------------------------------------------
         ABSORPTION SPECTRUM VIA TRANSITION ELECTRIC DIPOLE MOMENTS
-----------------------------------------------------------------------------
State   Energy  Wavelength   fosc         T2         TX        TY        TZ
        (cm-1)    (nm)                  (au**2)     (au)      (au)      (au)
-----------------------------------------------------------------------------
   0   20413.7    489.9   0.046908846   0.75650  -0.09415   0.02856  -0.86419
   1   20606.1    485.3   0.147036226   2.34912  -0.05132   0.12399  -1.52680
   2   21984.1    454.9   0.002012589   0.03014  -0.00268   0.04529   0.16757
   3   23683.3    422.2   0.003201839   0.04451  -0.16678   0.07841  -0.10268
   4   24066.3    415.5   0.260302237   3.56077   1.15264  -1.03213   1.08023
   5   24474.8    408.6   0.003797095   0.05107  -0.14746   0.11433  -0.12751
   6   25943.0    385.5   0.007225586   0.09169  -0.29877  -0.04259  -0.02477
   7   26065.2    383.7   0.042500386   0.53679   0.69789   0.22298   0.00406
   8   26351.6    379.5   0.067096536   0.83824   0.88821  -0.22173  -0.01279
   9   26405.2    378.7   0.114481409   1.42732   1.10434  -0.37976  -0.25207
  10   26656.4    375.1   0.345687792   4.26932  -2.04434  -0.05380  -0.29515
  11   27111.9    368.8   0.119674375   1.45317  -0.40256   0.40161   1.06293
  12   27373.8    365.3   0.090988634   1.09428  -0.06788   0.31498   0.99522
  13   28615.7    349.5   0.006045561   0.06955   0.21670  -0.15023   0.00456
  14   28917.6    345.8   0.000444650   0.00506  -0.06890   0.00915   0.01523
  15   29406.5    340.1   0.004438748   0.04969  -0.08053   0.15407   0.13953
  16   29529.0    338.6   0.125900572   1.40364  -0.00350  -0.59274  -1.02581
  17   30144.1    331.7   0.003576493   0.03906  -0.09725   0.01935  -0.17096
  18   30487.1    328.0   0.385485074   4.16263  -1.59886   0.82370  -0.96322
  19   30697.6    325.8   0.017905047   0.19202   0.10174  -0.19330  -0.37987
  20   31033.6    322.2   0.005735436   0.06084  -0.21230   0.12558  -0.00030
  21   31304.3    319.4   0.309668921   3.25663   0.47135   0.46207   1.67957
  22   31505.8    317.4   0.009224842   0.09639   0.10941   0.09349   0.27510
  23   32114.3    311.4   0.507511786   5.20263   2.00451  -0.12862  -1.08075
  24   32245.4    310.1   0.004617419   0.04714   0.01272   0.19472  -0.09520
  25   32651.5    306.3   0.000670240   0.00676   0.05122  -0.01716  -0.06197
  26   32924.4    303.7   0.008511398   0.08511   0.14878   0.00708   0.25084
  27   33455.2    298.9   0.006492793   0.06389  -0.19105   0.06410  -0.15258
  28   33556.7    298.0   0.333403108   3.27089  -1.44810   0.92062  -0.57129
  29   33954.8    294.5   0.007449113   0.07222  -0.01133  -0.23521   0.12951
  30   34408.9    290.6   0.020988571   0.20081   0.04309  -0.43020   0.11784
  31   35062.6    285.2   0.016438052   0.15434   0.34358  -0.16681  -0.09202
  32   35266.5    283.6   0.003032923   0.02831  -0.12099  -0.02178   0.11488
  33   35382.8    282.6   0.161346922   1.50122  -0.56435  -1.07435   0.16882
  34   35463.7    282.0   0.626435989   5.81525   1.11225   1.96628   0.84375
  35   35623.9    280.7   0.102444843   0.94672   0.62063   0.70503  -0.25392
  36   35742.2    279.8   0.686752490   6.32550  -2.05979  -1.33756   0.54194
  37   35862.8    278.8   0.005843286   0.05364   0.18681   0.13652   0.01021
  38   36283.4    275.6   0.962058434   8.72908  -0.69962   0.25887  -2.85878
  39   36909.3    270.9   0.212846933   1.89848   0.80604   1.08661  -0.26088
  40   37393.9    267.4   0.003708725   0.03265  -0.09173  -0.15342   0.02642
  41   37484.4    266.8   0.001155167   0.01015  -0.08307  -0.04260  -0.03781
  42   37572.3    266.2   0.002246424   0.01968  -0.11591  -0.02713   0.07425
  43   37609.6    265.9   0.006158870   0.05391  -0.16727  -0.16100  -0.00355
  44   37712.1    265.2   0.003543540   0.03093  -0.16136  -0.06990  -0.00308
  45   38237.5    261.5   0.001685392   0.01451  -0.09273  -0.06552   0.04024
  46   38813.4    257.6   0.000197558   0.00168  -0.01137  -0.03700  -0.01333
  47   38824.9    257.6   0.001176603   0.00998  -0.09536   0.02079   0.02123
  48   39056.8    256.0   0.000668898   0.00564  -0.00498  -0.04723  -0.05816
  49   39528.6    253.0   0.000282164   0.00235  -0.04614  -0.01131   0.00965
  50   39529.9    253.0   0.001959210   0.01632   0.01095  -0.03760   0.12159
  51   39603.6    252.5   0.000226322   0.00188  -0.00374  -0.04278  -0.00607

FINAL SINGLE POINT ENERGY     -3331.630534797628

DIPOLE MOMENT
-------------
                                X             Y             Z
Electronic contribution:      0.98275      19.88073      61.76817
Nuclear contribution   :      0.46747     -19.22153     -63.29426
                        -----------------------------------------
Total Dipole Moment    :      1.45022       0.65920      -1.52609
                        -----------------------------------------
Magnitude (a.u.)       :      2.20605
Magnitude (Debye)      :      5.60732

Rotational constants in cm-1:     0.000961     0.000605     0.000447
Rotational constants in MHz :    28.817387    18.132716    13.415066

                             ****ORCA TERMINATED NORMALLY****
TOTAL RUN TIME: 0 days 0 hours 12 minutes 4 seconds 738 msec
