                         Program Version 4.2.0 -  RELEASE  -
|  1> # ORCA input file
|  2> # SCF done       -180.871801162044          0.000965896520
|  3> ! CAM-B3LYP def2-SVP def2/J RIJCOSX Grid4 TightSCF
|  4> %maxcore 5000
|  5> %tddft
|  6>     Mode sTDDFT
|  7>     Ethresh 5.0
|  8>     maxcore 5000
|  9> end
| 10>
| 11> %pal
| 12>   nprocs 6
| 13>   end
| 14> * xyz 0 1
| 15>    C       -0.81643        -1.71054         1.26430
| 16>    C       -1.38086        -2.05033         0.01974
| 17>    C       -0.68103        -1.71807        -1.13332
| 18>    C        0.55426        -1.07021        -1.06576
| 19>    C        1.10217        -0.74516         0.19342
| 20>    C        0.39510        -1.07398         1.35393
| 21>    N        2.31070        -0.11643         0.24883
| 22>    C        3.09526         0.25537        -0.82972
| 23>    O        4.15708         0.80848        -0.65117
| 24>    C        2.50329        -0.08948        -2.12959
| 25>    C        1.30101        -0.71606        -2.22641
| 26>    C        3.23129         0.25314        -3.29130
| 27>    N        3.80059         0.52173        -4.24880
| 28>    C       -2.65275        -2.73106        -0.04421
| 29>    C       -3.29976        -3.23033        -1.15091
| 30>    C       -4.51726        -3.84240        -0.82937
| 31>    C       -4.79924        -3.80329         0.54637
| 32>    S       -3.57115        -3.02013         1.43205
| 33>    C       -6.03864        -4.45147         0.77590
| 34>    C       -6.53601        -4.90160        -0.45724
| 35>    C       -5.59712        -4.52803        -1.50772
| 36>    C       -5.72295        -4.77585        -2.84573
| 37>    C       -6.83576        -5.45623        -3.37888
| 38>    N       -7.74464        -6.00813        -3.81078
| 39>    C       -4.74662        -4.36347        -3.77519
| 40>    N       -3.95028        -4.02402        -4.52781
| 41>    C       -7.75402        -5.56441        -0.34854
| 42>    C       -8.19886        -5.62966         0.96335
| 43>    S       -7.08349        -4.84490         2.07243
| 44>    C       -9.39795        -6.23170         1.44351
| 45>    C      -10.21842        -6.98044         0.63224
| 46>    C      -11.40644        -7.58582         1.03420
| 47>    C      -11.81855        -7.56662         2.44534
| 48>    C      -11.16851        -6.88771         3.41454
| 49>    S       -9.75844        -5.94774         3.14152
| 50>    C      -12.97166        -8.39627         2.51380
| 51>    C      -13.26578        -8.89492         1.24414
| 52>    C      -14.40844        -9.72492         1.24915
| 53>    C      -14.93798        -9.83465         2.49537
| 54>    S      -14.08270        -8.93886         3.70643
| 55>    C      -12.31389        -8.37417         0.29827
| 56>    C      -12.36391        -8.64826        -1.09066
| 57>    C      -11.78270        -7.91001        -2.07344
| 58>    C      -11.80266        -8.22575        -3.45333
| 59>    C      -12.33405        -9.33023        -4.10594
| 60>    C      -12.13225        -9.27086        -5.48127
| 61>    C      -11.43968        -8.11659        -5.88794
| 62>    S      -11.03772        -7.10698        -4.57460
| 63>    C      -11.29289        -8.15637        -7.29779
| 64>    C      -11.88775        -9.33220        -7.78141
| 65>    C      -12.43520       -10.07212        -6.66126
| 66>    C      -13.09989       -11.26408        -6.69908
| 67>    C      -13.33228       -11.95079        -7.90820
| 68>    N      -13.51976       -12.51011        -8.89204
| 69>    C      -13.59812       -11.88214        -5.53424
| 70>    N      -14.00644       -12.38191        -4.58589
| 71>    C      -11.79815        -9.45206        -9.17338
| 72>    C      -11.14949        -8.38491        -9.75129
| 73>    S      -10.63253        -7.20610        -8.54811
| 74>    C      -10.88192        -8.14614       -11.14990
| 75>    C      -11.12236        -9.14804       -12.11179
| 76>    C      -10.88375        -8.92704       -13.44454
| 77>    C      -10.39376        -7.69157       -13.87975
| 78>    C      -10.13947        -6.67633       -12.93355
| 79>    C      -10.38696        -6.92376       -11.58193
| 80>    C       -9.64352        -5.42994       -13.41145
| 81>    C       -9.42281        -5.21843       -14.73607
| 82>    C       -9.67832        -6.26044       -15.74001
| 83>    O       -9.50988        -6.15882       -16.93463
| 84>    N      -10.15483        -7.44233       -15.19890
| 85>    C       -8.93708        -3.97246       -15.19189
| 86>    N       -8.54759        -2.95005       -15.53219
| 87>    H       -1.35092        -1.96169         2.16856
| 88>    H       -1.08213        -1.95266        -2.10629
| 89>    H        0.81139        -0.82469         2.31857
| 90>    H        2.69622         0.11125         1.15867
| 91>    H        0.89371        -0.95640        -3.19894
| 92>    H       -2.91055        -3.16710        -2.14998
| 93>    H       -8.29299        -5.97012        -1.18388
| 94>    H       -9.88496        -7.14014        -0.38059
| 95>    H      -11.49792        -6.88021         4.44147
| 96>    H      -14.81838       -10.21662         0.38586
| 97>    H      -15.80016       -10.39744         2.79545
| 98>    H      -12.95981        -9.50663        -1.37117
| 99>    H      -11.28821        -6.98254        -1.82473
|100>    H      -12.83740       -10.13041        -3.59599
|101>    H      -12.20362       -10.27727        -9.72869
|102>    H      -11.49412       -10.10970       -11.79737
|103>    H      -11.07248        -9.70661       -14.16760
|104>    H      -10.19126        -6.13658       -10.86838
|105>    H       -9.44430        -4.64232       -12.69760
|106>    H      -10.33988        -8.17848       -15.87137
|107> *
|108>
|109>                          ****END OF INPUT****

CARTESIAN COORDINATES (ANGSTROEM)
---------------------------------
  C     -0.816430   -1.710540    1.264300
  C     -1.380860   -2.050330    0.019740
  C     -0.681030   -1.718070   -1.133320
  C      0.554260   -1.070210   -1.065760
  C      1.102170   -0.745160    0.193420
  C      0.395100   -1.073980    1.353930
  N      2.310700   -0.116430    0.248830
  C      3.095260    0.255370   -0.829720
  O      4.157080    0.808480   -0.651170
  C      2.503290   -0.089480   -2.129590
  C      1.301010   -0.716060   -2.226410
  C      3.231290    0.253140   -3.291300
  N      3.800590    0.521730   -4.248800
  C     -2.652750   -2.731060   -0.044210
  C     -3.299760   -3.230330   -1.150910
  C     -4.517260   -3.842400   -0.829370
  C     -4.799240   -3.803290    0.546370
  S     -3.571150   -3.020130    1.432050
  C     -6.038640   -4.451470    0.775900
  C     -6.536010   -4.901600   -0.457240
  C     -5.597120   -4.528030   -1.507720
  C     -5.722950   -4.775850   -2.845730
  C     -6.835760   -5.456230   -3.378880
  N     -7.744640   -6.008130   -3.810780
  C     -4.746620   -4.363470   -3.775190
  N     -3.950280   -4.024020   -4.527810
  C     -7.754020   -5.564410   -0.348540
  C     -8.198860   -5.629660    0.963350
  S     -7.083490   -4.844900    2.072430
  C     -9.397950   -6.231700    1.443510
  C    -10.218420   -6.980440    0.632240
  C    -11.406440   -7.585820    1.034200
  C    -11.818550   -7.566620    2.445340
  C    -11.168510   -6.887710    3.414540
  S     -9.758440   -5.947740    3.141520
  C    -12.971660   -8.396270    2.513800
  C    -13.265780   -8.894920    1.244140
  C    -14.408440   -9.724920    1.249150
  C    -14.937980   -9.834650    2.495370
  S    -14.082700   -8.938860    3.706430
  C    -12.313890   -8.374170    0.298270
  C    -12.363910   -8.648260   -1.090660
  C    -11.782700   -7.910010   -2.073440
  C    -11.802660   -8.225750   -3.453330
  C    -12.334050   -9.330230   -4.105940
  C    -12.132250   -9.270860   -5.481270
  C    -11.439680   -8.116590   -5.887940
  S    -11.037720   -7.106980   -4.574600
  C    -11.292890   -8.156370   -7.297790
  C    -11.887750   -9.332200   -7.781410
  C    -12.435200  -10.072120   -6.661260
  C    -13.099890  -11.264080   -6.699080
  C    -13.332280  -11.950790   -7.908200
  N    -13.519760  -12.510110   -8.892040
  C    -13.598120  -11.882140   -5.534240
  N    -14.006440  -12.381910   -4.585890
  C    -11.798150   -9.452060   -9.173380
  C    -11.149490   -8.384910   -9.751290
  S    -10.632530   -7.206100   -8.548110
  C    -10.881920   -8.146140  -11.149900
  C    -11.122360   -9.148040  -12.111790
  C    -10.883750   -8.927040  -13.444540
  C    -10.393760   -7.691570  -13.879750
  C    -10.139470   -6.676330  -12.933550
  C    -10.386960   -6.923760  -11.581930
  C     -9.643520   -5.429940  -13.411450
  C     -9.422810   -5.218430  -14.736070
  C     -9.678320   -6.260440  -15.740010
  O     -9.509880   -6.158820  -16.934630
  N    -10.154830   -7.442330  -15.198900
  C     -8.937080   -3.972460  -15.191890
  N     -8.547590   -2.950050  -15.532190
  H     -1.350920   -1.961690    2.168560
  H     -1.082130   -1.952660   -2.106290
  H      0.811390   -0.824690    2.318570
  H      2.696220    0.111250    1.158670
  H      0.893710   -0.956400   -3.198940
  H     -2.910550   -3.167100   -2.149980
  H     -8.292990   -5.970120   -1.183880
  H     -9.884960   -7.140140   -0.380590
  H    -11.497920   -6.880210    4.441470
  H    -14.818380  -10.216620    0.385860
  H    -15.800160  -10.397440    2.795450
  H    -12.959810   -9.506630   -1.371170
  H    -11.288210   -6.982540   -1.824730
  H    -12.837400  -10.130410   -3.595990
  H    -12.203620  -10.277270   -9.728690
  H    -11.494120  -10.109700  -11.797370
  H    -11.072480   -9.706610  -14.167600
  H    -10.191260   -6.136580  -10.868380
  H     -9.444300   -4.642320  -12.697600
  H    -10.339880   -8.178480  -15.871370

 Total Charge           Charge          ....    0
 Multiplicity           Mult            ....    1
 Number of Electrons    NEL             ....  524
 Basis Dimension        Dim             .... 1132

ORBITAL ENERGIES
----------------

  NO   OCC          E(Eh)            E(eV)
   0   2.0000     -88.998575     -2421.7744
   1   2.0000     -88.997344     -2421.7409
   2   2.0000     -88.986275     -2421.4396
   3   2.0000     -88.984681     -2421.3963
   4   2.0000     -88.981178     -2421.3009
   5   2.0000     -88.961863     -2420.7754
   6   2.0000     -19.196344      -522.3591
   7   2.0000     -19.190702      -522.2056
   8   2.0000     -14.480470      -394.0336
   9   2.0000     -14.475004      -393.8849
  10   2.0000     -14.442042      -392.9879
  11   2.0000     -14.439481      -392.9183
  12   2.0000     -14.428981      -392.6325
  13   2.0000     -14.428247      -392.6125
  14   2.0000     -14.404475      -391.9657
  15   2.0000     -14.400454      -391.8563
  16   2.0000     -10.397563      -282.9321
  17   2.0000     -10.392151      -282.7848
  18   2.0000     -10.373181      -282.2686
  19   2.0000     -10.360962      -281.9361
  20   2.0000     -10.360610      -281.9265
  21   2.0000     -10.356254      -281.8080
  22   2.0000     -10.349654      -281.6284
  23   2.0000     -10.349079      -281.6127
  24   2.0000     -10.343051      -281.4487
  25   2.0000     -10.340588      -281.3817
  26   2.0000     -10.340024      -281.3663
  27   2.0000     -10.337127      -281.2875
  28   2.0000     -10.336830      -281.2794
  29   2.0000     -10.335973      -281.2561
  30   2.0000     -10.335360      -281.2394
  31   2.0000     -10.330948      -281.1194
  32   2.0000     -10.330476      -281.1065
  33   2.0000     -10.329902      -281.0909
  34   2.0000     -10.329570      -281.0819
  35   2.0000     -10.329128      -281.0699
  36   2.0000     -10.327565      -281.0273
  37   2.0000     -10.325710      -280.9769
  38   2.0000     -10.322316      -280.8845
  39   2.0000     -10.322212      -280.8817
  40   2.0000     -10.320205      -280.8271
  41   2.0000     -10.316458      -280.7251
  42   2.0000     -10.314381      -280.6686
  43   2.0000     -10.313032      -280.6319
  44   2.0000     -10.312003      -280.6039
  45   2.0000     -10.310922      -280.5745
  46   2.0000     -10.309897      -280.5465
  47   2.0000     -10.309005      -280.5223
  48   2.0000     -10.308683      -280.5135
  49   2.0000     -10.307232      -280.4741
  50   2.0000     -10.306915      -280.4654
  51   2.0000     -10.306863      -280.4640
  52   2.0000     -10.306692      -280.4594
  53   2.0000     -10.305941      -280.4389
  54   2.0000     -10.304723      -280.4058
  55   2.0000     -10.304529      -280.4005
  56   2.0000     -10.303552      -280.3739
  57   2.0000     -10.303011      -280.3592
  58   2.0000     -10.301680      -280.3230
  59   2.0000     -10.300755      -280.2978
  60   2.0000     -10.299259      -280.2571
  61   2.0000     -10.298015      -280.2232
  62   2.0000     -10.297753      -280.2161
  63   2.0000     -10.296975      -280.1949
  64   2.0000     -10.292857      -280.0829
  65   2.0000     -10.292512      -280.0735
  66   2.0000     -10.292209      -280.0652
  67   2.0000     -10.289208      -279.9836
  68   2.0000     -10.287061      -279.9252
  69   2.0000     -10.283597      -279.8309
  70   2.0000     -10.279550      -279.7208
  71   2.0000     -10.278829      -279.7012
  72   2.0000      -8.093064      -220.2235
  73   2.0000      -8.091874      -220.1911
  74   2.0000      -8.080875      -219.8918
  75   2.0000      -8.080284      -219.8757
  76   2.0000      -8.075856      -219.7552
  77   2.0000      -8.057286      -219.2499
  78   2.0000      -6.062408      -164.9665
  79   2.0000      -6.061093      -164.9307
  80   2.0000      -6.058114      -164.8497
  81   2.0000      -6.056944      -164.8178
  82   2.0000      -6.055368      -164.7749
  83   2.0000      -6.054308      -164.7461
  84   2.0000      -6.050073      -164.6308
  85   2.0000      -6.049933      -164.6270
  86   2.0000      -6.045948      -164.5186
  87   2.0000      -6.045392      -164.5035
  88   2.0000      -6.045006      -164.4930
  89   2.0000      -6.043302      -164.4466
  90   2.0000      -6.041972      -164.4104
  91   2.0000      -6.040821      -164.3791
  92   2.0000      -6.038371      -164.3124
  93   2.0000      -6.026762      -163.9965
  94   2.0000      -6.022462      -163.8795
  95   2.0000      -6.019297      -163.7934
  96   2.0000      -1.145271       -31.1644
  97   2.0000      -1.139669       -31.0120
  98   2.0000      -1.067791       -29.0561
  99   2.0000      -1.061888       -28.8954
 100   2.0000      -1.052661       -28.6444
 101   2.0000      -1.039787       -28.2940
 102   2.0000      -1.031967       -28.0813
 103   2.0000      -1.019724       -27.7481
 104   2.0000      -1.018334       -27.7103
 105   2.0000      -1.015414       -27.6308
 106   2.0000      -1.007160       -27.4062
 107   2.0000      -1.006375       -27.3849
 108   2.0000      -0.995472       -27.0882
 109   2.0000      -0.990748       -26.9596
 110   2.0000      -0.986674       -26.8488
 111   2.0000      -0.986068       -26.8323
 112   2.0000      -0.974179       -26.5087
 113   2.0000      -0.972728       -26.4693
 114   2.0000      -0.962566       -26.1928
 115   2.0000      -0.953636       -25.9498
 116   2.0000      -0.940981       -25.6054
 117   2.0000      -0.935581       -25.4584
 118   2.0000      -0.935024       -25.4433
 119   2.0000      -0.922229       -25.0951
 120   2.0000      -0.912879       -24.8407
 121   2.0000      -0.898747       -24.4561
 122   2.0000      -0.885594       -24.0982
 123   2.0000      -0.883222       -24.0337
 124   2.0000      -0.874521       -23.7969
 125   2.0000      -0.873309       -23.7639
 126   2.0000      -0.866771       -23.5861
 127   2.0000      -0.863572       -23.4990
 128   2.0000      -0.862624       -23.4732
 129   2.0000      -0.856043       -23.2941
 130   2.0000      -0.848357       -23.0850
 131   2.0000      -0.844604       -22.9828
 132   2.0000      -0.825068       -22.4512
 133   2.0000      -0.807255       -21.9665
 134   2.0000      -0.795624       -21.6500
 135   2.0000      -0.787698       -21.4344
 136   2.0000      -0.779552       -21.2127
 137   2.0000      -0.776602       -21.1324
 138   2.0000      -0.772592       -21.0233
 139   2.0000      -0.767641       -20.8886
 140   2.0000      -0.759530       -20.6679
 141   2.0000      -0.756677       -20.5902
 142   2.0000      -0.752702       -20.4821
 143   2.0000      -0.744481       -20.2584
 144   2.0000      -0.731614       -19.9082
 145   2.0000      -0.724311       -19.7095
 146   2.0000      -0.708690       -19.2844
 147   2.0000      -0.702154       -19.1066
 148   2.0000      -0.699268       -19.0281
 149   2.0000      -0.690710       -18.7952
 150   2.0000      -0.687365       -18.7042
 151   2.0000      -0.678598       -18.4656
 152   2.0000      -0.672560       -18.3013
 153   2.0000      -0.666212       -18.1286
 154   2.0000      -0.664484       -18.0815
 155   2.0000      -0.659280       -17.9399
 156   2.0000      -0.658336       -17.9142
 157   2.0000      -0.653792       -17.7906
 158   2.0000      -0.644519       -17.5383
 159   2.0000      -0.638172       -17.3655
 160   2.0000      -0.628593       -17.1049
 161   2.0000      -0.627785       -17.0829
 162   2.0000      -0.623831       -16.9753
 163   2.0000      -0.612943       -16.6790
 164   2.0000      -0.612420       -16.6648
 165   2.0000      -0.608876       -16.5684
 166   2.0000      -0.605763       -16.4836
 167   2.0000      -0.597808       -16.2672
 168   2.0000      -0.595729       -16.2106
 169   2.0000      -0.591797       -16.1036
 170   2.0000      -0.587894       -15.9974
 171   2.0000      -0.585336       -15.9278
 172   2.0000      -0.576641       -15.6912
 173   2.0000      -0.569844       -15.5063
 174   2.0000      -0.561691       -15.2844
 175   2.0000      -0.560387       -15.2489
 176   2.0000      -0.559470       -15.2240
 177   2.0000      -0.555613       -15.1190
 178   2.0000      -0.554610       -15.0917
 179   2.0000      -0.552723       -15.0404
 180   2.0000      -0.548577       -14.9275
 181   2.0000      -0.543892       -14.8001
 182   2.0000      -0.542905       -14.7732
 183   2.0000      -0.537013       -14.6129
 184   2.0000      -0.531105       -14.4521
 185   2.0000      -0.528564       -14.3830
 186   2.0000      -0.525682       -14.3045
 187   2.0000      -0.523160       -14.2359
 188   2.0000      -0.521697       -14.1961
 189   2.0000      -0.520749       -14.1703
 190   2.0000      -0.514435       -13.9985
 191   2.0000      -0.513030       -13.9603
 192   2.0000      -0.508769       -13.8443
 193   2.0000      -0.506514       -13.7829
 194   2.0000      -0.504101       -13.7173
 195   2.0000      -0.503425       -13.6989
 196   2.0000      -0.502001       -13.6601
 197   2.0000      -0.499824       -13.6009
 198   2.0000      -0.496392       -13.5075
 199   2.0000      -0.494417       -13.4538
 200   2.0000      -0.492805       -13.4099
 201   2.0000      -0.491555       -13.3759
 202   2.0000      -0.487286       -13.2597
 203   2.0000      -0.481752       -13.1091
 204   2.0000      -0.477553       -12.9949
 205   2.0000      -0.476421       -12.9641
 206   2.0000      -0.473734       -12.8910
 207   2.0000      -0.472053       -12.8452
 208   2.0000      -0.470312       -12.7978
 209   2.0000      -0.468867       -12.7585
 210   2.0000      -0.466946       -12.7062
 211   2.0000      -0.465721       -12.6729
 212   2.0000      -0.462850       -12.5948
 213   2.0000      -0.460664       -12.5353
 214   2.0000      -0.460255       -12.5242
 215   2.0000      -0.459437       -12.5019
 216   2.0000      -0.456331       -12.4174
 217   2.0000      -0.455511       -12.3951
 218   2.0000      -0.453561       -12.3420
 219   2.0000      -0.451029       -12.2731
 220   2.0000      -0.450079       -12.2473
 221   2.0000      -0.448491       -12.2041
 222   2.0000      -0.444612       -12.0985
 223   2.0000      -0.439379       -11.9561
 224   2.0000      -0.438536       -11.9332
 225   2.0000      -0.437312       -11.8999
 226   2.0000      -0.435742       -11.8571
 227   2.0000      -0.435025       -11.8376
 228   2.0000      -0.433857       -11.8058
 229   2.0000      -0.433568       -11.7980
 230   2.0000      -0.432731       -11.7752
 231   2.0000      -0.432004       -11.7554
 232   2.0000      -0.429127       -11.6771
 233   2.0000      -0.426908       -11.6167
 234   2.0000      -0.422588       -11.4992
 235   2.0000      -0.418422       -11.3858
 236   2.0000      -0.414600       -11.2818
 237   2.0000      -0.411978       -11.2105
 238   2.0000      -0.410274       -11.1641
 239   2.0000      -0.406578       -11.0635
 240   2.0000      -0.403454       -10.9785
 241   2.0000      -0.402017       -10.9394
 242   2.0000      -0.400510       -10.8984
 243   2.0000      -0.395884       -10.7725
 244   2.0000      -0.385719       -10.4960
 245   2.0000      -0.368110       -10.0168
 246   2.0000      -0.359291        -9.7768
 247   2.0000      -0.353699        -9.6246
 248   2.0000      -0.352867        -9.6020
 249   2.0000      -0.347454        -9.4547
 250   2.0000      -0.343726        -9.3533
 251   2.0000      -0.338692        -9.2163
 252   2.0000      -0.334220        -9.0946
 253   2.0000      -0.331347        -9.0164
 254   2.0000      -0.325929        -8.8690
 255   2.0000      -0.317266        -8.6333
 256   2.0000      -0.315389        -8.5822
 257   2.0000      -0.303800        -8.2668
 258   2.0000      -0.288770        -7.8578
 259   2.0000      -0.275146        -7.4871
 260   2.0000      -0.257983        -7.0201
 261   2.0000      -0.224753        -6.1158
 262   0.0000      -0.114859        -3.1255
 263   0.0000      -0.100802        -2.7430
 264   0.0000      -0.071552        -1.9470
 265   0.0000      -0.060818        -1.6550
 266   0.0000      -0.055163        -1.5011

MULLIKEN ATOMIC CHARGES
-----------------------
   0 C :   -0.037163
   1 C :    0.168413
   2 C :   -0.104902
   3 C :    0.047808
   4 C :    0.091016
   5 C :   -0.014661
   6 N :   -0.032480
   7 C :    0.130346
   8 O :   -0.163474
   9 C :   -0.226053
  10 C :    0.086114
  11 C :   -0.136543
  12 N :    0.128929
  13 C :   -0.067061
  14 C :   -0.048824
  15 C :    0.009238
  16 C :   -0.094340
  17 S :    0.160428
  18 C :   -0.104398
  19 C :    0.009513
  20 C :    0.313647
  21 C :   -0.298745
  22 C :   -0.178889
  23 N :    0.160992
  24 C :   -0.186737
  25 N :    0.166432
  26 C :   -0.048135
  27 C :   -0.057326
  28 S :    0.187655
  29 C :   -0.036877
  30 C :   -0.076865
  31 C :    0.048577
  32 C :    0.068510
  33 C :   -0.132252
  34 S :    0.118246
  35 C :   -0.108723
  36 C :    0.052058
  37 C :    0.010860
  38 C :   -0.068774
  39 S :    0.129908
  40 C :    0.081957
  41 C :   -0.027169
  42 C :    0.030636
  43 C :   -0.084036
  44 C :   -0.040186
  45 C :    0.003821
  46 C :   -0.111716
  47 S :    0.215632
  48 C :   -0.088863
  49 C :    0.002883
  50 C :    0.308846
  51 C :   -0.303711
  52 C :   -0.184742
  53 N :    0.160647
  54 C :   -0.182969
  55 N :    0.166979
  56 C :   -0.046740
  57 C :   -0.068605
  58 S :    0.161572
  59 C :    0.159320
  60 C :   -0.019166
  61 C :   -0.009874
  62 C :    0.086408
  63 C :    0.043976
  64 C :   -0.118632
  65 C :    0.091150
  66 C :   -0.233512
  67 C :    0.129021
  68 O :   -0.166670
  69 N :   -0.027590
  70 C :   -0.138206
  71 N :    0.127767
  72 H :   -0.001987
  73 H :   -0.017985
  74 H :   -0.026480
  75 H :    0.134899
  76 H :    0.014767
  77 H :    0.002740
  78 H :    0.002378
  79 H :   -0.017704
  80 H :    0.038154
  81 H :   -0.010840
  82 H :    0.029252
  83 H :   -0.013865
  84 H :   -0.022304
  85 H :    0.003166
  86 H :    0.000545
  87 H :   -0.005228
  88 H :   -0.025297
  89 H :   -0.013205
  90 H :    0.009921
  91 H :    0.135379
Sum of atomic charges:   -0.0000000

LOEWDIN ATOMIC CHARGES
----------------------
   0 C :   -0.000495
   1 C :   -0.053174
   2 C :    0.015167
   3 C :   -0.057226
   4 C :    0.051358
   5 C :   -0.042335
   6 N :    0.048032
   7 C :    0.071275
   8 O :   -0.188351
   9 C :   -0.108500
  10 C :    0.068274
  11 C :   -0.024809
  12 N :   -0.038763
  13 C :   -0.158053
  14 C :   -0.031531
  15 C :   -0.075925
  16 C :   -0.175066
  17 S :    0.472794
  18 C :   -0.190305
  19 C :   -0.065998
  20 C :    0.086658
  21 C :   -0.105978
  22 C :   -0.010951
  23 N :   -0.044629
  24 C :   -0.016018
  25 N :   -0.034401
  26 C :   -0.031555
  27 C :   -0.178579
  28 S :    0.467731
  29 C :   -0.190523
  30 C :   -0.016229
  31 C :   -0.024984
  32 C :   -0.044262
  33 C :   -0.141748
  34 S :    0.431392
  35 C :   -0.203753
  36 C :   -0.038564
  37 C :   -0.061817
  38 C :   -0.161612
  39 S :    0.423198
  40 C :   -0.044862
  41 C :   -0.009568
  42 C :   -0.056824
  43 C :   -0.159770
  44 C :   -0.033529
  45 C :   -0.065999
  46 C :   -0.195591
  47 S :    0.496825
  48 C :   -0.170414
  49 C :   -0.078574
  50 C :    0.086557
  51 C :   -0.108925
  52 C :   -0.014746
  53 N :   -0.040893
  54 C :   -0.015112
  55 N :   -0.039387
  56 C :   -0.032991
  57 C :   -0.162126
  58 S :    0.472886
  59 C :   -0.050721
  60 C :    0.017952
  61 C :   -0.041815
  62 C :    0.050267
  63 C :   -0.059060
  64 C :   -0.004447
  65 C :    0.067320
  66 C :   -0.110820
  67 C :    0.070522
  68 O :   -0.191023
  69 N :    0.048905
  70 C :   -0.024629
  71 N :   -0.042339
  72 H :    0.025095
  73 H :    0.035245
  74 H :    0.033767
  75 H :    0.100257
  76 H :    0.049270
  77 H :    0.037754
  78 H :    0.036811
  79 H :    0.036974
  80 H :    0.037302
  81 H :    0.032762
  82 H :    0.024678
  83 H :    0.031811
  84 H :    0.024012
  85 H :    0.037171
  86 H :    0.036986
  87 H :    0.037594
  88 H :    0.034252
  89 H :    0.023483
  90 H :    0.047576
  91 H :    0.100388

  Mayer bond orders larger than 0.100000
B(  0-C ,  1-C ) :   1.2713 B(  0-C ,  5-C ) :   1.4519 B(  0-C , 72-H ) :   0.9796
B(  1-C ,  2-C ) :   1.3734 B(  1-C , 13-C ) :   1.0606 B(  2-C ,  3-C ) :   1.2859
B(  2-C , 73-H ) :   1.0042 B(  3-C ,  4-C ) :   1.2947 B(  3-C , 10-C ) :   1.1215
B(  4-C ,  5-C ) :   1.2919 B(  4-C ,  6-N ) :   1.2021 B(  5-C , 74-H ) :   0.9915
B(  6-N ,  7-C ) :   1.0831 B(  6-N , 75-H ) :   0.9020 B(  7-C ,  8-O ) :   2.2465
B(  7-C ,  9-C ) :   0.9484 B(  9-C , 10-C ) :   1.6471 B(  9-C , 11-C ) :   1.1110
B( 10-C , 76-H ) :   0.9871 B( 11-C , 12-N ) :   3.0430 B( 13-C , 14-C ) :   1.5132
B( 13-C , 17-S ) :   1.0954 B( 14-C , 15-C ) :   1.2610 B( 14-C , 77-H ) :   0.9886
B( 15-C , 16-C ) :   1.4487 B( 15-C , 20-C ) :   1.0098 B( 16-C , 17-S ) :   1.1268
B( 16-C , 18-C ) :   1.1869 B( 18-C , 19-C ) :   1.4452 B( 18-C , 28-S ) :   1.1109
B( 19-C , 20-C ) :   0.9933 B( 19-C , 26-C ) :   1.3044 B( 20-C , 21-C ) :   1.6989
B( 21-C , 22-C ) :   1.1341 B( 21-C , 24-C ) :   1.1348 B( 22-C , 23-N ) :   2.9849
B( 24-C , 25-N ) :   2.9862 B( 26-C , 27-C ) :   1.4753 B( 26-C , 78-H ) :   0.9849
B( 27-C , 28-S ) :   1.1086 B( 27-C , 29-C ) :   1.1191 B( 29-C , 30-C ) :   1.5543
B( 29-C , 34-S ) :   1.0366 B( 30-C , 31-C ) :   1.2308 B( 30-C , 79-H ) :   0.9652
B( 31-C , 32-C ) :   1.0505 B( 31-C , 40-C ) :   1.3847 B( 32-C , 33-C ) :   1.6171
B( 32-C , 35-C ) :   1.1766 B( 33-C , 34-S ) :   1.1285 B( 33-C , 80-H ) :   0.9408
B( 35-C , 36-C ) :   1.4397 B( 35-C , 39-S ) :   1.0756 B( 36-C , 37-C ) :   1.2194
B( 36-C , 40-C ) :   1.0990 B( 37-C , 38-C ) :   1.5857 B( 37-C , 81-H ) :   0.9988
B( 38-C , 39-S ) :   1.1554 B( 38-C , 82-H ) :   0.9666 B( 40-C , 41-C ) :   1.1609
B( 41-C , 42-C ) :   1.6489 B( 41-C , 83-H ) :   0.9608 B( 42-C , 43-C ) :   1.1295
B( 42-C , 84-H ) :   0.9548 B( 43-C , 44-C ) :   1.4400 B( 43-C , 47-S ) :   1.1203
B( 44-C , 45-C ) :   1.3120 B( 44-C , 85-H ) :   0.9892 B( 45-C , 46-C ) :   1.4333
B( 45-C , 50-C ) :   0.9925 B( 46-C , 47-S ) :   1.1308 B( 46-C , 48-C ) :   1.1842
B( 48-C , 49-C ) :   1.4512 B( 48-C , 58-S ) :   1.1286 B( 49-C , 50-C ) :   1.0081
B( 49-C , 56-C ) :   1.2638 B( 50-C , 51-C ) :   1.7017 B( 51-C , 52-C ) :   1.1349
B( 51-C , 54-C ) :   1.1334 B( 52-C , 53-N ) :   2.9858 B( 54-C , 55-N ) :   2.9884
B( 56-C , 57-C ) :   1.5145 B( 56-C , 86-H ) :   0.9873 B( 57-C , 58-S ) :   1.0948
B( 57-C , 59-C ) :   1.0590 B( 59-C , 60-C ) :   1.2937 B( 59-C , 64-C ) :   1.3579
B( 60-C , 61-C ) :   1.4446 B( 60-C , 87-H ) :   0.9893 B( 61-C , 62-C ) :   1.2834
B( 61-C , 88-H ) :   0.9920 B( 62-C , 63-C ) :   1.3003 B( 62-C , 69-N ) :   1.2036
B( 63-C , 64-C ) :   1.2941 B( 63-C , 65-C ) :   1.1276 B( 64-C , 89-H ) :   0.9916
B( 65-C , 66-C ) :   1.6440 B( 65-C , 90-H ) :   0.9856 B( 66-C , 67-C ) :   0.9501
B( 66-C , 70-C ) :   1.1116 B( 67-C , 68-O ) :   2.2434 B( 67-C , 69-N ) :   1.0853
B( 69-N , 91-H ) :   0.9014 B( 70-C , 71-N ) :   3.0442

-----------------------------------------------------------------------------
         ABSORPTION SPECTRUM VIA TRANSITION ELECTRIC DIPOLE MOMENTS
-----------------------------------------------------------------------------
State   Energy  Wavelength   fosc         T2         TX        TY        TZ
        (cm-1)    (nm)                  (au**2)     (au)      (au)      (au)
-----------------------------------------------------------------------------
   0    8851.9   1129.7   0.170253800   6.33194   2.05745   1.22523   0.77309
   1   10504.4    952.0   0.114300862   3.58222   0.17037  -0.04068  -1.88455
   2   15360.2    651.0   0.038975630   0.83536  -0.02541   0.11603   0.90623
   3   17676.0    565.7   0.601537837  11.20349  -2.29993  -1.53026  -1.89001
   4   19372.0    516.2   0.086240501   1.46559   0.60976   0.45324   0.94253
   5   21611.2    462.7   0.120873439   1.84131  -1.05022  -0.63723  -0.57644
   6   21826.6    458.2   0.059743623   0.90112  -0.18186  -0.05342   0.93016
   7   24503.2    408.1   0.102427860   1.37617   0.68937   0.23773  -0.91893
   8   25524.5    391.8   0.034080139   0.43956  -0.03785  -0.64613   0.14367
   9   25561.9    391.2   0.654718947   8.43213  -1.70892  -1.06708   2.09119
  10   25878.9    386.4   0.097266028   1.23735   0.60244   0.21910  -0.90907
  11   26408.0    378.7   0.433491474   5.40406   1.42424   0.56447  -1.74842
  12   27357.9    365.5   0.961447969  11.56960  -1.31588  -0.54962   3.08804
  13   28829.5    346.9   0.114691443   1.30969   0.03115   0.03614   1.14342
  14   29128.4    343.3   0.057472847   0.64956   0.59600   0.40216   0.36416
  15   29581.5    338.0   0.353365369   3.93260   1.70046   0.82827   0.59581
  16   30246.0    330.6   0.132345918   1.44052  -0.81000  -0.31714  -0.82695
  17   30455.3    328.4   0.130070975   1.40603   0.00808   0.31110  -1.14419
  18   30661.2    326.1   0.186160178   1.99882   0.71446   0.67694   1.01495
  19   30937.9    323.2   0.671658323   7.14715   0.74548   1.61364   1.99689
  20   31256.7    319.9   0.324994981   3.42301  -1.15369  -1.42196   0.26466
  21   31424.2    318.2   0.318917469   3.34110   0.78460   1.38658  -0.89606
  22   31689.6    315.6   0.104547310   1.08610  -0.48974  -0.89538   0.21106
  23   32440.3    308.3   0.070675858   0.71724   0.44598   0.04856   0.71832
  24   32677.0    306.0   0.207414401   2.08965  -0.15581   0.03442  -1.43673
  25   33014.7    302.9   0.838462749   8.36088   2.14867   1.22199  -1.50028
  26   33236.8    300.9   0.072451013   0.71763   0.04428  -0.05032   0.84447
  27   33479.0    298.7   0.009685949   0.09525  -0.30539   0.01354  -0.04240
  28   33645.7    297.2   0.014073695   0.13771   0.00946   0.24152  -0.28157
  29   34065.3    293.6   0.427729855   4.13364   1.65045   1.13859   0.33652
  30   34930.7    286.3   0.090609571   0.85397   0.36712   0.60353  -0.59577
  31   35859.3    278.9   0.040264320   0.36965   0.34111   0.06130   0.49954
  32   35949.5    278.2   0.021275726   0.19484   0.19724  -0.07836   0.38703
  33   36231.1    276.0   0.015172385   0.13786  -0.02011  -0.03544   0.36906
  34   36355.2    275.1   0.206878766   1.87338  -0.83783  -0.46916   0.97535
  35   36773.9    271.9   0.111795162   1.00083   0.67733   0.52304  -0.51816
  36   36951.0    270.6   0.011428551   0.10182  -0.28501  -0.10880   0.09356
  37   37321.2    267.9   0.053231205   0.46956  -0.50464  -0.23741   0.39815
  38   37516.2    266.6   0.001132088   0.00993  -0.03586   0.09221  -0.01208
  39   37521.5    266.5   0.002124463   0.01864  -0.12407  -0.05057   0.02625
  40   37719.3    265.1   0.075733355   0.66100  -0.26307  -0.67188   0.37466
  41   37793.3    264.6   0.010424278   0.09080   0.06950   0.28776   0.05628
  42   37896.9    263.9   0.007368167   0.06401  -0.15890  -0.19522   0.02549
  43   38022.7    263.0   0.066979203   0.57993  -0.10855   0.08314   0.74915
  44   38261.5    261.4   0.025467652   0.21913  -0.08492  -0.04485   0.45816
  45   38583.8    259.2   0.009138621   0.07797  -0.05555   0.10917   0.25094
  46   38804.7    257.7   0.009250956   0.07848   0.21947   0.17079   0.03389
  47   39012.3    256.3   0.021151423   0.17849   0.01559   0.12770   0.40242
  48   39451.9    253.5   0.136064464   1.13541   0.63644   0.38657  -0.76218
  49   39847.5    251.0   0.092015979   0.76022   0.57147   0.28955  -0.59144
  50   40319.6    248.0   0.007076333   0.05778   0.15743   0.16899  -0.06659

FINAL SINGLE POINT ENERGY     -5119.326033403964

DIPOLE MOMENT
-------------
                                X             Y             Z
Electronic contribution:      0.97288       3.95807       9.13163
Nuclear contribution   :     -3.09225      -5.08890      -2.90435
                        -----------------------------------------
Total Dipole Moment    :     -2.11937      -1.13083       6.22728
                        -----------------------------------------
Magnitude (a.u.)       :      6.67454
Magnitude (Debye)      :     16.96534

Rotational constants in cm-1:     0.000605     0.000373     0.000236
Rotational constants in MHz :    18.136003    11.190726     7.073413

                             ****ORCA TERMINATED NORMALLY****
TOTAL RUN TIME: 0 days 0 hours 17 minutes 49 seconds 681 msec
