                         Program Version 4.2.0 -  RELEASE  -
|  1> # ORCA input file
|  2> # SCF done       -162.592016095378          0.000732738078
|  3> ! CAM-B3LYP def2-SVP def2/J RIJCOSX Grid4 TightSCF
|  4> %maxcore 5000
|  5> %tddft
|  6>     Mode sTDDFT
|  7>     Ethresh 5.0
|  8>     maxcore 5000
|  9> end
| 10>
| 11> %pal
| 12>   nprocs 6
| 13>   end
| 14> * xyz 0 1
| 15>    C       -8.88518        -5.45206         4.07991
| 16>    N       -9.06928        -5.71342         2.81992
| 17>    N       -8.07928        -5.93553         1.98307
| 18>    C       -6.80958        -5.91211         2.34061
| 19>    C       -6.47846        -5.63424         3.70285
| 20>    C       -7.57174        -5.39536         4.60902
| 21>    N       -7.04700        -5.16474         5.79761
| 22>    O       -5.73076        -5.25362         5.64060
| 23>    N       -5.36228        -5.53439         4.39306
| 24>    C       -5.82827        -6.16670         1.34373
| 25>    C       -4.45178        -6.18265         1.47412
| 26>    C       -3.83118        -6.47114         0.26115
| 27>    C       -4.75708        -6.67392        -0.78796
| 28>    S       -6.37741        -6.50912        -0.28523
| 29>    C       -4.03348        -6.95812        -1.96936
| 30>    C       -2.65880        -6.93673        -1.67827
| 31>    C       -2.48796        -6.62899        -0.26349
| 32>    C       -1.30808        -6.51207         0.41103
| 33>    C       -0.06347        -6.69286        -0.22825
| 34>    N        0.94665        -6.84249        -0.75031
| 35>    C       -1.24779        -6.20075         1.78630
| 36>    N       -1.18166        -5.94568         2.90184
| 37>    C       -1.86143        -7.20105        -2.78816
| 38>    C       -2.61365        -7.42292        -3.93091
| 39>    S       -4.34223        -7.30559        -3.61403
| 40>    C       -2.14042        -7.71705        -5.24048
| 41>    C       -2.99094        -7.87937        -6.31020
| 42>    C       -2.59502        -8.16007        -7.61388
| 43>    C       -1.16921        -8.19582        -7.96919
| 44>    C       -0.16235        -8.08162        -7.07563
| 45>    S       -0.39359        -7.86057        -5.39127
| 46>    C       -1.13305        -8.35334        -9.38167
| 47>    C       -2.43592        -8.41534        -9.87921
| 48>    C       -2.46324        -8.57458       -11.28219
| 49>    C       -1.20861        -8.62466       -11.80091
| 50>    S        0.05008        -8.48687       -10.61904
| 51>    C       -3.36583        -8.32827        -8.78460
| 52>    C       -4.76755        -8.41407        -8.95217
| 53>    C       -5.67993        -8.72482        -7.99097
| 54>    C       -7.07933        -8.76243        -8.19109
| 55>    C       -7.82293        -8.42549        -9.31625
| 56>    C       -9.18763        -8.58334        -9.10853
| 57>    C       -9.50338        -9.04594        -7.81668
| 58>    S       -8.10698        -9.28081        -6.86044
| 59>    C      -10.90682        -9.17145        -7.70785
| 60>    C      -11.48629        -8.78168        -8.93870
| 61>    C      -10.42808        -8.39999        -9.85305
| 62>    C      -10.55152        -7.95797       -11.13806
| 63>    C      -11.80243        -7.80649       -11.77324
| 64>    N      -12.80955        -7.67712       -12.30513
| 65>    C       -9.42687        -7.62281       -11.92032
| 66>    N       -8.51037        -7.35097       -12.55435
| 67>    C      -12.87545        -8.87207        -8.92934
| 68>    C      -13.34279        -9.32520        -7.70908
| 69>    S      -12.06499        -9.64651        -6.55120
| 70>    C      -14.68612        -9.55036        -7.30484
| 71>    N      -14.90239       -10.00108        -6.08323
| 72>    N      -16.10332       -10.24281        -5.60539
| 73>    C      -17.18998       -10.05667        -6.29442
| 74>    C      -17.11379        -9.57477        -7.62485
| 75>    C      -15.80439        -9.30873        -8.16192
| 76>    N      -15.96176        -8.87666        -9.39490
| 77>    O      -17.27476        -8.87242        -9.61391
| 78>    N      -17.98743        -9.28585        -8.57046
| 79>    H       -9.75954        -5.28457         4.68763
| 80>    H       -3.95750        -5.99197         2.41009
| 81>    H       -0.78685        -7.23162        -2.78246
| 82>    H       -4.04306        -7.73802        -6.10717
| 83>    H        0.87603        -8.12773        -7.36371
| 84>    H       -3.35404        -8.64580       -11.87910
| 85>    H       -0.92799        -8.73763       -12.82979
| 86>    H       -5.11853        -8.25681        -9.96340
| 87>    H       -5.34697        -9.00644        -7.00306
| 88>    H       -7.38041        -8.07791       -10.23094
| 89>    H      -13.53239        -8.62942        -9.74562
| 90>    H      -18.12896       -10.28228        -5.81570
| 91> *
| 92>
| 93>                          ****END OF INPUT****

CARTESIAN COORDINATES (ANGSTROEM)
---------------------------------
  C     -8.885180   -5.452060    4.079910
  N     -9.069280   -5.713420    2.819920
  N     -8.079280   -5.935530    1.983070
  C     -6.809580   -5.912110    2.340610
  C     -6.478460   -5.634240    3.702850
  C     -7.571740   -5.395360    4.609020
  N     -7.047000   -5.164740    5.797610
  O     -5.730760   -5.253620    5.640600
  N     -5.362280   -5.534390    4.393060
  C     -5.828270   -6.166700    1.343730
  C     -4.451780   -6.182650    1.474120
  C     -3.831180   -6.471140    0.261150
  C     -4.757080   -6.673920   -0.787960
  S     -6.377410   -6.509120   -0.285230
  C     -4.033480   -6.958120   -1.969360
  C     -2.658800   -6.936730   -1.678270
  C     -2.487960   -6.628990   -0.263490
  C     -1.308080   -6.512070    0.411030
  C     -0.063470   -6.692860   -0.228250
  N      0.946650   -6.842490   -0.750310
  C     -1.247790   -6.200750    1.786300
  N     -1.181660   -5.945680    2.901840
  C     -1.861430   -7.201050   -2.788160
  C     -2.613650   -7.422920   -3.930910
  S     -4.342230   -7.305590   -3.614030
  C     -2.140420   -7.717050   -5.240480
  C     -2.990940   -7.879370   -6.310200
  C     -2.595020   -8.160070   -7.613880
  C     -1.169210   -8.195820   -7.969190
  C     -0.162350   -8.081620   -7.075630
  S     -0.393590   -7.860570   -5.391270
  C     -1.133050   -8.353340   -9.381670
  C     -2.435920   -8.415340   -9.879210
  C     -2.463240   -8.574580  -11.282190
  C     -1.208610   -8.624660  -11.800910
  S      0.050080   -8.486870  -10.619040
  C     -3.365830   -8.328270   -8.784600
  C     -4.767550   -8.414070   -8.952170
  C     -5.679930   -8.724820   -7.990970
  C     -7.079330   -8.762430   -8.191090
  C     -7.822930   -8.425490   -9.316250
  C     -9.187630   -8.583340   -9.108530
  C     -9.503380   -9.045940   -7.816680
  S     -8.106980   -9.280810   -6.860440
  C    -10.906820   -9.171450   -7.707850
  C    -11.486290   -8.781680   -8.938700
  C    -10.428080   -8.399990   -9.853050
  C    -10.551520   -7.957970  -11.138060
  C    -11.802430   -7.806490  -11.773240
  N    -12.809550   -7.677120  -12.305130
  C     -9.426870   -7.622810  -11.920320
  N     -8.510370   -7.350970  -12.554350
  C    -12.875450   -8.872070   -8.929340
  C    -13.342790   -9.325200   -7.709080
  S    -12.064990   -9.646510   -6.551200
  C    -14.686120   -9.550360   -7.304840
  N    -14.902390  -10.001080   -6.083230
  N    -16.103320  -10.242810   -5.605390
  C    -17.189980  -10.056670   -6.294420
  C    -17.113790   -9.574770   -7.624850
  C    -15.804390   -9.308730   -8.161920
  N    -15.961760   -8.876660   -9.394900
  O    -17.274760   -8.872420   -9.613910
  N    -17.987430   -9.285850   -8.570460
  H     -9.759540   -5.284570    4.687630
  H     -3.957500   -5.991970    2.410090
  H     -0.786850   -7.231620   -2.782460
  H     -4.043060   -7.738020   -6.107170
  H      0.876030   -8.127730   -7.363710
  H     -3.354040   -8.645800  -11.879100
  H     -0.927990   -8.737630  -12.829790
  H     -5.118530   -8.256810   -9.963400
  H     -5.346970   -9.006440   -7.003060
  H     -7.380410   -8.077910  -10.230940
  H    -13.532390   -8.629420   -9.745620
  H    -18.128960  -10.282280   -5.815700

 Total Charge           Charge          ....    0
 Multiplicity           Mult            ....    1
 Number of Electrons    NEL             ....  472
 Basis Dimension        Dim             ....  980

ORBITAL ENERGIES
----------------

  NO   OCC          E(Eh)            E(eV)
   0   2.0000     -89.000939     -2421.8387
   1   2.0000     -88.997249     -2421.7383
   2   2.0000     -88.989324     -2421.5226
   3   2.0000     -88.989221     -2421.5198
   4   2.0000     -88.988018     -2421.4871
   5   2.0000     -88.964174     -2420.8382
   6   2.0000     -19.383857      -527.4616
   7   2.0000     -19.378029      -527.3030
   8   2.0000     -14.510883      -394.8612
   9   2.0000     -14.507798      -394.7773
  10   2.0000     -14.505486      -394.7143
  11   2.0000     -14.502208      -394.6251
  12   2.0000     -14.459516      -393.4634
  13   2.0000     -14.456269      -393.3751
  14   2.0000     -14.454002      -393.3134
  15   2.0000     -14.449245      -393.1839
  16   2.0000     -14.437218      -392.8567
  17   2.0000     -14.434980      -392.7958
  18   2.0000     -14.431453      -392.6998
  19   2.0000     -14.428799      -392.6276
  20   2.0000     -10.372351      -282.2460
  21   2.0000     -10.364969      -282.0451
  22   2.0000     -10.364684      -282.0374
  23   2.0000     -10.359180      -281.8876
  24   2.0000     -10.358610      -281.8721
  25   2.0000     -10.353059      -281.7211
  26   2.0000     -10.352311      -281.7007
  27   2.0000     -10.349838      -281.6334
  28   2.0000     -10.347396      -281.5670
  29   2.0000     -10.344753      -281.4950
  30   2.0000     -10.344315      -281.4831
  31   2.0000     -10.341853      -281.4161
  32   2.0000     -10.341167      -281.3975
  33   2.0000     -10.340459      -281.3782
  34   2.0000     -10.339929      -281.3638
  35   2.0000     -10.338263      -281.3184
  36   2.0000     -10.338223      -281.3173
  37   2.0000     -10.337367      -281.2941
  38   2.0000     -10.335614      -281.2463
  39   2.0000     -10.334408      -281.2135
  40   2.0000     -10.332125      -281.1514
  41   2.0000     -10.328586      -281.0551
  42   2.0000     -10.328580      -281.0550
  43   2.0000     -10.327832      -281.0346
  44   2.0000     -10.327270      -281.0193
  45   2.0000     -10.320487      -280.8347
  46   2.0000     -10.315863      -280.7089
  47   2.0000     -10.314553      -280.6733
  48   2.0000     -10.311212      -280.5823
  49   2.0000     -10.310874      -280.5731
  50   2.0000     -10.310471      -280.5622
  51   2.0000     -10.308716      -280.5144
  52   2.0000     -10.307941      -280.4933
  53   2.0000     -10.307893      -280.4920
  54   2.0000     -10.303704      -280.3780
  55   2.0000     -10.302134      -280.3353
  56   2.0000     -10.299283      -280.2577
  57   2.0000     -10.298359      -280.2326
  58   2.0000     -10.295316      -280.1498
  59   2.0000     -10.295282      -280.1489
  60   2.0000     -10.294493      -280.1274
  61   2.0000     -10.287576      -279.9392
  62   2.0000     -10.281880      -279.7842
  63   2.0000     -10.281574      -279.7759
  64   2.0000      -8.095136      -220.2799
  65   2.0000      -8.091076      -220.1694
  66   2.0000      -8.084075      -219.9789
  67   2.0000      -8.083341      -219.9589
  68   2.0000      -8.083104      -219.9525
  69   2.0000      -8.059439      -219.3085
  70   2.0000      -6.064421      -165.0213
  71   2.0000      -6.060374      -164.9112
  72   2.0000      -6.060353      -164.9106
  73   2.0000      -6.057378      -164.8296
  74   2.0000      -6.055974      -164.7914
  75   2.0000      -6.053621      -164.7274
  76   2.0000      -6.053251      -164.7173
  77   2.0000      -6.052733      -164.7033
  78   2.0000      -6.052626      -164.7003
  79   2.0000      -6.049180      -164.6066
  80   2.0000      -6.048267      -164.5817
  81   2.0000      -6.048158      -164.5787
  82   2.0000      -6.046461      -164.5326
  83   2.0000      -6.045805      -164.5147
  84   2.0000      -6.044914      -164.4905
  85   2.0000      -6.028906      -164.0549
  86   2.0000      -6.024627      -163.9384
  87   2.0000      -6.021501      -163.8534
  88   2.0000      -1.336987       -36.3813
  89   2.0000      -1.331010       -36.2186
  90   2.0000      -1.137540       -30.9540
  91   2.0000      -1.131285       -30.7838
  92   2.0000      -1.053953       -28.6795
  93   2.0000      -1.045207       -28.4415
  94   2.0000      -1.039736       -28.2927
  95   2.0000      -1.033926       -28.1346
  96   2.0000      -1.028475       -27.9862
  97   2.0000      -1.021965       -27.8091
  98   2.0000      -1.018516       -27.7152
  99   2.0000      -1.013322       -27.5739
 100   2.0000      -1.009170       -27.4609
 101   2.0000      -1.007559       -27.4171
 102   2.0000      -1.000635       -27.2287
 103   2.0000      -0.996757       -27.1231
 104   2.0000      -0.990521       -26.9535
 105   2.0000      -0.984281       -26.7836
 106   2.0000      -0.968053       -26.3421
 107   2.0000      -0.965780       -26.2802
 108   2.0000      -0.950985       -25.8776
 109   2.0000      -0.944327       -25.6964
 110   2.0000      -0.938750       -25.5447
 111   2.0000      -0.921394       -25.0724
 112   2.0000      -0.912822       -24.8391
 113   2.0000      -0.896488       -24.3947
 114   2.0000      -0.885542       -24.0968
 115   2.0000      -0.879424       -23.9303
 116   2.0000      -0.869704       -23.6659
 117   2.0000      -0.865415       -23.5492
 118   2.0000      -0.855984       -23.2925
 119   2.0000      -0.853293       -23.2193
 120   2.0000      -0.847334       -23.0571
 121   2.0000      -0.836525       -22.7630
 122   2.0000      -0.825519       -22.4635
 123   2.0000      -0.810221       -22.0472
 124   2.0000      -0.799578       -21.7576
 125   2.0000      -0.791902       -21.5487
 126   2.0000      -0.789675       -21.4882
 127   2.0000      -0.785444       -21.3730
 128   2.0000      -0.780484       -21.2380
 129   2.0000      -0.772358       -21.0169
 130   2.0000      -0.757021       -20.5996
 131   2.0000      -0.748313       -20.3626
 132   2.0000      -0.727064       -19.7844
 133   2.0000      -0.724532       -19.7155
 134   2.0000      -0.708221       -19.2717
 135   2.0000      -0.701764       -19.0960
 136   2.0000      -0.695531       -18.9264
 137   2.0000      -0.693287       -18.8653
 138   2.0000      -0.686915       -18.6919
 139   2.0000      -0.684619       -18.6294
 140   2.0000      -0.674283       -18.3482
 141   2.0000      -0.664443       -18.0804
 142   2.0000      -0.662933       -18.0393
 143   2.0000      -0.660143       -17.9634
 144   2.0000      -0.656207       -17.8563
 145   2.0000      -0.647800       -17.6275
 146   2.0000      -0.644681       -17.5427
 147   2.0000      -0.634429       -17.2637
 148   2.0000      -0.633576       -17.2405
 149   2.0000      -0.631457       -17.1828
 150   2.0000      -0.627938       -17.0871
 151   2.0000      -0.626102       -17.0371
 152   2.0000      -0.623585       -16.9686
 153   2.0000      -0.616419       -16.7736
 154   2.0000      -0.610885       -16.6230
 155   2.0000      -0.601397       -16.3649
 156   2.0000      -0.594758       -16.1842
 157   2.0000      -0.585132       -15.9222
 158   2.0000      -0.580658       -15.8005
 159   2.0000      -0.576967       -15.7001
 160   2.0000      -0.569279       -15.4909
 161   2.0000      -0.566488       -15.4149
 162   2.0000      -0.557774       -15.1778
 163   2.0000      -0.555388       -15.1129
 164   2.0000      -0.553495       -15.0614
 165   2.0000      -0.549697       -14.9580
 166   2.0000      -0.542844       -14.7715
 167   2.0000      -0.541574       -14.7370
 168   2.0000      -0.537036       -14.6135
 169   2.0000      -0.536084       -14.5876
 170   2.0000      -0.531808       -14.4712
 171   2.0000      -0.526398       -14.3240
 172   2.0000      -0.523885       -14.2556
 173   2.0000      -0.521319       -14.1858
 174   2.0000      -0.512312       -13.9407
 175   2.0000      -0.510824       -13.9002
 176   2.0000      -0.507111       -13.7992
 177   2.0000      -0.505318       -13.7504
 178   2.0000      -0.504409       -13.7257
 179   2.0000      -0.503643       -13.7048
 180   2.0000      -0.497643       -13.5416
 181   2.0000      -0.496367       -13.5068
 182   2.0000      -0.489192       -13.3116
 183   2.0000      -0.486727       -13.2445
 184   2.0000      -0.480354       -13.0711
 185   2.0000      -0.477405       -12.9909
 186   2.0000      -0.471434       -12.8284
 187   2.0000      -0.467519       -12.7218
 188   2.0000      -0.466745       -12.7008
 189   2.0000      -0.462900       -12.5962
 190   2.0000      -0.462038       -12.5727
 191   2.0000      -0.460632       -12.5344
 192   2.0000      -0.456901       -12.4329
 193   2.0000      -0.455978       -12.4078
 194   2.0000      -0.452307       -12.3079
 195   2.0000      -0.450592       -12.2612
 196   2.0000      -0.450117       -12.2483
 197   2.0000      -0.449051       -12.2193
 198   2.0000      -0.446647       -12.1539
 199   2.0000      -0.445560       -12.1243
 200   2.0000      -0.443016       -12.0551
 201   2.0000      -0.441174       -12.0049
 202   2.0000      -0.440250       -11.9798
 203   2.0000      -0.438288       -11.9264
 204   2.0000      -0.435656       -11.8548
 205   2.0000      -0.433383       -11.7930
 206   2.0000      -0.431058       -11.7297
 207   2.0000      -0.429967       -11.7000
 208   2.0000      -0.426818       -11.6143
 209   2.0000      -0.425971       -11.5913
 210   2.0000      -0.422970       -11.5096
 211   2.0000      -0.419868       -11.4252
 212   2.0000      -0.418324       -11.3832
 213   2.0000      -0.417264       -11.3543
 214   2.0000      -0.414537       -11.2801
 215   2.0000      -0.412696       -11.2300
 216   2.0000      -0.411663       -11.2019
 217   2.0000      -0.410092       -11.1592
 218   2.0000      -0.405255       -11.0275
 219   2.0000      -0.404132       -10.9970
 220   2.0000      -0.393512       -10.7080
 221   2.0000      -0.382640       -10.4122
 222   2.0000      -0.372505       -10.1364
 223   2.0000      -0.358440        -9.7536
 224   2.0000      -0.350816        -9.5462
 225   2.0000      -0.349779        -9.5180
 226   2.0000      -0.346534        -9.4297
 227   2.0000      -0.329619        -8.9694
 228   2.0000      -0.328403        -8.9363
 229   2.0000      -0.322603        -8.7785
 230   2.0000      -0.320113        -8.7107
 231   2.0000      -0.316584        -8.6147
 232   2.0000      -0.297953        -8.1077
 233   2.0000      -0.286684        -7.8011
 234   2.0000      -0.267622        -7.2824
 235   2.0000      -0.231389        -6.2964
 236   0.0000      -0.117860        -3.2071
 237   0.0000      -0.108265        -2.9460
 238   0.0000      -0.092442        -2.5155
 239   0.0000      -0.087080        -2.3696
 240   0.0000      -0.072039        -1.9603

MULLIKEN ATOMIC CHARGES
-----------------------
   0 C :   -0.007922
   1 N :   -0.031964
   2 N :   -0.077574
   3 C :    0.036615
   4 C :   -0.042527
   5 C :   -0.014922
   6 N :    0.079777
   7 O :   -0.079929
   8 N :    0.076732
   9 C :   -0.136754
  10 C :   -0.040430
  11 C :    0.000060
  12 C :   -0.078020
  13 S :    0.252533
  14 C :   -0.105111
  15 C :    0.027715
  16 C :    0.303382
  17 C :   -0.292844
  18 C :   -0.187634
  19 N :    0.171861
  20 C :   -0.193055
  21 N :    0.189120
  22 C :   -0.063807
  23 C :   -0.053444
  24 S :    0.171279
  25 C :   -0.026004
  26 C :   -0.099170
  27 C :    0.055932
  28 C :    0.058455
  29 C :   -0.122464
  30 S :    0.139444
  31 C :   -0.107400
  32 C :    0.052023
  33 C :    0.007722
  34 C :   -0.066998
  35 S :    0.134832
  36 C :    0.080167
  37 C :   -0.020570
  38 C :    0.021553
  39 C :   -0.070060
  40 C :   -0.044152
  41 C :    0.017966
  42 C :   -0.118772
  43 S :    0.183902
  44 C :   -0.075594
  45 C :   -0.006999
  46 C :    0.310313
  47 C :   -0.299636
  48 C :   -0.193323
  49 N :    0.184938
  50 C :   -0.183292
  51 N :    0.163869
  52 C :   -0.040646
  53 C :   -0.139920
  54 S :    0.246345
  55 C :    0.038940
  56 N :   -0.081671
  57 N :   -0.031246
  58 C :   -0.017212
  59 C :   -0.008826
  60 C :   -0.045611
  61 N :    0.076478
  62 O :   -0.082453
  63 N :    0.076958
  64 H :    0.016028
  65 H :    0.023808
  66 H :    0.023772
  67 H :   -0.007458
  68 H :    0.042700
  69 H :   -0.009610
  70 H :    0.031266
  71 H :   -0.010950
  72 H :   -0.022374
  73 H :    0.005823
  74 H :    0.022828
  75 H :    0.013211
Sum of atomic charges:   -0.0000000

LOEWDIN ATOMIC CHARGES
----------------------
   0 C :    0.007531
   1 N :   -0.025141
   2 N :   -0.079699
   3 C :   -0.008585
   4 C :   -0.065295
   5 C :   -0.073539
   6 N :   -0.000705
   7 O :    0.094987
   8 N :   -0.003541
   9 C :   -0.191137
  10 C :   -0.000700
  11 C :   -0.078456
  12 C :   -0.162311
  13 S :    0.524147
  14 C :   -0.188004
  15 C :   -0.055413
  16 C :    0.078494
  17 C :   -0.096531
  18 C :   -0.015652
  19 N :   -0.030841
  20 C :   -0.020965
  21 N :   -0.020489
  22 C :   -0.042366
  23 C :   -0.169556
  24 S :    0.476938
  25 C :   -0.184657
  26 C :   -0.029464
  27 C :   -0.018645
  28 C :   -0.046203
  29 C :   -0.137377
  30 S :    0.466865
  31 C :   -0.203017
  32 C :   -0.038710
  33 C :   -0.062506
  34 C :   -0.160225
  35 S :    0.426636
  36 C :   -0.049119
  37 C :    0.001852
  38 C :   -0.064542
  39 C :   -0.147776
  40 C :   -0.036609
  41 C :   -0.052202
  42 C :   -0.203248
  43 S :    0.470821
  44 C :   -0.156060
  45 C :   -0.084184
  46 C :    0.080624
  47 C :   -0.101980
  48 C :   -0.020790
  49 N :   -0.024617
  50 C :   -0.014002
  51 N :   -0.037911
  52 C :    0.000012
  53 C :   -0.195423
  54 S :    0.519077
  55 C :   -0.008448
  56 N :   -0.083533
  57 N :   -0.025467
  58 C :    0.002815
  59 C :   -0.073496
  60 C :   -0.065328
  61 N :   -0.003732
  62 O :    0.092427
  63 N :   -0.003073
  64 H :    0.038275
  65 H :    0.044746
  66 H :    0.035987
  67 H :    0.025199
  68 H :    0.039408
  69 H :    0.032925
  70 H :    0.025405
  71 H :    0.033499
  72 H :    0.023354
  73 H :    0.038105
  74 H :    0.044215
  75 H :    0.036924

  Mayer bond orders larger than 0.100000
B(  0-C ,  1-N ) :   1.7670 B(  0-C ,  3-C ) :   0.1002 B(  0-C ,  5-C ) :   1.0876
B(  0-C , 64-H ) :   1.0169 B(  1-N ,  2-N ) :   1.1748 B(  2-N ,  3-C ) :   1.7626
B(  3-C ,  4-C ) :   1.0739 B(  3-C ,  9-C ) :   1.1698 B(  4-C ,  5-C ) :   1.1758
B(  4-C ,  8-N ) :   1.6155 B(  5-C ,  6-N ) :   1.5987 B(  6-N ,  7-O ) :   1.0851
B(  6-N ,  8-N ) :   0.1838 B(  7-O ,  8-N ) :   1.0695 B(  9-C , 10-C ) :   1.4791
B(  9-C , 13-S ) :   1.0755 B( 10-C , 11-C ) :   1.2825 B( 10-C , 65-H ) :   0.9821
B( 11-C , 12-C ) :   1.4145 B( 11-C , 16-C ) :   1.0006 B( 12-C , 13-S ) :   1.1380
B( 12-C , 14-C ) :   1.1982 B( 14-C , 15-C ) :   1.4489 B( 14-C , 24-S ) :   1.1116
B( 15-C , 16-C ) :   0.9907 B( 15-C , 22-C ) :   1.3098 B( 16-C , 17-C ) :   1.7146
B( 17-C , 18-C ) :   1.1341 B( 17-C , 20-C ) :   1.1339 B( 18-C , 19-N ) :   2.9865
B( 20-C , 21-N ) :   2.9968 B( 22-C , 23-C ) :   1.4446 B( 22-C , 66-H ) :   0.9800
B( 23-C , 24-S ) :   1.1116 B( 23-C , 25-C ) :   1.1741 B( 25-C , 26-C ) :   1.5085
B( 25-C , 30-S ) :   1.0596 B( 26-C , 27-C ) :   1.2570 B( 26-C , 67-H ) :   0.9583
B( 27-C , 28-C ) :   1.0568 B( 27-C , 36-C ) :   1.3723 B( 28-C , 29-C ) :   1.6042
B( 28-C , 31-C ) :   1.1802 B( 29-C , 30-S ) :   1.1385 B( 29-C , 68-H ) :   0.9417
B( 31-C , 32-C ) :   1.4375 B( 31-C , 35-S ) :   1.0782 B( 32-C , 33-C ) :   1.2202
B( 32-C , 36-C ) :   1.1002 B( 33-C , 34-C ) :   1.5873 B( 33-C , 69-H ) :   0.9986
B( 34-C , 35-S ) :   1.1549 B( 34-C , 70-H ) :   0.9658 B( 36-C , 37-C ) :   1.1705
B( 37-C , 38-C ) :   1.6348 B( 37-C , 71-H ) :   0.9602 B( 38-C , 39-C ) :   1.1346
B( 38-C , 72-H ) :   0.9552 B( 39-C , 40-C ) :   1.4305 B( 39-C , 43-S ) :   1.1171
B( 40-C , 41-C ) :   1.3183 B( 40-C , 73-H ) :   0.9878 B( 41-C , 42-C ) :   1.4278
B( 41-C , 46-C ) :   0.9915 B( 42-C , 43-S ) :   1.1017 B( 42-C , 44-C ) :   1.2123
B( 44-C , 45-C ) :   1.4045 B( 44-C , 54-S ) :   1.1414 B( 45-C , 46-C ) :   1.0049
B( 45-C , 52-C ) :   1.2846 B( 46-C , 47-C ) :   1.7079 B( 47-C , 48-C ) :   1.1344
B( 47-C , 50-C ) :   1.1362 B( 48-C , 49-N ) :   2.9968 B( 50-C , 51-N ) :   2.9823
B( 52-C , 53-C ) :   1.4780 B( 52-C , 74-H ) :   0.9815 B( 53-C , 54-S ) :   1.0675
B( 53-C , 55-C ) :   1.1774 B( 55-C , 56-N ) :   1.7574 B( 55-C , 60-C ) :   1.0717
B( 56-N , 57-N ) :   1.1766 B( 57-N , 58-C ) :   1.7678 B( 58-C , 59-C ) :   1.0841
B( 58-C , 75-H ) :   1.0172 B( 59-C , 60-C ) :   1.1766 B( 59-C , 63-N ) :   1.5998
B( 60-C , 61-N ) :   1.6174 B( 61-N , 62-O ) :   1.0676 B( 61-N , 63-N ) :   0.1832
B( 62-O , 63-N ) :   1.0823

-----------------------------------------------------------------------------
         ABSORPTION SPECTRUM VIA TRANSITION ELECTRIC DIPOLE MOMENTS
-----------------------------------------------------------------------------
State   Energy  Wavelength   fosc         T2         TX        TY        TZ
        (cm-1)    (nm)                  (au**2)     (au)      (au)      (au)
-----------------------------------------------------------------------------
   0   10096.1    990.5   0.266445173   8.68822   1.54780   0.73298   2.39902
   1   11254.9    888.5   0.176747785   5.16999   2.15311   0.00407  -0.73081
   2   16635.3    601.1   0.258245756   5.11068   1.84672   0.45769   1.22099
   3   17326.5    577.1   0.323791958   6.15220  -1.35868  -0.66800  -1.96467
   4   19519.4    512.3   0.732752230  12.35849   2.64529  -0.27441  -2.29905
   5   20056.2    498.6   0.316491003   5.19504  -2.19643  -0.10496   0.59977
   6   20618.1    485.0   0.018774666   0.29978   0.06684   0.12507  -0.52884
   7   21526.7    464.5   0.000000169   0.00000  -0.00093  -0.00046  -0.00123
   8   21674.9    461.4   0.000002910   0.00004  -0.00439   0.00152   0.00475
   9   23522.9    425.1   0.197498500   2.76406  -0.71077   0.24199   1.48334
  10   23814.4    419.9   0.285903039   3.95234   1.98545  -0.00600  -0.10139
  11   24741.0    404.2   0.159919872   2.12795  -1.20239   0.15826   0.81065
  12   25526.0    391.8   0.092960074   1.19892  -0.45142   0.26646   0.96132
  13   25855.3    386.8   0.066965056   0.85266   0.80909   0.25637   0.36373
  14   26868.2    372.2   0.086951676   1.06540  -0.94058  -0.13067   0.40451
  15   28086.6    356.0   0.042096367   0.49343  -0.67383   0.19832  -0.00694
  16   29382.4    340.3   0.087962706   0.98557  -0.70109  -0.12399  -0.69186
  17   29739.2    336.3   0.223776130   2.47719  -1.42511   0.33150   0.57997
  18   30011.7    333.2   0.000452241   0.00496  -0.06120  -0.03486   0.00010
  19   30370.4    329.3   0.002929070   0.03175  -0.09687  -0.02199  -0.14793
  20   30396.6    329.0   0.560664558   6.07231  -1.97277   0.15766  -1.46821
  21   30749.7    325.2   0.250888852   2.68607  -0.79408  -0.58546   1.30872
  22   31259.9    319.9   0.131884853   1.38894   0.56626   0.31768  -0.98355
  23   31875.4    313.7   0.159357831   1.64586  -1.24786   0.05759   0.29220
  24   31977.6    312.7   0.237823237   2.44841   1.35411   0.17211  -0.76497
  25   32557.5    307.1   0.103433148   1.04589   0.28559   0.22052   0.95692
  26   32760.8    305.2   0.369675124   3.71485   1.29706   0.17914  -1.41436
  27   32993.3    303.1   0.318945006   3.18248  -0.96999  -0.12352  -1.49210
  28   33344.1    299.9   0.038391011   0.37904  -0.47224   0.38785   0.07486
  29   33814.5    295.7   0.065959141   0.64217   0.42863   0.10966  -0.66814
  30   34104.6    293.2   0.116702002   1.12652  -0.16092   0.25851   1.01676
  31   34561.8    289.3   0.100001296   0.95254   0.61292   0.28530   0.70391
  32   34937.4    286.2   0.100899534   0.95077  -0.83590   0.44348   0.23530
  33   35178.5    284.3   0.601215426   5.62638  -1.02504  -0.00013   2.13908
  34   35508.1    281.6   0.044085458   0.40874   0.55344   0.14223   0.28673
  35   35512.0    281.6   0.000482379   0.00447   0.06444  -0.00105   0.01784
  36   35877.6    278.7   0.002546959   0.02337  -0.06195   0.13523   0.03531
  37   36492.8    274.0   0.050308304   0.45385   0.01918   0.07943  -0.66871
  38   37025.4    270.1   0.032495988   0.28894  -0.01817  -0.00994   0.53713
  39   37217.0    268.7   0.035804554   0.31672  -0.52348  -0.10808  -0.17609
  40   37519.8    266.5   0.000181034   0.00159  -0.01899  -0.03088  -0.01655
  41   37744.3    264.9   0.007984565   0.06964  -0.24975   0.02634  -0.08109
  42   37943.7    263.5   0.015109650   0.13110   0.13169   0.01236   0.33705
  43   38808.2    257.7   0.066464230   0.56382  -0.31486   0.18420   0.65632
  44   38978.0    256.6   0.006144650   0.05190  -0.16206   0.00806   0.15990
  45   39064.5    256.0   0.007965167   0.06713   0.00622  -0.24181  -0.09282
  46   39377.3    254.0   0.023524703   0.19668   0.01207  -0.04838   0.44067
  47   39749.3    251.6   0.049119510   0.40682  -0.57996   0.00209   0.26544
  48   40031.1    249.8   0.003646333   0.02999  -0.15225  -0.06662   0.04868
  49   40116.2    249.3   0.004273597   0.03507  -0.05518   0.04197  -0.17397

FINAL SINGLE POINT ENERGY     -4876.255973245322

DIPOLE MOMENT
-------------
                                X             Y             Z
Electronic contribution:     -9.32440       1.77186      16.36894
Nuclear contribution   :     10.54065      -2.36979     -16.50225
                        -----------------------------------------
Total Dipole Moment    :      1.21626      -0.59793      -0.13332
                        -----------------------------------------
Magnitude (a.u.)       :      1.36182
Magnitude (Debye)      :      3.46148

Rotational constants in cm-1:     0.000880     0.000513     0.000330
Rotational constants in MHz :    26.380222    15.385950     9.887612

                             ****ORCA TERMINATED NORMALLY****
TOTAL RUN TIME: 0 days 0 hours 7 minutes 22 seconds 841 msec
