                         Program Version 4.2.0 -  RELEASE  -
|  1> # ORCA input file
|  2> # SCF done       -189.948721116442          0.000980118087
|  3> ! CAM-B3LYP def2-SVP def2/J RIJCOSX Grid4 TightSCF
|  4> %maxcore 5000
|  5> %tddft
|  6>     Mode sTDDFT
|  7>     Ethresh 5.0
|  8>     maxcore 5000
|  9> end
| 10>
| 11> %pal
| 12>   nprocs 6
| 13>   end
| 14> * xyz 0 1
| 15>    C       -6.61422         3.47577         0.76517
| 16>    C       -7.30932         3.86350         1.90098
| 17>    C       -7.48178         2.99374         2.96893
| 18>    C       -6.95362         1.71181         2.93744
| 19>    C       -6.25384         1.31563         1.80997
| 20>    C       -6.08863         2.19401         0.71494
| 21>    C       -5.35057         1.50474        -0.33455
| 22>    C       -4.86333         2.07181        -1.48029
| 23>    C       -5.01524         3.43596        -1.81202
| 24>    N       -5.10243         4.53059        -2.14465
| 25>    C       -4.10640         1.40447        -2.46703
| 26>    N       -3.48142         0.92691        -3.30343
| 27>    C       -5.23456         0.10826         0.08301
| 28>    C       -5.58093         0.06389         1.50132
| 29>    C       -5.12311        -0.83424         2.42611
| 30>    C       -4.26061        -1.90870         2.12774
| 31>    N       -3.53509        -2.77807         1.93991
| 32>    C       -5.37798        -0.73383         3.81141
| 33>    N       -5.54544        -0.69957         4.94533
| 34>    C       -4.96882        -0.92032        -0.77527
| 35>    C       -5.21804        -2.29847        -0.58996
| 36>    C       -6.08551        -2.93360         0.28920
| 37>    C       -6.08818        -4.31062         0.12057
| 38>    C       -5.22423        -4.73951        -0.90735
| 39>    S       -4.42288        -3.44460        -1.66322
| 40>    C       -5.31032        -6.15139        -0.99669
| 41>    C       -6.21732        -6.61552        -0.02557
| 42>    C       -6.72489        -5.47399         0.71830
| 43>    C       -7.59074        -5.47209         1.77123
| 44>    C       -8.15873        -6.65334         2.29522
| 45>    N       -8.63181        -7.60550         2.72227
| 46>    C       -7.96923        -4.26614         2.39977
| 47>    N       -8.26763        -3.27363         2.89026
| 48>    C       -6.38244        -8.00035        -0.05953
| 49>    C       -5.61625        -8.58382        -1.04876
| 50>    S       -4.66510        -7.41320        -1.94238
| 51>    C       -5.59199        -9.97839        -1.39082
| 52>    N       -6.36691       -10.78070        -0.65012
| 53>    N       -6.46711       -12.03052        -0.90575
| 54>    C       -5.80060       -12.58860        -1.92408
| 55>    C       -4.92958       -11.82770        -2.72787
| 56>    C       -4.82255       -10.48909        -2.45431
| 57>    C       -6.04666       -13.98532        -2.15059
| 58>    C       -6.82464       -14.81490        -1.36812
| 59>    C       -6.90427       -16.10258        -1.89904
| 60>    C       -6.18055       -16.24298        -3.09807
| 61>    S       -5.39408       -14.80310        -3.55736
| 62>    C       -6.34617       -17.56460        -3.58259
| 63>    C       -7.17842       -18.26137        -2.68324
| 64>    C       -7.53807       -17.37368        -1.58833
| 65>    C       -8.28355       -17.69786        -0.49401
| 66>    C       -8.80674       -18.99854        -0.32924
| 67>    N       -9.22541       -20.06034        -0.21898
| 68>    C       -8.57308       -16.77450         0.53366
| 69>    N       -8.81777       -16.03152         1.37085
| 70>    C       -7.41197       -19.57319        -3.06947
| 71>    C       -6.76176       -19.89540        -4.25361
| 72>    S       -5.87090       -18.52427        -4.90311
| 73>    C       -6.79650       -21.09552        -4.99874
| 74>    C       -7.14828       -22.34115        -4.56266
| 75>    C       -7.58276       -23.42267        -5.44495
| 76>    C       -7.37945       -23.52619        -6.79404
| 77>    C       -6.65991       -22.60748        -7.58772
| 78>    N       -6.08341       -21.90649        -8.29108
| 79>    C       -7.83265       -24.60815        -7.58014
| 80>    N       -8.17331       -25.45192        -8.27905
| 81>    C       -8.28678       -24.38586        -4.60939
| 82>    C       -8.13770       -24.01157        -3.25452
| 83>    C       -8.73989       -24.74490        -2.24576
| 84>    C       -9.48614       -25.85990        -2.59649
| 85>    C       -9.62301       -26.23819        -3.92498
| 86>    C       -9.02846       -25.50840        -4.94355
| 87>    C       -7.29254       -22.82999        -3.19376
| 88>    C       -6.56013       -22.43939        -2.10620
| 89>    C       -6.64584       -23.05548        -0.83852
| 90>    N       -6.66338       -23.52282         0.20855
| 91>    C       -5.56138       -21.44480        -2.13603
| 92>    N       -4.71569       -20.66883        -2.11543
| 93>    H       -6.49904         4.16164        -0.05786
| 94>    H       -7.72745         4.85724         1.94901
| 95>    H       -8.03683         3.31614         3.83633
| 96>    H       -7.10331         1.03940         3.76648
| 97>    H       -4.58174        -0.66362        -1.75251
| 98>    H       -6.71492        -2.40385         0.98062
| 99>    H       -7.02170        -8.58315         0.57795
|100>    H       -4.37259       -12.29328        -3.52772
|101>    H       -4.17826        -9.83904        -3.02801
|102>    H       -7.29871       -14.46427        -0.46981
|103>    H       -8.05951       -20.25574        -2.54991
|104>    H       -6.58122       -20.97740        -6.05238
|105>    H       -8.64962       -24.45172        -1.21246
|106>    H       -9.96849       -26.43828        -1.82369
|107>    H      -10.20673       -27.11109        -4.17395
|108>    H       -9.15418       -25.81244        -5.96958
|109> *
|110>
|111>                          ****END OF INPUT****

CARTESIAN COORDINATES (ANGSTROEM)
---------------------------------
  C     -6.614220    3.475770    0.765170
  C     -7.309320    3.863500    1.900980
  C     -7.481780    2.993740    2.968930
  C     -6.953620    1.711810    2.937440
  C     -6.253840    1.315630    1.809970
  C     -6.088630    2.194010    0.714940
  C     -5.350570    1.504740   -0.334550
  C     -4.863330    2.071810   -1.480290
  C     -5.015240    3.435960   -1.812020
  N     -5.102430    4.530590   -2.144650
  C     -4.106400    1.404470   -2.467030
  N     -3.481420    0.926910   -3.303430
  C     -5.234560    0.108260    0.083010
  C     -5.580930    0.063890    1.501320
  C     -5.123110   -0.834240    2.426110
  C     -4.260610   -1.908700    2.127740
  N     -3.535090   -2.778070    1.939910
  C     -5.377980   -0.733830    3.811410
  N     -5.545440   -0.699570    4.945330
  C     -4.968820   -0.920320   -0.775270
  C     -5.218040   -2.298470   -0.589960
  C     -6.085510   -2.933600    0.289200
  C     -6.088180   -4.310620    0.120570
  C     -5.224230   -4.739510   -0.907350
  S     -4.422880   -3.444600   -1.663220
  C     -5.310320   -6.151390   -0.996690
  C     -6.217320   -6.615520   -0.025570
  C     -6.724890   -5.473990    0.718300
  C     -7.590740   -5.472090    1.771230
  C     -8.158730   -6.653340    2.295220
  N     -8.631810   -7.605500    2.722270
  C     -7.969230   -4.266140    2.399770
  N     -8.267630   -3.273630    2.890260
  C     -6.382440   -8.000350   -0.059530
  C     -5.616250   -8.583820   -1.048760
  S     -4.665100   -7.413200   -1.942380
  C     -5.591990   -9.978390   -1.390820
  N     -6.366910  -10.780700   -0.650120
  N     -6.467110  -12.030520   -0.905750
  C     -5.800600  -12.588600   -1.924080
  C     -4.929580  -11.827700   -2.727870
  C     -4.822550  -10.489090   -2.454310
  C     -6.046660  -13.985320   -2.150590
  C     -6.824640  -14.814900   -1.368120
  C     -6.904270  -16.102580   -1.899040
  C     -6.180550  -16.242980   -3.098070
  S     -5.394080  -14.803100   -3.557360
  C     -6.346170  -17.564600   -3.582590
  C     -7.178420  -18.261370   -2.683240
  C     -7.538070  -17.373680   -1.588330
  C     -8.283550  -17.697860   -0.494010
  C     -8.806740  -18.998540   -0.329240
  N     -9.225410  -20.060340   -0.218980
  C     -8.573080  -16.774500    0.533660
  N     -8.817770  -16.031520    1.370850
  C     -7.411970  -19.573190   -3.069470
  C     -6.761760  -19.895400   -4.253610
  S     -5.870900  -18.524270   -4.903110
  C     -6.796500  -21.095520   -4.998740
  C     -7.148280  -22.341150   -4.562660
  C     -7.582760  -23.422670   -5.444950
  C     -7.379450  -23.526190   -6.794040
  C     -6.659910  -22.607480   -7.587720
  N     -6.083410  -21.906490   -8.291080
  C     -7.832650  -24.608150   -7.580140
  N     -8.173310  -25.451920   -8.279050
  C     -8.286780  -24.385860   -4.609390
  C     -8.137700  -24.011570   -3.254520
  C     -8.739890  -24.744900   -2.245760
  C     -9.486140  -25.859900   -2.596490
  C     -9.623010  -26.238190   -3.924980
  C     -9.028460  -25.508400   -4.943550
  C     -7.292540  -22.829990   -3.193760
  C     -6.560130  -22.439390   -2.106200
  C     -6.645840  -23.055480   -0.838520
  N     -6.663380  -23.522820    0.208550
  C     -5.561380  -21.444800   -2.136030
  N     -4.715690  -20.668830   -2.115430
  H     -6.499040    4.161640   -0.057860
  H     -7.727450    4.857240    1.949010
  H     -8.036830    3.316140    3.836330
  H     -7.103310    1.039400    3.766480
  H     -4.581740   -0.663620   -1.752510
  H     -6.714920   -2.403850    0.980620
  H     -7.021700   -8.583150    0.577950
  H     -4.372590  -12.293280   -3.527720
  H     -4.178260   -9.839040   -3.028010
  H     -7.298710  -14.464270   -0.469810
  H     -8.059510  -20.255740   -2.549910
  H     -6.581220  -20.977400   -6.052380
  H     -8.649620  -24.451720   -1.212460
  H     -9.968490  -26.438280   -1.823690
  H    -10.206730  -27.111090   -4.173950
  H     -9.154180  -25.812440   -5.969580

 Total Charge           Charge          ....    0
 Multiplicity           Mult            ....    1
 Number of Electrons    NEL             ....  538
 Basis Dimension        Dim             .... 1188

ORBITAL ENERGIES
----------------

  NO   OCC          E(Eh)            E(eV)
   0   2.0000     -89.008599     -2422.0471
   1   2.0000     -89.008492     -2422.0442
   2   2.0000     -89.008413     -2422.0421
   3   2.0000     -89.008248     -2422.0376
   4   2.0000     -14.463517      -393.5723
   5   2.0000     -14.463468      -393.5710
   6   2.0000     -14.443147      -393.0180
   7   2.0000     -14.443094      -393.0166
   8   2.0000     -14.438042      -392.8791
   9   2.0000     -14.438028      -392.8787
  10   2.0000     -14.431050      -392.6888
  11   2.0000     -14.430926      -392.6855
  12   2.0000     -14.430159      -392.6646
  13   2.0000     -14.430075      -392.6623
  14   2.0000     -14.426015      -392.5518
  15   2.0000     -14.425935      -392.5496
  16   2.0000     -14.425110      -392.5272
  17   2.0000     -14.424944      -392.5227
  18   2.0000     -10.378193      -282.4050
  19   2.0000     -10.378142      -282.4036
  20   2.0000     -10.364455      -282.0312
  21   2.0000     -10.364438      -282.0307
  22   2.0000     -10.359578      -281.8984
  23   2.0000     -10.359453      -281.8950
  24   2.0000     -10.357909      -281.8530
  25   2.0000     -10.357846      -281.8513
  26   2.0000     -10.356620      -281.8180
  27   2.0000     -10.356615      -281.8178
  28   2.0000     -10.355517      -281.7879
  29   2.0000     -10.355462      -281.7864
  30   2.0000     -10.355450      -281.7861
  31   2.0000     -10.355375      -281.7841
  32   2.0000     -10.351507      -281.6788
  33   2.0000     -10.351386      -281.6755
  34   2.0000     -10.349788      -281.6321
  35   2.0000     -10.349712      -281.6300
  36   2.0000     -10.343121      -281.4506
  37   2.0000     -10.343052      -281.4487
  38   2.0000     -10.341638      -281.4103
  39   2.0000     -10.341608      -281.4095
  40   2.0000     -10.341076      -281.3950
  41   2.0000     -10.341023      -281.3935
  42   2.0000     -10.338487      -281.3245
  43   2.0000     -10.338267      -281.3186
  44   2.0000     -10.337086      -281.2864
  45   2.0000     -10.337082      -281.2863
  46   2.0000     -10.333068      -281.1771
  47   2.0000     -10.332959      -281.1741
  48   2.0000     -10.331164      -281.1253
  49   2.0000     -10.331038      -281.1218
  50   2.0000     -10.330110      -281.0966
  51   2.0000     -10.330095      -281.0962
  52   2.0000     -10.329919      -281.0914
  53   2.0000     -10.329419      -281.0778
  54   2.0000     -10.328508      -281.0530
  55   2.0000     -10.328400      -281.0500
  56   2.0000     -10.326818      -281.0070
  57   2.0000     -10.326589      -281.0008
  58   2.0000     -10.324727      -280.9501
  59   2.0000     -10.324591      -280.9464
  60   2.0000     -10.321439      -280.8606
  61   2.0000     -10.321361      -280.8585
  62   2.0000     -10.320466      -280.8342
  63   2.0000     -10.320418      -280.8328
  64   2.0000     -10.319308      -280.8027
  65   2.0000     -10.319253      -280.8011
  66   2.0000     -10.318838      -280.7899
  67   2.0000     -10.318805      -280.7890
  68   2.0000     -10.313652      -280.6487
  69   2.0000     -10.313592      -280.6471
  70   2.0000     -10.306692      -280.4593
  71   2.0000     -10.306639      -280.4579
  72   2.0000     -10.306245      -280.4472
  73   2.0000     -10.306096      -280.4431
  74   2.0000     -10.305052      -280.4147
  75   2.0000     -10.305045      -280.4145
  76   2.0000     -10.304426      -280.3977
  77   2.0000     -10.304364      -280.3960
  78   2.0000      -8.103151      -220.4980
  79   2.0000      -8.103060      -220.4955
  80   2.0000      -8.103023      -220.4945
  81   2.0000      -8.102866      -220.4902
  82   2.0000      -6.072276      -165.2350
  83   2.0000      -6.072203      -165.2330
  84   2.0000      -6.072184      -165.2325
  85   2.0000      -6.072050      -165.2289
  86   2.0000      -6.068123      -165.1220
  87   2.0000      -6.068111      -165.1217
  88   2.0000      -6.068021      -165.1192
  89   2.0000      -6.067929      -165.1168
  90   2.0000      -6.065680      -165.0555
  91   2.0000      -6.065558      -165.0522
  92   2.0000      -6.065522      -165.0512
  93   2.0000      -6.065332      -165.0461
  94   2.0000      -1.148616       -31.2554
  95   2.0000      -1.062185       -28.9035
  96   2.0000      -1.061814       -28.8934
  97   2.0000      -1.044240       -28.4152
  98   2.0000      -1.044194       -28.4140
  99   2.0000      -1.033501       -28.1230
 100   2.0000      -1.033342       -28.1187
 101   2.0000      -1.025980       -27.9183
 102   2.0000      -1.025826       -27.9141
 103   2.0000      -1.019433       -27.7402
 104   2.0000      -1.018109       -27.7042
 105   2.0000      -1.016853       -27.6700
 106   2.0000      -1.015627       -27.6366
 107   2.0000      -1.015042       -27.6207
 108   2.0000      -1.014805       -27.6143
 109   2.0000      -1.006539       -27.3893
 110   2.0000      -1.006468       -27.3874
 111   2.0000      -1.004853       -27.3435
 112   2.0000      -1.004646       -27.3378
 113   2.0000      -0.981914       -26.7192
 114   2.0000      -0.977221       -26.5915
 115   2.0000      -0.964757       -26.2524
 116   2.0000      -0.964554       -26.2468
 117   2.0000      -0.954687       -25.9784
 118   2.0000      -0.948105       -25.7992
 119   2.0000      -0.947980       -25.7958
 120   2.0000      -0.947607       -25.7857
 121   2.0000      -0.929109       -25.2823
 122   2.0000      -0.925286       -25.1783
 123   2.0000      -0.904014       -24.5995
 124   2.0000      -0.903296       -24.5799
 125   2.0000      -0.896657       -24.3993
 126   2.0000      -0.896513       -24.3954
 127   2.0000      -0.883904       -24.0523
 128   2.0000      -0.877671       -23.8827
 129   2.0000      -0.872960       -23.7544
 130   2.0000      -0.872615       -23.7451
 131   2.0000      -0.872079       -23.7305
 132   2.0000      -0.871914       -23.7260
 133   2.0000      -0.841351       -22.8943
 134   2.0000      -0.827055       -22.5053
 135   2.0000      -0.813135       -22.1265
 136   2.0000      -0.802800       -21.8453
 137   2.0000      -0.798787       -21.7361
 138   2.0000      -0.798570       -21.7302
 139   2.0000      -0.791344       -21.5336
 140   2.0000      -0.783103       -21.3093
 141   2.0000      -0.771402       -20.9909
 142   2.0000      -0.764011       -20.7898
 143   2.0000      -0.734754       -19.9937
 144   2.0000      -0.729411       -19.8483
 145   2.0000      -0.723243       -19.6804
 146   2.0000      -0.722199       -19.6520
 147   2.0000      -0.720915       -19.6171
 148   2.0000      -0.720847       -19.6152
 149   2.0000      -0.716632       -19.5006
 150   2.0000      -0.714192       -19.4341
 151   2.0000      -0.696440       -18.9511
 152   2.0000      -0.694644       -18.9022
 153   2.0000      -0.690713       -18.7953
 154   2.0000      -0.690272       -18.7833
 155   2.0000      -0.675147       -18.3717
 156   2.0000      -0.673866       -18.3368
 157   2.0000      -0.672663       -18.3041
 158   2.0000      -0.671934       -18.2842
 159   2.0000      -0.662724       -18.0336
 160   2.0000      -0.658528       -17.9195
 161   2.0000      -0.649222       -17.6662
 162   2.0000      -0.646396       -17.5893
 163   2.0000      -0.638705       -17.3800
 164   2.0000      -0.634233       -17.2584
 165   2.0000      -0.631612       -17.1870
 166   2.0000      -0.622476       -16.9384
 167   2.0000      -0.621790       -16.9198
 168   2.0000      -0.613130       -16.6841
 169   2.0000      -0.603357       -16.4182
 170   2.0000      -0.593488       -16.1496
 171   2.0000      -0.593307       -16.1447
 172   2.0000      -0.589792       -16.0491
 173   2.0000      -0.587534       -15.9876
 174   2.0000      -0.582770       -15.8580
 175   2.0000      -0.573422       -15.6036
 176   2.0000      -0.567226       -15.4350
 177   2.0000      -0.563521       -15.3342
 178   2.0000      -0.556485       -15.1427
 179   2.0000      -0.555902       -15.1269
 180   2.0000      -0.554796       -15.0968
 181   2.0000      -0.550003       -14.9664
 182   2.0000      -0.549147       -14.9430
 183   2.0000      -0.547632       -14.9018
 184   2.0000      -0.546751       -14.8779
 185   2.0000      -0.542183       -14.7535
 186   2.0000      -0.540850       -14.7173
 187   2.0000      -0.538792       -14.6613
 188   2.0000      -0.537389       -14.6231
 189   2.0000      -0.522767       -14.2252
 190   2.0000      -0.520968       -14.1763
 191   2.0000      -0.520291       -14.1578
 192   2.0000      -0.519978       -14.1493
 193   2.0000      -0.517585       -14.0842
 194   2.0000      -0.517493       -14.0817
 195   2.0000      -0.514580       -14.0024
 196   2.0000      -0.514228       -13.9929
 197   2.0000      -0.513272       -13.9668
 198   2.0000      -0.510753       -13.8983
 199   2.0000      -0.505831       -13.7644
 200   2.0000      -0.502130       -13.6636
 201   2.0000      -0.501096       -13.6355
 202   2.0000      -0.500625       -13.6227
 203   2.0000      -0.489509       -13.3202
 204   2.0000      -0.488010       -13.2794
 205   2.0000      -0.487000       -13.2519
 206   2.0000      -0.486409       -13.2359
 207   2.0000      -0.472626       -12.8608
 208   2.0000      -0.472447       -12.8559
 209   2.0000      -0.471840       -12.8394
 210   2.0000      -0.470721       -12.8090
 211   2.0000      -0.469317       -12.7708
 212   2.0000      -0.469014       -12.7625
 213   2.0000      -0.466449       -12.6927
 214   2.0000      -0.465697       -12.6723
 215   2.0000      -0.464965       -12.6523
 216   2.0000      -0.464830       -12.6487
 217   2.0000      -0.462081       -12.5739
 218   2.0000      -0.461570       -12.5600
 219   2.0000      -0.461078       -12.5466
 220   2.0000      -0.460976       -12.5438
 221   2.0000      -0.458705       -12.4820
 222   2.0000      -0.457939       -12.4612
 223   2.0000      -0.456821       -12.4307
 224   2.0000      -0.454695       -12.3729
 225   2.0000      -0.453911       -12.3516
 226   2.0000      -0.452469       -12.3123
 227   2.0000      -0.452304       -12.3078
 228   2.0000      -0.450318       -12.2538
 229   2.0000      -0.449967       -12.2442
 230   2.0000      -0.449921       -12.2430
 231   2.0000      -0.449227       -12.2241
 232   2.0000      -0.449063       -12.2196
 233   2.0000      -0.442532       -12.0419
 234   2.0000      -0.440548       -11.9879
 235   2.0000      -0.439561       -11.9611
 236   2.0000      -0.439163       -11.9502
 237   2.0000      -0.437807       -11.9133
 238   2.0000      -0.437662       -11.9094
 239   2.0000      -0.436617       -11.8810
 240   2.0000      -0.436482       -11.8773
 241   2.0000      -0.435444       -11.8490
 242   2.0000      -0.434717       -11.8293
 243   2.0000      -0.430382       -11.7113
 244   2.0000      -0.426598       -11.6083
 245   2.0000      -0.423370       -11.5205
 246   2.0000      -0.422005       -11.4833
 247   2.0000      -0.421802       -11.4778
 248   2.0000      -0.418305       -11.3827
 249   2.0000      -0.418291       -11.3823
 250   2.0000      -0.412263       -11.2182
 251   2.0000      -0.410203       -11.1622
 252   2.0000      -0.395165       -10.7530
 253   2.0000      -0.392098       -10.6695
 254   2.0000      -0.391571       -10.6552
 255   2.0000      -0.385132       -10.4800
 256   2.0000      -0.364500        -9.9185
 257   2.0000      -0.364181        -9.9099
 258   2.0000      -0.357549        -9.7294
 259   2.0000      -0.342155        -9.3105
 260   2.0000      -0.340516        -9.2659
 261   2.0000      -0.339517        -9.2387
 262   2.0000      -0.335411        -9.1270
 263   2.0000      -0.334647        -9.1062
 264   2.0000      -0.321225        -8.7410
 265   2.0000      -0.320019        -8.7082
 266   2.0000      -0.313761        -8.5379
 267   2.0000      -0.285665        -7.7733
 268   2.0000      -0.268400        -7.3035
 269   0.0000      -0.127997        -3.4830
 270   0.0000      -0.121073        -3.2946
 271   0.0000      -0.101354        -2.7580
 272   0.0000      -0.100751        -2.7416
 273   0.0000      -0.093940        -2.5562

MULLIKEN ATOMIC CHARGES
-----------------------
   0 C :   -0.038563
   1 C :    0.050771
   2 C :    0.048927
   3 C :   -0.027490
   4 C :    0.000240
   5 C :    0.018463
   6 C :    0.289411
   7 C :   -0.344692
   8 C :   -0.189079
   9 N :    0.165033
  10 C :   -0.178376
  11 N :    0.154779
  12 C :   -0.066047
  13 C :    0.218621
  14 C :   -0.328193
  15 C :   -0.196770
  16 N :    0.179798
  17 C :   -0.176033
  18 N :    0.174944
  19 C :    0.089570
  20 C :   -0.138092
  21 C :   -0.003679
  22 C :   -0.002713
  23 C :   -0.065277
  24 S :    0.231085
  25 C :   -0.102000
  26 C :    0.038762
  27 C :    0.299616
  28 C :   -0.281751
  29 C :   -0.195498
  30 N :    0.200050
  31 C :   -0.182018
  32 N :    0.168894
  33 C :   -0.052820
  34 C :   -0.044522
  35 S :    0.184377
  36 C :    0.034657
  37 N :   -0.045460
  38 N :   -0.046827
  39 C :    0.031994
  40 C :   -0.008988
  41 C :   -0.011049
  42 C :   -0.044836
  43 C :   -0.048505
  44 C :    0.037753
  45 C :   -0.101290
  46 S :    0.184945
  47 C :   -0.063078
  48 C :   -0.002411
  49 C :    0.300026
  50 C :   -0.283809
  51 C :   -0.182305
  52 N :    0.170817
  53 C :   -0.191754
  54 N :    0.195721
  55 C :   -0.003037
  56 C :   -0.140742
  57 S :    0.232591
  58 C :    0.085334
  59 C :   -0.071279
  60 C :    0.291516
  61 C :   -0.343968
  62 C :   -0.176678
  63 N :    0.155145
  64 C :   -0.187743
  65 N :    0.162580
  66 C :    0.016512
  67 C :    0.000527
  68 C :   -0.026498
  69 C :    0.048814
  70 C :    0.047273
  71 C :   -0.033724
  72 C :    0.226077
  73 C :   -0.334911
  74 C :   -0.180796
  75 N :    0.177068
  76 C :   -0.195131
  77 N :    0.182714
  78 H :    0.008856
  79 H :    0.006033
  80 H :    0.008026
  81 H :    0.016219
  82 H :    0.012373
  83 H :    0.031829
  84 H :    0.032226
  85 H :    0.006612
  86 H :    0.006341
  87 H :    0.030546
  88 H :    0.031152
  89 H :    0.014891
  90 H :    0.015509
  91 H :    0.008717
  92 H :    0.006645
  93 H :    0.007046
Sum of atomic charges:   -0.0000000

LOEWDIN ATOMIC CHARGES
----------------------
   0 C :    0.005629
   1 C :    0.003950
   2 C :    0.007705
   3 C :    0.006059
   4 C :   -0.009823
   5 C :   -0.014133
   6 C :    0.079351
   7 C :   -0.133114
   8 C :   -0.019670
   9 N :   -0.042985
  10 C :   -0.021573
  11 N :   -0.044976
  12 C :   -0.052851
  13 C :    0.065207
  14 C :   -0.125451
  15 C :   -0.017588
  16 N :   -0.038873
  17 C :   -0.020448
  18 N :   -0.034243
  19 C :    0.033611
  20 C :   -0.180422
  21 C :    0.006998
  22 C :   -0.062571
  23 C :   -0.158444
  24 S :    0.513122
  25 C :   -0.180500
  26 C :   -0.055733
  27 C :    0.077564
  28 C :   -0.089913
  29 C :   -0.022057
  30 N :   -0.013162
  31 C :   -0.011174
  32 N :   -0.030430
  33 C :    0.001270
  34 C :   -0.170247
  35 S :    0.483161
  36 C :   -0.028788
  37 N :   -0.030109
  38 N :   -0.029879
  39 C :   -0.028999
  40 C :   -0.009855
  41 C :   -0.009668
  42 C :   -0.170279
  43 C :    0.001339
  44 C :   -0.055750
  45 C :   -0.180508
  46 S :    0.483318
  47 C :   -0.158026
  48 C :   -0.062523
  49 C :    0.077597
  50 C :   -0.090021
  51 C :   -0.011330
  52 N :   -0.030502
  53 C :   -0.021784
  54 N :   -0.013378
  55 C :    0.006313
  56 C :   -0.180767
  57 S :    0.514005
  58 C :    0.034039
  59 C :   -0.052823
  60 C :    0.079119
  61 C :   -0.132909
  62 C :   -0.021122
  63 N :   -0.045121
  64 C :   -0.019505
  65 N :   -0.043000
  66 C :   -0.013992
  67 C :   -0.009967
  68 C :    0.006259
  69 C :    0.007923
  70 C :    0.003829
  71 C :    0.005864
  72 C :    0.065379
  73 C :   -0.125641
  74 C :   -0.020581
  75 N :   -0.034629
  76 C :   -0.017542
  77 N :   -0.040181
  78 H :    0.042069
  79 H :    0.038660
  80 H :    0.039207
  81 H :    0.044135
  82 H :    0.045506
  83 H :    0.042698
  84 H :    0.050640
  85 H :    0.032649
  86 H :    0.032290
  87 H :    0.050548
  88 H :    0.042730
  89 H :    0.045795
  90 H :    0.044085
  91 H :    0.039363
  92 H :    0.038705
  93 H :    0.041869

  Mayer bond orders larger than 0.100000
B(  0-C ,  1-C ) :   1.3730 B(  0-C ,  5-C ) :   1.3808 B(  0-C , 78-H ) :   0.9837
B(  1-C ,  2-C ) :   1.3756 B(  1-C , 79-H ) :   0.9854 B(  2-C ,  3-C ) :   1.3666
B(  2-C , 80-H ) :   0.9864 B(  3-C ,  4-C ) :   1.3848 B(  3-C , 81-H ) :   0.9868
B(  4-C ,  5-C ) :   1.3084 B(  4-C , 13-C ) :   1.0094 B(  5-C ,  6-C ) :   1.0000
B(  6-C ,  7-C ) :   1.6411 B(  6-C , 12-C ) :   1.0561 B(  7-C ,  8-C ) :   1.1478
B(  7-C , 10-C ) :   1.1337 B(  8-C ,  9-N ) :   2.9807 B( 10-C , 11-N ) :   2.9715
B( 12-C , 13-C ) :   1.0099 B( 12-C , 19-C ) :   1.6400 B( 13-C , 14-C ) :   1.6665
B( 14-C , 15-C ) :   1.1621 B( 14-C , 17-C ) :   1.1324 B( 15-C , 16-N ) :   3.0050
B( 17-C , 18-N ) :   3.0015 B( 19-C , 20-C ) :   1.1743 B( 19-C , 82-H ) :   0.9100
B( 20-C , 21-C ) :   1.3846 B( 20-C , 24-S ) :   1.0992 B( 21-C , 22-C ) :   1.3668
B( 21-C , 83-H ) :   0.9796 B( 22-C , 23-C ) :   1.4049 B( 22-C , 27-C ) :   0.9970
B( 23-C , 24-S ) :   1.1580 B( 23-C , 25-C ) :   1.1991 B( 25-C , 26-C ) :   1.4324
B( 25-C , 35-S ) :   1.1279 B( 26-C , 27-C ) :   0.9909 B( 26-C , 33-C ) :   1.2398
B( 27-C , 28-C ) :   1.7263 B( 28-C , 29-C ) :   1.1306 B( 28-C , 31-C ) :   1.1358
B( 29-C , 30-N ) :   3.0051 B( 31-C , 32-N ) :   2.9756 B( 33-C , 34-C ) :   1.4745
B( 33-C , 84-H ) :   1.0142 B( 34-C , 35-S ) :   1.1151 B( 34-C , 36-C ) :   1.0818
B( 36-C , 37-N ) :   1.5603 B( 36-C , 41-C ) :   1.2772 B( 37-N , 38-N ) :   1.3516
B( 38-N , 39-C ) :   1.5606 B( 39-C , 40-C ) :   1.2770 B( 39-C , 42-C ) :   1.0794
B( 40-C , 41-C ) :   1.4617 B( 40-C , 85-H ) :   0.9779 B( 41-C , 86-H ) :   0.9778
B( 42-C , 43-C ) :   1.4746 B( 42-C , 46-S ) :   1.1153 B( 43-C , 44-C ) :   1.2395
B( 43-C , 87-H ) :   1.0146 B( 44-C , 45-C ) :   1.4329 B( 44-C , 49-C ) :   0.9898
B( 45-C , 46-S ) :   1.1289 B( 45-C , 47-C ) :   1.1969 B( 47-C , 48-C ) :   1.4054
B( 47-C , 57-S ) :   1.1581 B( 48-C , 49-C ) :   0.9959 B( 48-C , 55-C ) :   1.3636
B( 49-C , 50-C ) :   1.7281 B( 50-C , 51-C ) :   1.1355 B( 50-C , 53-C ) :   1.1285
B( 51-C , 52-N ) :   2.9769 B( 53-C , 54-N ) :   3.0038 B( 55-C , 56-C ) :   1.3855
B( 55-C , 88-H ) :   0.9817 B( 56-C , 57-S ) :   1.1009 B( 56-C , 58-C ) :   1.1705
B( 58-C , 59-C ) :   1.6393 B( 58-C , 89-H ) :   0.9116 B( 59-C , 60-C ) :   1.0572
B( 59-C , 72-C ) :   1.0109 B( 60-C , 61-C ) :   1.6413 B( 60-C , 66-C ) :   1.0007
B( 61-C , 62-C ) :   1.1345 B( 61-C , 64-C ) :   1.1459 B( 62-C , 63-N ) :   2.9689
B( 64-C , 65-N ) :   2.9795 B( 66-C , 67-C ) :   1.3098 B( 66-C , 71-C ) :   1.3804
B( 67-C , 68-C ) :   1.3816 B( 67-C , 72-C ) :   1.0085 B( 68-C , 69-C ) :   1.3659
B( 68-C , 90-H ) :   0.9881 B( 69-C , 70-C ) :   1.3752 B( 69-C , 91-H ) :   0.9872
B( 70-C , 71-C ) :   1.3715 B( 70-C , 92-H ) :   0.9863 B( 71-C , 93-H ) :   0.9850
B( 72-C , 73-C ) :   1.6659 B( 73-C , 74-C ) :   1.1376 B( 73-C , 76-C ) :   1.1600
B( 74-C , 75-N ) :   3.0017 B( 76-C , 77-N ) :   3.0083

-----------------------------------------------------------------------------
         ABSORPTION SPECTRUM VIA TRANSITION ELECTRIC DIPOLE MOMENTS
-----------------------------------------------------------------------------
State   Energy  Wavelength   fosc         T2         TX        TY        TZ
        (cm-1)    (nm)                  (au**2)     (au)      (au)      (au)
-----------------------------------------------------------------------------
   0   14132.6    707.6   0.847417933  19.74023   0.36257   4.33543   0.90156
   1   14911.8    670.6   0.001425734   0.03148   0.00046   0.04144  -0.17251
   2   19483.8    513.2   1.460097900  24.67083   0.35858   4.85018   1.00897
   3   20324.1    492.0   0.018764807   0.30395  -0.36880  -0.33352  -0.23813
   4   23024.5    434.3   0.003237996   0.04630   0.04670   0.00027  -0.21004
   5   23279.6    429.6   0.317038124   4.48345  -0.29683  -2.01050  -0.59435
   6   23564.1    424.4   0.212416524   2.96766   0.01610   0.53956  -1.63593
   7   23641.9    423.0   0.014398893   0.20050   0.06341   0.44135  -0.04117
   8   24116.8    414.6   0.001331463   0.01818   0.06627   0.11679   0.01199
   9   26467.2    377.8   0.024812799   0.30863  -0.18851  -0.51349  -0.09710
  10   26553.8    376.6   0.026521956   0.32882   0.54946  -0.15878   0.04117
  11   27110.5    368.9   0.000769610   0.00935   0.06660  -0.02364   0.06596
  12   28051.2    356.5   0.477945367   5.60922   0.16579   2.32197   0.43610
  13   28850.6    346.6   0.021846601   0.24929   0.10292   0.15702  -0.46265
  14   29033.2    344.4   0.013435196   0.15234   0.27304  -0.05901   0.27260
  15   29784.7    335.7   0.119110384   1.31654  -0.06607   1.13120   0.18046
  16   30061.2    332.7   0.296696975   3.24924  -1.42500  -0.16970   1.09079
  17   30440.2    328.5   0.060616624   0.65557  -0.04946  -0.80411  -0.08085
  18   30669.3    326.1   0.148189125   1.59070  -0.67550  -0.30864   1.01939
  19   30758.5    325.1   0.033969580   0.36358   0.27421  -0.42418  -0.32933
  20   30921.5    323.4   0.276442042   2.94320   0.54620   0.11578  -1.62218
  21   31046.4    322.1   0.001660295   0.01761   0.04812   0.10954  -0.05736
  22   31317.8    319.3   0.302126212   3.17594   0.25573   1.74362   0.26517
  23   32065.6    311.9   0.049777317   0.51106  -0.00208  -0.70427  -0.12268
  24   32179.6    310.8   0.113173969   1.15782  -0.35199   0.24778  -0.98617
  25   32708.5    305.7   0.409338704   4.12001   0.42748   1.64720   1.10635
  26   32838.7    304.5   0.612615819   6.14155  -0.10968   1.11025  -2.21289
  27   32975.6    303.3   0.035544036   0.35485   0.11594   0.15722  -0.56276
  28   33228.2    300.9   0.136772778   1.35509  -0.01537   1.10493   0.36604
  29   33719.7    296.6   0.049120758   0.47958   0.09583  -0.05194   0.68388
  30   33783.7    296.0   0.119684247   1.16629   0.31564   0.03795   1.03209
  31   33834.0    295.6   0.065581538   0.63812  -0.00153  -0.62311   0.49985
  32   34409.2    290.6   0.808271671   7.73317  -1.62539  -0.16917   2.25004
  33   34502.5    289.8   0.103804856   0.99047  -0.71037  -0.50703   0.47829
  34   35038.9    285.4   0.007607114   0.07147  -0.05517   0.03690  -0.25897
  35   35409.8    282.4   0.220326742   2.04842  -0.40051  -1.37319  -0.04866
  36   35509.2    281.6   0.222319584   2.06117  -1.36442   0.36926   0.25132
  37   35958.8    278.1   0.207280568   1.89771  -0.11913  -1.35535  -0.21573
  38   36223.2    276.1   0.001100051   0.01000   0.09753   0.01054  -0.01937
  39   36255.7    275.8   0.029460716   0.26751   0.26258   0.05321  -0.44241
  40   36497.9    274.0   0.013193315   0.11900   0.04894   0.11078  -0.32301
  41   36545.5    273.6   0.093972955   0.84654   0.32193   0.18533  -0.84175
  42   36625.8    273.0   0.032470020   0.29186  -0.41522  -0.22754   0.26015
  43   36692.5    272.5   0.050046763   0.44903   0.13670  -0.61009  -0.24109
  44   37531.7    266.4   0.002344151   0.02056   0.00288  -0.14167  -0.02196
  45   37924.0    263.7   0.035038326   0.30416   0.06326   0.54758  -0.01780
  46   38118.5    262.3   0.062976779   0.54390   0.51464   0.00776  -0.52819
  47   38290.4    261.2   0.034293119   0.29484  -0.30152  -0.18988   0.40972
  48   38364.8    260.7   0.039620499   0.33999   0.35462  -0.06457  -0.45833
  49   39079.1    255.9   0.040145181   0.33819   0.39790   0.21425  -0.36601
  50   39130.2    255.6   0.020141185   0.16945  -0.28479   0.12637   0.26904
  51   39429.9    253.6   0.008162365   0.06815  -0.00987   0.24220  -0.09692
  52   39547.1    252.9   0.169484011   1.41088   0.02544   1.16140   0.24773
  53   39902.9    250.6   0.005830261   0.04810  -0.04623   0.17816   0.11927
  54   39958.8    250.3   0.037224529   0.30668   0.32720   0.10314  -0.43473
  55   40266.0    248.3   0.015429488   0.12615   0.00495  -0.32980  -0.13174

FINAL SINGLE POINT ENERGY     -4650.556568900935

DIPOLE MOMENT
-------------
                                X             Y             Z
Electronic contribution:     11.84066       0.26804      -5.90995
Nuclear contribution   :    -12.58915       0.21450       3.80962
                        -----------------------------------------
Total Dipole Moment    :     -0.74849       0.48253      -2.10033
                        -----------------------------------------
Magnitude (a.u.)       :      2.28133
Magnitude (Debye)      :      5.79869

Rotational constants in cm-1:     0.002767     0.000165     0.000159
Rotational constants in MHz :    82.963881     4.953481     4.769709

                             ****ORCA TERMINATED NORMALLY****
TOTAL RUN TIME: 0 days 0 hours 10 minutes 13 seconds 20 msec
