                         Program Version 4.2.0 -  RELEASE  -
|  1> # ORCA input file
|  2> # SCF done       -197.530250344068          0.000728212431
|  3> ! CAM-B3LYP def2-SVP def2/J RIJCOSX Grid4 TightSCF
|  4> %maxcore 5000
|  5> %tddft
|  6>     Mode sTDDFT
|  7>     Ethresh 5.0
|  8>     maxcore 5000
|  9> end
| 10>
| 11> %pal
| 12>   nprocs 6
| 13>   end
| 14> * xyz 0 1
| 15>    C       -2.98510        -0.78081        -2.68193
| 16>    C       -1.63808        -0.75351        -2.42851
| 17>    C       -0.70953        -1.65094        -2.99700
| 18>    N        0.09430        -2.34949        -3.42549
| 19>    C       -0.98343         0.14191        -1.55663
| 20>    N       -0.37767         0.82537        -0.86001
| 21>    C       -3.66104        -1.74688        -3.54265
| 22>    C       -5.05745        -1.51381        -3.47931
| 23>    C       -5.96960        -2.26189        -4.18303
| 24>    C       -5.47966        -3.28887        -4.99653
| 25>    C       -4.08345        -3.51349        -5.05757
| 26>    C       -3.16216        -2.75909        -4.34061
| 27>    S       -3.69365        -4.82410        -6.12853
| 28>    C       -5.38734        -5.04980        -6.47598
| 29>    C       -6.20493        -4.18937        -5.82328
| 30>   Br       -5.91590        -6.39619        -7.66925
| 31>    C       -5.31394        -0.37740        -2.58077
| 32>    O       -6.40723         0.07617        -2.28422
| 33>    C       -4.00180         0.09783        -2.13314
| 34>    C       -3.77521         1.22891        -1.39020
| 35>    C       -4.67897         2.15171        -0.84445
| 36>    C       -4.24199         3.30995        -0.18896
| 37>    C       -5.28710         4.09263         0.25964
| 38>    C       -6.55031         3.51968        -0.03403
| 39>    S       -6.44064         2.04498        -0.88087
| 40>    C       -7.54633         4.39732         0.44894
| 41>    C       -6.93080         5.51796         1.03676
| 42>    C       -5.48766         5.36030         0.94096
| 43>    C       -4.53489         6.22889         1.38551
| 44>    C       -3.15460         5.98125         1.22711
| 45>    N       -2.03181         5.79101         1.09648
| 46>    C       -4.86963         7.43923         2.02845
| 47>    N       -5.14536         8.42262         2.54987
| 48>    C       -7.84177         6.45228         1.51942
| 49>    C       -9.15446         6.05838         1.31225
| 50>    S       -9.25304         4.49400         0.50885
| 51>    C      -10.33431         6.77738         1.65306
| 52>    C      -11.59911         6.27394         1.44812
| 53>    C      -12.78363         6.94983         1.72619
| 54>    C      -12.75339         8.35143         2.17061
| 55>    C      -11.62488         9.03011         2.47103
| 56>    S      -10.04881         8.36950         2.34800
| 57>    C      -14.11052         8.77238         2.20372
| 58>    C      -14.93649         7.71375         1.82470
| 59>    C      -16.30257         8.07195         1.84115
| 60>    C      -16.47218         9.36548         2.22021
| 61>    S      -14.99473        10.19633         2.57684
| 62>    C      -14.12804         6.55272         1.55698
| 63>    C      -14.69953         5.29739         1.24739
| 64>    C      -14.10683         4.07478         1.32626
| 65>    C      -14.77235         2.85569         1.05490
| 66>    C      -16.06667         2.64014         0.59705
| 67>    C      -16.37103         1.28771         0.49866
| 68>    C      -15.30660         0.45016         0.87760
| 69>    S      -13.92605         1.34151         1.34845
| 70>    C      -15.73178        -0.89512         0.76406
| 71>    C      -17.06436        -0.91043         0.31012
| 72>    C      -17.50925         0.45587         0.12425
| 73>    C      -18.73383         0.88286        -0.30164
| 74>    C      -19.04542         2.25199        -0.42873
| 75>    N      -19.29709         3.36674        -0.52647
| 76>    C      -19.76451        -0.01933        -0.63727
| 77>    N      -20.60078        -0.75563        -0.90852
| 78>    C      -17.57858        -2.20276         0.18612
| 79>    C      -16.66306        -3.17193         0.53966
| 80>    S      -15.12408        -2.46325         1.03115
| 81>    C      -16.83612        -4.59935         0.55605
| 82>    C      -18.05168        -5.19002         0.17782
| 83>    C      -18.18952        -6.55431         0.21115
| 84>    C      -17.13138        -7.37673         0.60581
| 85>    C      -15.90365        -6.81683         0.99367
| 86>    C      -15.79201        -5.43850         0.95946
| 87>    C      -14.70579        -7.62945         1.43992
| 88>    O      -14.05383        -8.25872         0.37020
| 89>    N      -17.38180        -8.78523         0.60330
| 90>    O      -18.53820        -9.15308         0.57360
| 91>    O      -16.43127        -9.55004         0.62394
| 92>    H       -7.02671        -2.05961        -4.11129
| 93>    H       -2.10929        -2.96956        -4.42430
| 94>    H       -7.27515        -4.18808        -5.92075
| 95>    H       -2.74119         1.49109        -1.20094
| 96>    H       -3.19779         3.54003        -0.07066
| 97>    H       -7.57848         7.37801         1.99837
| 98>    H      -11.65424         5.29045         1.00248
| 99>    H      -11.63825        10.04986         2.82201
|100>    H      -17.11737         7.41951         1.58524
|101>    H      -17.39396         9.90474         2.31828
|102>    H      -15.74847         5.33575         0.98529
|103>    H      -13.08748         3.98341         1.67023
|104>    H      -16.74510         3.43554         0.35164
|105>    H      -18.57763        -2.41879        -0.14404
|106>    H      -18.88079        -4.58038        -0.14067
|107>    H      -19.11927        -7.02215        -0.07571
|108>    H      -14.85268        -4.99486         1.25640
|109>    H      -15.01610        -8.36357         2.19674
|110>    H      -13.96973        -6.95757         1.88890
|111>    H      -14.59943        -9.01553         0.10499
|112> *
|113>
|114>                          ****END OF INPUT****

CARTESIAN COORDINATES (ANGSTROEM)
---------------------------------
  C     -2.985100   -0.780810   -2.681930
  C     -1.638080   -0.753510   -2.428510
  C     -0.709530   -1.650940   -2.997000
  N      0.094300   -2.349490   -3.425490
  C     -0.983430    0.141910   -1.556630
  N     -0.377670    0.825370   -0.860010
  C     -3.661040   -1.746880   -3.542650
  C     -5.057450   -1.513810   -3.479310
  C     -5.969600   -2.261890   -4.183030
  C     -5.479660   -3.288870   -4.996530
  C     -4.083450   -3.513490   -5.057570
  C     -3.162160   -2.759090   -4.340610
  S     -3.693650   -4.824100   -6.128530
  C     -5.387340   -5.049800   -6.475980
  C     -6.204930   -4.189370   -5.823280
  Br    -5.915900   -6.396190   -7.669250
  C     -5.313940   -0.377400   -2.580770
  O     -6.407230    0.076170   -2.284220
  C     -4.001800    0.097830   -2.133140
  C     -3.775210    1.228910   -1.390200
  C     -4.678970    2.151710   -0.844450
  C     -4.241990    3.309950   -0.188960
  C     -5.287100    4.092630    0.259640
  C     -6.550310    3.519680   -0.034030
  S     -6.440640    2.044980   -0.880870
  C     -7.546330    4.397320    0.448940
  C     -6.930800    5.517960    1.036760
  C     -5.487660    5.360300    0.940960
  C     -4.534890    6.228890    1.385510
  C     -3.154600    5.981250    1.227110
  N     -2.031810    5.791010    1.096480
  C     -4.869630    7.439230    2.028450
  N     -5.145360    8.422620    2.549870
  C     -7.841770    6.452280    1.519420
  C     -9.154460    6.058380    1.312250
  S     -9.253040    4.494000    0.508850
  C    -10.334310    6.777380    1.653060
  C    -11.599110    6.273940    1.448120
  C    -12.783630    6.949830    1.726190
  C    -12.753390    8.351430    2.170610
  C    -11.624880    9.030110    2.471030
  S    -10.048810    8.369500    2.348000
  C    -14.110520    8.772380    2.203720
  C    -14.936490    7.713750    1.824700
  C    -16.302570    8.071950    1.841150
  C    -16.472180    9.365480    2.220210
  S    -14.994730   10.196330    2.576840
  C    -14.128040    6.552720    1.556980
  C    -14.699530    5.297390    1.247390
  C    -14.106830    4.074780    1.326260
  C    -14.772350    2.855690    1.054900
  C    -16.066670    2.640140    0.597050
  C    -16.371030    1.287710    0.498660
  C    -15.306600    0.450160    0.877600
  S    -13.926050    1.341510    1.348450
  C    -15.731780   -0.895120    0.764060
  C    -17.064360   -0.910430    0.310120
  C    -17.509250    0.455870    0.124250
  C    -18.733830    0.882860   -0.301640
  C    -19.045420    2.251990   -0.428730
  N    -19.297090    3.366740   -0.526470
  C    -19.764510   -0.019330   -0.637270
  N    -20.600780   -0.755630   -0.908520
  C    -17.578580   -2.202760    0.186120
  C    -16.663060   -3.171930    0.539660
  S    -15.124080   -2.463250    1.031150
  C    -16.836120   -4.599350    0.556050
  C    -18.051680   -5.190020    0.177820
  C    -18.189520   -6.554310    0.211150
  C    -17.131380   -7.376730    0.605810
  C    -15.903650   -6.816830    0.993670
  C    -15.792010   -5.438500    0.959460
  C    -14.705790   -7.629450    1.439920
  O    -14.053830   -8.258720    0.370200
  N    -17.381800   -8.785230    0.603300
  O    -18.538200   -9.153080    0.573600
  O    -16.431270   -9.550040    0.623940
  H     -7.026710   -2.059610   -4.111290
  H     -2.109290   -2.969560   -4.424300
  H     -7.275150   -4.188080   -5.920750
  H     -2.741190    1.491090   -1.200940
  H     -3.197790    3.540030   -0.070660
  H     -7.578480    7.378010    1.998370
  H    -11.654240    5.290450    1.002480
  H    -11.638250   10.049860    2.822010
  H    -17.117370    7.419510    1.585240
  H    -17.393960    9.904740    2.318280
  H    -15.748470    5.335750    0.985290
  H    -13.087480    3.983410    1.670230
  H    -16.745100    3.435540    0.351640
  H    -18.577630   -2.418790   -0.144040
  H    -18.880790   -4.580380   -0.140670
  H    -19.119270   -7.022150   -0.075710
  H    -14.852680   -4.994860    1.256400
  H    -15.016100   -8.363570    2.196740
  H    -13.969730   -6.957570    1.888900
  H    -14.599430   -9.015530    0.104990

 Total Charge           Charge          ....    0
 Multiplicity           Mult            ....    1
 Number of Electrons    NEL             ....  596
 Basis Dimension        Dim             .... 1224

ORBITAL ENERGIES
----------------

  NO   OCC          E(Eh)            E(eV)
   0   2.0000    -482.888783    -13140.0718
   1   2.0000     -89.002434     -2421.8793
   2   2.0000     -88.995505     -2421.6908
   3   2.0000     -88.995340     -2421.6863
   4   2.0000     -88.992152     -2421.5996
   5   2.0000     -88.988843     -2421.5095
   6   2.0000     -88.979946     -2421.2674
   7   2.0000     -88.965601     -2420.8771
   8   2.0000     -62.566501     -1702.5210
   9   2.0000     -56.400460     -1534.7345
  10   2.0000     -56.397727     -1534.6602
  11   2.0000     -56.397699     -1534.6594
  12   2.0000     -19.251928      -523.8716
  13   2.0000     -19.249775      -523.8130
  14   2.0000     -19.230429      -523.2866
  15   2.0000     -19.195719      -522.3421
  16   2.0000     -14.656186      -398.8151
  17   2.0000     -14.438132      -392.8816
  18   2.0000     -14.436169      -392.8281
  19   2.0000     -14.435872      -392.8200
  20   2.0000     -14.435811      -392.8184
  21   2.0000     -14.420400      -392.3990
  22   2.0000     -14.418006      -392.3339
  23   2.0000     -10.377946      -282.3983
  24   2.0000     -10.373240      -282.2702
  25   2.0000     -10.369312      -282.1633
  26   2.0000     -10.362937      -281.9898
  27   2.0000     -10.360685      -281.9286
  28   2.0000     -10.356923      -281.8262
  29   2.0000     -10.346715      -281.5484
  30   2.0000     -10.346065      -281.5307
  31   2.0000     -10.344413      -281.4858
  32   2.0000     -10.342108      -281.4231
  33   2.0000     -10.341489      -281.4062
  34   2.0000     -10.340893      -281.3900
  35   2.0000     -10.340834      -281.3884
  36   2.0000     -10.339635      -281.3558
  37   2.0000     -10.338253      -281.3182
  38   2.0000     -10.336495      -281.2703
  39   2.0000     -10.336287      -281.2647
  40   2.0000     -10.335679      -281.2481
  41   2.0000     -10.333080      -281.1774
  42   2.0000     -10.332080      -281.1502
  43   2.0000     -10.331721      -281.1404
  44   2.0000     -10.331546      -281.1356
  45   2.0000     -10.330255      -281.1005
  46   2.0000     -10.328324      -281.0480
  47   2.0000     -10.326896      -281.0091
  48   2.0000     -10.322866      -280.8995
  49   2.0000     -10.320954      -280.8474
  50   2.0000     -10.319569      -280.8098
  51   2.0000     -10.319153      -280.7984
  52   2.0000     -10.319137      -280.7980
  53   2.0000     -10.318785      -280.7884
  54   2.0000     -10.314149      -280.6623
  55   2.0000     -10.313367      -280.6410
  56   2.0000     -10.312872      -280.6275
  57   2.0000     -10.312448      -280.6160
  58   2.0000     -10.311261      -280.5837
  59   2.0000     -10.310276      -280.5569
  60   2.0000     -10.310266      -280.5566
  61   2.0000     -10.309060      -280.5238
  62   2.0000     -10.309013      -280.5225
  63   2.0000     -10.308541      -280.5097
  64   2.0000     -10.307275      -280.4752
  65   2.0000     -10.305803      -280.4352
  66   2.0000     -10.305282      -280.4210
  67   2.0000     -10.304072      -280.3880
  68   2.0000     -10.302450      -280.3439
  69   2.0000     -10.301582      -280.3203
  70   2.0000     -10.300727      -280.2970
  71   2.0000     -10.300132      -280.2808
  72   2.0000     -10.298391      -280.2335
  73   2.0000     -10.297364      -280.2055
  74   2.0000     -10.297168      -280.2002
  75   2.0000     -10.296755      -280.1890
  76   2.0000     -10.296482      -280.1815
  77   2.0000     -10.296165      -280.1729
  78   2.0000     -10.290374      -280.0153
  79   2.0000     -10.283633      -279.8319
  80   2.0000     -10.283335      -279.8238
  81   2.0000      -8.795937      -239.3496
  82   2.0000      -8.096709      -220.3227
  83   2.0000      -8.089706      -220.1321
  84   2.0000      -8.087825      -220.0809
  85   2.0000      -8.086912      -220.0561
  86   2.0000      -8.084110      -219.9798
  87   2.0000      -8.075887      -219.7560
  88   2.0000      -8.061041      -219.3521
  89   2.0000      -6.632288      -180.4737
  90   2.0000      -6.617660      -180.0757
  91   2.0000      -6.617427      -180.0693
  92   2.0000      -6.065994      -165.0641
  93   2.0000      -6.061922      -164.9533
  94   2.0000      -6.058954      -164.8725
  95   2.0000      -6.058889      -164.8707
  96   2.0000      -6.057285      -164.8271
  97   2.0000      -6.056095      -164.7947
  98   2.0000      -6.054758      -164.7583
  99   2.0000      -6.053741      -164.7307
 100   2.0000      -6.052480      -164.6963
 101   2.0000      -6.052219      -164.6893
 102   2.0000      -6.052004      -164.6834
 103   2.0000      -6.050345      -164.6383
 104   2.0000      -6.049330      -164.6107
 105   2.0000      -6.049157      -164.6059
 106   2.0000      -6.045866      -164.5164
 107   2.0000      -6.045578      -164.5085
 108   2.0000      -6.041276      -164.3915
 109   2.0000      -6.037137      -164.2788
 110   2.0000      -6.030501      -164.0983
 111   2.0000      -6.026222      -163.9818
 112   2.0000      -6.023043      -163.8953
 113   2.0000      -2.748100       -74.7796
 114   2.0000      -2.744036       -74.6690
 115   2.0000      -2.743934       -74.6663
 116   2.0000      -2.732269       -74.3488
 117   2.0000      -2.732242       -74.3481
 118   2.0000      -1.329818       -36.1862
 119   2.0000      -1.148098       -31.2413
 120   2.0000      -1.145617       -31.1738
 121   2.0000      -1.088642       -29.6235
 122   2.0000      -1.054601       -28.6972
 123   2.0000      -1.048849       -28.5406
 124   2.0000      -1.029527       -28.0149
 125   2.0000      -1.027951       -27.9720
 126   2.0000      -1.027264       -27.9533
 127   2.0000      -1.019704       -27.7476
 128   2.0000      -1.017633       -27.6912
 129   2.0000      -1.014526       -27.6067
 130   2.0000      -1.013567       -27.5806
 131   2.0000      -1.008636       -27.4464
 132   2.0000      -1.005190       -27.3526
 133   2.0000      -0.997993       -27.1568
 134   2.0000      -0.995250       -27.0821
 135   2.0000      -0.988597       -26.9011
 136   2.0000      -0.983786       -26.7702
 137   2.0000      -0.966074       -26.2882
 138   2.0000      -0.963953       -26.2305
 139   2.0000      -0.947692       -25.7880
 140   2.0000      -0.940864       -25.6022
 141   2.0000      -0.930088       -25.3090
 142   2.0000      -0.926569       -25.2132
 143   2.0000      -0.913344       -24.8534
 144   2.0000      -0.912002       -24.8168
 145   2.0000      -0.906134       -24.6572
 146   2.0000      -0.894994       -24.3540
 147   2.0000      -0.890737       -24.2382
 148   2.0000      -0.887947       -24.1623
 149   2.0000      -0.881204       -23.9788
 150   2.0000      -0.878975       -23.9181
 151   2.0000      -0.869283       -23.6544
 152   2.0000      -0.866075       -23.5671
 153   2.0000      -0.863361       -23.4932
 154   2.0000      -0.858680       -23.3659
 155   2.0000      -0.853326       -23.2202
 156   2.0000      -0.834566       -22.7097
 157   2.0000      -0.830007       -22.5856
 158   2.0000      -0.826755       -22.4971
 159   2.0000      -0.808851       -22.0099
 160   2.0000      -0.801756       -21.8169
 161   2.0000      -0.790083       -21.4993
 162   2.0000      -0.782642       -21.2968
 163   2.0000      -0.776826       -21.1385
 164   2.0000      -0.770007       -20.9530
 165   2.0000      -0.766396       -20.8547
 166   2.0000      -0.759745       -20.6737
 167   2.0000      -0.743350       -20.2276
 168   2.0000      -0.738575       -20.0976
 169   2.0000      -0.716857       -19.5067
 170   2.0000      -0.716206       -19.4890
 171   2.0000      -0.710658       -19.3380
 172   2.0000      -0.708600       -19.2820
 173   2.0000      -0.702802       -19.1242
 174   2.0000      -0.698568       -19.0090
 175   2.0000      -0.694497       -18.8982
 176   2.0000      -0.691823       -18.8255
 177   2.0000      -0.684375       -18.6228
 178   2.0000      -0.678964       -18.4755
 179   2.0000      -0.668619       -18.1940
 180   2.0000      -0.666171       -18.1274
 181   2.0000      -0.661352       -17.9963
 182   2.0000      -0.651432       -17.7264
 183   2.0000      -0.650612       -17.7041
 184   2.0000      -0.647430       -17.6175
 185   2.0000      -0.640599       -17.4316
 186   2.0000      -0.637722       -17.3533
 187   2.0000      -0.635885       -17.3033
 188   2.0000      -0.634590       -17.2681
 189   2.0000      -0.629898       -17.1404
 190   2.0000      -0.624655       -16.9977
 191   2.0000      -0.621766       -16.9191
 192   2.0000      -0.619646       -16.8614
 193   2.0000      -0.609850       -16.5949
 194   2.0000      -0.606119       -16.4933
 195   2.0000      -0.602185       -16.3863
 196   2.0000      -0.601021       -16.3546
 197   2.0000      -0.592925       -16.1343
 198   2.0000      -0.589514       -16.0415
 199   2.0000      -0.584908       -15.9161
 200   2.0000      -0.580897       -15.8070
 201   2.0000      -0.570962       -15.5367
 202   2.0000      -0.568044       -15.4573
 203   2.0000      -0.563275       -15.3275
 204   2.0000      -0.558038       -15.1850
 205   2.0000      -0.556428       -15.1412
 206   2.0000      -0.551796       -15.0151
 207   2.0000      -0.550440       -14.9782
 208   2.0000      -0.548274       -14.9193
 209   2.0000      -0.547505       -14.8984
 210   2.0000      -0.546724       -14.8771
 211   2.0000      -0.542223       -14.7546
 212   2.0000      -0.538660       -14.6577
 213   2.0000      -0.532618       -14.4933
 214   2.0000      -0.527931       -14.3657
 215   2.0000      -0.527004       -14.3405
 216   2.0000      -0.525808       -14.3080
 217   2.0000      -0.522914       -14.2292
 218   2.0000      -0.520536       -14.1645
 219   2.0000      -0.515903       -14.0384
 220   2.0000      -0.515345       -14.0232
 221   2.0000      -0.512675       -13.9506
 222   2.0000      -0.511920       -13.9301
 223   2.0000      -0.510859       -13.9012
 224   2.0000      -0.507081       -13.7984
 225   2.0000      -0.505000       -13.7418
 226   2.0000      -0.503827       -13.7098
 227   2.0000      -0.500793       -13.6273
 228   2.0000      -0.500187       -13.6108
 229   2.0000      -0.499282       -13.5862
 230   2.0000      -0.497059       -13.5257
 231   2.0000      -0.496478       -13.5099
 232   2.0000      -0.490957       -13.3596
 233   2.0000      -0.483016       -13.1435
 234   2.0000      -0.481687       -13.1074
 235   2.0000      -0.478294       -13.0150
 236   2.0000      -0.475669       -12.9436
 237   2.0000      -0.473436       -12.8829
 238   2.0000      -0.471330       -12.8255
 239   2.0000      -0.468952       -12.7608
 240   2.0000      -0.467801       -12.7295
 241   2.0000      -0.467241       -12.7143
 242   2.0000      -0.465642       -12.6708
 243   2.0000      -0.464315       -12.6346
 244   2.0000      -0.463276       -12.6064
 245   2.0000      -0.461073       -12.5464
 246   2.0000      -0.459961       -12.5162
 247   2.0000      -0.455181       -12.3861
 248   2.0000      -0.453863       -12.3502
 249   2.0000      -0.452324       -12.3084
 250   2.0000      -0.448731       -12.2106
 251   2.0000      -0.447272       -12.1709
 252   2.0000      -0.446944       -12.1620
 253   2.0000      -0.446901       -12.1608
 254   2.0000      -0.446232       -12.1426
 255   2.0000      -0.444185       -12.0869
 256   2.0000      -0.443547       -12.0695
 257   2.0000      -0.442506       -12.0412
 258   2.0000      -0.439509       -11.9596
 259   2.0000      -0.438827       -11.9411
 260   2.0000      -0.438057       -11.9201
 261   2.0000      -0.436424       -11.8757
 262   2.0000      -0.434445       -11.8219
 263   2.0000      -0.430702       -11.7200
 264   2.0000      -0.430380       -11.7112
 265   2.0000      -0.429689       -11.6924
 266   2.0000      -0.422060       -11.4848
 267   2.0000      -0.420580       -11.4446
 268   2.0000      -0.419517       -11.4156
 269   2.0000      -0.418250       -11.3812
 270   2.0000      -0.411137       -11.1876
 271   2.0000      -0.411070       -11.1858
 272   2.0000      -0.407014       -11.0754
 273   2.0000      -0.398248       -10.8369
 274   2.0000      -0.395538       -10.7631
 275   2.0000      -0.395025       -10.7492
 276   2.0000      -0.390502       -10.6261
 277   2.0000      -0.387432       -10.5426
 278   2.0000      -0.378796       -10.3076
 279   2.0000      -0.378172       -10.2906
 280   2.0000      -0.372438       -10.1345
 281   2.0000      -0.365990        -9.9591
 282   2.0000      -0.359334        -9.7780
 283   2.0000      -0.354846        -9.6558
 284   2.0000      -0.350129        -9.5275
 285   2.0000      -0.348583        -9.4854
 286   2.0000      -0.346865        -9.4387
 287   2.0000      -0.338132        -9.2010
 288   2.0000      -0.337268        -9.1775
 289   2.0000      -0.330052        -8.9812
 290   2.0000      -0.329641        -8.9700
 291   2.0000      -0.323698        -8.8083
 292   2.0000      -0.320602        -8.7240
 293   2.0000      -0.299542        -8.1510
 294   2.0000      -0.295066        -8.0292
 295   2.0000      -0.285486        -7.7685
 296   2.0000      -0.267051        -7.2668
 297   2.0000      -0.232662        -6.3311
 298   0.0000      -0.120032        -3.2662
 299   0.0000      -0.110286        -3.0010
 300   0.0000      -0.093560        -2.5459
 301   0.0000      -0.078820        -2.1448
 302   0.0000      -0.068846        -1.8734

MULLIKEN ATOMIC CHARGES
-----------------------
   0 C :    0.321490
   1 C :   -0.349739
   2 C :   -0.185320
   3 N :    0.151267
   4 C :   -0.195108
   5 N :    0.156533
   6 C :    0.012153
   7 C :   -0.010771
   8 C :   -0.070746
   9 C :    0.118110
  10 C :   -0.091926
  11 C :   -0.019965
  12 S :    0.190820
  13 C :   -0.123764
  14 C :    0.037434
  15 Br:    0.027622
  16 C :    0.163074
  17 O :   -0.192522
  18 C :   -0.089378
  19 C :   -0.034359
  20 C :   -0.050787
  21 C :   -0.061293
  22 C :    0.042987
  23 C :   -0.066501
  24 S :    0.242008
  25 C :   -0.103451
  26 C :    0.026378
  27 C :    0.306143
  28 C :   -0.291920
  29 C :   -0.193817
  30 N :    0.185751
  31 C :   -0.185172
  32 N :    0.173763
  33 C :   -0.060718
  34 C :   -0.050955
  35 S :    0.174519
  36 C :   -0.031096
  37 C :   -0.092182
  38 C :    0.050038
  39 C :    0.051881
  40 C :   -0.115539
  41 S :    0.136080
  42 C :   -0.104003
  43 C :    0.046703
  44 C :    0.010241
  45 C :   -0.067116
  46 S :    0.135267
  47 C :    0.087671
  48 C :   -0.019168
  49 C :    0.028549
  50 C :   -0.076244
  51 C :   -0.038937
  52 C :    0.010299
  53 C :   -0.110169
  54 S :    0.182840
  55 C :   -0.087278
  56 C :    0.002205
  57 C :    0.308260
  58 C :   -0.296894
  59 C :   -0.180261
  60 N :    0.164470
  61 C :   -0.187220
  62 N :    0.169352
  63 C :   -0.034746
  64 C :   -0.077884
  65 S :    0.169697
  66 C :    0.196356
  67 C :   -0.035627
  68 C :    0.003507
  69 C :    0.103786
  70 C :   -0.078925
  71 C :   -0.136297
  72 C :    0.323800
  73 O :   -0.324085
  74 N :    0.263539
  75 O :   -0.226603
  76 O :   -0.268550
  77 H :   -0.010169
  78 H :   -0.004945
  79 H :   -0.001410
  80 H :    0.019246
  81 H :    0.028847
  82 H :    0.024054
  83 H :   -0.008287
  84 H :    0.041439
  85 H :   -0.008250
  86 H :    0.031335
  87 H :   -0.016883
  88 H :   -0.026726
  89 H :    0.006318
  90 H :    0.006101
  91 H :   -0.008067
  92 H :    0.011142
  93 H :   -0.012905
  94 H :    0.008355
  95 H :   -0.008942
  96 H :    0.172187
Sum of atomic charges:   -0.0000000

LOEWDIN ATOMIC CHARGES
----------------------
   0 C :    0.076179
   1 C :   -0.140799
   2 C :   -0.018215
   3 N :   -0.051856
   4 C :   -0.023783
   5 N :   -0.047391
   6 C :   -0.019668
   7 C :   -0.051880
   8 C :    0.022394
   9 C :   -0.032718
  10 C :   -0.143301
  11 C :   -0.008383
  12 S :    0.436620
  13 C :   -0.270679
  14 C :   -0.070558
  15 Br:    0.139895
  16 C :    0.086167
  17 O :   -0.177079
  18 C :   -0.111694
  19 C :    0.055384
  20 C :   -0.184114
  21 C :    0.013155
  22 C :   -0.079380
  23 C :   -0.165836
  24 S :    0.545201
  25 C :   -0.188211
  26 C :   -0.050801
  27 C :    0.077793
  28 C :   -0.097594
  29 C :   -0.020229
  30 N :   -0.021250
  31 C :   -0.015993
  32 N :   -0.030349
  33 C :   -0.044527
  34 C :   -0.166023
  35 S :    0.476796
  36 C :   -0.185664
  37 C :   -0.026209
  38 C :   -0.021441
  39 C :   -0.046440
  40 C :   -0.136836
  41 S :    0.466601
  42 C :   -0.201552
  43 C :   -0.039029
  44 C :   -0.062576
  45 C :   -0.159723
  46 S :    0.426915
  47 C :   -0.046122
  48 C :   -0.001386
  49 C :   -0.061427
  50 C :   -0.152064
  51 C :   -0.035248
  52 C :   -0.058541
  53 C :   -0.199823
  54 S :    0.470208
  55 C :   -0.165164
  56 C :   -0.080298
  57 C :    0.083889
  58 C :   -0.103853
  59 C :   -0.014664
  60 N :   -0.036317
  61 C :   -0.016002
  62 N :   -0.034013
  63 C :   -0.016784
  64 C :   -0.168677
  65 S :    0.480509
  66 C :   -0.007331
  67 C :   -0.015915
  68 C :    0.013686
  69 C :   -0.045454
  70 C :   -0.008210
  71 C :   -0.029397
  72 C :    0.074049
  73 O :   -0.140124
  74 N :    0.292488
  75 O :   -0.192380
  76 O :   -0.209671
  77 H :    0.040826
  78 H :    0.041673
  79 H :    0.039324
  80 H :    0.053969
  81 H :    0.048406
  82 H :    0.035614
  83 H :    0.025755
  84 H :    0.039459
  85 H :    0.033075
  86 H :    0.025583
  87 H :    0.033073
  88 H :    0.022808
  89 H :    0.037832
  90 H :    0.039698
  91 H :    0.035675
  92 H :    0.043324
  93 H :    0.020935
  94 H :    0.014880
  95 H :    0.021426
  96 H :    0.059384

  Mayer bond orders larger than 0.100000
B(  0-C ,  1-C ) :   1.6276 B(  0-C ,  6-C ) :   1.0012 B(  0-C , 18-C ) :   1.0752
B(  1-C ,  2-C ) :   1.1451 B(  1-C ,  4-C ) :   1.1437 B(  2-C ,  3-N ) :   2.9677
B(  4-C ,  5-N ) :   2.9677 B(  6-C ,  7-C ) :   1.2737 B(  6-C , 11-C ) :   1.4169
B(  7-C ,  8-C ) :   1.4190 B(  7-C , 16-C ) :   0.9641 B(  8-C ,  9-C ) :   1.2463
B(  8-C , 77-H ) :   1.0170 B(  9-C , 10-C ) :   1.3052 B(  9-C , 14-C ) :   1.1636
B( 10-C , 11-C ) :   1.3275 B( 10-C , 12-S ) :   1.0886 B( 11-C , 78-H ) :   0.9795
B( 12-S , 13-C ) :   1.0876 B( 13-C , 14-C ) :   1.6172 B( 13-C , 15-Br) :   1.0206
B( 14-C , 79-H ) :   1.0000 B( 16-C , 17-O ) :   2.1087 B( 16-C , 18-C ) :   0.9854
B( 18-C , 19-C ) :   1.4892 B( 19-C , 20-C ) :   1.2702 B( 19-C , 80-H ) :   0.9425
B( 20-C , 21-C ) :   1.3252 B( 20-C , 24-S ) :   1.0666 B( 21-C , 22-C ) :   1.3330
B( 21-C , 81-H ) :   1.0094 B( 22-C , 23-C ) :   1.3493 B( 22-C , 27-C ) :   0.9876
B( 23-C , 24-S ) :   1.1245 B( 23-C , 25-C ) :   1.2103 B( 25-C , 26-C ) :   1.4327
B( 25-C , 35-S ) :   1.1080 B( 26-C , 27-C ) :   0.9979 B( 26-C , 33-C ) :   1.3129
B( 27-C , 28-C ) :   1.7166 B( 28-C , 29-C ) :   1.1331 B( 28-C , 31-C ) :   1.1330
B( 29-C , 30-N ) :   2.9955 B( 31-C , 32-N ) :   2.9866 B( 33-C , 34-C ) :   1.4416
B( 33-C , 82-H ) :   0.9782 B( 34-C , 35-S ) :   1.1127 B( 34-C , 36-C ) :   1.1770
B( 36-C , 37-C ) :   1.5105 B( 36-C , 41-S ) :   1.0585 B( 37-C , 38-C ) :   1.2579
B( 37-C , 83-H ) :   0.9587 B( 38-C , 39-C ) :   1.0520 B( 38-C , 47-C ) :   1.3655
B( 39-C , 40-C ) :   1.6102 B( 39-C , 42-C ) :   1.1802 B( 40-C , 41-S ) :   1.1382
B( 40-C , 84-H ) :   0.9401 B( 42-C , 43-C ) :   1.4379 B( 42-C , 46-S ) :   1.0788
B( 43-C , 44-C ) :   1.2201 B( 43-C , 47-C ) :   1.1041 B( 44-C , 45-C ) :   1.5883
B( 44-C , 85-H ) :   0.9975 B( 45-C , 46-S ) :   1.1544 B( 45-C , 86-H ) :   0.9660
B( 47-C , 48-C ) :   1.1743 B( 48-C , 49-C ) :   1.6344 B( 48-C , 87-H ) :   0.9588
B( 49-C , 50-C ) :   1.1353 B( 49-C , 88-H ) :   0.9561 B( 50-C , 51-C ) :   1.4352
B( 50-C , 54-S ) :   1.1135 B( 51-C , 52-C ) :   1.3155 B( 51-C , 89-H ) :   0.9880
B( 52-C , 53-C ) :   1.4352 B( 52-C , 57-C ) :   0.9915 B( 53-C , 54-S ) :   1.1056
B( 53-C , 55-C ) :   1.1954 B( 55-C , 56-C ) :   1.4287 B( 55-C , 65-S ) :   1.1397
B( 56-C , 57-C ) :   1.0091 B( 56-C , 63-C ) :   1.2799 B( 57-C , 58-C ) :   1.7059
B( 58-C , 59-C ) :   1.1328 B( 58-C , 61-C ) :   1.1341 B( 59-C , 60-N ) :   2.9836
B( 61-C , 62-N ) :   2.9879 B( 63-C , 64-C ) :   1.4932 B( 63-C , 90-H ) :   0.9863
B( 64-C , 65-S ) :   1.0874 B( 64-C , 66-C ) :   1.0873 B( 66-C , 67-C ) :   1.3202
B( 66-C , 71-C ) :   1.2963 B( 67-C , 68-C ) :   1.3910 B( 67-C , 91-H ) :   0.9961
B( 68-C , 69-C ) :   1.3573 B( 68-C , 92-H ) :   0.9833 B( 69-C , 70-C ) :   1.3718
B( 69-C , 74-N ) :   0.9105 B( 70-C , 71-C ) :   1.4406 B( 70-C , 72-C ) :   1.0020
B( 71-C , 93-H ) :   0.9810 B( 72-C , 73-O ) :   1.0915 B( 72-C , 94-H ) :   0.9303
B( 72-C , 95-H ) :   0.9243 B( 73-O , 96-H ) :   0.9634 B( 74-N , 75-O ) :   1.5780
B( 74-N , 76-O ) :   1.4778 B( 75-O , 76-O ) :   0.2514

-----------------------------------------------------------------------------
         ABSORPTION SPECTRUM VIA TRANSITION ELECTRIC DIPOLE MOMENTS
-----------------------------------------------------------------------------
State   Energy  Wavelength   fosc         T2         TX        TY        TZ
        (cm-1)    (nm)                  (au**2)     (au)      (au)      (au)
-----------------------------------------------------------------------------
   0    9958.7   1004.1   0.285686797   9.44413  -2.89204  -0.92227   0.47926
   1   10976.9    911.0   0.180490879   5.41315  -1.12616   1.91422   0.69331
   2   16434.2    608.5   0.166132366   3.32799   1.51632   1.01418  -0.01384
   3   17358.0    576.1   0.539248948  10.22740  -3.03551   0.45853   0.89600
   4   19411.7    515.2   0.174700728   2.96283  -1.00862   1.20867   0.69616
   5   20352.2    491.3   0.731885156  11.83879  -0.04650  -3.25287  -1.12049
   6   23012.6    434.5   1.026725937  14.68805   0.39923  -3.69296  -0.94376
   7   23185.6    431.3   0.138839357   1.97138  -0.84630  -1.11844   0.06520
   8   24237.4    412.6   0.299494542   4.06798   0.53013  -1.88968  -0.46482
   9   24342.6    410.8   0.079811917   1.07938  -0.41136  -0.75012   0.58948
  10   24993.5    400.1   0.106083268   1.39732   0.22067  -1.02971  -0.53695
  11   25544.9    391.5   0.029134033   0.37547   0.34971  -0.42900   0.26292
  12   25837.1    387.0   0.079433765   1.01213  -0.77058   0.60221   0.23596
  13   26446.1    378.1   0.220370044   2.74326   0.87286   1.02879   0.96071
  14   27210.6    367.5   0.133089356   1.61021   0.41651   1.17082   0.25673
  15   28773.1    347.5   0.037682809   0.43115  -0.53719  -0.32068  -0.19935
  16   28874.2    346.3   0.008404843   0.09583  -0.18263   0.17735   0.17612
  17   29181.6    342.7   0.121991717   1.37625  -0.08717  -0.91020  -0.73498
  18   29605.4    337.8   0.013880972   0.15436   0.00373   0.38126   0.09478
  19   29837.9    335.1   0.016822408   0.18561  -0.05455   0.22208  -0.36512
  20   30414.1    328.8   0.186536917   2.01913   0.85175   0.91071   0.68136
  21   30639.3    326.4   0.044277769   0.47575  -0.00931  -0.33075   0.60521
  22   30998.4    322.6   0.140906501   1.49647   1.04089  -0.60368   0.22041
  23   31056.4    322.0   0.044485463   0.47157  -0.07517   0.63912   0.23967
  24   31303.9    319.4   0.454864458   4.78364   0.20235   1.94152   0.98652
  25   31776.4    314.7   0.706697418   7.32157  -2.35591  -0.77222  -1.08393
  26   32255.0    310.0   0.353593343   3.60896   0.88644   1.57108   0.59574
  27   32343.4    309.2   0.247176138   2.51592  -0.37049   1.50219  -0.34940
  28   32547.6    307.2   0.348967986   3.52974   1.20422  -1.43286   0.16281
  29   32823.6    304.7   0.340194160   3.41206   1.52217   0.85522   0.60305
  30   32990.2    303.1   0.103237617   1.03022  -0.29991  -0.96909  -0.03376
  31   33330.0    300.0   0.014515524   0.14337  -0.36038  -0.03473  -0.11088
  32   33734.4    296.4   0.099458721   0.97061   0.00062   0.83086   0.52942
  33   33984.0    294.3   0.019264262   0.18662  -0.35472  -0.21480  -0.12104
  34   34200.6    292.4   0.074492413   0.71706  -0.61400   0.57366   0.10480
  35   34273.0    291.8   0.074133885   0.71210   0.68861  -0.40217  -0.27599
  36   34539.5    289.5   0.321161595   3.06114   1.70691   0.08631   0.37437
  37   35080.6    285.1   0.216221214   2.02911   0.71261  -1.14055  -0.46951
  38   35381.4    282.6   0.238755310   2.22154   1.47145   0.09825   0.21617
  39   35531.2    281.4   0.117263721   1.08650  -0.99428  -0.16059  -0.26855
  40   35847.2    279.0   0.075094313   0.68965   0.36680  -0.71963  -0.19296
  41   35874.5    278.7   0.014348121   0.13167  -0.20705  -0.08301  -0.28620
  42   35979.5    277.9   0.129392597   1.18394   0.78191  -0.74582  -0.12774
  43   36327.9    275.3   0.003789781   0.03434  -0.08375  -0.15440   0.05907
  44   36742.2    272.2   0.030263300   0.27116  -0.23818  -0.36762  -0.28157
  45   36810.0    271.7   0.052259243   0.46738  -0.42276   0.43542   0.31475
  46   37044.5    269.9   0.038214840   0.33961   0.16820  -0.55745  -0.02392
  47   37389.9    267.5   0.018805731   0.16558   0.40205   0.05832  -0.02306
  48   37844.1    264.2   0.023160507   0.20148   0.40815  -0.09197   0.16259
  49   37896.2    263.9   0.097043529   0.84304   0.87909  -0.14797  -0.21987
  50   38178.7    261.9   0.016936782   0.14604  -0.04649   0.30425   0.22653
  51   38210.6    261.7   0.006274369   0.05406   0.13413   0.12659  -0.14156
  52   38490.7    259.8   0.024436110   0.20900   0.16906  -0.32643  -0.27178
  53   38915.5    257.0   0.017064415   0.14436   0.13129  -0.35209  -0.05615
  54   39050.8    256.1   0.029547249   0.24909   0.41737  -0.23612  -0.13836
  55   39355.0    254.1   0.047821880   0.40004   0.59036   0.01490   0.22648
  56   39473.6    253.3   0.020314506   0.16942   0.12733   0.28699   0.26617
  57   39547.8    252.9   0.046775164   0.38938   0.49795  -0.29589  -0.23209
  58   39845.0    251.0   0.029611137   0.24466   0.48620  -0.01657   0.08937
  59   40103.3    249.4   0.018221047   0.14958  -0.23407   0.30656   0.02845
  60   40161.7    249.0   0.067800625   0.55577  -0.53902   0.47374   0.20198
  61   40262.9    248.4   0.037014455   0.30265   0.54948   0.02642  -0.00511
  62   40296.2    248.2   0.008991723   0.07346   0.26886   0.03353  -0.00713

FINAL SINGLE POINT ENERGY     -8262.890907471625

DIPOLE MOMENT
-------------
                                X             Y             Z
Electronic contribution:     77.88743     -55.72509     -79.26264
Nuclear contribution   :    -80.09105      57.49046      79.38395
                        -----------------------------------------
Total Dipole Moment    :     -2.20362       1.76538       0.12131
                        -----------------------------------------
Magnitude (a.u.)       :      2.82616
Magnitude (Debye)      :      7.18354

Rotational constants in cm-1:     0.000419     0.000364     0.000209
Rotational constants in MHz :    12.554581    10.902747     6.260462

                             ****ORCA TERMINATED NORMALLY****
TOTAL RUN TIME: 0 days 0 hours 15 minutes 6 seconds 924 msec
