                         Program Version 4.2.0 -  RELEASE  -
|  1> # ORCA input file
|  2> # SCF done       -199.132726432427          0.000427480557
|  3> ! CAM-B3LYP def2-SVP def2/J RIJCOSX Grid4 TightSCF
|  4> %maxcore 5000
|  5> %tddft
|  6>     Mode sTDDFT
|  7>     Ethresh 5.0
|  8>     maxcore 5000
|  9> end
| 10>
| 11> %pal
| 12>   nprocs 6
| 13>   end
| 14> * xyz 0 1
| 15>    C       -5.44297        -2.04537        -0.48576
| 16>    C       -5.44966        -3.04722         0.45070
| 17>    C       -5.21498        -4.40657         0.15629
| 18>    N       -5.02125        -5.52509        -0.01602
| 19>    C       -5.68867        -2.87798         1.83071
| 20>    N       -5.88794        -2.83602         2.96096
| 21>    C       -5.26628        -2.22937        -1.92155
| 22>    C       -5.34183        -0.96597        -2.55719
| 23>    C       -5.22941        -0.81129        -3.91730
| 24>    C       -5.03970        -1.96081        -4.69083
| 25>    C       -4.96035        -3.21893        -4.04741
| 26>    C       -5.06970        -3.37445        -2.67135
| 27>    S       -4.71360        -4.50542        -5.18860
| 28>    C       -4.72229        -3.35210        -6.49610
| 29>    C       -4.90074        -2.06919        -6.10154
| 30>   Br       -4.48979        -3.95052        -8.25720
| 31>    C       -5.53040         0.08390        -1.53981
| 32>    O       -5.44726         1.28114        -1.72650
| 33>    C       -5.67715        -0.63448        -0.24642
| 34>    C       -5.87384        -0.03609         0.96419
| 35>    C       -6.37291         1.28055         1.15088
| 36>    C       -7.27844         1.89213         0.25553
| 37>    C       -7.66012         3.27616         0.39427
| 38>    N       -8.45630         3.82592        -0.53500
| 39>    C       -8.86079         3.11274        -1.55563
| 40>    C       -8.58261         1.70914        -1.61639
| 41>    N       -7.83260         1.14316        -0.70610
| 42>    C       -9.13064         0.90629        -2.64594
| 43>    N       -9.54806         0.28472        -3.51333
| 44>    C       -9.62787         3.74720        -2.56282
| 45>    N      -10.23005         4.25377        -3.39576
| 46>    C       -7.23268         4.07308         1.48346
| 47>    C       -6.47668         3.40314         2.46726
| 48>    C       -6.04258         2.03419         2.29468
| 49>    N       -5.27046         1.62380         3.29939
| 50>    S       -5.11724         2.81751         4.36099
| 51>    N       -5.99548         3.92199         3.60206
| 52>    C       -7.51906         5.49132         1.55315
| 53>    C       -7.60817         6.25938         0.37987
| 54>    C       -7.91986         7.59233         0.46208
| 55>    C       -8.17623         8.18835         1.71152
| 56>    C       -8.06380         7.44403         2.87986
| 57>    C       -7.72367         6.11139         2.79561
| 58>    C       -8.56635         9.56144         1.49576
| 59>    C       -8.56837         9.81262         0.11217
| 60>    C       -8.08544         8.59872        -0.65281
| 61>    C       -6.73130         8.98254        -1.29593
| 62>    C       -5.95945         7.84458        -1.95042
| 63>    C       -9.09884         8.12560        -1.70600
| 64>    C      -10.47059         7.83769        -1.10752
| 65>    C       -8.93567        11.04472        -0.36937
| 66>    C       -9.29818        12.06528         0.52310
| 67>    C       -9.28835        11.79794         1.89920
| 68>    C       -8.92995        10.56027         2.39008
| 69>    C       -9.67550        13.35086        -0.02123
| 70>    C       -9.84694        14.48702         0.67004
| 71>    C      -10.16781        15.77141         0.06586
| 72>    C       -9.49050        16.89929         0.53535
| 73>    F       -8.65933        16.75638         1.59328
| 74>    C       -9.59272        18.14689        -0.04314
| 75>    C      -10.40674        18.29312        -1.15601
| 76>    C      -11.12098        17.21355        -1.63072
| 77>    C      -11.05536        15.95644        -1.01693
| 78>    C      -11.97057        14.94415        -1.49619
| 79>    C      -12.57669        14.00560        -0.72977
| 80>    C      -13.52240        13.04111        -1.15164
| 81>    C      -14.01653        12.78001        -2.40217
| 82>    C      -14.97610        11.76793        -2.68943
| 83>    C      -15.34880        11.68682        -3.99142
| 84>    C      -14.70771        12.63103        -4.83218
| 85>    S      -13.60201        13.61467        -3.89129
| 86>    C      -14.88099        12.81839        -6.18193
| 87>    C      -15.75020        12.09631        -7.04889
| 88>    C      -15.71926        12.50601        -8.33535
| 89>    C      -14.81613        13.59213        -8.59100
| 90>    S      -14.01455        14.04823        -7.07910
| 91>    C      -14.57635        14.20218        -9.75930
| 92>    H       -5.29229         0.16482        -4.37210
| 93>    H       -5.00051        -4.35460        -2.23011
| 94>    H       -4.93379        -1.23261        -6.77532
| 95>    H       -5.64095        -0.56941         1.87657
| 96>    H       -7.42301         5.79478        -0.57350
| 97>    H       -8.25578         7.89711         3.84081
| 98>    H       -7.65032         5.51767         3.69218
| 99>    H       -6.10473         9.42920        -0.51898
|100>    H       -6.92915         9.75483        -2.04270
|101>    H       -5.64330         7.11284        -1.21210
|102>    H       -6.55424         7.34642        -2.71130
|103>    H       -5.06828         8.24521        -2.42929
|104>    H       -8.72814         7.21654        -2.18013
|105>    H       -9.19116         8.89408        -2.47629
|106>    H      -10.40065         7.05891        -0.35142
|107>    H      -11.15008         7.49753        -1.88516
|108>    H      -10.88775         8.73092        -0.64643
|109>    H       -8.94621        11.24452        -1.43142
|110>    H       -9.57747        12.57249         2.59242
|111>    H       -8.93312        10.37156         3.45325
|112>    H       -9.81388        13.37431        -1.09524
|113>    H       -9.62730        14.52149         1.72871
|114>    H       -9.03040        18.97166         0.36417
|115>    H      -10.48586        19.25350        -1.64123
|116>    H      -11.77773        17.33851        -2.47887
|117>    H      -12.25928        15.04990        -2.53253
|118>    H      -12.33749        13.97624         0.32501
|119>    H      -13.91717        12.40415        -0.36940
|120>    H      -15.35863        11.13347        -1.90923
|121>    H      -16.06348        10.98031        -4.37311
|122>    H      -16.36836        11.29666        -6.68134
|123>    H      -16.30532        12.08235        -9.13135
|124>    H      -15.08595        13.89272       -10.65464
|125>    H      -13.87444        15.01162        -9.84167
|126> *
|127>
|128>                          ****END OF INPUT****

CARTESIAN COORDINATES (ANGSTROEM)
---------------------------------
  C     -5.442970   -2.045370   -0.485760
  C     -5.449660   -3.047220    0.450700
  C     -5.214980   -4.406570    0.156290
  N     -5.021250   -5.525090   -0.016020
  C     -5.688670   -2.877980    1.830710
  N     -5.887940   -2.836020    2.960960
  C     -5.266280   -2.229370   -1.921550
  C     -5.341830   -0.965970   -2.557190
  C     -5.229410   -0.811290   -3.917300
  C     -5.039700   -1.960810   -4.690830
  C     -4.960350   -3.218930   -4.047410
  C     -5.069700   -3.374450   -2.671350
  S     -4.713600   -4.505420   -5.188600
  C     -4.722290   -3.352100   -6.496100
  C     -4.900740   -2.069190   -6.101540
  Br    -4.489790   -3.950520   -8.257200
  C     -5.530400    0.083900   -1.539810
  O     -5.447260    1.281140   -1.726500
  C     -5.677150   -0.634480   -0.246420
  C     -5.873840   -0.036090    0.964190
  C     -6.372910    1.280550    1.150880
  C     -7.278440    1.892130    0.255530
  C     -7.660120    3.276160    0.394270
  N     -8.456300    3.825920   -0.535000
  C     -8.860790    3.112740   -1.555630
  C     -8.582610    1.709140   -1.616390
  N     -7.832600    1.143160   -0.706100
  C     -9.130640    0.906290   -2.645940
  N     -9.548060    0.284720   -3.513330
  C     -9.627870    3.747200   -2.562820
  N    -10.230050    4.253770   -3.395760
  C     -7.232680    4.073080    1.483460
  C     -6.476680    3.403140    2.467260
  C     -6.042580    2.034190    2.294680
  N     -5.270460    1.623800    3.299390
  S     -5.117240    2.817510    4.360990
  N     -5.995480    3.921990    3.602060
  C     -7.519060    5.491320    1.553150
  C     -7.608170    6.259380    0.379870
  C     -7.919860    7.592330    0.462080
  C     -8.176230    8.188350    1.711520
  C     -8.063800    7.444030    2.879860
  C     -7.723670    6.111390    2.795610
  C     -8.566350    9.561440    1.495760
  C     -8.568370    9.812620    0.112170
  C     -8.085440    8.598720   -0.652810
  C     -6.731300    8.982540   -1.295930
  C     -5.959450    7.844580   -1.950420
  C     -9.098840    8.125600   -1.706000
  C    -10.470590    7.837690   -1.107520
  C     -8.935670   11.044720   -0.369370
  C     -9.298180   12.065280    0.523100
  C     -9.288350   11.797940    1.899200
  C     -8.929950   10.560270    2.390080
  C     -9.675500   13.350860   -0.021230
  C     -9.846940   14.487020    0.670040
  C    -10.167810   15.771410    0.065860
  C     -9.490500   16.899290    0.535350
  F     -8.659330   16.756380    1.593280
  C     -9.592720   18.146890   -0.043140
  C    -10.406740   18.293120   -1.156010
  C    -11.120980   17.213550   -1.630720
  C    -11.055360   15.956440   -1.016930
  C    -11.970570   14.944150   -1.496190
  C    -12.576690   14.005600   -0.729770
  C    -13.522400   13.041110   -1.151640
  C    -14.016530   12.780010   -2.402170
  C    -14.976100   11.767930   -2.689430
  C    -15.348800   11.686820   -3.991420
  C    -14.707710   12.631030   -4.832180
  S    -13.602010   13.614670   -3.891290
  C    -14.880990   12.818390   -6.181930
  C    -15.750200   12.096310   -7.048890
  C    -15.719260   12.506010   -8.335350
  C    -14.816130   13.592130   -8.591000
  S    -14.014550   14.048230   -7.079100
  C    -14.576350   14.202180   -9.759300
  H     -5.292290    0.164820   -4.372100
  H     -5.000510   -4.354600   -2.230110
  H     -4.933790   -1.232610   -6.775320
  H     -5.640950   -0.569410    1.876570
  H     -7.423010    5.794780   -0.573500
  H     -8.255780    7.897110    3.840810
  H     -7.650320    5.517670    3.692180
  H     -6.104730    9.429200   -0.518980
  H     -6.929150    9.754830   -2.042700
  H     -5.643300    7.112840   -1.212100
  H     -6.554240    7.346420   -2.711300
  H     -5.068280    8.245210   -2.429290
  H     -8.728140    7.216540   -2.180130
  H     -9.191160    8.894080   -2.476290
  H    -10.400650    7.058910   -0.351420
  H    -11.150080    7.497530   -1.885160
  H    -10.887750    8.730920   -0.646430
  H     -8.946210   11.244520   -1.431420
  H     -9.577470   12.572490    2.592420
  H     -8.933120   10.371560    3.453250
  H     -9.813880   13.374310   -1.095240
  H     -9.627300   14.521490    1.728710
  H     -9.030400   18.971660    0.364170
  H    -10.485860   19.253500   -1.641230
  H    -11.777730   17.338510   -2.478870
  H    -12.259280   15.049900   -2.532530
  H    -12.337490   13.976240    0.325010
  H    -13.917170   12.404150   -0.369400
  H    -15.358630   11.133470   -1.909230
  H    -16.063480   10.980310   -4.373110
  H    -16.368360   11.296660   -6.681340
  H    -16.305320   12.082350   -9.131350
  H    -15.085950   13.892720  -10.654640
  H    -13.874440   15.011620   -9.841670

 Total Charge           Charge          ....    0
 Multiplicity           Mult            ....    1
 Number of Electrons    NEL             ....  578
 Basis Dimension        Dim             .... 1282

ORBITAL ENERGIES
----------------

  NO   OCC          E(Eh)            E(eV)
   0   2.0000    -482.884752    -13139.9621
   1   2.0000     -89.052748     -2423.2485
   2   2.0000     -88.975344     -2421.1422
   3   2.0000     -88.942439     -2420.2468
   4   2.0000     -88.936988     -2420.0985
   5   2.0000     -62.562488     -1702.4118
   6   2.0000     -56.396439     -1534.6251
   7   2.0000     -56.393718     -1534.5511
   8   2.0000     -56.393689     -1534.5503
   9   2.0000     -24.771968      -674.0795
  10   2.0000     -19.218532      -522.9628
  11   2.0000     -14.465713      -393.6321
  12   2.0000     -14.463414      -393.5695
  13   2.0000     -14.461900      -393.5283
  14   2.0000     -14.457074      -393.3970
  15   2.0000     -14.435390      -392.8069
  16   2.0000     -14.433346      -392.7513
  17   2.0000     -14.416180      -392.2842
  18   2.0000     -14.416083      -392.2816
  19   2.0000     -10.386592      -282.6335
  20   2.0000     -10.383155      -282.5400
  21   2.0000     -10.370707      -282.2013
  22   2.0000     -10.358575      -281.8712
  23   2.0000     -10.355721      -281.7935
  24   2.0000     -10.352398      -281.7031
  25   2.0000     -10.349777      -281.6318
  26   2.0000     -10.349363      -281.6205
  27   2.0000     -10.347653      -281.5740
  28   2.0000     -10.344179      -281.4794
  29   2.0000     -10.342255      -281.4271
  30   2.0000     -10.333610      -281.1918
  31   2.0000     -10.328307      -281.0475
  32   2.0000     -10.327038      -281.0130
  33   2.0000     -10.325872      -280.9813
  34   2.0000     -10.318704      -280.7862
  35   2.0000     -10.318503      -280.7807
  36   2.0000     -10.317496      -280.7534
  37   2.0000     -10.314216      -280.6641
  38   2.0000     -10.308971      -280.5214
  39   2.0000     -10.308897      -280.5194
  40   2.0000     -10.307727      -280.4875
  41   2.0000     -10.305633      -280.4305
  42   2.0000     -10.305361      -280.4231
  43   2.0000     -10.305106      -280.4162
  44   2.0000     -10.304204      -280.3917
  45   2.0000     -10.302332      -280.3407
  46   2.0000     -10.301505      -280.3182
  47   2.0000     -10.295999      -280.1684
  48   2.0000     -10.293662      -280.1048
  49   2.0000     -10.292942      -280.0852
  50   2.0000     -10.288243      -279.9573
  51   2.0000     -10.283821      -279.8370
  52   2.0000     -10.282645      -279.8050
  53   2.0000     -10.282341      -279.7967
  54   2.0000     -10.281906      -279.7849
  55   2.0000     -10.280031      -279.7339
  56   2.0000     -10.280016      -279.7334
  57   2.0000     -10.279800      -279.7276
  58   2.0000     -10.279454      -279.7182
  59   2.0000     -10.278692      -279.6974
  60   2.0000     -10.278394      -279.6893
  61   2.0000     -10.276176      -279.6290
  62   2.0000     -10.274203      -279.5753
  63   2.0000     -10.272975      -279.5419
  64   2.0000     -10.272062      -279.5170
  65   2.0000     -10.271545      -279.5029
  66   2.0000     -10.271398      -279.4990
  67   2.0000     -10.270592      -279.4770
  68   2.0000     -10.270132      -279.4645
  69   2.0000     -10.269601      -279.4501
  70   2.0000     -10.269250      -279.4405
  71   2.0000     -10.269019      -279.4342
  72   2.0000     -10.268158      -279.4108
  73   2.0000     -10.267729      -279.3991
  74   2.0000     -10.267120      -279.3825
  75   2.0000     -10.266452      -279.3644
  76   2.0000     -10.265505      -279.3386
  77   2.0000     -10.264055      -279.2991
  78   2.0000     -10.259957      -279.1876
  79   2.0000     -10.252014      -278.9715
  80   2.0000     -10.242650      -278.7167
  81   2.0000      -8.791936      -239.2407
  82   2.0000      -8.143872      -221.6060
  83   2.0000      -8.071263      -219.6302
  84   2.0000      -8.038050      -218.7265
  85   2.0000      -8.033765      -218.6099
  86   2.0000      -6.628251      -180.3639
  87   2.0000      -6.613664      -179.9669
  88   2.0000      -6.613464      -179.9615
  89   2.0000      -6.114832      -166.3930
  90   2.0000      -6.107051      -166.1813
  91   2.0000      -6.106929      -166.1780
  92   2.0000      -6.040950      -164.3826
  93   2.0000      -6.036675      -164.2663
  94   2.0000      -6.032517      -164.1531
  95   2.0000      -6.007833      -163.4814
  96   2.0000      -6.003772      -163.3709
  97   2.0000      -6.003621      -163.3668
  98   2.0000      -5.999650      -163.2588
  99   2.0000      -5.999017      -163.2416
 100   2.0000      -5.994264      -163.1122
 101   2.0000      -2.744116       -74.6712
 102   2.0000      -2.740031       -74.5600
 103   2.0000      -2.739878       -74.5559
 104   2.0000      -2.728282       -74.2403
 105   2.0000      -2.728272       -74.2400
 106   2.0000      -1.284617       -34.9562
 107   2.0000      -1.148609       -31.2553
 108   2.0000      -1.136084       -30.9144
 109   2.0000      -1.123168       -30.5630
 110   2.0000      -1.051299       -28.6073
 111   2.0000      -1.023464       -27.8499
 112   2.0000      -1.018402       -27.7121
 113   2.0000      -1.013738       -27.5852
 114   2.0000      -1.008918       -27.4541
 115   2.0000      -1.002980       -27.2925
 116   2.0000      -0.994449       -27.0603
 117   2.0000      -0.993102       -27.0237
 118   2.0000      -0.990219       -26.9452
 119   2.0000      -0.989582       -26.9279
 120   2.0000      -0.983600       -26.7651
 121   2.0000      -0.966813       -26.3083
 122   2.0000      -0.959538       -26.1104
 123   2.0000      -0.948779       -25.8176
 124   2.0000      -0.942641       -25.6506
 125   2.0000      -0.924040       -25.1444
 126   2.0000      -0.913691       -24.8628
 127   2.0000      -0.909005       -24.7353
 128   2.0000      -0.908102       -24.7107
 129   2.0000      -0.900327       -24.4992
 130   2.0000      -0.891747       -24.2657
 131   2.0000      -0.886035       -24.1102
 132   2.0000      -0.883823       -24.0500
 133   2.0000      -0.873865       -23.7791
 134   2.0000      -0.866618       -23.5819
 135   2.0000      -0.851445       -23.1690
 136   2.0000      -0.847078       -23.0502
 137   2.0000      -0.842117       -22.9152
 138   2.0000      -0.837556       -22.7910
 139   2.0000      -0.836418       -22.7601
 140   2.0000      -0.834020       -22.6948
 141   2.0000      -0.832692       -22.6587
 142   2.0000      -0.829188       -22.5634
 143   2.0000      -0.826400       -22.4875
 144   2.0000      -0.819581       -22.3019
 145   2.0000      -0.809690       -22.0328
 146   2.0000      -0.806901       -21.9569
 147   2.0000      -0.793717       -21.5981
 148   2.0000      -0.774243       -21.0682
 149   2.0000      -0.769280       -20.9332
 150   2.0000      -0.765135       -20.8204
 151   2.0000      -0.759918       -20.6784
 152   2.0000      -0.745676       -20.2909
 153   2.0000      -0.737944       -20.0805
 154   2.0000      -0.728288       -19.8177
 155   2.0000      -0.719475       -19.5779
 156   2.0000      -0.711827       -19.3698
 157   2.0000      -0.708055       -19.2671
 158   2.0000      -0.702166       -19.1069
 159   2.0000      -0.694700       -18.9038
 160   2.0000      -0.689676       -18.7670
 161   2.0000      -0.689193       -18.7539
 162   2.0000      -0.689068       -18.7505
 163   2.0000      -0.682855       -18.5814
 164   2.0000      -0.680238       -18.5102
 165   2.0000      -0.673420       -18.3247
 166   2.0000      -0.667244       -18.1566
 167   2.0000      -0.661488       -18.0000
 168   2.0000      -0.658265       -17.9123
 169   2.0000      -0.655920       -17.8485
 170   2.0000      -0.653193       -17.7743
 171   2.0000      -0.640530       -17.4297
 172   2.0000      -0.633636       -17.2421
 173   2.0000      -0.628545       -17.1036
 174   2.0000      -0.624387       -16.9904
 175   2.0000      -0.621351       -16.9078
 176   2.0000      -0.618682       -16.8352
 177   2.0000      -0.613441       -16.6926
 178   2.0000      -0.609853       -16.5950
 179   2.0000      -0.598827       -16.2949
 180   2.0000      -0.597949       -16.2710
 181   2.0000      -0.595489       -16.2041
 182   2.0000      -0.595110       -16.1938
 183   2.0000      -0.590983       -16.0815
 184   2.0000      -0.586494       -15.9593
 185   2.0000      -0.581276       -15.8173
 186   2.0000      -0.572462       -15.5775
 187   2.0000      -0.571731       -15.5576
 188   2.0000      -0.564707       -15.3665
 189   2.0000      -0.563863       -15.3435
 190   2.0000      -0.557358       -15.1665
 191   2.0000      -0.549842       -14.9620
 192   2.0000      -0.548747       -14.9322
 193   2.0000      -0.543650       -14.7935
 194   2.0000      -0.542698       -14.7676
 195   2.0000      -0.541560       -14.7366
 196   2.0000      -0.541069       -14.7232
 197   2.0000      -0.539722       -14.6866
 198   2.0000      -0.539259       -14.6740
 199   2.0000      -0.535809       -14.5801
 200   2.0000      -0.530945       -14.4477
 201   2.0000      -0.523833       -14.2542
 202   2.0000      -0.522404       -14.2153
 203   2.0000      -0.520827       -14.1724
 204   2.0000      -0.518398       -14.1063
 205   2.0000      -0.517467       -14.0810
 206   2.0000      -0.515865       -14.0374
 207   2.0000      -0.513172       -13.9641
 208   2.0000      -0.510254       -13.8847
 209   2.0000      -0.509321       -13.8593
 210   2.0000      -0.508445       -13.8355
 211   2.0000      -0.501609       -13.6495
 212   2.0000      -0.498832       -13.5739
 213   2.0000      -0.497224       -13.5301
 214   2.0000      -0.493996       -13.4423
 215   2.0000      -0.492288       -13.3959
 216   2.0000      -0.491295       -13.3688
 217   2.0000      -0.489638       -13.3237
 218   2.0000      -0.487042       -13.2531
 219   2.0000      -0.485422       -13.2090
 220   2.0000      -0.483784       -13.1644
 221   2.0000      -0.481224       -13.0948
 222   2.0000      -0.479321       -13.0430
 223   2.0000      -0.475119       -12.9286
 224   2.0000      -0.471896       -12.8409
 225   2.0000      -0.471168       -12.8211
 226   2.0000      -0.463273       -12.6063
 227   2.0000      -0.460768       -12.5381
 228   2.0000      -0.460331       -12.5262
 229   2.0000      -0.458661       -12.4808
 230   2.0000      -0.458395       -12.4736
 231   2.0000      -0.458258       -12.4698
 232   2.0000      -0.454680       -12.3725
 233   2.0000      -0.453724       -12.3465
 234   2.0000      -0.451674       -12.2907
 235   2.0000      -0.449952       -12.2438
 236   2.0000      -0.449139       -12.2217
 237   2.0000      -0.447207       -12.1691
 238   2.0000      -0.446846       -12.1593
 239   2.0000      -0.444253       -12.0887
 240   2.0000      -0.442997       -12.0546
 241   2.0000      -0.441804       -12.0221
 242   2.0000      -0.441634       -12.0175
 243   2.0000      -0.439095       -11.9484
 244   2.0000      -0.437655       -11.9092
 245   2.0000      -0.436224       -11.8703
 246   2.0000      -0.431940       -11.7537
 247   2.0000      -0.428450       -11.6587
 248   2.0000      -0.427353       -11.6289
 249   2.0000      -0.425636       -11.5821
 250   2.0000      -0.424765       -11.5584
 251   2.0000      -0.422432       -11.4950
 252   2.0000      -0.421498       -11.4695
 253   2.0000      -0.421152       -11.4601
 254   2.0000      -0.418603       -11.3908
 255   2.0000      -0.415826       -11.3152
 256   2.0000      -0.412449       -11.2233
 257   2.0000      -0.412245       -11.2178
 258   2.0000      -0.410902       -11.1812
 259   2.0000      -0.408007       -11.1024
 260   2.0000      -0.406965       -11.0741
 261   2.0000      -0.400806       -10.9065
 262   2.0000      -0.395105       -10.7513
 263   2.0000      -0.391256       -10.6466
 264   2.0000      -0.389968       -10.6116
 265   2.0000      -0.387194       -10.5361
 266   2.0000      -0.384323       -10.4580
 267   2.0000      -0.382993       -10.4218
 268   2.0000      -0.378309       -10.2943
 269   2.0000      -0.374678       -10.1955
 270   2.0000      -0.374059       -10.1787
 271   2.0000      -0.365142        -9.9360
 272   2.0000      -0.362500        -9.8641
 273   2.0000      -0.354288        -9.6407
 274   2.0000      -0.352129        -9.5819
 275   2.0000      -0.340015        -9.2523
 276   2.0000      -0.338462        -9.2100
 277   2.0000      -0.335781        -9.1371
 278   2.0000      -0.328908        -8.9501
 279   2.0000      -0.323555        -8.8044
 280   2.0000      -0.317425        -8.6376
 281   2.0000      -0.315853        -8.5948
 282   2.0000      -0.315241        -8.5781
 283   2.0000      -0.310231        -8.4418
 284   2.0000      -0.294008        -8.0004
 285   2.0000      -0.288110        -7.8399
 286   2.0000      -0.276426        -7.5219
 287   2.0000      -0.252550        -6.8722
 288   2.0000      -0.215327        -5.8594
 289   0.0000      -0.131220        -3.5707
 290   0.0000      -0.083531        -2.2730
 291   0.0000      -0.067211        -1.8289
 292   0.0000      -0.060387        -1.6432
 293   0.0000      -0.051173        -1.3925

MULLIKEN ATOMIC CHARGES
-----------------------
   0 C :    0.305258
   1 C :   -0.343893
   2 C :   -0.185617
   3 N :    0.152151
   4 C :   -0.192578
   5 N :    0.160903
   6 C :    0.025628
   7 C :   -0.015192
   8 C :   -0.064017
   9 C :    0.117900
  10 C :   -0.089875
  11 C :   -0.023306
  12 S :    0.188829
  13 C :   -0.123025
  14 C :    0.041538
  15 Br:    0.026201
  16 C :    0.148879
  17 O :   -0.167446
  18 C :   -0.047985
  19 C :   -0.074390
  20 C :    0.086350
  21 C :   -0.029151
  22 C :   -0.056248
  23 N :    0.038943
  24 C :   -0.131061
  25 C :   -0.107189
  26 N :    0.035003
  27 C :   -0.213759
  28 N :    0.239627
  29 C :   -0.203389
  30 N :    0.230181
  31 C :    0.122689
  32 C :    0.007595
  33 C :    0.002637
  34 N :   -0.268843
  35 S :    0.558326
  36 N :   -0.277808
  37 C :   -0.002161
  38 C :   -0.042766
  39 C :   -0.003305
  40 C :    0.121953
  41 C :   -0.063360
  42 C :    0.027406
  43 C :    0.099034
  44 C :    0.027393
  45 C :   -0.130863
  46 C :    0.075628
  47 C :    0.031861
  48 C :    0.049460
  49 C :    0.024258
  50 C :   -0.110042
  51 C :    0.108535
  52 C :   -0.011428
  53 C :   -0.043401
  54 C :    0.032320
  55 C :   -0.040201
  56 C :   -0.013548
  57 C :    0.237753
  58 F :   -0.198496
  59 C :   -0.044832
  60 C :    0.035141
  61 C :   -0.018667
  62 C :    0.071582
  63 C :   -0.071135
  64 C :    0.058158
  65 C :   -0.031474
  66 C :   -0.014952
  67 C :    0.035875
  68 C :    0.027671
  69 C :   -0.038518
  70 S :    0.050362
  71 C :   -0.062691
  72 C :    0.029438
  73 C :    0.054661
  74 C :   -0.064501
  75 S :    0.079001
  76 C :   -0.028916
  77 H :   -0.011683
  78 H :   -0.005525
  79 H :   -0.001057
  80 H :    0.039788
  81 H :   -0.025447
  82 H :   -0.032663
  83 H :   -0.013680
  84 H :    0.004534
  85 H :    0.000007
  86 H :    0.017574
  87 H :    0.007063
  88 H :    0.012957
  89 H :    0.011697
  90 H :    0.002257
  91 H :    0.017984
  92 H :    0.018167
  93 H :    0.016722
  94 H :   -0.035819
  95 H :   -0.027596
  96 H :   -0.035354
  97 H :   -0.004316
  98 H :    0.000217
  99 H :   -0.010641
 100 H :   -0.009378
 101 H :   -0.021379
 102 H :    0.002198
 103 H :   -0.006912
 104 H :   -0.017631
 105 H :   -0.013422
 106 H :   -0.015057
 107 H :   -0.010519
 108 H :   -0.011025
 109 H :    0.019618
 110 H :    0.022221
Sum of atomic charges:   -0.0000000

LOEWDIN ATOMIC CHARGES
----------------------
   0 C :    0.074446
   1 C :   -0.133359
   2 C :   -0.017456
   3 N :   -0.050507
   4 C :   -0.022214
   5 N :   -0.045806
   6 C :   -0.019073
   7 C :   -0.049141
   8 C :    0.025075
   9 C :   -0.029791
  10 C :   -0.141536
  11 C :   -0.008899
  12 S :    0.434655
  13 C :   -0.270268
  14 C :   -0.068732
  15 Br:    0.139009
  16 C :    0.085006
  17 O :   -0.158491
  18 C :   -0.069165
  19 C :    0.075300
  20 C :   -0.046562
  21 C :    0.023810
  22 C :   -0.011998
  23 N :    0.015335
  24 C :   -0.032416
  25 C :   -0.016526
  26 N :    0.011004
  27 C :   -0.034638
  28 N :   -0.003934
  29 C :   -0.035286
  30 N :   -0.010859
  31 C :    0.030549
  32 C :   -0.047821
  33 C :   -0.029979
  34 N :   -0.282663
  35 S :    0.692626
  36 N :   -0.270348
  37 C :   -0.033294
  38 C :    0.008872
  39 C :   -0.003739
  40 C :    0.009981
  41 C :   -0.026977
  42 C :    0.008157
  43 C :   -0.027122
  44 C :    0.012148
  45 C :   -0.034680
  46 C :   -0.009046
  47 C :   -0.059054
  48 C :   -0.013978
  49 C :   -0.056487
  50 C :   -0.020196
  51 C :   -0.014674
  52 C :   -0.016391
  53 C :   -0.012452
  54 C :   -0.005044
  55 C :   -0.020247
  56 C :   -0.053623
  57 C :    0.095038
  58 F :   -0.074496
  59 C :   -0.055079
  60 C :   -0.012882
  61 C :   -0.026861
  62 C :   -0.008495
  63 C :   -0.036296
  64 C :   -0.023467
  65 C :   -0.067075
  66 C :   -0.139822
  67 C :   -0.030480
  68 C :   -0.037393
  69 C :   -0.182574
  70 S :    0.378381
  71 C :   -0.174547
  72 C :   -0.025835
  73 C :   -0.029551
  74 C :   -0.139390
  75 S :    0.350182
  76 C :   -0.075613
  77 H :    0.040807
  78 H :    0.041286
  79 H :    0.039755
  80 H :    0.049163
  81 H :    0.024421
  82 H :    0.028212
  83 H :    0.027962
  84 H :    0.026176
  85 H :    0.021461
  86 H :    0.022784
  87 H :    0.021423
  88 H :    0.028234
  89 H :    0.021682
  90 H :    0.021905
  91 H :    0.024040
  92 H :    0.027816
  93 H :    0.023250
  94 H :    0.026079
  95 H :    0.026156
  96 H :    0.027081
  97 H :    0.030753
  98 H :    0.026206
  99 H :    0.036066
 100 H :    0.031270
 101 H :    0.028969
 102 H :    0.010918
 103 H :    0.031546
 104 H :    0.033420
 105 H :    0.033182
 106 H :    0.031038
 107 H :    0.032877
 108 H :    0.033716
 109 H :    0.028725
 110 H :    0.026373

  Mayer bond orders larger than 0.100000
B(  0-C ,  1-C ) :   1.6354 B(  0-C ,  6-C ) :   1.0067 B(  0-C , 18-C ) :   1.0748
B(  1-C ,  2-C ) :   1.1418 B(  1-C ,  4-C ) :   1.1438 B(  2-C ,  3-N ) :   2.9681
B(  4-C ,  5-N ) :   2.9721 B(  6-C ,  7-C ) :   1.2708 B(  6-C , 11-C ) :   1.4038
B(  7-C ,  8-C ) :   1.4187 B(  7-C , 16-C ) :   0.9470 B(  8-C ,  9-C ) :   1.2500
B(  8-C , 77-H ) :   1.0165 B(  9-C , 10-C ) :   1.3019 B(  9-C , 14-C ) :   1.1633
B( 10-C , 11-C ) :   1.3341 B( 10-C , 12-S ) :   1.0876 B( 11-C , 78-H ) :   0.9800
B( 12-S , 13-C ) :   1.0858 B( 13-C , 14-C ) :   1.6183 B( 13-C , 15-Br) :   1.0205
B( 14-C , 79-H ) :   1.0004 B( 16-C , 17-O ) :   2.2017 B( 16-C , 18-C ) :   0.9320
B( 18-C , 19-C ) :   1.5991 B( 19-C , 20-C ) :   1.1707 B( 19-C , 80-H ) :   0.9326
B( 20-C , 21-C ) :   1.2632 B( 20-C , 31-C ) :   0.1269 B( 20-C , 33-C ) :   1.1898
B( 21-C , 22-C ) :   1.1101 B( 21-C , 26-N ) :   1.4131 B( 22-C , 23-N ) :   1.4246
B( 22-C , 31-C ) :   1.2617 B( 23-N , 24-C ) :   1.7268 B( 24-C , 25-C ) :   1.1948
B( 24-C , 29-C ) :   1.1593 B( 25-C , 26-N ) :   1.7086 B( 25-C , 27-C ) :   1.1606
B( 27-C , 28-N ) :   3.0438 B( 29-C , 30-N ) :   3.0245 B( 31-C , 32-C ) :   1.2340
B( 31-C , 37-C ) :   1.0613 B( 32-C , 33-C ) :   1.1044 B( 32-C , 36-N ) :   1.4887
B( 33-C , 34-N ) :   1.5404 B( 34-N , 35-S ) :   1.2773 B( 34-N , 36-N ) :   0.1541
B( 35-S , 36-N ) :   1.3053 B( 37-C , 38-C ) :   1.2812 B( 37-C , 42-C ) :   1.3334
B( 38-C , 39-C ) :   1.4331 B( 38-C , 81-H ) :   0.9805 B( 39-C , 40-C ) :   1.3652
B( 39-C , 45-C ) :   0.9123 B( 40-C , 41-C ) :   1.3213 B( 40-C , 43-C ) :   1.0044
B( 41-C , 42-C ) :   1.3934 B( 41-C , 82-H ) :   0.9940 B( 42-C , 83-H ) :   0.9812
B( 43-C , 44-C ) :   1.3749 B( 43-C , 53-C ) :   1.3177 B( 44-C , 45-C ) :   0.9242
B( 44-C , 50-C ) :   1.3728 B( 45-C , 46-C ) :   1.0155 B( 45-C , 48-C ) :   1.0311
B( 46-C , 47-C ) :   1.1175 B( 46-C , 84-H ) :   0.9388 B( 46-C , 85-H ) :   0.9374
B( 47-C , 86-H ) :   0.9599 B( 47-C , 87-H ) :   0.9630 B( 47-C , 88-H ) :   0.9583
B( 48-C , 49-C ) :   1.1077 B( 48-C , 89-H ) :   0.9372 B( 48-C , 90-H ) :   0.9396
B( 49-C , 91-H ) :   0.9633 B( 49-C , 92-H ) :   0.9636 B( 49-C , 93-H ) :   0.9631
B( 50-C , 51-C ) :   1.2960 B( 50-C , 94-H ) :   1.0130 B( 51-C , 52-C ) :   1.3451
B( 51-C , 54-C ) :   1.0762 B( 52-C , 53-C ) :   1.4034 B( 52-C , 95-H ) :   0.9826
B( 53-C , 96-H ) :   0.9912 B( 54-C , 55-C ) :   1.7676 B( 54-C , 97-H ) :   0.9740
B( 55-C , 56-C ) :   1.0268 B( 55-C , 98-H ) :   0.9542 B( 56-C , 57-C ) :   1.3351
B( 56-C , 62-C ) :   1.3275 B( 57-C , 58-F ) :   1.1005 B( 57-C , 59-C ) :   1.3871
B( 59-C , 60-C ) :   1.3311 B( 59-C , 99-H ) :   0.9960 B( 60-C , 61-C ) :   1.3866
B( 60-C ,100-H ) :   0.9915 B( 61-C , 62-C ) :   1.3529 B( 61-C ,101-H ) :   0.9965
B( 62-C , 63-C ) :   1.0787 B( 63-C , 64-C ) :   1.6850 B( 63-C ,102-H ) :   0.9433
B( 64-C , 65-C ) :   1.1980 B( 64-C ,103-H ) :   0.9554 B( 65-C , 66-C ) :   1.5961
B( 65-C ,104-H ) :   0.9618 B( 66-C , 67-C ) :   1.1318 B( 66-C , 70-S ) :   1.0377
B( 67-C , 68-C ) :   1.6134 B( 67-C ,105-H ) :   0.9987 B( 68-C , 69-C ) :   1.1649
B( 68-C ,106-H ) :   0.9925 B( 69-C , 70-S ) :   1.0259 B( 69-C , 71-C ) :   1.5625
B( 71-C , 72-C ) :   1.1478 B( 71-C , 75-S ) :   1.0447 B( 72-C , 73-C ) :   1.6648
B( 72-C ,107-H ) :   0.9925 B( 73-C , 74-C ) :   1.0771 B( 73-C ,108-H ) :   0.9933
B( 74-C , 75-S ) :   1.0070 B( 74-C , 76-C ) :   1.8666 B( 76-C ,109-H ) :   0.9504
B( 76-C ,110-H ) :   0.9422

-----------------------------------------------------------------------------
         ABSORPTION SPECTRUM VIA TRANSITION ELECTRIC DIPOLE MOMENTS
-----------------------------------------------------------------------------
State   Energy  Wavelength   fosc         T2         TX        TY        TZ
        (cm-1)    (nm)                  (au**2)     (au)      (au)      (au)
-----------------------------------------------------------------------------
   0   10072.7    992.8   0.154254109   5.04158  -0.83166   2.07249  -0.23391
   1   12701.0    787.3   0.565129474  14.64828  -1.02679   3.66161   0.43198
   2   18263.6    547.5   0.896337017  16.15695  -1.62549  -0.47042  -3.64602
   3   18771.6    532.7   0.173492367   3.04268   0.93123   0.20906   1.46006
   4   21410.5    467.1   0.098425715   1.51341  -0.40668   0.79554   0.84566
   5   21718.3    460.4   0.047705956   0.72314  -0.30047   0.76827  -0.20644
   6   22296.2    448.5   0.008470364   0.12507  -0.14222  -0.25090   0.20467
   7   22855.2    437.5   0.119713886   1.72439  -0.54269   1.19534   0.03222
   8   23264.1    429.8   0.116674900   1.65107  -0.27322   1.16577   0.46626
   9   24585.6    406.7   0.079673299   1.06686  -0.18306   0.36346   0.94934
  10   25021.8    399.7   0.005877224   0.07733   0.02151  -0.26185   0.09111
  11   25076.3    398.8   0.028849480   0.37875   0.00502   0.29784   0.53853
  12   25863.5    386.6   0.005173985   0.06586  -0.16441   0.10896  -0.16419
  13   26298.3    380.3   0.142344066   1.78191   0.38800  -1.05074  -0.72616
  14   26485.4    377.6   0.118511842   1.47309   0.47885  -0.67828  -0.88529
  15   27262.0    366.8   0.017449628   0.21072  -0.27528   0.32417   0.17278
  16   27506.3    363.6   0.015254209   0.18257   0.00775  -0.15878   0.39661
  17   27706.3    360.9   0.067929017   0.80715   0.19591  -0.85398   0.19872
  18   28104.2    355.8   0.008077440   0.09462  -0.26907  -0.06303   0.13508
  19   28597.0    349.7   0.071325401   0.82111  -0.48556   0.73043   0.22762
  20   29352.0    340.7   0.074939672   0.84052  -0.01909  -0.15034  -0.90419
  21   29697.5    336.7   0.034835471   0.38617   0.50753   0.34983   0.07873
  22   29816.7    335.4   0.003539948   0.03909  -0.19041  -0.04250   0.03199
  23   30031.1    333.0   0.375812986   4.11980   0.34486  -0.27760  -1.98086
  24   30559.0    327.2   0.004205910   0.04531  -0.17611  -0.04316  -0.11150
  25   31105.1    321.5   0.014804094   0.15668  -0.26866  -0.16593  -0.23869
  26   31295.2    319.5   0.082411396   0.86693   0.42370   0.63062   0.53826
  27   31467.2    317.8   0.010809053   0.11308   0.08113  -0.31901  -0.06880
  28   32017.2    312.3   0.377805226   3.88472  -0.82173  -1.30782  -1.22437
  29   32451.0    308.2   0.316981363   3.21574   0.21805  -1.64333  -0.68386
  30   32773.7    305.1   0.014564246   0.14630  -0.01263   0.37938   0.04698
  31   33363.5    299.7   0.419474829   4.13914  -1.04921  -1.68067   0.46221
  32   33509.7    298.4   0.144976684   1.42431  -0.13637  -0.86640   0.80936
  33   33939.4    294.6   0.460206808   4.46400  -0.83894   1.65098  -1.01707
  34   34223.0    292.2   0.815680154   7.84652  -0.21319   1.82726  -2.11239
  35   34329.8    291.3   0.031888206   0.30580  -0.16866  -0.42872  -0.30586
  36   34466.2    290.1   0.031858078   0.30430  -0.34797  -0.40318   0.14375
  37   35194.0    284.1   0.043972131   0.41132  -0.30303  -0.01058  -0.56514
  38   35344.5    282.9   0.179253399   1.66963  -0.65099   0.52534  -0.98482
  39   35451.8    282.1   0.005947260   0.05523   0.07245  -0.18009   0.13246
  40   35589.1    281.0   0.001318589   0.01220  -0.02416  -0.03923   0.10037
  41   35921.9    278.4   0.002779290   0.02547  -0.07944   0.05642  -0.12640
  42   35989.2    277.9   0.189193374   1.73065  -0.33185  -0.44914  -1.19114
  43   36255.7    275.8   0.034504401   0.31331   0.02852   0.52752  -0.18498
  44   36315.9    275.4   0.101223392   0.91761  -0.48252  -0.28311  -0.77758
  45   36906.0    271.0   0.008358508   0.07456  -0.25968   0.07994  -0.02712
  46   37392.6    267.4   0.003611523   0.03180   0.03172   0.09372  -0.14835
  47   37532.0    266.4   0.048155018   0.42239  -0.07991   0.39759   0.50786
  48   38027.6    263.0   0.053630914   0.46429  -0.41234  -0.51530   0.16952
  49   38061.2    262.7   0.070439411   0.60927  -0.25168  -0.63198  -0.38279
  50   38338.9    260.8   0.008995127   0.07724  -0.24376  -0.13034  -0.02882
  51   38555.5    259.4   0.072768914   0.62135  -0.17889  -0.58476  -0.49740
  52   38690.4    258.5   0.034754826   0.29572  -0.06165   0.37994   0.38414
  53   38862.9    257.3   0.004095674   0.03469  -0.07352  -0.05349  -0.16257
  54   39075.6    255.9   0.107724088   0.90758  -0.06333   0.51997  -0.79574
  55   39214.7    255.0   0.124287157   1.04340   0.17975  -0.88245   0.48206
  56   39329.7    254.3   0.045308254   0.37926  -0.03956   0.60676  -0.09764
  57   39434.6    253.6   0.008440403   0.07046  -0.00685   0.21470  -0.15595
  58   39858.7    250.9   0.058727596   0.48506   0.01406  -0.68929   0.09871
  59   39959.1    250.3   0.048287149   0.39782   0.33267  -0.52427  -0.11088
  60   40003.5    250.0   0.015374988   0.12653  -0.07442   0.19580  -0.28749
  61   40312.2    248.1   0.018650728   0.15231  -0.18631   0.13916   0.31342

FINAL SINGLE POINT ENERGY     -7158.438274482785

DIPOLE MOMENT
-------------
                                X             Y             Z
Electronic contribution:     80.36646    -203.30210     -54.61174
Nuclear contribution   :    -80.60212     205.70668      54.22969
                        -----------------------------------------
Total Dipole Moment    :     -0.23566       2.40458      -0.38206
                        -----------------------------------------
Magnitude (a.u.)       :      2.44612
Magnitude (Debye)      :      6.21754

Rotational constants in cm-1:     0.000934     0.000245     0.000206
Rotational constants in MHz :    27.995702     7.355653     6.184564

                             ****ORCA TERMINATED NORMALLY****
TOTAL RUN TIME: 0 days 0 hours 12 minutes 25 seconds 571 msec
