                         Program Version 4.2.0 -  RELEASE  -
|  1> # ORCA input file
|  2> # SCF done       -191.766841404797          0.000756133071
|  3> ! CAM-B3LYP def2-SVP def2/J RIJCOSX Grid4 TightSCF
|  4> %maxcore 5000
|  5> %tddft
|  6>     Mode sTDDFT
|  7>     Ethresh 5.0
|  8>     maxcore 5000
|  9> end
| 10>
| 11> %pal
| 12>   nprocs 6
| 13>   end
| 14> * xyz 0 1
| 15>    C       -5.66857         6.15146         5.49338
| 16>    C       -6.61037         5.27696         5.97859
| 17>    C       -7.09304         5.28512         7.30267
| 18>    N       -7.52025         5.23010         8.36711
| 19>    C       -7.23809         4.26443         5.22766
| 20>    N       -7.79410         3.43031         4.66529
| 21>    C       -5.07509         7.25087         6.24878
| 22>    C       -4.19662         7.96386         5.39829
| 23>    C       -3.48778         9.06251         5.81582
| 24>    C       -3.66093         9.48623         7.13811
| 25>    C       -4.54040         8.76832         7.98151
| 26>    C       -5.25248         7.65208         7.55964
| 27>    S       -4.60441         9.46001         9.57517
| 28>    C       -3.46527        10.68791         9.09120
| 29>    C       -3.05645        10.58732         7.80429
| 30>   Br       -2.92256        11.98707        10.33082
| 31>    C       -4.17737         7.32273         4.06762
| 32>    O       -3.43961         7.60669         3.14382
| 33>    C       -5.13784         6.20965         4.14964
| 34>    C       -5.38695         5.29648         3.15484
| 35>    N       -5.08374         5.41434         1.85558
| 36>    C       -4.87541         6.60501         1.14784
| 37>    C       -5.62497         7.73290         1.31138
| 38>    S       -5.14206         8.98200         0.25437
| 39>    C       -3.93108         7.98479        -0.44736
| 40>    C       -3.87948         6.74523         0.12407
| 41>    N       -3.04183         5.71148        -0.23810
| 42>    C       -1.76941         5.83163        -0.76999
| 43>    C       -1.01196         6.93493        -0.76075
| 44>    C        0.30414         7.05210        -1.35314
| 45>    C        0.74460         6.19245        -2.36954
| 46>    C        2.00410         6.34232        -2.90354
| 47>    C        2.84980         7.35876        -2.41758
| 48>    C        2.42182         8.22375        -1.42074
| 49>    C        1.15277         8.07008        -0.90411
| 50>    C        4.10522         7.30440        -3.12799
| 51>    C        4.04259         6.25705        -4.06076
| 52>    C        2.69612         5.55675        -3.99843
| 53>    C        2.98188         4.08967        -3.60839
| 54>    C        1.78651         3.20356        -3.28516
| 55>    C        2.03981         5.70508        -5.39184
| 56>    C        0.51826         5.65461        -5.46385
| 57>    C        5.10675         5.98823        -4.88308
| 58>    C        6.27904         6.76348        -4.78568
| 59>    C        6.32415         7.80505        -3.84285
| 60>    C        5.25342         8.08008        -3.02111
| 61>    C        7.36761         6.45085        -5.66578
| 62>    C        8.59977         7.02851        -5.67956
| 63>    C        9.66612         6.72554        -6.55219
| 64>    C        9.71600         5.86256        -7.62059
| 65>    C       10.86476         5.63469        -8.42143
| 66>    C       10.68806         4.74276        -9.43595
| 67>    C        9.38332         4.21115        -9.50154
| 68>    S        8.39079         4.88457        -8.22902
| 69>    C        8.86802         3.28388       -10.38757
| 70>    C        9.50465         2.60024       -11.44044
| 71>    C        8.69034         1.72648       -12.09847
| 72>    C        7.35974         1.66132       -11.61062
| 73>    S        7.19417         2.78196       -10.27496
| 74>    C        6.39770         0.85464       -12.17940
| 75>    C        5.04171         0.60097       -11.93377
| 76>    S        4.25712        -0.35308       -13.17490
| 77>    C        2.73333        -0.28988       -12.41167
| 78>    C        2.78180         0.41632       -11.22967
| 79>    C        4.09609         0.92260       -10.93098
| 80>    C        4.26610         1.59980        -9.72680
| 81>    C        3.20404         1.82841        -8.86194
| 82>    C        3.54522         2.55752        -7.70791
| 83>    N        3.92192         3.16522        -6.80685
| 84>    C        1.89555         1.34750        -9.17519
| 85>    O        0.78205         1.50146        -8.41258
| 86>    C        0.83199         2.21268        -7.20033
| 87>    C        1.71281         0.64808       -10.34250
| 88>    H       -2.82404         9.58226         5.14286
| 89>    H       -5.90719         7.13766         8.24281
| 90>    H       -2.35730        11.26011         7.34217
| 91>    H       -5.85559         4.35621         3.41756
| 92>    H       -5.17990         4.58026         1.29053
| 93>    H       -6.42330         7.89026         2.00849
| 94>    H       -3.33286         8.36833        -1.24676
| 95>    H       -3.26475         4.80700         0.14882
| 96>    H       -1.41003         4.90457        -1.19705
| 97>    H       -1.36688         7.80419        -0.22601
| 98>    H        0.07135         5.43696        -2.73861
| 99>    H        3.07049         9.00800        -1.05922
|100>    H        0.80359         8.73626        -0.12804
|101>    H        3.63956         4.10735        -2.73433
|102>    H        3.53748         3.64029        -4.43262
|103>    H        1.24500         3.57516        -2.41944
|104>    H        2.14207         2.20104        -3.05284
|105>    H        1.10763         3.12881        -4.12984
|106>    H        2.46549         4.93071        -6.03248
|107>    H        2.35201         6.67139        -5.79832
|108>    H        0.12084         4.71704        -5.08712
|109>    H        0.20793         5.75793        -6.50264
|110>    H        0.07785         6.47309        -4.89993
|111>    H        5.05864         5.18773        -5.60610
|112>    H        7.21336         8.41112        -3.76140
|113>    H        5.30621         8.88746        -2.30546
|114>    H        7.15611         5.65846        -6.36948
|115>    H        8.82272         7.79594        -4.95032
|116>    H       10.59264         7.25546        -6.36328
|117>    H       11.79250         6.14058        -8.21726
|118>    H       11.45454         4.45718       -10.13410
|119>    H       10.53942         2.76384       -11.68305
|120>    H        9.00689         1.11676       -12.92668
|121>    H        6.76866         0.31767       -13.04746
|122>    H        1.88650        -0.77007       -12.85816
|123>    H        5.23543         1.95603        -9.42818
|124>    H       -0.18545         2.18568        -6.81071
|125>    H        1.13048         3.25337        -7.35334
|126>    H        1.50724         1.74187        -6.47987
|127>    H        0.73018         0.26995       -10.57420
|128> *
|129>
|130>                          ****END OF INPUT****

CARTESIAN COORDINATES (ANGSTROEM)
---------------------------------
  C     -5.668570    6.151460    5.493380
  C     -6.610370    5.276960    5.978590
  C     -7.093040    5.285120    7.302670
  N     -7.520250    5.230100    8.367110
  C     -7.238090    4.264430    5.227660
  N     -7.794100    3.430310    4.665290
  C     -5.075090    7.250870    6.248780
  C     -4.196620    7.963860    5.398290
  C     -3.487780    9.062510    5.815820
  C     -3.660930    9.486230    7.138110
  C     -4.540400    8.768320    7.981510
  C     -5.252480    7.652080    7.559640
  S     -4.604410    9.460010    9.575170
  C     -3.465270   10.687910    9.091200
  C     -3.056450   10.587320    7.804290
  Br    -2.922560   11.987070   10.330820
  C     -4.177370    7.322730    4.067620
  O     -3.439610    7.606690    3.143820
  C     -5.137840    6.209650    4.149640
  C     -5.386950    5.296480    3.154840
  N     -5.083740    5.414340    1.855580
  C     -4.875410    6.605010    1.147840
  C     -5.624970    7.732900    1.311380
  S     -5.142060    8.982000    0.254370
  C     -3.931080    7.984790   -0.447360
  C     -3.879480    6.745230    0.124070
  N     -3.041830    5.711480   -0.238100
  C     -1.769410    5.831630   -0.769990
  C     -1.011960    6.934930   -0.760750
  C      0.304140    7.052100   -1.353140
  C      0.744600    6.192450   -2.369540
  C      2.004100    6.342320   -2.903540
  C      2.849800    7.358760   -2.417580
  C      2.421820    8.223750   -1.420740
  C      1.152770    8.070080   -0.904110
  C      4.105220    7.304400   -3.127990
  C      4.042590    6.257050   -4.060760
  C      2.696120    5.556750   -3.998430
  C      2.981880    4.089670   -3.608390
  C      1.786510    3.203560   -3.285160
  C      2.039810    5.705080   -5.391840
  C      0.518260    5.654610   -5.463850
  C      5.106750    5.988230   -4.883080
  C      6.279040    6.763480   -4.785680
  C      6.324150    7.805050   -3.842850
  C      5.253420    8.080080   -3.021110
  C      7.367610    6.450850   -5.665780
  C      8.599770    7.028510   -5.679560
  C      9.666120    6.725540   -6.552190
  C      9.716000    5.862560   -7.620590
  C     10.864760    5.634690   -8.421430
  C     10.688060    4.742760   -9.435950
  C      9.383320    4.211150   -9.501540
  S      8.390790    4.884570   -8.229020
  C      8.868020    3.283880  -10.387570
  C      9.504650    2.600240  -11.440440
  C      8.690340    1.726480  -12.098470
  C      7.359740    1.661320  -11.610620
  S      7.194170    2.781960  -10.274960
  C      6.397700    0.854640  -12.179400
  C      5.041710    0.600970  -11.933770
  S      4.257120   -0.353080  -13.174900
  C      2.733330   -0.289880  -12.411670
  C      2.781800    0.416320  -11.229670
  C      4.096090    0.922600  -10.930980
  C      4.266100    1.599800   -9.726800
  C      3.204040    1.828410   -8.861940
  C      3.545220    2.557520   -7.707910
  N      3.921920    3.165220   -6.806850
  C      1.895550    1.347500   -9.175190
  O      0.782050    1.501460   -8.412580
  C      0.831990    2.212680   -7.200330
  C      1.712810    0.648080  -10.342500
  H     -2.824040    9.582260    5.142860
  H     -5.907190    7.137660    8.242810
  H     -2.357300   11.260110    7.342170
  H     -5.855590    4.356210    3.417560
  H     -5.179900    4.580260    1.290530
  H     -6.423300    7.890260    2.008490
  H     -3.332860    8.368330   -1.246760
  H     -3.264750    4.807000    0.148820
  H     -1.410030    4.904570   -1.197050
  H     -1.366880    7.804190   -0.226010
  H      0.071350    5.436960   -2.738610
  H      3.070490    9.008000   -1.059220
  H      0.803590    8.736260   -0.128040
  H      3.639560    4.107350   -2.734330
  H      3.537480    3.640290   -4.432620
  H      1.245000    3.575160   -2.419440
  H      2.142070    2.201040   -3.052840
  H      1.107630    3.128810   -4.129840
  H      2.465490    4.930710   -6.032480
  H      2.352010    6.671390   -5.798320
  H      0.120840    4.717040   -5.087120
  H      0.207930    5.757930   -6.502640
  H      0.077850    6.473090   -4.899930
  H      5.058640    5.187730   -5.606100
  H      7.213360    8.411120   -3.761400
  H      5.306210    8.887460   -2.305460
  H      7.156110    5.658460   -6.369480
  H      8.822720    7.795940   -4.950320
  H     10.592640    7.255460   -6.363280
  H     11.792500    6.140580   -8.217260
  H     11.454540    4.457180  -10.134100
  H     10.539420    2.763840  -11.683050
  H      9.006890    1.116760  -12.926680
  H      6.768660    0.317670  -13.047460
  H      1.886500   -0.770070  -12.858160
  H      5.235430    1.956030   -9.428180
  H     -0.185450    2.185680   -6.810710
  H      1.130480    3.253370   -7.353340
  H      1.507240    1.741870   -6.479870
  H      0.730180    0.269950  -10.574200

 Total Charge           Charge          ....    0
 Multiplicity           Mult            ....    1
 Number of Electrons    NEL             ....  566
 Basis Dimension        Dim             .... 1260

ORBITAL ENERGIES
----------------

  NO   OCC          E(Eh)            E(eV)
   0   2.0000    -482.882149    -13139.8913
   1   2.0000     -88.970905     -2421.0214
   2   2.0000     -88.964822     -2420.8559
   3   2.0000     -88.954423     -2420.5729
   4   2.0000     -88.946967     -2420.3700
   5   2.0000     -88.942450     -2420.2471
   6   2.0000     -62.559876     -1702.3408
   7   2.0000     -56.393823     -1534.5539
   8   2.0000     -56.391114     -1534.4802
   9   2.0000     -56.391079     -1534.4793
  10   2.0000     -19.246291      -523.7182
  11   2.0000     -19.206098      -522.6245
  12   2.0000     -14.491560      -394.3354
  13   2.0000     -14.442863      -393.0103
  14   2.0000     -14.413104      -392.2005
  15   2.0000     -14.407250      -392.0412
  16   2.0000     -14.404322      -391.9615
  17   2.0000     -10.361749      -281.9575
  18   2.0000     -10.358883      -281.8795
  19   2.0000     -10.354699      -281.7657
  20   2.0000     -10.344183      -281.4795
  21   2.0000     -10.338481      -281.3244
  22   2.0000     -10.332240      -281.1545
  23   2.0000     -10.320145      -280.8254
  24   2.0000     -10.319843      -280.8172
  25   2.0000     -10.318768      -280.7879
  26   2.0000     -10.317479      -280.7529
  27   2.0000     -10.316930      -280.7379
  28   2.0000     -10.313707      -280.6502
  29   2.0000     -10.311437      -280.5885
  30   2.0000     -10.311144      -280.5805
  31   2.0000     -10.310538      -280.5640
  32   2.0000     -10.308943      -280.5206
  33   2.0000     -10.307920      -280.4928
  34   2.0000     -10.305052      -280.4147
  35   2.0000     -10.304894      -280.4104
  36   2.0000     -10.302479      -280.3447
  37   2.0000     -10.301841      -280.3274
  38   2.0000     -10.300524      -280.2915
  39   2.0000     -10.298640      -280.2403
  40   2.0000     -10.295440      -280.1532
  41   2.0000     -10.295232      -280.1475
  42   2.0000     -10.295080      -280.1434
  43   2.0000     -10.292644      -280.0771
  44   2.0000     -10.288650      -279.9684
  45   2.0000     -10.286764      -279.9171
  46   2.0000     -10.286419      -279.9077
  47   2.0000     -10.285922      -279.8942
  48   2.0000     -10.285413      -279.8803
  49   2.0000     -10.284958      -279.8679
  50   2.0000     -10.283947      -279.8404
  51   2.0000     -10.282738      -279.8075
  52   2.0000     -10.281581      -279.7760
  53   2.0000     -10.281308      -279.7686
  54   2.0000     -10.280352      -279.7426
  55   2.0000     -10.277057      -279.6529
  56   2.0000     -10.266782      -279.3734
  57   2.0000     -10.265403      -279.3358
  58   2.0000     -10.264890      -279.3219
  59   2.0000     -10.263619      -279.2873
  60   2.0000     -10.262889      -279.2674
  61   2.0000     -10.261982      -279.2427
  62   2.0000     -10.257195      -279.1125
  63   2.0000     -10.256625      -279.0969
  64   2.0000     -10.256485      -279.0931
  65   2.0000     -10.255720      -279.0723
  66   2.0000     -10.255578      -279.0685
  67   2.0000     -10.253762      -279.0191
  68   2.0000     -10.253552      -279.0133
  69   2.0000     -10.253234      -279.0047
  70   2.0000     -10.251813      -278.9660
  71   2.0000     -10.250280      -278.9243
  72   2.0000     -10.249729      -278.9093
  73   2.0000     -10.245959      -278.8067
  74   2.0000     -10.243561      -278.7415
  75   2.0000     -10.243018      -278.7267
  76   2.0000     -10.242443      -278.7110
  77   2.0000      -8.789309      -239.1693
  78   2.0000      -8.066962      -219.5132
  79   2.0000      -8.060278      -219.3313
  80   2.0000      -8.050442      -219.0637
  81   2.0000      -8.042723      -218.8536
  82   2.0000      -8.038097      -218.7277
  83   2.0000      -6.625611      -180.2920
  84   2.0000      -6.611041      -179.8956
  85   2.0000      -6.610855      -179.8905
  86   2.0000      -6.036652      -164.2657
  87   2.0000      -6.032383      -164.1495
  88   2.0000      -6.029220      -164.0634
  89   2.0000      -6.028162      -164.0346
  90   2.0000      -6.024999      -163.9486
  91   2.0000      -6.023250      -163.9010
  92   2.0000      -6.019834      -163.8080
  93   2.0000      -6.015493      -163.6899
  94   2.0000      -6.012535      -163.6094
  95   2.0000      -6.012460      -163.6074
  96   2.0000      -6.008366      -163.4959
  97   2.0000      -6.007864      -163.4823
  98   2.0000      -6.003751      -163.3704
  99   2.0000      -6.003725      -163.3697
 100   2.0000      -5.999126      -163.2445
 101   2.0000      -2.741433       -74.5982
 102   2.0000      -2.737420       -74.4890
 103   2.0000      -2.737261       -74.4847
 104   2.0000      -2.725695       -74.1699
 105   2.0000      -2.725657       -74.1689
 106   2.0000      -1.151624       -31.3373
 107   2.0000      -1.122388       -30.5417
 108   2.0000      -1.085330       -29.5333
 109   2.0000      -1.041331       -28.3361
 110   2.0000      -1.017505       -27.6877
 111   2.0000      -1.008793       -27.4506
 112   2.0000      -0.999152       -27.1883
 113   2.0000      -0.993006       -27.0211
 114   2.0000      -0.989714       -26.9315
 115   2.0000      -0.988638       -26.9022
 116   2.0000      -0.983554       -26.7639
 117   2.0000      -0.970882       -26.4190
 118   2.0000      -0.969547       -26.3827
 119   2.0000      -0.969178       -26.3727
 120   2.0000      -0.937371       -25.5072
 121   2.0000      -0.936468       -25.4826
 122   2.0000      -0.931322       -25.3426
 123   2.0000      -0.907537       -24.6953
 124   2.0000      -0.903357       -24.5816
 125   2.0000      -0.895454       -24.3666
 126   2.0000      -0.886715       -24.1287
 127   2.0000      -0.884592       -24.0710
 128   2.0000      -0.880623       -23.9630
 129   2.0000      -0.872815       -23.7505
 130   2.0000      -0.864730       -23.5305
 131   2.0000      -0.855362       -23.2756
 132   2.0000      -0.848255       -23.0822
 133   2.0000      -0.845336       -23.0028
 134   2.0000      -0.842083       -22.9143
 135   2.0000      -0.830154       -22.5896
 136   2.0000      -0.824773       -22.4432
 137   2.0000      -0.822318       -22.3764
 138   2.0000      -0.821365       -22.3505
 139   2.0000      -0.820335       -22.3225
 140   2.0000      -0.818250       -22.2657
 141   2.0000      -0.815694       -22.1962
 142   2.0000      -0.815498       -22.1908
 143   2.0000      -0.804752       -21.8984
 144   2.0000      -0.788219       -21.4485
 145   2.0000      -0.773520       -21.0485
 146   2.0000      -0.764778       -20.8107
 147   2.0000      -0.756252       -20.5787
 148   2.0000      -0.753890       -20.5144
 149   2.0000      -0.753099       -20.4929
 150   2.0000      -0.735403       -20.0113
 151   2.0000      -0.727088       -19.7851
 152   2.0000      -0.712612       -19.3912
 153   2.0000      -0.712106       -19.3774
 154   2.0000      -0.697661       -18.9843
 155   2.0000      -0.696277       -18.9467
 156   2.0000      -0.689708       -18.7679
 157   2.0000      -0.685453       -18.6521
 158   2.0000      -0.679643       -18.4940
 159   2.0000      -0.677509       -18.4359
 160   2.0000      -0.673059       -18.3149
 161   2.0000      -0.669690       -18.2232
 162   2.0000      -0.666301       -18.1310
 163   2.0000      -0.659165       -17.9368
 164   2.0000      -0.657855       -17.9011
 165   2.0000      -0.653019       -17.7696
 166   2.0000      -0.648383       -17.6434
 167   2.0000      -0.644324       -17.5329
 168   2.0000      -0.632377       -17.2078
 169   2.0000      -0.629647       -17.1336
 170   2.0000      -0.629054       -17.1174
 171   2.0000      -0.620380       -16.8814
 172   2.0000      -0.616323       -16.7710
 173   2.0000      -0.614953       -16.7337
 174   2.0000      -0.609071       -16.5737
 175   2.0000      -0.605801       -16.4847
 176   2.0000      -0.594326       -16.1724
 177   2.0000      -0.594041       -16.1647
 178   2.0000      -0.585657       -15.9365
 179   2.0000      -0.584585       -15.9074
 180   2.0000      -0.581612       -15.8265
 181   2.0000      -0.576780       -15.6950
 182   2.0000      -0.574184       -15.6243
 183   2.0000      -0.563013       -15.3204
 184   2.0000      -0.558771       -15.2049
 185   2.0000      -0.555982       -15.1290
 186   2.0000      -0.553224       -15.0540
 187   2.0000      -0.547481       -14.8977
 188   2.0000      -0.543446       -14.7879
 189   2.0000      -0.540496       -14.7077
 190   2.0000      -0.538346       -14.6491
 191   2.0000      -0.533965       -14.5299
 192   2.0000      -0.531021       -14.4498
 193   2.0000      -0.526743       -14.3334
 194   2.0000      -0.525362       -14.2958
 195   2.0000      -0.521588       -14.1931
 196   2.0000      -0.520464       -14.1625
 197   2.0000      -0.519840       -14.1456
 198   2.0000      -0.516757       -14.0617
 199   2.0000      -0.514191       -13.9918
 200   2.0000      -0.511400       -13.9159
 201   2.0000      -0.509858       -13.8739
 202   2.0000      -0.506147       -13.7730
 203   2.0000      -0.505494       -13.7552
 204   2.0000      -0.502177       -13.6649
 205   2.0000      -0.501702       -13.6520
 206   2.0000      -0.499927       -13.6037
 207   2.0000      -0.498944       -13.5770
 208   2.0000      -0.493746       -13.4355
 209   2.0000      -0.492494       -13.4014
 210   2.0000      -0.490662       -13.3516
 211   2.0000      -0.488635       -13.2964
 212   2.0000      -0.486994       -13.2518
 213   2.0000      -0.485775       -13.2186
 214   2.0000      -0.480109       -13.0644
 215   2.0000      -0.478931       -13.0324
 216   2.0000      -0.475378       -12.9357
 217   2.0000      -0.472985       -12.8706
 218   2.0000      -0.471416       -12.8279
 219   2.0000      -0.467627       -12.7248
 220   2.0000      -0.465843       -12.6762
 221   2.0000      -0.464763       -12.6469
 222   2.0000      -0.460741       -12.5374
 223   2.0000      -0.459797       -12.5117
 224   2.0000      -0.458097       -12.4655
 225   2.0000      -0.456646       -12.4260
 226   2.0000      -0.454498       -12.3675
 227   2.0000      -0.453614       -12.3435
 228   2.0000      -0.450355       -12.2548
 229   2.0000      -0.446309       -12.1447
 230   2.0000      -0.445261       -12.1162
 231   2.0000      -0.443097       -12.0573
 232   2.0000      -0.441596       -12.0165
 233   2.0000      -0.438805       -11.9405
 234   2.0000      -0.438519       -11.9327
 235   2.0000      -0.434941       -11.8354
 236   2.0000      -0.434793       -11.8313
 237   2.0000      -0.433698       -11.8015
 238   2.0000      -0.433583       -11.7984
 239   2.0000      -0.429593       -11.6898
 240   2.0000      -0.428024       -11.6471
 241   2.0000      -0.426608       -11.6086
 242   2.0000      -0.423774       -11.5315
 243   2.0000      -0.422916       -11.5081
 244   2.0000      -0.422307       -11.4916
 245   2.0000      -0.420529       -11.4432
 246   2.0000      -0.419889       -11.4258
 247   2.0000      -0.418143       -11.3783
 248   2.0000      -0.417018       -11.3476
 249   2.0000      -0.407733       -11.0950
 250   2.0000      -0.405893       -11.0449
 251   2.0000      -0.405132       -11.0242
 252   2.0000      -0.403495       -10.9797
 253   2.0000      -0.402928       -10.9642
 254   2.0000      -0.402544       -10.9538
 255   2.0000      -0.390169       -10.6170
 256   2.0000      -0.385510       -10.4903
 257   2.0000      -0.383094       -10.4245
 258   2.0000      -0.382237       -10.4012
 259   2.0000      -0.377359       -10.2685
 260   2.0000      -0.372435       -10.1345
 261   2.0000      -0.371737       -10.1155
 262   2.0000      -0.365744        -9.9524
 263   2.0000      -0.362886        -9.8746
 264   2.0000      -0.361560        -9.8385
 265   2.0000      -0.358633        -9.7589
 266   2.0000      -0.345912        -9.4127
 267   2.0000      -0.341281        -9.2867
 268   2.0000      -0.334376        -9.0988
 269   2.0000      -0.326931        -8.8963
 270   2.0000      -0.319489        -8.6937
 271   2.0000      -0.314253        -8.5513
 272   2.0000      -0.309364        -8.4182
 273   2.0000      -0.306592        -8.3428
 274   2.0000      -0.305453        -8.3118
 275   2.0000      -0.299431        -8.1479
 276   2.0000      -0.296819        -8.0769
 277   2.0000      -0.290396        -7.9021
 278   2.0000      -0.280309        -7.6276
 279   2.0000      -0.275753        -7.5036
 280   2.0000      -0.253999        -6.9117
 281   2.0000      -0.231461        -6.2984
 282   2.0000      -0.198173        -5.3926
 283   0.0000      -0.084319        -2.2944
 284   0.0000      -0.073054        -1.9879
 285   0.0000      -0.043362        -1.1799
 286   0.0000      -0.037700        -1.0259
 287   0.0000      -0.007366        -0.2004

MULLIKEN ATOMIC CHARGES
-----------------------
   0 C :    0.321218
   1 C :   -0.356085
   2 C :   -0.186768
   3 N :    0.143006
   4 C :   -0.210806
   5 N :    0.138094
   6 C :    0.009146
   7 C :   -0.000404
   8 C :   -0.079040
   9 C :    0.119149
  10 C :   -0.090319
  11 C :   -0.024356
  12 S :    0.182551
  13 C :   -0.123060
  14 C :    0.036510
  15 Br:    0.019694
  16 C :    0.144671
  17 O :   -0.155489
  18 C :   -0.171566
  19 C :    0.031148
  20 N :   -0.034112
  21 C :    0.120616
  22 C :   -0.138465
  23 S :    0.126702
  24 C :   -0.206581
  25 C :    0.141153
  26 N :   -0.060548
  27 C :    0.054063
  28 C :   -0.046802
  29 C :    0.124138
  30 C :   -0.111994
  31 C :    0.035680
  32 C :    0.090750
  33 C :   -0.057933
  34 C :   -0.024707
  35 C :    0.097190
  36 C :    0.007118
  37 C :   -0.109686
  38 C :    0.055892
  39 C :    0.040412
  40 C :    0.066366
  41 C :    0.024172
  42 C :   -0.106496
  43 C :    0.127383
  44 C :   -0.015204
  45 C :   -0.051384
  46 C :   -0.013126
  47 C :    0.017215
  48 C :    0.006156
  49 C :   -0.024837
  50 C :    0.042699
  51 C :    0.017054
  52 C :   -0.021390
  53 S :    0.055154
  54 C :   -0.040758
  55 C :    0.034682
  56 C :    0.019143
  57 C :   -0.017008
  58 S :    0.055242
  59 C :   -0.005258
  60 C :   -0.135440
  61 S :    0.147169
  62 C :   -0.136039
  63 C :    0.127193
  64 C :    0.163953
  65 C :   -0.060329
  66 C :   -0.156324
  67 C :   -0.174297
  68 N :    0.098957
  69 C :    0.247135
  70 O :   -0.306259
  71 C :    0.168802
  72 C :   -0.106829
  73 H :   -0.012082
  74 H :   -0.008308
  75 H :   -0.004559
  76 H :    0.037389
  77 H :    0.150881
  78 H :    0.019691
  79 H :    0.023526
  80 H :    0.101055
  81 H :   -0.000711
  82 H :    0.000990
  83 H :   -0.052034
  84 H :   -0.040192
  85 H :   -0.034972
  86 H :   -0.000259
  87 H :    0.016903
  88 H :    0.007866
  89 H :    0.006823
  90 H :   -0.011937
  91 H :    0.001878
  92 H :    0.003593
  93 H :   -0.008916
  94 H :    0.005620
  95 H :    0.025999
  96 H :   -0.029311
  97 H :   -0.037040
  98 H :   -0.042032
  99 H :   -0.000435
 100 H :   -0.022744
 101 H :   -0.018430
 102 H :   -0.013495
 103 H :   -0.016934
 104 H :   -0.013233
 105 H :   -0.013786
 106 H :   -0.017608
 107 H :    0.016541
 108 H :   -0.005450
 109 H :    0.033209
 110 H :    0.041532
 111 H :    0.044251
 112 H :   -0.030955
Sum of atomic charges:   -0.0000000

LOEWDIN ATOMIC CHARGES
----------------------
   0 C :    0.084458
   1 C :   -0.162232
   2 C :   -0.020188
   3 N :   -0.062704
   4 C :   -0.023247
   5 N :   -0.067736
   6 C :   -0.023976
   7 C :   -0.047839
   8 C :    0.017856
   9 C :   -0.033503
  10 C :   -0.146834
  11 C :   -0.009461
  12 S :    0.429754
  13 C :   -0.272763
  14 C :   -0.070904
  15 Br:    0.133715
  16 C :    0.075303
  17 O :   -0.149023
  18 C :   -0.161863
  19 C :    0.113673
  20 N :    0.073931
  21 C :   -0.049232
  22 C :   -0.192379
  23 S :    0.457709
  24 C :   -0.225919
  25 C :   -0.013316
  26 N :    0.002382
  27 C :    0.023828
  28 C :   -0.078695
  29 C :   -0.018211
  30 C :   -0.030600
  31 C :    0.006705
  32 C :   -0.024121
  33 C :   -0.021010
  34 C :   -0.027700
  35 C :   -0.013582
  36 C :    0.005168
  37 C :   -0.030413
  38 C :   -0.015057
  39 C :   -0.060998
  40 C :   -0.016876
  41 C :   -0.060855
  42 C :   -0.008920
  43 C :   -0.032415
  44 C :   -0.014240
  45 C :   -0.024835
  46 C :   -0.000471
  47 C :   -0.052513
  48 C :   -0.041186
  49 C :   -0.155941
  50 C :   -0.020666
  51 C :   -0.049858
  52 C :   -0.168079
  53 S :    0.391860
  54 C :   -0.189705
  55 C :   -0.032600
  56 C :   -0.040230
  57 C :   -0.147608
  58 S :    0.398628
  59 C :   -0.094985
  60 C :   -0.156150
  61 S :    0.483387
  62 C :   -0.216513
  63 C :   -0.036535
  64 C :   -0.066159
  65 C :    0.036738
  66 C :   -0.118816
  67 C :   -0.008201
  68 N :   -0.081597
  69 C :    0.067307
  70 O :   -0.099650
  71 C :    0.073209
  72 C :   -0.051407
  73 H :    0.040048
  74 H :    0.040607
  75 H :    0.038272
  76 H :    0.042800
  77 H :    0.095392
  78 H :    0.025315
  79 H :    0.024343
  80 H :    0.072246
  81 H :    0.021330
  82 H :    0.030919
  83 H :    0.017465
  84 H :    0.024584
  85 H :    0.024169
  86 H :    0.024156
  87 H :    0.024078
  88 H :    0.019195
  89 H :    0.025767
  90 H :    0.014032
  91 H :    0.021013
  92 H :    0.026928
  93 H :    0.011481
  94 H :    0.022763
  95 H :    0.025182
  96 H :    0.029449
  97 H :    0.022654
  98 H :    0.024208
  99 H :    0.012898
 100 H :    0.026333
 101 H :    0.034186
 102 H :    0.033130
 103 H :    0.030479
 104 H :    0.032614
 105 H :    0.031790
 106 H :    0.032562
 107 H :    0.023167
 108 H :    0.013785
 109 H :    0.028707
 110 H :    0.020794
 111 H :    0.021304
 112 H :    0.034762

  Mayer bond orders larger than 0.100000
B(  0-C ,  1-C ) :   1.6034 B(  0-C ,  6-C ) :   1.0057 B(  0-C , 18-C ) :   1.1288
B(  1-C ,  2-C ) :   1.1453 B(  1-C ,  4-C ) :   1.1469 B(  2-C ,  3-N ) :   2.9671
B(  4-C ,  5-N ) :   2.9723 B(  6-C ,  7-C ) :   1.2816 B(  6-C , 11-C ) :   1.4115
B(  7-C ,  8-C ) :   1.4306 B(  7-C , 16-C ) :   0.9318 B(  8-C ,  9-C ) :   1.2369
B(  8-C , 73-H ) :   1.0188 B(  9-C , 10-C ) :   1.3132 B(  9-C , 14-C ) :   1.1618
B( 10-C , 11-C ) :   1.3263 B( 10-C , 12-S ) :   1.0826 B( 11-C , 74-H ) :   0.9807
B( 12-S , 13-C ) :   1.0878 B( 13-C , 14-C ) :   1.6175 B( 13-C , 15-Br) :   1.0160
B( 14-C , 75-H ) :   1.0011 B( 16-C , 17-O ) :   2.2214 B( 16-C , 18-C ) :   0.9543
B( 18-C , 19-C ) :   1.4807 B( 19-C , 20-N ) :   1.3666 B( 19-C , 76-H ) :   0.9287
B( 20-N , 21-C ) :   0.9740 B( 20-N , 77-H ) :   0.9168 B( 21-C , 22-C ) :   1.5484
B( 21-C , 25-C ) :   1.2736 B( 22-C , 23-S ) :   1.1906 B( 22-C , 78-H ) :   0.9700
B( 23-S , 24-C ) :   1.1404 B( 24-C , 25-C ) :   1.5194 B( 24-C , 79-H ) :   0.9717
B( 25-C , 26-N ) :   1.1471 B( 26-N , 27-C ) :   1.0990 B( 26-N , 80-H ) :   0.9216
B( 27-C , 28-C ) :   1.7484 B( 27-C , 81-H ) :   0.9609 B( 28-C , 29-C ) :   1.0676
B( 28-C , 82-H ) :   0.9633 B( 29-C , 30-C ) :   1.3039 B( 29-C , 34-C ) :   1.3454
B( 30-C , 31-C ) :   1.3999 B( 30-C , 83-H ) :   0.9864 B( 31-C , 32-C ) :   1.3925
B( 31-C , 37-C ) :   0.9253 B( 32-C , 33-C ) :   1.3321 B( 32-C , 35-C ) :   1.0019
B( 33-C , 34-C ) :   1.3717 B( 33-C , 84-H ) :   0.9918 B( 34-C , 85-H ) :   0.9957
B( 35-C , 36-C ) :   1.3769 B( 35-C , 45-C ) :   1.3155 B( 36-C , 37-C ) :   0.9381
B( 36-C , 42-C ) :   1.3892 B( 37-C , 38-C ) :   1.0162 B( 37-C , 40-C ) :   0.9998
B( 38-C , 39-C ) :   1.1160 B( 38-C , 86-H ) :   0.9376 B( 38-C , 87-H ) :   0.9289
B( 39-C , 88-H ) :   0.9586 B( 39-C , 89-H ) :   0.9567 B( 39-C , 90-H ) :   0.9600
B( 40-C , 41-C ) :   1.1256 B( 40-C , 91-H ) :   0.9300 B( 40-C , 92-H ) :   0.9346
B( 41-C , 93-H ) :   0.9616 B( 41-C , 94-H ) :   0.9546 B( 41-C , 95-H ) :   0.9547
B( 42-C , 43-C ) :   1.2571 B( 42-C , 96-H ) :   1.0094 B( 43-C , 44-C ) :   1.3241
B( 43-C , 46-C ) :   1.1228 B( 44-C , 45-C ) :   1.4146 B( 44-C , 97-H ) :   0.9845
B( 45-C , 98-H ) :   0.9893 B( 46-C , 47-C ) :   1.5955 B( 46-C , 99-H ) :   0.9649
B( 47-C , 48-C ) :   1.2060 B( 47-C ,100-H ) :   0.9646 B( 48-C , 49-C ) :   1.5657
B( 48-C ,101-H ) :   0.9599 B( 49-C , 50-C ) :   1.1573 B( 49-C , 53-S ) :   1.0308
B( 50-C , 51-C ) :   1.5762 B( 50-C ,102-H ) :   0.9980 B( 51-C , 52-C ) :   1.1968
B( 51-C ,103-H ) :   0.9932 B( 52-C , 53-S ) :   1.0524 B( 52-C , 54-C ) :   1.4832
B( 54-C , 55-C ) :   1.2030 B( 54-C , 58-S ) :   1.0383 B( 55-C , 56-C ) :   1.5708
B( 55-C ,104-H ) :   0.9917 B( 56-C , 57-C ) :   1.1579 B( 56-C ,105-H ) :   0.9993
B( 57-C , 58-S ) :   1.0379 B( 57-C , 59-C ) :   1.5803 B( 59-C , 60-C ) :   1.2116
B( 59-C ,106-H ) :   0.9298 B( 60-C , 61-S ) :   1.1969 B( 60-C , 64-C ) :   1.2522
B( 61-S , 62-C ) :   1.1631 B( 62-C , 63-C ) :   1.4225 B( 62-C ,107-H ) :   0.9711
B( 63-C , 64-C ) :   1.1813 B( 63-C , 72-C ) :   1.1578 B( 64-C , 65-C ) :   1.2319
B( 65-C , 66-C ) :   1.5052 B( 65-C ,108-H ) :   0.9739 B( 66-C , 67-C ) :   1.0884
B( 66-C , 69-C ) :   1.1384 B( 67-C , 68-N ) :   2.9045 B( 69-C , 70-O ) :   1.1745
B( 69-C , 72-C ) :   1.4997 B( 70-O , 71-C ) :   0.9445 B( 71-C ,109-H ) :   0.9693
B( 71-C ,110-H ) :   0.9677 B( 71-C ,111-H ) :   0.9636 B( 72-C ,112-H ) :   1.0081

-----------------------------------------------------------------------------
         ABSORPTION SPECTRUM VIA TRANSITION ELECTRIC DIPOLE MOMENTS
-----------------------------------------------------------------------------
State   Energy  Wavelength   fosc         T2         TX        TY        TZ
        (cm-1)    (nm)                  (au**2)     (au)      (au)      (au)
-----------------------------------------------------------------------------
   0   11254.9    888.5   0.677008719  19.80294   1.45244   2.94927   2.99920
   1   19037.4    525.3   0.056221471   0.97223  -0.29396  -0.63480  -0.69488
   2   20282.0    493.0   0.055148468   0.89516  -0.63457  -0.07299   0.69796
   3   20887.2    478.8   1.155441092  18.21143  -3.65830   0.28004   2.17942
   4   22919.1    436.3   0.026371352   0.37880  -0.15826  -0.12985   0.58043
   5   24698.8    404.9   0.001618587   0.02157  -0.01407  -0.03358   0.14230
   6   24814.1    403.0   0.168187176   2.23136   0.87095  -0.60716  -1.05079
   7   26324.7    379.9   0.408295132   5.10606  -1.68180  -0.47785   1.43153
   8   26521.0    377.1   0.124601871   1.54671   0.92228   0.10516   0.82768
   9   28203.4    354.6   0.037200109   0.43423   0.16102   0.05751  -0.63639
  10   29273.7    341.6   0.678471073   7.63008   2.49051   0.26982  -1.16389
  11   29539.5    338.5   0.073884985   0.82343   0.31708   0.80133  -0.28421
  12   29803.0    335.5   0.108606847   1.19970   0.74309  -0.42758  -0.68168
  13   30185.2    331.3   0.486578443   5.30682  -1.15818  -1.40360  -1.41257
  14   30872.5    323.9   0.047094077   0.50219   0.55523   0.42016  -0.13183
  15   31115.9    321.4   0.036746844   0.38879  -0.45720  -0.17522   0.38608
  16   31177.2    320.7   0.033200243   0.35057   0.17698  -0.36749  -0.42919
  17   31879.3    313.7   0.077620665   0.80157   0.47136   0.26297  -0.71431
  18   32021.5    312.3   0.024811535   0.25509   0.48632  -0.05753   0.12358
  19   32399.7    308.6   0.024160248   0.24549  -0.44439  -0.21846   0.01676
  20   32700.9    305.8   0.078390450   0.78919  -0.63694  -0.41940  -0.45564
  21   32903.3    303.9   0.001308312   0.01309   0.08735   0.03956   0.06241
  22   33461.9    298.8   0.488890350   4.80990  -0.95382  -1.49192  -1.29394
  23   33752.1    296.3   0.027984616   0.27296  -0.51730  -0.04971   0.05376
  24   34837.9    287.0   0.104791501   0.99026  -0.94050  -0.32446  -0.02127
  25   35318.6    283.1   0.030626556   0.28548  -0.34525  -0.15821   0.37583
  26   35514.0    281.6   0.073452867   0.68090  -0.62058  -0.28961  -0.46034
  27   35682.1    280.3   0.260847203   2.40664   1.08812   0.35948  -1.04566
  28   35708.5    280.0   0.098230228   0.90563   0.12367   0.94080   0.07235
  29   35862.1    278.8   0.038957558   0.35763  -0.52427  -0.16969  -0.23234
  30   36087.6    277.1   0.003226559   0.02943   0.12608   0.08662  -0.07769
  31   36238.9    275.9   0.120755836   1.09700  -0.19594   0.63818   0.80705
  32   36615.3    273.1   0.036108868   0.32466  -0.05094   0.34603   0.44980
  33   36701.3    272.5   0.055942004   0.50180  -0.48987  -0.50273   0.09538
  34   37216.3    268.7   0.019008063   0.16814  -0.14202   0.02338   0.38396
  35   37491.3    266.7   0.009370061   0.08228  -0.03798   0.19193   0.20976
  36   38342.8    260.8   0.022751227   0.19534   0.22264   0.14932   0.35139
  37   38531.3    259.5   0.007763544   0.06633  -0.05093  -0.25242   0.00454
  38   38724.4    258.2   0.076858815   0.65341  -0.06603   0.66137   0.46004
  39   39368.5    254.0   0.076371546   0.63864   0.17930   0.14615  -0.76494
  40   39642.4    252.3   0.001745628   0.01450   0.08325   0.04126   0.07657
  41   39733.1    251.7   0.038326530   0.31756   0.49440   0.25911   0.07737
  42   40130.5    249.2   0.000492019   0.00404  -0.04810  -0.00160  -0.04148
  43   40154.0    249.0   0.041150023   0.33738  -0.44130  -0.27689  -0.25684

FINAL SINGLE POINT ENERGY     -7295.374815273807

DIPOLE MOMENT
-------------
                                X             Y             Z
Electronic contribution:    -81.43997      81.50147     192.18423
Nuclear contribution   :     83.37210     -81.26355    -194.54355
                        -----------------------------------------
Total Dipole Moment    :      1.93213       0.23791      -2.35932
                        -----------------------------------------
Magnitude (a.u.)       :      3.05878
Magnitude (Debye)      :      7.77480

Rotational constants in cm-1:     0.001385     0.000187     0.000169
Rotational constants in MHz :    41.524980     5.595043     5.059806

                             ****ORCA TERMINATED NORMALLY****
TOTAL RUN TIME: 0 days 0 hours 11 minutes 47 seconds 376 msec
