                         Program Version 4.2.0 -  RELEASE  -
|  1> # ORCA input file
|  2> # SCF done       -197.826379010671          0.000553244970
|  3> ! CAM-B3LYP def2-SVP def2/J RIJCOSX Grid4 TightSCF
|  4> %maxcore 5000
|  5> %tddft
|  6>     Mode sTDDFT
|  7>     Ethresh 5.0
|  8>     maxcore 5000
|  9> end
| 10>
| 11> %pal
| 12>   nprocs 6
| 13>   end
| 14> * xyz 0 1
| 15>    C        2.57893         3.55874         3.06963
| 16>    C        2.59301         2.56551         3.96840
| 17>    C        2.72167         2.67229         5.39426
| 18>    C        2.70238         1.49048         6.04726
| 19>    C        2.55675         0.35386         5.20136
| 20>    S        2.44561         0.85736         3.52529
| 21>    C        2.49991        -0.96441         5.57834
| 22>    C        2.57308        -1.50278         6.88966
| 23>    C        2.47698        -2.85309         6.93562
| 24>    C        2.31651        -3.49031         5.66783
| 25>    S        2.31355        -2.25797         4.40968
| 26>    C        2.15683        -4.83461         5.50867
| 27>    C        1.95433        -5.61888         4.32862
| 28>    C        1.61633        -6.97779         4.49482
| 29>    C        1.36841        -7.76138         3.39897
| 30>    C        1.47022        -7.22753         2.10151
| 31>    C        1.83087        -5.89946         1.91943
| 32>    C        2.06463        -5.10962         3.02469
| 33>    C        1.12748        -8.26081         1.14915
| 34>    C        0.80142        -9.43056         1.85526
| 35>    C        0.95828        -9.21690         3.34457
| 36>    C       -0.36266        -9.45009         4.08304
| 37>    C        2.05775       -10.12003         3.91313
| 38>    C        0.38973       -10.55898         1.18685
| 39>    C        0.30643       -10.53874        -0.20880
| 40>    C        0.66033        -9.37879        -0.90162
| 41>    C        1.06560        -8.23811        -0.23624
| 42>    C       -0.19064       -11.70520        -0.94682
| 43>    C        0.40436       -12.08886        -2.15269
| 44>    C       -0.12340       -13.14119        -2.86207
| 45>    C       -1.25682       -13.82442        -2.38911
| 46>    C       -1.83740       -13.46707        -1.18081
| 47>    C       -1.29599       -12.41389        -0.46974
| 48>    C       -1.63252       -14.82346        -3.36549
| 49>    C       -0.72439       -14.76476        -4.43791
| 50>    C        0.33479       -13.71569        -4.18371
| 51>    C        1.71986       -14.35773        -4.05108
| 52>    C        0.33837       -12.65483        -5.28756
| 53>    C       -0.87653       -15.57411        -5.53317
| 54>    C       -1.95904       -16.46832        -5.58849
| 55>    C       -2.85404       -16.52179        -4.50879
| 56>    C       -2.69644       -15.71439        -3.40208
| 57>    C       -2.17122       -17.28101        -6.76978
| 58>    C       -2.78005       -18.55831        -6.71433
| 59>    C       -3.14577       -19.28560        -7.90575
| 60>    N       -3.78603       -20.46479        -7.80857
| 61>    C       -4.02779       -20.96293        -6.62325
| 62>    C       -3.59113       -20.28178        -5.43846
| 63>    N       -2.99417       -19.11855        -5.51245
| 64>    C       -3.79855       -20.86931        -4.16590
| 65>    N       -3.99781       -21.36401        -3.15190
| 66>    C       -4.71735       -22.19658        -6.51219
| 67>    N       -5.28358       -23.18300        -6.37682
| 68>    C       -2.91392       -18.76521        -9.19435
| 69>    C       -2.17796       -17.56750        -9.25183
| 70>    C       -1.81400       -16.83524        -8.05853
| 71>    N       -1.14594       -15.71682        -8.36539
| 72>    S       -0.96670       -15.62887        -9.95371
| 73>    N       -1.71670       -16.98365       -10.35724
| 74>    C       -3.37150       -19.45219       -10.35985
| 75>    C       -3.82553       -18.83989       -11.48639
| 76>    C       -4.11320       -19.47197       -12.76063
| 77>    C       -3.73166       -20.73271       -13.13833
| 78>    C       -4.00703       -21.29732       -14.40093
| 79>    N       -4.20714       -21.81078       -15.40803
| 80>    C       -2.97891       -21.61975       -12.33955
| 81>    N       -2.34423       -22.38671       -11.76749
| 82>    C       -4.78497       -18.49244       -13.60374
| 83>    C       -4.88659       -17.27157       -12.89064
| 84>    C       -4.31178       -17.43430       -11.54381
| 85>    O       -4.34575       -16.61862       -10.64671
| 86>    C       -5.46811       -16.14823       -13.42745
| 87>    C       -5.96581       -16.22883       -14.73129
| 88>    C       -5.86247       -17.45294       -15.43465
| 89>    C       -5.27989       -18.59143       -14.89063
| 90>    S       -6.54961       -17.32414       -17.02330
| 91>    C       -6.95799       -15.66739       -16.73918
| 92>    C       -6.60080       -15.22382       -15.51431
| 93>    H        2.66994         4.58377         3.38295
| 94>    H        2.47588         3.36813         2.01719
| 95>    H        2.82289         3.63449         5.86416
| 96>    H        2.78670         1.38559         7.11447
| 97>    H        2.69051        -0.87407         7.75400
| 98>    H        2.50931        -3.43230         7.84201
| 99>    H        2.15218        -5.39930         6.43466
|100>    H        1.53819        -7.38331         5.49386
|101>    H        1.92191        -5.48543         0.92651
|102>    H        2.34867        -4.08033         2.87833
|103>    H       -1.13997        -8.80700         3.67560
|104>    H       -0.24843        -9.22889         5.14153
|105>    H       -0.67660       -10.48576         3.97738
|106>    H        2.99510        -9.94763         3.38831
|107>    H        1.78324       -11.16603         3.79889
|108>    H        2.20807        -9.91233         4.96992
|109>    H        0.14344       -11.46362         1.72356
|110>    H        0.57933        -9.36659        -1.97876
|111>    H        1.31790        -7.34323        -0.78525
|112>    H        1.27767       -11.56219        -2.50883
|113>    H       -2.70468       -13.99169        -0.80894
|114>    H       -1.75680       -12.10380         0.45671
|115>    H        1.70881       -15.12103        -3.27590
|116>    H        2.46029       -13.60611        -3.78748
|117>    H        2.01039       -14.82061        -4.99097
|118>    H       -0.64032       -12.18548        -5.36066
|119>    H        0.57575       -13.11004        -6.24568
|120>    H        1.07812       -11.88748        -5.07198
|121>    H       -0.17661       -15.53822        -6.35156
|122>    H       -3.70402       -17.18259        -4.56085
|123>    H       -3.40504       -15.76179        -2.58909
|124>    H       -3.38106       -20.53228       -10.28750
|125>    H       -5.53327       -15.23393       -12.85803
|126>    H       -5.23187       -19.50269       -15.46318
|127>    H       -7.44886       -15.11980       -17.52013
|128>    H       -6.77481       -14.22328       -15.16164
|129> *
|130>
|131>                          ****END OF INPUT****

CARTESIAN COORDINATES (ANGSTROEM)
---------------------------------
  C      2.578930    3.558740    3.069630
  C      2.593010    2.565510    3.968400
  C      2.721670    2.672290    5.394260
  C      2.702380    1.490480    6.047260
  C      2.556750    0.353860    5.201360
  S      2.445610    0.857360    3.525290
  C      2.499910   -0.964410    5.578340
  C      2.573080   -1.502780    6.889660
  C      2.476980   -2.853090    6.935620
  C      2.316510   -3.490310    5.667830
  S      2.313550   -2.257970    4.409680
  C      2.156830   -4.834610    5.508670
  C      1.954330   -5.618880    4.328620
  C      1.616330   -6.977790    4.494820
  C      1.368410   -7.761380    3.398970
  C      1.470220   -7.227530    2.101510
  C      1.830870   -5.899460    1.919430
  C      2.064630   -5.109620    3.024690
  C      1.127480   -8.260810    1.149150
  C      0.801420   -9.430560    1.855260
  C      0.958280   -9.216900    3.344570
  C     -0.362660   -9.450090    4.083040
  C      2.057750  -10.120030    3.913130
  C      0.389730  -10.558980    1.186850
  C      0.306430  -10.538740   -0.208800
  C      0.660330   -9.378790   -0.901620
  C      1.065600   -8.238110   -0.236240
  C     -0.190640  -11.705200   -0.946820
  C      0.404360  -12.088860   -2.152690
  C     -0.123400  -13.141190   -2.862070
  C     -1.256820  -13.824420   -2.389110
  C     -1.837400  -13.467070   -1.180810
  C     -1.295990  -12.413890   -0.469740
  C     -1.632520  -14.823460   -3.365490
  C     -0.724390  -14.764760   -4.437910
  C      0.334790  -13.715690   -4.183710
  C      1.719860  -14.357730   -4.051080
  C      0.338370  -12.654830   -5.287560
  C     -0.876530  -15.574110   -5.533170
  C     -1.959040  -16.468320   -5.588490
  C     -2.854040  -16.521790   -4.508790
  C     -2.696440  -15.714390   -3.402080
  C     -2.171220  -17.281010   -6.769780
  C     -2.780050  -18.558310   -6.714330
  C     -3.145770  -19.285600   -7.905750
  N     -3.786030  -20.464790   -7.808570
  C     -4.027790  -20.962930   -6.623250
  C     -3.591130  -20.281780   -5.438460
  N     -2.994170  -19.118550   -5.512450
  C     -3.798550  -20.869310   -4.165900
  N     -3.997810  -21.364010   -3.151900
  C     -4.717350  -22.196580   -6.512190
  N     -5.283580  -23.183000   -6.376820
  C     -2.913920  -18.765210   -9.194350
  C     -2.177960  -17.567500   -9.251830
  C     -1.814000  -16.835240   -8.058530
  N     -1.145940  -15.716820   -8.365390
  S     -0.966700  -15.628870   -9.953710
  N     -1.716700  -16.983650  -10.357240
  C     -3.371500  -19.452190  -10.359850
  C     -3.825530  -18.839890  -11.486390
  C     -4.113200  -19.471970  -12.760630
  C     -3.731660  -20.732710  -13.138330
  C     -4.007030  -21.297320  -14.400930
  N     -4.207140  -21.810780  -15.408030
  C     -2.978910  -21.619750  -12.339550
  N     -2.344230  -22.386710  -11.767490
  C     -4.784970  -18.492440  -13.603740
  C     -4.886590  -17.271570  -12.890640
  C     -4.311780  -17.434300  -11.543810
  O     -4.345750  -16.618620  -10.646710
  C     -5.468110  -16.148230  -13.427450
  C     -5.965810  -16.228830  -14.731290
  C     -5.862470  -17.452940  -15.434650
  C     -5.279890  -18.591430  -14.890630
  S     -6.549610  -17.324140  -17.023300
  C     -6.957990  -15.667390  -16.739180
  C     -6.600800  -15.223820  -15.514310
  H      2.669940    4.583770    3.382950
  H      2.475880    3.368130    2.017190
  H      2.822890    3.634490    5.864160
  H      2.786700    1.385590    7.114470
  H      2.690510   -0.874070    7.754000
  H      2.509310   -3.432300    7.842010
  H      2.152180   -5.399300    6.434660
  H      1.538190   -7.383310    5.493860
  H      1.921910   -5.485430    0.926510
  H      2.348670   -4.080330    2.878330
  H     -1.139970   -8.807000    3.675600
  H     -0.248430   -9.228890    5.141530
  H     -0.676600  -10.485760    3.977380
  H      2.995100   -9.947630    3.388310
  H      1.783240  -11.166030    3.798890
  H      2.208070   -9.912330    4.969920
  H      0.143440  -11.463620    1.723560
  H      0.579330   -9.366590   -1.978760
  H      1.317900   -7.343230   -0.785250
  H      1.277670  -11.562190   -2.508830
  H     -2.704680  -13.991690   -0.808940
  H     -1.756800  -12.103800    0.456710
  H      1.708810  -15.121030   -3.275900
  H      2.460290  -13.606110   -3.787480
  H      2.010390  -14.820610   -4.990970
  H     -0.640320  -12.185480   -5.360660
  H      0.575750  -13.110040   -6.245680
  H      1.078120  -11.887480   -5.071980
  H     -0.176610  -15.538220   -6.351560
  H     -3.704020  -17.182590   -4.560850
  H     -3.405040  -15.761790   -2.589090
  H     -3.381060  -20.532280  -10.287500
  H     -5.533270  -15.233930  -12.858030
  H     -5.231870  -19.502690  -15.463180
  H     -7.448860  -15.119800  -17.520130
  H     -6.774810  -14.223280  -15.161640

 Total Charge           Charge          ....    0
 Multiplicity           Mult            ....    1
 Number of Electrons    NEL             ....  554
 Basis Dimension        Dim             .... 1288

ORBITAL ENERGIES
----------------

  NO   OCC          E(Eh)            E(eV)
   0   2.0000     -89.049801     -2423.1683
   1   2.0000     -88.968252     -2420.9492
   2   2.0000     -88.938626     -2420.1430
   3   2.0000     -88.932938     -2419.9883
   4   2.0000     -19.217234      -522.9275
   5   2.0000     -14.465286      -393.6204
   6   2.0000     -14.464521      -393.5996
   7   2.0000     -14.457451      -393.4072
   8   2.0000     -14.452356      -393.2686
   9   2.0000     -14.431511      -392.7014
  10   2.0000     -14.429120      -392.6363
  11   2.0000     -14.416119      -392.2826
  12   2.0000     -14.414425      -392.2365
  13   2.0000     -10.386850      -282.6406
  14   2.0000     -10.381618      -282.4982
  15   2.0000     -10.368563      -282.1430
  16   2.0000     -10.354898      -281.7711
  17   2.0000     -10.351769      -281.6860
  18   2.0000     -10.345920      -281.5268
  19   2.0000     -10.345254      -281.5087
  20   2.0000     -10.344007      -281.4747
  21   2.0000     -10.340967      -281.3920
  22   2.0000     -10.330876      -281.1174
  23   2.0000     -10.323957      -280.9292
  24   2.0000     -10.322668      -280.8941
  25   2.0000     -10.322361      -280.8857
  26   2.0000     -10.318376      -280.7773
  27   2.0000     -10.317855      -280.7631
  28   2.0000     -10.316653      -280.7304
  29   2.0000     -10.316226      -280.7188
  30   2.0000     -10.314046      -280.6595
  31   2.0000     -10.307855      -280.4910
  32   2.0000     -10.304754      -280.4066
  33   2.0000     -10.304232      -280.3924
  34   2.0000     -10.303803      -280.3807
  35   2.0000     -10.302891      -280.3559
  36   2.0000     -10.302872      -280.3554
  37   2.0000     -10.301916      -280.3294
  38   2.0000     -10.300844      -280.3002
  39   2.0000     -10.300776      -280.2984
  40   2.0000     -10.293211      -280.0925
  41   2.0000     -10.291965      -280.0586
  42   2.0000     -10.291017      -280.0328
  43   2.0000     -10.286580      -279.9121
  44   2.0000     -10.285473      -279.8820
  45   2.0000     -10.282289      -279.7953
  46   2.0000     -10.281338      -279.7694
  47   2.0000     -10.280768      -279.7539
  48   2.0000     -10.280217      -279.7389
  49   2.0000     -10.280175      -279.7378
  50   2.0000     -10.279362      -279.7157
  51   2.0000     -10.279361      -279.7156
  52   2.0000     -10.277271      -279.6587
  53   2.0000     -10.275557      -279.6121
  54   2.0000     -10.274663      -279.5878
  55   2.0000     -10.274598      -279.5860
  56   2.0000     -10.274339      -279.5790
  57   2.0000     -10.272868      -279.5389
  58   2.0000     -10.272532      -279.5298
  59   2.0000     -10.272364      -279.5252
  60   2.0000     -10.272344      -279.5247
  61   2.0000     -10.270127      -279.4644
  62   2.0000     -10.269862      -279.4572
  63   2.0000     -10.268000      -279.4065
  64   2.0000     -10.266788      -279.3735
  65   2.0000     -10.266695      -279.3710
  66   2.0000     -10.266344      -279.3614
  67   2.0000     -10.266116      -279.3552
  68   2.0000     -10.265509      -279.3387
  69   2.0000     -10.265240      -279.3314
  70   2.0000     -10.265193      -279.3301
  71   2.0000     -10.265013      -279.3252
  72   2.0000     -10.263307      -279.2788
  73   2.0000     -10.263183      -279.2754
  74   2.0000     -10.262925      -279.2684
  75   2.0000     -10.262908      -279.2679
  76   2.0000     -10.257970      -279.1336
  77   2.0000     -10.257732      -279.1271
  78   2.0000      -8.140950      -221.5265
  79   2.0000      -8.064533      -219.4471
  80   2.0000      -8.034327      -218.6252
  81   2.0000      -8.029746      -218.5005
  82   2.0000      -6.111887      -166.3129
  83   2.0000      -6.104166      -166.1028
  84   2.0000      -6.103993      -166.0981
  85   2.0000      -6.034046      -164.1948
  86   2.0000      -6.029741      -164.0776
  87   2.0000      -6.026189      -163.9809
  88   2.0000      -6.004154      -163.3813
  89   2.0000      -6.000130      -163.2718
  90   2.0000      -5.999603      -163.2575
  91   2.0000      -5.995670      -163.1505
  92   2.0000      -5.995138      -163.1360
  93   2.0000      -5.990195      -163.0015
  94   2.0000      -1.145958       -31.1831
  95   2.0000      -1.131291       -30.7840
  96   2.0000      -1.123774       -30.5795
  97   2.0000      -1.050468       -28.5847
  98   2.0000      -1.020832       -27.7782
  99   2.0000      -1.015111       -27.6226
 100   2.0000      -1.009126       -27.4597
 101   2.0000      -1.004951       -27.3461
 102   2.0000      -0.999753       -27.2047
 103   2.0000      -0.993635       -27.0382
 104   2.0000      -0.992263       -27.0008
 105   2.0000      -0.986954       -26.8564
 106   2.0000      -0.986693       -26.8493
 107   2.0000      -0.982656       -26.7394
 108   2.0000      -0.981017       -26.6948
 109   2.0000      -0.963789       -26.2260
 110   2.0000      -0.952133       -25.9089
 111   2.0000      -0.938644       -25.5418
 112   2.0000      -0.932251       -25.3678
 113   2.0000      -0.921344       -25.0710
 114   2.0000      -0.911787       -24.8110
 115   2.0000      -0.907593       -24.6968
 116   2.0000      -0.903388       -24.5824
 117   2.0000      -0.890332       -24.2272
 118   2.0000      -0.882969       -24.0268
 119   2.0000      -0.882686       -24.0191
 120   2.0000      -0.876006       -23.8373
 121   2.0000      -0.865096       -23.5405
 122   2.0000      -0.853058       -23.2129
 123   2.0000      -0.841736       -22.9048
 124   2.0000      -0.839443       -22.8424
 125   2.0000      -0.837478       -22.7889
 126   2.0000      -0.835119       -22.7247
 127   2.0000      -0.830005       -22.5856
 128   2.0000      -0.824554       -22.4373
 129   2.0000      -0.824278       -22.4297
 130   2.0000      -0.818313       -22.2674
 131   2.0000      -0.817667       -22.2498
 132   2.0000      -0.811624       -22.0854
 133   2.0000      -0.801193       -21.8016
 134   2.0000      -0.794776       -21.6269
 135   2.0000      -0.777644       -21.1608
 136   2.0000      -0.775123       -21.0922
 137   2.0000      -0.769894       -20.9499
 138   2.0000      -0.764723       -20.8092
 139   2.0000      -0.758083       -20.6285
 140   2.0000      -0.746299       -20.3078
 141   2.0000      -0.739540       -20.1239
 142   2.0000      -0.733710       -19.9653
 143   2.0000      -0.726377       -19.7657
 144   2.0000      -0.720998       -19.6193
 145   2.0000      -0.710791       -19.3416
 146   2.0000      -0.702710       -19.1217
 147   2.0000      -0.696351       -18.9487
 148   2.0000      -0.692983       -18.8570
 149   2.0000      -0.689811       -18.7707
 150   2.0000      -0.681140       -18.5348
 151   2.0000      -0.677577       -18.4378
 152   2.0000      -0.673763       -18.3340
 153   2.0000      -0.671588       -18.2748
 154   2.0000      -0.664121       -18.0717
 155   2.0000      -0.662787       -18.0353
 156   2.0000      -0.660654       -17.9773
 157   2.0000      -0.653325       -17.7779
 158   2.0000      -0.652054       -17.7433
 159   2.0000      -0.643690       -17.5157
 160   2.0000      -0.636723       -17.3261
 161   2.0000      -0.628990       -17.1157
 162   2.0000      -0.622647       -16.9431
 163   2.0000      -0.620947       -16.8968
 164   2.0000      -0.617968       -16.8158
 165   2.0000      -0.614732       -16.7277
 166   2.0000      -0.600610       -16.3434
 167   2.0000      -0.599143       -16.3035
 168   2.0000      -0.596094       -16.2206
 169   2.0000      -0.594630       -16.1807
 170   2.0000      -0.591736       -16.1019
 171   2.0000      -0.588666       -16.0184
 172   2.0000      -0.583628       -15.8813
 173   2.0000      -0.579208       -15.7610
 174   2.0000      -0.572105       -15.5678
 175   2.0000      -0.568097       -15.4587
 176   2.0000      -0.561967       -15.2919
 177   2.0000      -0.558402       -15.1949
 178   2.0000      -0.556663       -15.1476
 179   2.0000      -0.547510       -14.8985
 180   2.0000      -0.543814       -14.7979
 181   2.0000      -0.539459       -14.6794
 182   2.0000      -0.537641       -14.6300
 183   2.0000      -0.536233       -14.5916
 184   2.0000      -0.534098       -14.5335
 185   2.0000      -0.532017       -14.4769
 186   2.0000      -0.528594       -14.3838
 187   2.0000      -0.524228       -14.2650
 188   2.0000      -0.522931       -14.2297
 189   2.0000      -0.521022       -14.1777
 190   2.0000      -0.519916       -14.1476
 191   2.0000      -0.518357       -14.1052
 192   2.0000      -0.514378       -13.9969
 193   2.0000      -0.513556       -13.9746
 194   2.0000      -0.512561       -13.9475
 195   2.0000      -0.511405       -13.9160
 196   2.0000      -0.510907       -13.9025
 197   2.0000      -0.509296       -13.8586
 198   2.0000      -0.506070       -13.7709
 199   2.0000      -0.505027       -13.7425
 200   2.0000      -0.501808       -13.6549
 201   2.0000      -0.499830       -13.6011
 202   2.0000      -0.493186       -13.4203
 203   2.0000      -0.491148       -13.3648
 204   2.0000      -0.489944       -13.3321
 205   2.0000      -0.488996       -13.3063
 206   2.0000      -0.487854       -13.2752
 207   2.0000      -0.485185       -13.2026
 208   2.0000      -0.483202       -13.1486
 209   2.0000      -0.481100       -13.0914
 210   2.0000      -0.476976       -12.9792
 211   2.0000      -0.475734       -12.9454
 212   2.0000      -0.473429       -12.8826
 213   2.0000      -0.472122       -12.8471
 214   2.0000      -0.469374       -12.7723
 215   2.0000      -0.466923       -12.7056
 216   2.0000      -0.462160       -12.5760
 217   2.0000      -0.460588       -12.5332
 218   2.0000      -0.459357       -12.4997
 219   2.0000      -0.458286       -12.4706
 220   2.0000      -0.455935       -12.4066
 221   2.0000      -0.455244       -12.3878
 222   2.0000      -0.453682       -12.3453
 223   2.0000      -0.453056       -12.3283
 224   2.0000      -0.448601       -12.2071
 225   2.0000      -0.448100       -12.1934
 226   2.0000      -0.445608       -12.1256
 227   2.0000      -0.444361       -12.0917
 228   2.0000      -0.443077       -12.0567
 229   2.0000      -0.440924       -11.9982
 230   2.0000      -0.440542       -11.9878
 231   2.0000      -0.438130       -11.9221
 232   2.0000      -0.436284       -11.8719
 233   2.0000      -0.433858       -11.8059
 234   2.0000      -0.433412       -11.7937
 235   2.0000      -0.431914       -11.7530
 236   2.0000      -0.426437       -11.6039
 237   2.0000      -0.426219       -11.5980
 238   2.0000      -0.423424       -11.5219
 239   2.0000      -0.421954       -11.4820
 240   2.0000      -0.420383       -11.4392
 241   2.0000      -0.418877       -11.3982
 242   2.0000      -0.417822       -11.3695
 243   2.0000      -0.415924       -11.3179
 244   2.0000      -0.414439       -11.2775
 245   2.0000      -0.412383       -11.2215
 246   2.0000      -0.410933       -11.1821
 247   2.0000      -0.409534       -11.1440
 248   2.0000      -0.407838       -11.0978
 249   2.0000      -0.400148       -10.8886
 250   2.0000      -0.399171       -10.8620
 251   2.0000      -0.397455       -10.8153
 252   2.0000      -0.392138       -10.6706
 253   2.0000      -0.389856       -10.6085
 254   2.0000      -0.387977       -10.5574
 255   2.0000      -0.383379       -10.4323
 256   2.0000      -0.381553       -10.3826
 257   2.0000      -0.377174       -10.2634
 258   2.0000      -0.370215       -10.0741
 259   2.0000      -0.362599        -9.8668
 260   2.0000      -0.355043        -9.6612
 261   2.0000      -0.352164        -9.5829
 262   2.0000      -0.343115        -9.3366
 263   2.0000      -0.335698        -9.1348
 264   2.0000      -0.333142        -9.0652
 265   2.0000      -0.326010        -8.8712
 266   2.0000      -0.323470        -8.8021
 267   2.0000      -0.318844        -8.6762
 268   2.0000      -0.317522        -8.6402
 269   2.0000      -0.314644        -8.5619
 270   2.0000      -0.312759        -8.5106
 271   2.0000      -0.309920        -8.4333
 272   2.0000      -0.300375        -8.1736
 273   2.0000      -0.294400        -8.0110
 274   2.0000      -0.275162        -7.4875
 275   2.0000      -0.257640        -7.0107
 276   2.0000      -0.213893        -5.8203
 277   0.0000      -0.128144        -3.4870
 278   0.0000      -0.082246        -2.2380
 279   0.0000      -0.059977        -1.6321
 280   0.0000      -0.057962        -1.5772
 281   0.0000      -0.049434        -1.3452

MULLIKEN ATOMIC CHARGES
-----------------------
   0 C :   -0.037567
   1 C :   -0.058525
   2 C :    0.050565
   3 C :    0.028145
   4 C :   -0.067542
   5 S :    0.074997
   6 C :   -0.038305
   7 C :    0.030628
   8 C :    0.032462
   9 C :   -0.005431
  10 S :    0.052268
  11 C :   -0.043318
  12 C :    0.119357
  13 C :   -0.120019
  14 C :    0.042546
  15 C :    0.097225
  16 C :   -0.052232
  17 C :   -0.021344
  18 C :    0.099349
  19 C :    0.025735
  20 C :   -0.150190
  21 C :    0.106016
  22 C :    0.113676
  23 C :   -0.096392
  24 C :    0.082516
  25 C :   -0.013959
  26 C :   -0.050484
  27 C :    0.084357
  28 C :   -0.094004
  29 C :    0.031191
  30 C :    0.094005
  31 C :   -0.046464
  32 C :   -0.012034
  33 C :    0.114348
  34 C :    0.017310
  35 C :   -0.151017
  36 C :    0.115524
  37 C :    0.104112
  38 C :   -0.061310
  39 C :    0.001935
  40 C :    0.033145
  41 C :   -0.062312
  42 C :    0.121377
  43 C :   -0.082100
  44 C :   -0.025322
  45 N :    0.055566
  46 C :   -0.128181
  47 C :   -0.146122
  48 N :    0.045926
  49 C :   -0.200547
  50 N :    0.236233
  51 C :   -0.200000
  52 N :    0.241826
  53 C :    0.070418
  54 C :    0.015420
  55 C :    0.026449
  56 N :   -0.291448
  57 S :    0.557686
  58 N :   -0.271807
  59 C :   -0.068378
  60 C :   -0.055406
  61 C :    0.297049
  62 C :   -0.337433
  63 C :   -0.184966
  64 N :    0.154143
  65 C :   -0.199604
  66 N :    0.169264
  67 C :    0.018483
  68 C :   -0.015596
  69 C :    0.153967
  70 O :   -0.157608
  71 C :   -0.072198
  72 C :    0.117645
  73 C :   -0.091219
  74 C :   -0.028756
  75 S :    0.143069
  76 C :   -0.048729
  77 C :    0.023386
  78 H :    0.018479
  79 H :    0.021136
  80 H :   -0.013815
  81 H :   -0.011731
  82 H :   -0.017163
  83 H :   -0.015376
  84 H :   -0.026655
  85 H :   -0.044042
  86 H :   -0.037439
  87 H :   -0.015513
  88 H :    0.019281
  89 H :    0.006666
  90 H :    0.004852
  91 H :    0.017499
  92 H :    0.007103
  93 H :    0.005780
  94 H :   -0.038660
  95 H :   -0.026320
  96 H :   -0.036131
  97 H :   -0.037293
  98 H :   -0.032638
  99 H :   -0.023662
 100 H :    0.020104
 101 H :    0.009177
 102 H :    0.006651
 103 H :    0.018598
 104 H :    0.009011
 105 H :    0.007906
 106 H :   -0.021616
 107 H :   -0.018263
 108 H :   -0.028074
 109 H :    0.048247
 110 H :   -0.014867
 111 H :   -0.005437
 112 H :    0.040082
 113 H :   -0.007326
Sum of atomic charges:   -0.0000000

LOEWDIN ATOMIC CHARGES
----------------------
   0 C :   -0.081311
   1 C :   -0.138868
   2 C :   -0.033302
   3 C :   -0.026357
   4 C :   -0.179489
   5 S :    0.346462
   6 C :   -0.180915
   7 C :   -0.037719
   8 C :   -0.029814
   9 C :   -0.144867
  10 S :    0.372602
  11 C :   -0.053019
  12 C :   -0.027264
  13 C :   -0.019399
  14 C :   -0.000330
  15 C :   -0.018389
  16 C :   -0.017377
  17 C :   -0.024675
  18 C :   -0.017765
  19 C :    0.003566
  20 C :   -0.037983
  21 C :   -0.027050
  22 C :   -0.025546
  23 C :   -0.022214
  24 C :   -0.017745
  25 C :   -0.021224
  26 C :   -0.019095
  27 C :   -0.005507
  28 C :   -0.022793
  29 C :    0.008322
  30 C :   -0.026724
  31 C :   -0.012072
  32 C :   -0.020582
  33 C :    0.007383
  34 C :   -0.004188
  35 C :   -0.038170
  36 C :   -0.024832
  37 C :   -0.026870
  38 C :    0.004614
  39 C :   -0.030861
  40 C :    0.012845
  41 C :   -0.026219
  42 C :    0.028621
  43 C :   -0.015412
  44 C :    0.011835
  45 N :   -0.002913
  46 C :   -0.016092
  47 C :   -0.036626
  48 N :    0.014482
  49 C :   -0.037408
  50 N :   -0.005985
  51 C :   -0.034616
  52 N :    0.003864
  53 C :   -0.042369
  54 C :   -0.024268
  55 C :   -0.040745
  56 N :   -0.276421
  57 S :    0.694478
  58 N :   -0.273546
  59 C :    0.078942
  60 C :   -0.070171
  61 C :    0.073900
  62 C :   -0.130854
  63 C :   -0.017336
  64 N :   -0.049306
  65 C :   -0.023599
  66 N :   -0.043838
  67 C :   -0.021770
  68 C :   -0.051450
  69 C :    0.085081
  70 O :   -0.149470
  71 C :    0.021951
  72 C :   -0.034555
  73 C :   -0.144567
  74 C :   -0.008423
  75 S :    0.430794
  76 C :   -0.148402
  77 C :   -0.058308
  78 H :    0.027781
  79 H :    0.025653
  80 H :    0.032564
  81 H :    0.031955
  82 H :    0.030336
  83 H :    0.031911
  84 H :    0.031304
  85 H :    0.022121
  86 H :    0.026688
  87 H :    0.011666
  88 H :    0.028988
  89 H :    0.021972
  90 H :    0.021104
  91 H :    0.028855
  92 H :    0.022100
  93 H :    0.021726
  94 H :    0.024032
  95 H :    0.025889
  96 H :    0.026415
  97 H :    0.025076
  98 H :    0.027856
  99 H :    0.027554
 100 H :    0.029562
 101 H :    0.023300
 102 H :    0.022274
 103 H :    0.028911
 104 H :    0.023391
 105 H :    0.022055
 106 H :    0.024773
 107 H :    0.027048
 108 H :    0.029850
 109 H :    0.049307
 110 H :    0.039236
 111 H :    0.041030
 112 H :    0.029848
 113 H :    0.035113

  Mayer bond orders larger than 0.100000
B(  0-C ,  1-C ) :   1.8629 B(  0-C , 78-H ) :   0.9516 B(  0-C , 79-H ) :   0.9426
B(  1-C ,  2-C ) :   1.0783 B(  1-C ,  5-S ) :   1.0080 B(  2-C ,  3-C ) :   1.6654
B(  2-C , 80-H ) :   0.9933 B(  3-C ,  4-C ) :   1.1468 B(  3-C , 81-H ) :   0.9918
B(  4-C ,  5-S ) :   1.0388 B(  4-C ,  6-C ) :   1.5723 B(  6-C ,  7-C ) :   1.1563
B(  6-C , 10-S ) :   1.0271 B(  7-C ,  8-C ) :   1.6261 B(  7-C , 82-H ) :   0.9918
B(  8-C ,  9-C ) :   1.1164 B(  8-C , 83-H ) :   0.9992 B(  9-C , 10-S ) :   1.0228
B(  9-C , 11-C ) :   1.6151 B( 11-C , 12-C ) :   1.0987 B( 11-C , 84-H ) :   0.9704
B( 12-C , 13-C ) :   1.2683 B( 12-C , 17-C ) :   1.3267 B( 13-C , 14-C ) :   1.3918
B( 13-C , 85-H ) :   1.0110 B( 14-C , 15-C ) :   1.3759 B( 14-C , 20-C ) :   0.9330
B( 15-C , 16-C ) :   1.3324 B( 15-C , 18-C ) :   0.9967 B( 16-C , 17-C ) :   1.4119
B( 16-C , 86-H ) :   0.9915 B( 17-C , 87-H ) :   0.9691 B( 18-C , 19-C ) :   1.3859
B( 18-C , 26-C ) :   1.3411 B( 19-C , 20-C ) :   0.9316 B( 19-C , 23-C ) :   1.3863
B( 20-C , 21-C ) :   1.0356 B( 20-C , 22-C ) :   1.0296 B( 21-C , 88-H ) :   0.9651
B( 21-C , 89-H ) :   0.9625 B( 21-C , 90-H ) :   0.9626 B( 22-C , 91-H ) :   0.9635
B( 22-C , 92-H ) :   0.9635 B( 22-C , 93-H ) :   0.9630 B( 23-C , 24-C ) :   1.3345
B( 23-C , 94-H ) :   1.0012 B( 24-C , 25-C ) :   1.3868 B( 24-C , 27-C ) :   0.9459
B( 25-C , 26-C ) :   1.3754 B( 25-C , 95-H ) :   0.9861 B( 26-C , 96-H ) :   0.9924
B( 27-C , 28-C ) :   1.3378 B( 27-C , 32-C ) :   1.3840 B( 28-C , 29-C ) :   1.3835
B( 28-C , 97-H ) :   1.0032 B( 29-C , 30-C ) :   1.3840 B( 29-C , 35-C ) :   0.9322
B( 30-C , 31-C ) :   1.3346 B( 30-C , 33-C ) :   0.9972 B( 31-C , 32-C ) :   1.3819
B( 31-C , 98-H ) :   0.9938 B( 32-C , 99-H ) :   0.9859 B( 33-C , 34-C ) :   1.3695
B( 33-C , 41-C ) :   1.3277 B( 34-C , 35-C ) :   0.9311 B( 34-C , 38-C ) :   1.4116
B( 35-C , 36-C ) :   1.0276 B( 35-C , 37-C ) :   1.0394 B( 36-C ,100-H ) :   0.9631
B( 36-C ,101-H ) :   0.9633 B( 36-C ,102-H ) :   0.9634 B( 37-C ,103-H ) :   0.9650
B( 37-C ,104-H ) :   0.9619 B( 37-C ,105-H ) :   0.9623 B( 38-C , 39-C ) :   1.2911
B( 38-C ,106-H ) :   0.9894 B( 39-C , 40-C ) :   1.3343 B( 39-C , 42-C ) :   1.0596
B( 40-C , 41-C ) :   1.4074 B( 40-C ,107-H ) :   0.9777 B( 41-C ,108-H ) :   0.9934
B( 42-C , 43-C ) :   1.2623 B( 42-C , 53-C ) :   0.1286 B( 42-C , 55-C ) :   1.2421
B( 43-C , 44-C ) :   1.1025 B( 43-C , 48-N ) :   1.4319 B( 44-C , 45-N ) :   1.4427
B( 44-C , 53-C ) :   1.2766 B( 45-N , 46-C ) :   1.7526 B( 46-C , 47-C ) :   1.1972
B( 46-C , 51-C ) :   1.1500 B( 47-C , 48-N ) :   1.7332 B( 47-C , 49-C ) :   1.1497
B( 49-C , 50-N ) :   3.0492 B( 51-C , 52-N ) :   3.0462 B( 53-C , 54-C ) :   1.2170
B( 53-C , 59-C ) :   1.1374 B( 54-C , 55-C ) :   1.1083 B( 54-C , 58-N ) :   1.5003
B( 55-C , 56-N ) :   1.4701 B( 56-N , 57-S ) :   1.3052 B( 56-N , 58-N ) :   0.1550
B( 57-S , 58-N ) :   1.2923 B( 59-C , 60-C ) :   1.6333 B( 59-C ,109-H ) :   0.9295
B( 60-C , 61-C ) :   1.0548 B( 60-C , 69-C ) :   0.9362 B( 61-C , 62-C ) :   1.6538
B( 61-C , 67-C ) :   1.0072 B( 62-C , 63-C ) :   1.1407 B( 62-C , 65-C ) :   1.1417
B( 63-C , 64-N ) :   2.9726 B( 65-C , 66-N ) :   2.9894 B( 67-C , 68-C ) :   1.2684
B( 67-C , 74-C ) :   1.4076 B( 68-C , 69-C ) :   0.9534 B( 68-C , 71-C ) :   1.4232
B( 69-C , 70-O ) :   2.2156 B( 71-C , 72-C ) :   1.2464 B( 71-C ,110-H ) :   1.0171
B( 72-C , 73-C ) :   1.3003 B( 72-C , 77-C ) :   1.1695 B( 73-C , 74-C ) :   1.3256
B( 73-C , 75-S ) :   1.0995 B( 74-C ,111-H ) :   0.9830 B( 75-S , 76-C ) :   1.1273
B( 76-C , 77-C ) :   1.6297 B( 76-C ,112-H ) :   0.9681 B( 77-C ,113-H ) :   0.9999

-----------------------------------------------------------------------------
         ABSORPTION SPECTRUM VIA TRANSITION ELECTRIC DIPOLE MOMENTS
-----------------------------------------------------------------------------
State   Energy  Wavelength   fosc         T2         TX        TY        TZ
        (cm-1)    (nm)                  (au**2)     (au)      (au)      (au)
-----------------------------------------------------------------------------
   0   12510.0    799.4   0.406907846  10.70813   0.82039   2.04905   2.41588
   1   14236.7    702.4   0.383084213   8.85853   0.76196   1.42189   2.50124
   2   19913.4    502.2   1.643228551  27.16616   0.61414   5.14694   0.54588
   3   20448.9    489.0   0.066592604   1.07209   0.17643   0.99196   0.23871
   4   22621.1    442.1   0.057021642   0.82985  -0.50114   0.24889  -0.71886
   5   23077.8    433.3   0.013005654   0.18553   0.27508   0.29224   0.15638
   6   23420.4    427.0   0.144270272   2.02795   0.11256   0.21523   1.40320
   7   23760.2    420.9   0.031128087   0.43130  -0.17311   0.08742  -0.62745
   8   24447.9    409.0   0.121185075   1.63186   0.25803   0.09922   1.24717
   9   25337.6    394.7   0.074460992   0.96747  -0.14062   0.46397  -0.85582
  10   25692.6    389.2   0.018632151   0.23874  -0.16266   0.41885   0.19196
  11   26964.6    370.9   0.004664906   0.05695   0.08944   0.08315  -0.20504
  12   27797.5    359.7   0.062522506   0.74047   0.10674  -0.23343  -0.82133
  13   28648.6    349.1   0.200219288   2.30079  -0.41447   0.16793  -1.44942
  14   28871.2    346.4   0.018802189   0.21440  -0.02717  -0.42373  -0.18469
  15   29017.0    344.6   0.011851455   0.13446   0.35899   0.07450  -0.00603
  16   29336.8    340.9   0.019820257   0.22242   0.23995   0.27568   0.29807
  17   29604.6    337.8   0.059714266   0.66404  -0.31913   0.38649  -0.64251
  18   30140.0    331.8   0.134387254   1.46788   0.68143   0.85351   0.52446
  19   30318.9    329.8   0.317843483   3.45124  -0.80895   1.25238  -1.10833
  20   30679.0    326.0   0.072141594   0.77414  -0.18429  -0.57949  -0.63590
  21   31490.1    317.6   0.145061077   1.51654  -0.39473  -1.16091   0.11414
  22   31590.4    316.6   0.137751640   1.43555   0.36436   0.54071   1.00520
  23   31659.8    315.9   0.548276741   5.70121  -0.61486  -0.95637  -2.09965
  24   32021.9    312.3   0.121238967   1.24644   0.50347  -0.73486   0.67301
  25   32482.0    307.9   0.079855745   0.80936   0.56162   0.18752  -0.67733
  26   32694.4    305.9   0.141374294   1.42355  -0.49821  -0.78779   0.74480
  27   32827.7    304.6   0.106654306   1.06958  -0.04304  -0.75341   0.70718
  28   33173.7    301.4   0.231279420   2.29519  -0.69292  -1.26151   0.47291
  29   33613.2    297.5   0.170941908   1.67423  -0.25028  -0.97531   0.81262
  30   33631.3    297.3   0.017652579   0.17280  -0.29985  -0.28790   0.00035
  31   33982.2    294.3   0.057682190   0.55881  -0.69486  -0.18426  -0.20502
  32   34338.5    291.2   0.021845078   0.20943  -0.00195   0.21598  -0.40347
  33   34867.0    286.8   0.029271799   0.27638   0.04599   0.38162   0.35865
  34   35159.4    284.4   0.581070292   5.44080   0.63706  -2.23399   0.21030
  35   35401.4    282.5   0.002568957   0.02389  -0.05672  -0.07158  -0.12470
  36   35620.1    280.7   0.021700010   0.20056   0.10633   0.35680   0.24889
  37   36145.0    276.7   0.002101457   0.01914   0.03190  -0.08903   0.10097
  38   36621.1    273.1   0.129719218   1.16613   0.17137   1.01748   0.31860
  39   36940.6    270.7   0.126962215   1.13148   0.14246  -0.00633  -1.05411
  40   37215.3    268.7   0.101264732   0.89580  -0.33564  -0.61145   0.63974
  41   37662.4    265.5   0.060279210   0.52691  -0.27922  -0.26938   0.61350
  42   37829.1    264.3   0.067949848   0.59134   0.30317   0.32757  -0.62621
  43   37929.3    263.6   0.009237666   0.08018   0.02216   0.26715  -0.09120
  44   38322.1    260.9   0.034739951   0.29844   0.07331   0.51814   0.15682
  45   38553.9    259.4   0.163906915   1.39960  -0.25826  -1.10920  -0.32028
  46   38666.7    258.6   0.331880399   2.82566   0.42136   0.74860   1.44490
  47   39175.5    255.3   0.050220974   0.42203   0.04019   0.04128   0.64708
  48   39415.8    253.7   0.000589617   0.00492  -0.01635  -0.06817  -0.00323
  49   39870.5    250.8   0.068377490   0.56459  -0.20804  -0.34954  -0.63177
  50   39915.6    250.5   0.011338916   0.09352  -0.00389  -0.27903  -0.12509
  51   40219.1    248.6   0.008565197   0.07011  -0.24519  -0.09737   0.02256

FINAL SINGLE POINT ENERGY     -4600.180434985479

DIPOLE MOMENT
-------------
                                X             Y             Z
Electronic contribution:    -42.45995     -92.09102    -104.81127
Nuclear contribution   :     43.06386      97.35243     105.27958
                        -----------------------------------------
Total Dipole Moment    :      0.60391       5.26140       0.46831
                        -----------------------------------------
Magnitude (a.u.)       :      5.31662
Magnitude (Debye)      :     13.51376

Rotational constants in cm-1:     0.001513     0.000155     0.000144
Rotational constants in MHz :    45.363388     4.655452     4.311731

                             ****ORCA TERMINATED NORMALLY****
TOTAL RUN TIME: 0 days 0 hours 11 minutes 20 seconds 319 msec
