                         Program Version 4.2.0 -  RELEASE  -
|  1> # ORCA input file
|  2> # SCF done       -193.344571169688          0.000862633349
|  3> ! CAM-B3LYP def2-SVP def2/J RIJCOSX Grid4 TightSCF
|  4> %maxcore 5000
|  5> %tddft
|  6>     Mode sTDDFT
|  7>     Ethresh 5.0
|  8>     maxcore 5000
|  9> end
| 10>
| 11> %pal
| 12>   nprocs 6
| 13>   end
| 14> * xyz 0 1
| 15>    C       12.21335        -5.57640        10.74116
| 16>    C       12.39545        -6.40805         9.70756
| 17>    C       13.63470        -6.94508         9.21939
| 18>    C       13.50801        -7.76762         8.15637
| 19>    C       12.16682        -7.95213         7.71147
| 20>    S       11.06531        -7.02370         8.71380
| 21>    C       11.73447        -8.72732         6.66737
| 22>    C       12.51260        -9.52691         5.78910
| 23>    C       11.78657       -10.18498         4.85530
| 24>    C       10.37643        -9.96246         4.91803
| 25>    S       10.03674        -8.84892         6.23940
| 26>    C        9.47763       -10.56053         4.08779
| 27>    C        8.04989       -10.46665         4.02889
| 28>    C        7.37300       -11.34005         3.15348
| 29>    C        6.00564       -11.31098         3.07733
| 30>    C        5.26441       -10.40146         3.85391
| 31>    C        5.91689        -9.52120         4.70612
| 32>    C        7.29257        -9.56153         4.78952
| 33>    C        3.85925       -10.60452         3.58447
| 34>    C        3.72826       -11.64797         2.65010
| 35>    C        5.08617       -12.16307         2.23354
| 36>    C        5.24593       -13.65931         2.55791
| 37>    C        5.00447       -13.97249         4.02969
| 38>    C        5.33314       -11.93015         0.73091
| 39>    C        5.19541       -10.46659         0.32898
| 40>    C        2.49007       -12.07578         2.24266
| 41>    C        1.34027       -11.46103         2.76172
| 42>    C        1.48804       -10.39551         3.66027
| 43>    C        2.73052        -9.96815         4.08179
| 44>    C        0.00662       -11.89801         2.41774
| 45>    C       -0.30514       -13.08843         1.87128
| 46>    C       -1.62753       -13.55279         1.57878
| 47>    S       -1.93937       -15.25853         1.72921
| 48>    C       -3.63399       -15.05427         1.36994
| 49>    C       -3.90593       -13.72251         1.08933
| 50>    C       -2.77679       -12.88287         1.20814
| 51>    C       -2.85698       -11.44907         0.78130
| 52>    C       -3.28740       -11.39995        -0.67461
| 53>    S       -4.97933       -12.06845        -0.80813
| 54>    O       -5.06587       -12.87131        -1.99658
| 55>    O       -5.91412       -10.98420        -0.66644
| 56>    C       -5.20425       -13.16624         0.65170
| 57>    C       -4.45288       -16.21004         1.45227
| 58>    C       -5.80134       -16.25675         1.61007
| 59>    C       -6.54179       -17.45385         1.70264
| 60>    S       -5.79975       -19.01570         1.65138
| 61>    C       -7.30672       -19.85408         1.87024
| 62>    C       -8.37191       -18.94639         1.91874
| 63>    C       -7.93657       -17.58320         1.84920
| 64>    C       -8.88560       -16.55850         1.89764
| 65>    C      -10.23063       -16.85249         1.99121
| 66>    C      -11.22420       -15.77679         2.03432
| 67>    O      -12.42898       -15.95531         2.08549
| 68>    O      -10.70792       -14.54485         2.01457
| 69>    C      -10.67282       -18.21620         2.00044
| 70>    O      -11.97189       -18.54239         2.06377
| 71>    C       -9.74729       -19.23240         1.94644
| 72>    C       -7.32086       -21.26973         1.96777
| 73>    S       -6.20106       -22.22278         1.05158
| 74>    C       -6.83331       -23.69374         1.64221
| 75>    C       -7.86337       -23.49664         2.53627
| 76>    C       -8.14178       -22.10168         2.74337
| 77>    C       -9.09494       -21.73660         3.70443
| 78>    C       -9.81151       -22.69657         4.38549
| 79>    C      -10.85922       -22.32457         5.36025
| 80>    O      -11.27571       -23.09236         6.20307
| 81>    O      -11.38164       -21.09605         5.27787
| 82>    C       -9.53852       -24.09397         4.16877
| 83>    O      -10.18765       -25.04931         4.84720
| 84>    C       -8.58494       -24.46927         3.25567
| 85>    H       13.05072        -5.22685        11.31877
| 86>    H       11.23560        -5.23271        11.02500
| 87>    H       14.56614        -6.68752         9.69185
| 88>    H       14.33104        -8.25668         7.66557
| 89>    H       13.58215        -9.59055         5.88083
| 90>    H       12.20669       -10.83728         4.10952
| 91>    H        9.91604       -11.23998         3.36497
| 92>    H        7.94474       -12.03736         2.55705
| 93>    H        5.35771        -8.81453         5.30078
| 94>    H        7.79419        -8.87270         5.44910
| 95>    H        6.25537       -13.97136         2.28186
| 96>    H        4.54279       -14.22824         1.94563
| 97>    H        5.71184       -13.43473         4.65714
| 98>    H        5.12378       -15.03842         4.21057
| 99>    H        3.99764       -13.68366         4.32371
|100>    H        4.62083       -12.53118         0.16135
|101>    H        6.33787       -12.28008         0.48441
|102>    H        4.19512       -10.10018         0.54930
|103>    H        5.37711       -10.35232        -0.73724
|104>    H        5.91189        -9.85129         0.86866
|105>    H        2.39732       -12.87206         1.51990
|106>    H        0.60013        -9.91410         4.04562
|107>    H        2.82097        -9.15593         4.78733
|108>    H       -0.78909       -11.22286         2.70364
|109>    H        0.47372       -13.82076         1.70717
|110>    H       -1.88852       -10.96131         0.89166
|111>    H       -3.59125       -10.90860         1.38526
|112>    H       -2.65721       -12.01509        -1.31038
|113>    H       -3.34112       -10.38479        -1.05710
|114>    H       -5.89492       -13.92779         0.30480
|115>    H       -5.67347       -12.53583         1.40511
|116>    H       -3.91488       -17.15085         1.43985
|117>    H       -6.37175       -15.34652         1.70965
|118>    H       -8.58034       -15.52560         1.85430
|119>    H      -11.42353       -13.89002         2.03348
|120>    H      -12.50735       -17.71845         2.07496
|121>    H      -10.09932       -20.24952         1.89005
|122>    H       -6.41863       -24.62386         1.31042
|123>    H       -9.21289       -20.68745         3.93674
|124>    H      -11.07519       -20.59676         4.50854
|125>    H      -10.74828       -24.62860         5.53554
|126>    H       -8.37441       -25.51675         3.11613
|127> *
|128>
|129>                          ****END OF INPUT****

CARTESIAN COORDINATES (ANGSTROEM)
---------------------------------
  C     12.213350   -5.576400   10.741160
  C     12.395450   -6.408050    9.707560
  C     13.634700   -6.945080    9.219390
  C     13.508010   -7.767620    8.156370
  C     12.166820   -7.952130    7.711470
  S     11.065310   -7.023700    8.713800
  C     11.734470   -8.727320    6.667370
  C     12.512600   -9.526910    5.789100
  C     11.786570  -10.184980    4.855300
  C     10.376430   -9.962460    4.918030
  S     10.036740   -8.848920    6.239400
  C      9.477630  -10.560530    4.087790
  C      8.049890  -10.466650    4.028890
  C      7.373000  -11.340050    3.153480
  C      6.005640  -11.310980    3.077330
  C      5.264410  -10.401460    3.853910
  C      5.916890   -9.521200    4.706120
  C      7.292570   -9.561530    4.789520
  C      3.859250  -10.604520    3.584470
  C      3.728260  -11.647970    2.650100
  C      5.086170  -12.163070    2.233540
  C      5.245930  -13.659310    2.557910
  C      5.004470  -13.972490    4.029690
  C      5.333140  -11.930150    0.730910
  C      5.195410  -10.466590    0.328980
  C      2.490070  -12.075780    2.242660
  C      1.340270  -11.461030    2.761720
  C      1.488040  -10.395510    3.660270
  C      2.730520   -9.968150    4.081790
  C      0.006620  -11.898010    2.417740
  C     -0.305140  -13.088430    1.871280
  C     -1.627530  -13.552790    1.578780
  S     -1.939370  -15.258530    1.729210
  C     -3.633990  -15.054270    1.369940
  C     -3.905930  -13.722510    1.089330
  C     -2.776790  -12.882870    1.208140
  C     -2.856980  -11.449070    0.781300
  C     -3.287400  -11.399950   -0.674610
  S     -4.979330  -12.068450   -0.808130
  O     -5.065870  -12.871310   -1.996580
  O     -5.914120  -10.984200   -0.666440
  C     -5.204250  -13.166240    0.651700
  C     -4.452880  -16.210040    1.452270
  C     -5.801340  -16.256750    1.610070
  C     -6.541790  -17.453850    1.702640
  S     -5.799750  -19.015700    1.651380
  C     -7.306720  -19.854080    1.870240
  C     -8.371910  -18.946390    1.918740
  C     -7.936570  -17.583200    1.849200
  C     -8.885600  -16.558500    1.897640
  C    -10.230630  -16.852490    1.991210
  C    -11.224200  -15.776790    2.034320
  O    -12.428980  -15.955310    2.085490
  O    -10.707920  -14.544850    2.014570
  C    -10.672820  -18.216200    2.000440
  O    -11.971890  -18.542390    2.063770
  C     -9.747290  -19.232400    1.946440
  C     -7.320860  -21.269730    1.967770
  S     -6.201060  -22.222780    1.051580
  C     -6.833310  -23.693740    1.642210
  C     -7.863370  -23.496640    2.536270
  C     -8.141780  -22.101680    2.743370
  C     -9.094940  -21.736600    3.704430
  C     -9.811510  -22.696570    4.385490
  C    -10.859220  -22.324570    5.360250
  O    -11.275710  -23.092360    6.203070
  O    -11.381640  -21.096050    5.277870
  C     -9.538520  -24.093970    4.168770
  O    -10.187650  -25.049310    4.847200
  C     -8.584940  -24.469270    3.255670
  H     13.050720   -5.226850   11.318770
  H     11.235600   -5.232710   11.025000
  H     14.566140   -6.687520    9.691850
  H     14.331040   -8.256680    7.665570
  H     13.582150   -9.590550    5.880830
  H     12.206690  -10.837280    4.109520
  H      9.916040  -11.239980    3.364970
  H      7.944740  -12.037360    2.557050
  H      5.357710   -8.814530    5.300780
  H      7.794190   -8.872700    5.449100
  H      6.255370  -13.971360    2.281860
  H      4.542790  -14.228240    1.945630
  H      5.711840  -13.434730    4.657140
  H      5.123780  -15.038420    4.210570
  H      3.997640  -13.683660    4.323710
  H      4.620830  -12.531180    0.161350
  H      6.337870  -12.280080    0.484410
  H      4.195120  -10.100180    0.549300
  H      5.377110  -10.352320   -0.737240
  H      5.911890   -9.851290    0.868660
  H      2.397320  -12.872060    1.519900
  H      0.600130   -9.914100    4.045620
  H      2.820970   -9.155930    4.787330
  H     -0.789090  -11.222860    2.703640
  H      0.473720  -13.820760    1.707170
  H     -1.888520  -10.961310    0.891660
  H     -3.591250  -10.908600    1.385260
  H     -2.657210  -12.015090   -1.310380
  H     -3.341120  -10.384790   -1.057100
  H     -5.894920  -13.927790    0.304800
  H     -5.673470  -12.535830    1.405110
  H     -3.914880  -17.150850    1.439850
  H     -6.371750  -15.346520    1.709650
  H     -8.580340  -15.525600    1.854300
  H    -11.423530  -13.890020    2.033480
  H    -12.507350  -17.718450    2.074960
  H    -10.099320  -20.249520    1.890050
  H     -6.418630  -24.623860    1.310420
  H     -9.212890  -20.687450    3.936740
  H    -11.075190  -20.596760    4.508540
  H    -10.748280  -24.628600    5.535540
  H     -8.374410  -25.516750    3.116130

 Total Charge           Charge          ....    0
 Multiplicity           Mult            ....    1
 Number of Electrons    NEL             ....  538
 Basis Dimension        Dim             .... 1214

ORBITAL ENERGIES
----------------

  NO   OCC          E(Eh)            E(eV)
   0   2.0000     -89.129520     -2425.3375
   1   2.0000     -88.976448     -2421.1722
   2   2.0000     -88.970439     -2421.0087
   3   2.0000     -88.962678     -2420.7975
   4   2.0000     -88.941273     -2420.2151
   5   2.0000     -88.935739     -2420.0645
   6   2.0000     -19.282223      -524.6960
   7   2.0000     -19.262451      -524.1579
   8   2.0000     -19.237816      -523.4876
   9   2.0000     -19.230000      -523.2749
  10   2.0000     -19.219636      -522.9929
  11   2.0000     -19.208208      -522.6819
  12   2.0000     -19.183421      -522.0074
  13   2.0000     -19.183072      -521.9979
  14   2.0000     -10.428050      -283.7617
  15   2.0000     -10.410959      -283.2966
  16   2.0000     -10.348984      -281.6102
  17   2.0000     -10.333562      -281.1905
  18   2.0000     -10.320602      -280.8379
  19   2.0000     -10.315692      -280.7042
  20   2.0000     -10.315391      -280.6961
  21   2.0000     -10.314793      -280.6798
  22   2.0000     -10.312377      -280.6140
  23   2.0000     -10.310439      -280.5613
  24   2.0000     -10.307476      -280.4807
  25   2.0000     -10.307348      -280.4772
  26   2.0000     -10.305334      -280.4224
  27   2.0000     -10.305094      -280.4159
  28   2.0000     -10.304383      -280.3965
  29   2.0000     -10.304062      -280.3878
  30   2.0000     -10.301097      -280.3071
  31   2.0000     -10.300388      -280.2878
  32   2.0000     -10.299788      -280.2715
  33   2.0000     -10.299589      -280.2661
  34   2.0000     -10.298221      -280.2288
  35   2.0000     -10.298089      -280.2253
  36   2.0000     -10.296990      -280.1953
  37   2.0000     -10.294559      -280.1292
  38   2.0000     -10.292434      -280.0714
  39   2.0000     -10.292071      -280.0615
  40   2.0000     -10.289349      -279.9874
  41   2.0000     -10.288977      -279.9773
  42   2.0000     -10.287972      -279.9500
  43   2.0000     -10.286379      -279.9066
  44   2.0000     -10.285065      -279.8708
  45   2.0000     -10.284113      -279.8449
  46   2.0000     -10.282953      -279.8134
  47   2.0000     -10.282641      -279.8049
  48   2.0000     -10.281914      -279.7851
  49   2.0000     -10.281730      -279.7801
  50   2.0000     -10.278832      -279.7012
  51   2.0000     -10.278510      -279.6925
  52   2.0000     -10.274783      -279.5910
  53   2.0000     -10.274080      -279.5719
  54   2.0000     -10.273528      -279.5569
  55   2.0000     -10.273078      -279.5447
  56   2.0000     -10.272989      -279.5422
  57   2.0000     -10.270522      -279.4751
  58   2.0000     -10.270408      -279.4720
  59   2.0000     -10.270353      -279.4705
  60   2.0000     -10.269076      -279.4358
  61   2.0000     -10.268366      -279.4164
  62   2.0000     -10.267768      -279.4002
  63   2.0000     -10.266887      -279.3762
  64   2.0000     -10.266838      -279.3749
  65   2.0000     -10.264436      -279.3095
  66   2.0000     -10.264340      -279.3069
  67   2.0000     -10.257531      -279.1216
  68   2.0000     -10.247055      -278.8365
  69   2.0000     -10.247037      -278.8360
  70   2.0000      -8.196426      -223.0361
  71   2.0000      -8.071548      -219.6380
  72   2.0000      -8.065644      -219.4773
  73   2.0000      -8.058778      -219.2905
  74   2.0000      -8.037037      -218.6989
  75   2.0000      -8.032433      -218.5736
  76   2.0000      -6.165185      -167.7632
  77   2.0000      -6.164946      -167.7567
  78   2.0000      -6.164496      -167.7445
  79   2.0000      -6.040505      -164.3705
  80   2.0000      -6.036480      -164.2610
  81   2.0000      -6.034590      -164.2095
  82   2.0000      -6.034284      -164.2012
  83   2.0000      -6.030234      -164.0910
  84   2.0000      -6.028831      -164.0528
  85   2.0000      -6.027980      -164.0297
  86   2.0000      -6.023930      -163.9195
  87   2.0000      -6.020877      -163.8364
  88   2.0000      -6.006879      -163.4555
  89   2.0000      -6.002841      -163.3456
  90   2.0000      -6.002302      -163.3309
  91   2.0000      -5.998350      -163.2234
  92   2.0000      -5.997802      -163.2085
  93   2.0000      -5.992916      -163.0755
  94   2.0000      -1.212501       -32.9938
  95   2.0000      -1.190593       -32.3977
  96   2.0000      -1.188765       -32.3479
  97   2.0000      -1.144479       -31.1428
  98   2.0000      -1.128069       -30.6963
  99   2.0000      -1.111030       -30.2327
 100   2.0000      -1.097452       -29.8632
 101   2.0000      -1.069323       -29.0978
 102   2.0000      -1.013130       -27.5687
 103   2.0000      -1.003909       -27.3177
 104   2.0000      -0.991646       -26.9840
 105   2.0000      -0.989822       -26.9344
 106   2.0000      -0.987795       -26.8793
 107   2.0000      -0.966402       -26.2971
 108   2.0000      -0.947763       -25.7899
 109   2.0000      -0.946128       -25.7455
 110   2.0000      -0.932550       -25.3760
 111   2.0000      -0.928377       -25.2624
 112   2.0000      -0.924578       -25.1590
 113   2.0000      -0.916353       -24.9352
 114   2.0000      -0.901041       -24.5186
 115   2.0000      -0.889376       -24.2012
 116   2.0000      -0.879716       -23.9383
 117   2.0000      -0.871589       -23.7171
 118   2.0000      -0.866963       -23.5913
 119   2.0000      -0.864472       -23.5235
 120   2.0000      -0.850823       -23.1521
 121   2.0000      -0.844804       -22.9883
 122   2.0000      -0.841741       -22.9049
 123   2.0000      -0.838109       -22.8061
 124   2.0000      -0.837609       -22.7925
 125   2.0000      -0.834992       -22.7213
 126   2.0000      -0.831846       -22.6357
 127   2.0000      -0.829535       -22.5728
 128   2.0000      -0.819741       -22.3063
 129   2.0000      -0.816553       -22.2195
 130   2.0000      -0.810657       -22.0591
 131   2.0000      -0.795376       -21.6433
 132   2.0000      -0.780321       -21.2336
 133   2.0000      -0.770262       -20.9599
 134   2.0000      -0.761714       -20.7273
 135   2.0000      -0.758334       -20.6353
 136   2.0000      -0.749356       -20.3910
 137   2.0000      -0.742089       -20.1933
 138   2.0000      -0.735023       -20.0010
 139   2.0000      -0.723784       -19.6952
 140   2.0000      -0.719763       -19.5857
 141   2.0000      -0.717327       -19.5195
 142   2.0000      -0.708056       -19.2672
 143   2.0000      -0.706607       -19.2277
 144   2.0000      -0.698350       -19.0031
 145   2.0000      -0.686503       -18.6807
 146   2.0000      -0.678683       -18.4679
 147   2.0000      -0.678250       -18.4561
 148   2.0000      -0.675183       -18.3727
 149   2.0000      -0.674759       -18.3611
 150   2.0000      -0.668119       -18.1805
 151   2.0000      -0.662912       -18.0387
 152   2.0000      -0.656217       -17.8566
 153   2.0000      -0.653574       -17.7846
 154   2.0000      -0.644378       -17.5344
 155   2.0000      -0.642230       -17.4760
 156   2.0000      -0.639184       -17.3931
 157   2.0000      -0.626168       -17.0389
 158   2.0000      -0.619922       -16.8689
 159   2.0000      -0.617935       -16.8149
 160   2.0000      -0.610020       -16.5995
 161   2.0000      -0.605231       -16.4692
 162   2.0000      -0.600991       -16.3538
 163   2.0000      -0.597398       -16.2560
 164   2.0000      -0.596806       -16.2399
 165   2.0000      -0.591388       -16.0925
 166   2.0000      -0.591081       -16.0841
 167   2.0000      -0.586750       -15.9663
 168   2.0000      -0.583624       -15.8812
 169   2.0000      -0.576867       -15.6974
 170   2.0000      -0.574657       -15.6372
 171   2.0000      -0.568659       -15.4740
 172   2.0000      -0.563758       -15.3406
 173   2.0000      -0.562537       -15.3074
 174   2.0000      -0.558837       -15.2067
 175   2.0000      -0.554682       -15.0937
 176   2.0000      -0.545673       -14.8485
 177   2.0000      -0.544725       -14.8227
 178   2.0000      -0.544036       -14.8040
 179   2.0000      -0.543716       -14.7953
 180   2.0000      -0.539688       -14.6857
 181   2.0000      -0.538645       -14.6573
 182   2.0000      -0.538564       -14.6551
 183   2.0000      -0.534499       -14.5445
 184   2.0000      -0.532468       -14.4892
 185   2.0000      -0.529434       -14.4066
 186   2.0000      -0.522429       -14.2160
 187   2.0000      -0.520496       -14.1634
 188   2.0000      -0.518611       -14.1121
 189   2.0000      -0.517902       -14.0928
 190   2.0000      -0.515747       -14.0342
 191   2.0000      -0.513620       -13.9763
 192   2.0000      -0.511961       -13.9312
 193   2.0000      -0.510539       -13.8925
 194   2.0000      -0.508650       -13.8411
 195   2.0000      -0.507853       -13.8194
 196   2.0000      -0.503778       -13.7085
 197   2.0000      -0.498409       -13.5624
 198   2.0000      -0.495217       -13.4755
 199   2.0000      -0.492676       -13.4064
 200   2.0000      -0.492394       -13.3987
 201   2.0000      -0.489525       -13.3207
 202   2.0000      -0.487757       -13.2725
 203   2.0000      -0.486366       -13.2347
 204   2.0000      -0.484679       -13.1888
 205   2.0000      -0.483645       -13.1607
 206   2.0000      -0.482558       -13.1311
 207   2.0000      -0.479260       -13.0413
 208   2.0000      -0.476154       -12.9568
 209   2.0000      -0.475156       -12.9297
 210   2.0000      -0.471931       -12.8419
 211   2.0000      -0.471116       -12.8197
 212   2.0000      -0.468853       -12.7581
 213   2.0000      -0.468120       -12.7382
 214   2.0000      -0.466113       -12.6836
 215   2.0000      -0.464161       -12.6305
 216   2.0000      -0.460542       -12.5320
 217   2.0000      -0.457699       -12.4546
 218   2.0000      -0.456388       -12.4190
 219   2.0000      -0.453832       -12.3494
 220   2.0000      -0.448487       -12.2040
 221   2.0000      -0.446542       -12.1510
 222   2.0000      -0.445639       -12.1265
 223   2.0000      -0.442369       -12.0375
 224   2.0000      -0.435956       -11.8630
 225   2.0000      -0.435526       -11.8513
 226   2.0000      -0.433794       -11.8041
 227   2.0000      -0.428325       -11.6553
 228   2.0000      -0.426138       -11.5958
 229   2.0000      -0.425700       -11.5839
 230   2.0000      -0.424020       -11.5382
 231   2.0000      -0.422585       -11.4991
 232   2.0000      -0.418989       -11.4013
 233   2.0000      -0.418289       -11.3822
 234   2.0000      -0.417769       -11.3681
 235   2.0000      -0.415127       -11.2962
 236   2.0000      -0.413769       -11.2592
 237   2.0000      -0.407996       -11.1021
 238   2.0000      -0.405289       -11.0285
 239   2.0000      -0.403450       -10.9784
 240   2.0000      -0.398073       -10.8321
 241   2.0000      -0.393193       -10.6993
 242   2.0000      -0.392687       -10.6856
 243   2.0000      -0.391517       -10.6537
 244   2.0000      -0.390868       -10.6361
 245   2.0000      -0.386110       -10.5066
 246   2.0000      -0.384897       -10.4736
 247   2.0000      -0.382367       -10.4047
 248   2.0000      -0.378919       -10.3109
 249   2.0000      -0.375249       -10.2111
 250   2.0000      -0.365343        -9.9415
 251   2.0000      -0.359135        -9.7726
 252   2.0000      -0.356463        -9.6998
 253   2.0000      -0.354098        -9.6355
 254   2.0000      -0.350724        -9.5437
 255   2.0000      -0.345047        -9.3892
 256   2.0000      -0.335751        -9.1363
 257   2.0000      -0.327963        -8.9243
 258   2.0000      -0.323730        -8.8091
 259   2.0000      -0.320604        -8.7241
 260   2.0000      -0.319734        -8.7004
 261   2.0000      -0.314329        -8.5533
 262   2.0000      -0.309963        -8.4345
 263   2.0000      -0.306590        -8.3427
 264   2.0000      -0.291043        -7.9197
 265   2.0000      -0.272160        -7.4058
 266   2.0000      -0.258532        -7.0350
 267   2.0000      -0.225023        -6.1232
 268   2.0000      -0.216318        -5.8863
 269   0.0000      -0.085104        -2.3158
 270   0.0000      -0.063728        -1.7341
 271   0.0000      -0.047515        -1.2930
 272   0.0000      -0.035222        -0.9584
 273   0.0000      -0.008444        -0.2298

MULLIKEN ATOMIC CHARGES
-----------------------
   0 C :   -0.030708
   1 C :   -0.062364
   2 C :    0.052238
   3 C :    0.032218
   4 C :   -0.069758
   5 S :    0.075992
   6 C :   -0.036803
   7 C :    0.030440
   8 C :    0.031775
   9 C :   -0.001098
  10 S :    0.051931
  11 C :   -0.047323
  12 C :    0.123022
  13 C :   -0.115471
  14 C :    0.019678
  15 C :    0.105622
  16 C :   -0.048875
  17 C :   -0.022347
  18 C :    0.112024
  19 C :    0.011914
  20 C :   -0.141807
  21 C :    0.067190
  22 C :    0.026692
  23 C :    0.073679
  24 C :    0.023616
  25 C :   -0.088771
  26 C :    0.103003
  27 C :   -0.016737
  28 C :   -0.051902
  29 C :   -0.012963
  30 C :    0.041389
  31 C :   -0.143404
  32 S :    0.133298
  33 C :   -0.123561
  34 C :   -0.085019
  35 C :   -0.078836
  36 C :    0.089985
  37 C :    0.017549
  38 S :    0.644724
  39 O :   -0.459928
  40 O :   -0.471067
  41 C :    0.096724
  42 C :    0.043221
  43 C :   -0.016838
  44 C :   -0.084596
  45 S :    0.165021
  46 C :   -0.167711
  47 C :    0.175580
  48 C :    0.113954
  49 C :   -0.053824
  50 C :   -0.077332
  51 C :    0.174652
  52 O :   -0.249122
  53 O :   -0.156960
  54 C :    0.146158
  55 O :   -0.179084
  56 C :   -0.183344
  57 C :   -0.167404
  58 S :    0.170206
  59 C :   -0.141013
  60 C :    0.117777
  61 C :    0.151789
  62 C :   -0.112569
  63 C :   -0.069367
  64 C :    0.193128
  65 O :   -0.233395
  66 O :   -0.144096
  67 C :    0.139190
  68 O :   -0.178485
  69 C :   -0.091618
  70 H :    0.018918
  71 H :    0.020429
  72 H :   -0.012702
  73 H :   -0.012651
  74 H :   -0.014488
  75 H :   -0.014207
  76 H :   -0.026788
  77 H :   -0.042243
  78 H :   -0.036512
  79 H :   -0.017350
  80 H :   -0.003084
  81 H :   -0.005952
  82 H :    0.024135
  83 H :    0.008628
  84 H :    0.018685
  85 H :   -0.003841
  86 H :   -0.003724
  87 H :    0.019413
  88 H :    0.008911
  89 H :    0.024208
  90 H :   -0.039074
  91 H :   -0.030972
  92 H :   -0.032328
  93 H :   -0.010532
  94 H :   -0.007163
  95 H :    0.027421
  96 H :    0.030415
  97 H :    0.057039
  98 H :    0.067681
  99 H :    0.059954
 100 H :    0.059977
 101 H :   -0.003925
 102 H :   -0.008906
 103 H :   -0.006642
 104 H :    0.200443
 105 H :    0.194322
 106 H :   -0.009607
 107 H :    0.016784
 108 H :   -0.004063
 109 H :    0.189840
 110 H :    0.191936
 111 H :   -0.032262
Sum of atomic charges:   -0.0000000

LOEWDIN ATOMIC CHARGES
----------------------
   0 C :   -0.078255
   1 C :   -0.139257
   2 C :   -0.031573
   3 C :   -0.026167
   4 C :   -0.177235
   5 S :    0.346935
   6 C :   -0.181055
   7 C :   -0.036328
   8 C :   -0.030419
   9 C :   -0.142627
  10 S :    0.372182
  11 C :   -0.055773
  12 C :   -0.024169
  13 C :   -0.021271
  14 C :    0.001722
  15 C :   -0.021613
  16 C :   -0.014506
  17 C :   -0.025018
  18 C :   -0.012583
  19 C :    0.005807
  20 C :   -0.035596
  21 C :   -0.012335
  22 C :   -0.057681
  23 C :   -0.010973
  24 C :   -0.057740
  25 C :   -0.018782
  26 C :   -0.030890
  27 C :   -0.017517
  28 C :   -0.019473
  29 C :   -0.008795
  30 C :   -0.053224
  31 C :   -0.166775
  32 S :    0.440895
  33 C :   -0.165786
  34 C :   -0.087347
  35 C :   -0.068476
  36 C :   -0.039012
  37 C :   -0.130144
  38 S :    1.160197
  39 O :   -0.518751
  40 O :   -0.526895
  41 C :   -0.134746
  42 C :   -0.041663
  43 C :   -0.044143
  44 C :   -0.161352
  45 S :    0.481379
  46 C :   -0.210787
  47 C :   -0.029972
  48 C :   -0.060860
  49 C :    0.042313
  50 C :   -0.116585
  51 C :    0.104985
  52 O :   -0.189207
  53 O :   -0.023414
  54 C :    0.067208
  55 O :   -0.049612
  56 C :   -0.083559
  57 C :   -0.196664
  58 S :    0.485499
  59 C :   -0.214298
  60 C :   -0.033942
  61 C :   -0.063863
  62 C :    0.005566
  63 C :   -0.114936
  64 C :    0.102634
  65 O :   -0.168501
  66 O :   -0.013258
  67 C :    0.065172
  68 O :   -0.049300
  69 C :   -0.064082
  70 H :    0.028271
  71 H :    0.025858
  72 H :    0.033037
  73 H :    0.031964
  74 H :    0.031107
  75 H :    0.032302
  76 H :    0.031571
  77 H :    0.022738
  78 H :    0.027214
  79 H :    0.011699
  80 H :    0.019753
  81 H :    0.018288
  82 H :    0.026676
  83 H :    0.023717
  84 H :    0.024620
  85 H :    0.019029
  86 H :    0.019603
  87 H :    0.024799
  88 H :    0.023882
  89 H :    0.026453
  90 H :    0.022536
  91 H :    0.025403
  92 H :    0.027822
  93 H :    0.027559
  94 H :    0.027452
  95 H :    0.040450
  96 H :    0.035610
  97 H :    0.037829
  98 H :    0.041512
  99 H :    0.043062
 100 H :    0.040754
 101 H :    0.023828
 102 H :    0.031291
 103 H :    0.034454
 104 H :    0.108965
 105 H :    0.069346
 106 H :    0.035225
 107 H :    0.023901
 108 H :    0.029590
 109 H :    0.095357
 110 H :    0.067591
 111 H :    0.034169

  Mayer bond orders larger than 0.100000
B(  0-C ,  1-C ) :   1.8673 B(  0-C , 70-H ) :   0.9506 B(  0-C , 71-H ) :   0.9421
B(  1-C ,  2-C ) :   1.0767 B(  1-C ,  5-S ) :   1.0068 B(  2-C ,  3-C ) :   1.6677
B(  2-C , 72-H ) :   0.9931 B(  3-C ,  4-C ) :   1.1461 B(  3-C , 73-H ) :   0.9914
B(  4-C ,  5-S ) :   1.0403 B(  4-C ,  6-C ) :   1.5760 B(  6-C ,  7-C ) :   1.1556
B(  6-C , 10-S ) :   1.0256 B(  7-C ,  8-C ) :   1.6279 B(  7-C , 74-H ) :   0.9912
B(  8-C ,  9-C ) :   1.1150 B(  8-C , 75-H ) :   0.9989 B(  9-C , 10-S ) :   1.0245
B(  9-C , 11-C ) :   1.6131 B( 11-C , 12-C ) :   1.1005 B( 11-C , 76-H ) :   0.9707
B( 12-C , 13-C ) :   1.2655 B( 12-C , 17-C ) :   1.3233 B( 13-C , 14-C ) :   1.3939
B( 13-C , 77-H ) :   1.0135 B( 14-C , 15-C ) :   1.3581 B( 14-C , 20-C ) :   0.9151
B( 15-C , 16-C ) :   1.3350 B( 15-C , 18-C ) :   0.9997 B( 16-C , 17-C ) :   1.4153
B( 16-C , 78-H ) :   0.9898 B( 17-C , 79-H ) :   0.9694 B( 18-C , 19-C ) :   1.3566
B( 18-C , 28-C ) :   1.3423 B( 19-C , 20-C ) :   0.9128 B( 19-C , 25-C ) :   1.4073
B( 20-C , 21-C ) :   1.0411 B( 20-C , 23-C ) :   1.0372 B( 21-C , 22-C ) :   1.1024
B( 21-C , 80-H ) :   0.9389 B( 21-C , 81-H ) :   0.9380 B( 22-C , 82-H ) :   0.9642
B( 22-C , 83-H ) :   0.9639 B( 22-C , 84-H ) :   0.9638 B( 23-C , 24-C ) :   1.1009
B( 23-C , 85-H ) :   0.9390 B( 23-C , 86-H ) :   0.9390 B( 24-C , 87-H ) :   0.9646
B( 24-C , 88-H ) :   0.9639 B( 24-C , 89-H ) :   0.9644 B( 25-C , 26-C ) :   1.2970
B( 25-C , 90-H ) :   0.9987 B( 26-C , 27-C ) :   1.3394 B( 26-C , 29-C ) :   1.0713
B( 27-C , 28-C ) :   1.3751 B( 27-C , 91-H ) :   0.9927 B( 28-C , 92-H ) :   0.9925
B( 29-C , 30-C ) :   1.7234 B( 29-C , 93-H ) :   0.9776 B( 30-C , 31-C ) :   1.0701
B( 30-C , 94-H ) :   0.9447 B( 31-C , 32-S ) :   1.1244 B( 31-C , 35-C ) :   1.5521
B( 32-S , 33-C ) :   1.1218 B( 33-C , 34-C ) :   1.5185 B( 33-C , 42-C ) :   1.1349
B( 34-C , 35-C ) :   1.2841 B( 34-C , 41-C ) :   1.0480 B( 35-C , 36-C ) :   1.0539
B( 36-C , 37-C ) :   1.0805 B( 36-C , 95-H ) :   0.9116 B( 36-C , 96-H ) :   0.9063
B( 37-C , 38-S ) :   0.8502 B( 37-C , 97-H ) :   0.9286 B( 37-C , 98-H ) :   0.9307
B( 38-S , 39-O ) :   1.7290 B( 38-S , 40-O ) :   1.7042 B( 38-S , 41-C ) :   0.8189
B( 41-C , 99-H ) :   0.8940 B( 41-C ,100-H ) :   0.9079 B( 42-C , 43-C ) :   1.6351
B( 42-C ,101-H ) :   0.9472 B( 43-C , 44-C ) :   1.2104 B( 43-C ,102-H ) :   0.9603
B( 44-C , 45-S ) :   1.1584 B( 44-C , 46-C ) :   0.1146 B( 44-C , 48-C ) :   1.2927
B( 45-S , 46-C ) :   1.1414 B( 46-C , 47-C ) :   1.3714 B( 46-C , 57-C ) :   1.1340
B( 47-C , 48-C ) :   1.1937 B( 47-C , 56-C ) :   1.1622 B( 48-C , 49-C ) :   1.1957
B( 49-C , 50-C ) :   1.4776 B( 49-C ,103-H ) :   0.9903 B( 50-C , 51-C ) :   0.9527
B( 50-C , 54-C ) :   1.1249 B( 51-C , 52-O ) :   1.9833 B( 51-C , 53-O ) :   1.3140
B( 52-O ,105-H ) :   0.1254 B( 53-O ,104-H ) :   0.9364 B( 54-C , 55-O ) :   1.3288
B( 54-C , 56-C ) :   1.4670 B( 55-O ,105-H ) :   0.8959 B( 56-C ,106-H ) :   1.0058
B( 57-C , 58-S ) :   1.2100 B( 57-C , 59-C ) :   0.1233 B( 57-C , 61-C ) :   1.3371
B( 58-S , 59-C ) :   1.1683 B( 59-C , 60-C ) :   1.4201 B( 59-C ,107-H ) :   0.9710
B( 60-C , 61-C ) :   1.1922 B( 60-C , 69-C ) :   1.1465 B( 61-C , 62-C ) :   1.2349
B( 62-C , 63-C ) :   1.4525 B( 62-C ,108-H ) :   0.9724 B( 63-C , 64-C ) :   0.9240
B( 63-C , 67-C ) :   1.1268 B( 64-C , 65-O ) :   2.0019 B( 64-C , 66-O ) :   1.2850
B( 65-O ,110-H ) :   0.1261 B( 66-O ,109-H ) :   0.9427 B( 67-C , 68-O ) :   1.3225
B( 67-C , 69-C ) :   1.5029 B( 68-O ,110-H ) :   0.8973 B( 69-C ,111-H ) :   1.0117

-----------------------------------------------------------------------------
         ABSORPTION SPECTRUM VIA TRANSITION ELECTRIC DIPOLE MOMENTS
-----------------------------------------------------------------------------
State   Energy  Wavelength   fosc         T2         TX        TY        TZ
        (cm-1)    (nm)                  (au**2)     (au)      (au)      (au)
-----------------------------------------------------------------------------
   0   15202.7    657.8   1.205186126  26.09814   3.17816   3.99911   0.06795
   1   19441.1    514.4   1.775775322  30.07065   4.04888   2.05022   3.07796
   2   20797.9    480.8   0.093315617   1.47711  -0.52454   1.02595  -0.38652
   3   22118.5    452.1   0.118091515   1.75767  -0.28992   0.72464   1.07169
   4   23864.4    419.0   0.161377740   2.22622  -1.47511  -0.21938  -0.04631
   5   25952.6    385.3   0.252871931   3.20771  -1.70996  -0.39814   0.35390
   6   26311.1    380.1   0.243159602   3.04249   1.65947   0.52047   0.13321
   7   28117.5    355.7   0.040159919   0.47021   0.63758   0.14200  -0.20865
   8   29055.9    344.2   0.014286057   0.16187  -0.04697  -0.05028   0.39640
   9   29735.9    336.3   0.120638975   1.33562  -0.02698  -1.05488  -0.47129
  10   30686.2    325.9   0.093637627   1.00457   0.92156  -0.36475  -0.14920
  11   31800.6    314.5   0.032830358   0.33987  -0.46765  -0.05911   0.34305
  12   31996.7    312.5   0.205519041   2.11457   1.39732   0.10738  -0.38799
  13   32733.5    305.5   0.052929867   0.53233   0.52202  -0.40382   0.31105
  14   33376.9    299.6   0.038816590   0.38287  -0.41276   0.27909  -0.36689
  15   33973.0    294.4   0.030743215   0.29791  -0.50444  -0.08100   0.19209
  16   34586.9    289.1   0.018054065   0.17185  -0.40747   0.07422   0.01748
  17   35239.1    283.8   0.157190291   1.46851  -1.03039   0.51858  -0.37131
  18   35382.8    282.6   0.160061403   1.48926  -0.76884   0.67052   0.66973
  19   35554.2    281.3   0.062889729   0.58232  -0.35044   0.67170   0.09128
  20   35662.2    280.4   0.026581539   0.24538   0.34269  -0.35675  -0.02604
  21   36057.4    277.3   0.056105012   0.51225  -0.25070   0.63066   0.22731
  22   36497.9    274.0   0.137610043   1.24125   0.93751  -0.59892  -0.06024
  23   36621.4    273.1   0.036814409   0.33095  -0.24728  -0.45862  -0.24387
  24   36922.8    270.8   0.012949622   0.11546   0.33826  -0.03093  -0.00917
  25   37925.4    263.7   0.091426897   0.79363   0.65881   0.59479   0.07631
  26   38236.8    261.5   0.032813499   0.28252  -0.36123  -0.38971   0.01255
  27   38394.9    260.5   0.142056109   1.21804  -1.10247  -0.05098   0.00301
  28   38818.2    257.6   0.137136505   1.16304   0.11957   0.86481  -0.63312
  29   39346.8    254.2   0.019313449   0.16159   0.04672   0.18978  -0.35127
  30   39809.8    251.2   0.009575093   0.07918  -0.24672  -0.05848  -0.12202
  31   40160.5    249.0   0.010825677   0.08874  -0.01815  -0.29318   0.04961

FINAL SINGLE POINT ENERGY     -5145.976339921404

DIPOLE MOMENT
-------------
                                X             Y             Z
Electronic contribution:    -77.22787     -47.72332       1.55992
Nuclear contribution   :     81.47709      49.84623      -1.43809
                        -----------------------------------------
Total Dipole Moment    :      4.24923       2.12291       0.12183
                        -----------------------------------------
Magnitude (a.u.)       :      4.75158
Magnitude (Debye)      :     12.07756

Rotational constants in cm-1:     0.001476     0.000180     0.000171
Rotational constants in MHz :    44.255071     5.392002     5.121193

                             ****ORCA TERMINATED NORMALLY****
TOTAL RUN TIME: 0 days 0 hours 9 minutes 56 seconds 815 msec
