                         Program Version 4.2.0 -  RELEASE  -
|  1> # ORCA input file
|  2> # SCF done       -167.591065486657          0.000535258479
|  3> ! CAM-B3LYP def2-SVP def2/J RIJCOSX Grid4 TightSCF
|  4> %maxcore 5000
|  5> %tddft
|  6>     Mode sTDDFT
|  7>     Ethresh 5.0
|  8>     maxcore 5000
|  9> end
| 10>
| 11> %pal
| 12>   nprocs 6
| 13>   end
| 14> * xyz 0 1
| 15>    C      -10.91416         7.53872         3.78155
| 16>    C      -10.55762         6.68210         2.76207
| 17>    C       -9.22866         6.55818         2.27329
| 18>    N       -9.09853         5.63441         1.27515
| 19>    C      -10.20981         5.07857         0.98442
| 20>    S      -11.60439         5.59688         1.88985
| 21>    C       -8.18421         7.32769         2.82355
| 22>    C       -8.56254         8.17952         3.86313
| 23>    C       -9.89338         8.29813         4.33991
| 24>    N      -10.04866         9.19423         5.35717
| 25>    C       -8.94581         9.74665         5.67066
| 26>    S       -7.53557         9.25675         4.76404
| 27>    C       -6.80613         7.26695         2.40669
| 28>    C       -6.41176         6.64956         1.27892
| 29>    N       -5.15234         6.48718         0.76929
| 30>    C       -3.95055         6.88207         1.23882
| 31>    S       -3.74268         7.70545         2.75016
| 32>    C       -2.03233         7.81557         2.45748
| 33>    N       -1.25022         8.43302         3.42833
| 34>    O       -0.05003         8.52106         3.22567
| 35>    O       -1.83043         8.84675         4.42229
| 36>    C       -1.65493         7.25996         1.26481
| 37>    C       -2.73212         6.71221         0.54517
| 38>    C       -2.61394         6.07865        -0.73522
| 39>    C       -1.57976         6.30296        -1.58647
| 40>    C       -1.41712         5.75223        -2.87789
| 41>    C       -2.04639         4.67796        -3.44723
| 42>    C       -1.91749         4.28812        -4.80774
| 43>    C       -2.62780         3.18324        -5.15332
| 44>    C       -3.34423         2.60428        -4.07934
| 45>    S       -3.09540         3.53698        -2.61568
| 46>    C       -4.17264         1.50676        -4.11048
| 47>    C       -4.60348         0.77013        -5.24069
| 48>    C       -5.55891        -0.15627        -4.97502
| 49>    C       -5.93024        -0.23122        -3.60177
| 50>    S       -4.92898         0.87630        -2.65965
| 51>    C       -6.88510        -0.96605        -2.96817
| 52>    N       -7.90763        -1.68414        -3.53746
| 53>    C       -8.52205        -1.56350        -4.74512
| 54>    S       -9.33216        -2.99571        -5.33614
| 55>    C       -9.75805        -2.15483        -6.79435
| 56>    N      -10.50722        -2.84344        -7.74725
| 57>    O      -10.80128        -2.25522        -8.77387
| 58>    O      -10.81235        -3.99589        -7.47846
| 59>    C       -9.29992        -0.86579        -6.81611
| 60>    C       -8.62122        -0.48781        -5.64139
| 61>    C       -8.13304         0.85723        -5.47171
| 62>    C       -8.01531         1.50440        -4.29740
| 63>    C       -7.34777         2.76306        -4.10167
| 64>    C       -7.19012         3.27356        -2.81279
| 65>    C       -6.45109         4.43718        -2.51203
| 66>    N       -6.35151         4.70266        -1.17387
| 67>    C       -6.97107         3.83193        -0.46981
| 68>    S       -7.77864         2.56661        -1.33451
| 69>    C       -5.84381         5.20666        -3.51981
| 70>    C       -5.97262         4.68923        -4.80700
| 71>    C       -6.69710         3.50296        -5.10731
| 72>    N       -6.68682         3.16766        -6.42811
| 73>    C       -6.02967         4.00021        -7.13399
| 74>    S       -5.31058         5.33576        -6.28115
| 75>    C       -5.17165         6.43797        -3.14811
| 76>    C       -4.28620         7.12107        -3.86430
| 77>    H      -11.92473         7.62409         4.14182
| 78>    H      -10.31152         4.32589         0.22653
| 79>    H       -8.84968        10.48155         6.44608
| 80>    H       -6.11503         7.77404         3.06207
| 81>    H       -7.16658         6.20580         0.64888
| 82>    H       -5.15095         5.93270        -0.09010
| 83>    H       -0.62866         7.23284         0.94853
| 84>    H       -3.42078         5.43092        -1.04564
| 85>    H       -0.83322         7.03230        -1.30261
| 86>    H       -0.70113         6.25427        -3.51688
| 87>    H       -1.30939         4.85572        -5.49033
| 88>    H       -2.64737         2.75752        -6.14066
| 89>    H       -4.21251         0.96530        -6.22300
| 90>    H       -5.98493        -0.81198        -5.71152
| 91>    H       -6.88582        -0.98758        -1.88694
| 92>    H       -8.23431        -2.46864        -2.98642
| 93>    H       -9.48462        -0.20092        -7.64059
| 94>    H       -7.85160         1.37044        -6.37948
| 95>    H       -8.39783         1.05436        -3.39036
| 96>    H       -7.01748         3.85791         0.60153
| 97>    H       -5.90583         3.90894        -8.19544
| 98>    H       -5.45050         6.80005        -2.16767
| 99>    H       -3.94140         6.80522        -4.83300
|100>    H       -3.85469         8.02932        -3.48174
|101> *
|102>
|103>                          ****END OF INPUT****

CARTESIAN COORDINATES (ANGSTROEM)
---------------------------------
  C    -10.914160    7.538720    3.781550
  C    -10.557620    6.682100    2.762070
  C     -9.228660    6.558180    2.273290
  N     -9.098530    5.634410    1.275150
  C    -10.209810    5.078570    0.984420
  S    -11.604390    5.596880    1.889850
  C     -8.184210    7.327690    2.823550
  C     -8.562540    8.179520    3.863130
  C     -9.893380    8.298130    4.339910
  N    -10.048660    9.194230    5.357170
  C     -8.945810    9.746650    5.670660
  S     -7.535570    9.256750    4.764040
  C     -6.806130    7.266950    2.406690
  C     -6.411760    6.649560    1.278920
  N     -5.152340    6.487180    0.769290
  C     -3.950550    6.882070    1.238820
  S     -3.742680    7.705450    2.750160
  C     -2.032330    7.815570    2.457480
  N     -1.250220    8.433020    3.428330
  O     -0.050030    8.521060    3.225670
  O     -1.830430    8.846750    4.422290
  C     -1.654930    7.259960    1.264810
  C     -2.732120    6.712210    0.545170
  C     -2.613940    6.078650   -0.735220
  C     -1.579760    6.302960   -1.586470
  C     -1.417120    5.752230   -2.877890
  C     -2.046390    4.677960   -3.447230
  C     -1.917490    4.288120   -4.807740
  C     -2.627800    3.183240   -5.153320
  C     -3.344230    2.604280   -4.079340
  S     -3.095400    3.536980   -2.615680
  C     -4.172640    1.506760   -4.110480
  C     -4.603480    0.770130   -5.240690
  C     -5.558910   -0.156270   -4.975020
  C     -5.930240   -0.231220   -3.601770
  S     -4.928980    0.876300   -2.659650
  C     -6.885100   -0.966050   -2.968170
  N     -7.907630   -1.684140   -3.537460
  C     -8.522050   -1.563500   -4.745120
  S     -9.332160   -2.995710   -5.336140
  C     -9.758050   -2.154830   -6.794350
  N    -10.507220   -2.843440   -7.747250
  O    -10.801280   -2.255220   -8.773870
  O    -10.812350   -3.995890   -7.478460
  C     -9.299920   -0.865790   -6.816110
  C     -8.621220   -0.487810   -5.641390
  C     -8.133040    0.857230   -5.471710
  C     -8.015310    1.504400   -4.297400
  C     -7.347770    2.763060   -4.101670
  C     -7.190120    3.273560   -2.812790
  C     -6.451090    4.437180   -2.512030
  N     -6.351510    4.702660   -1.173870
  C     -6.971070    3.831930   -0.469810
  S     -7.778640    2.566610   -1.334510
  C     -5.843810    5.206660   -3.519810
  C     -5.972620    4.689230   -4.807000
  C     -6.697100    3.502960   -5.107310
  N     -6.686820    3.167660   -6.428110
  C     -6.029670    4.000210   -7.133990
  S     -5.310580    5.335760   -6.281150
  C     -5.171650    6.437970   -3.148110
  C     -4.286200    7.121070   -3.864300
  H    -11.924730    7.624090    4.141820
  H    -10.311520    4.325890    0.226530
  H     -8.849680   10.481550    6.446080
  H     -6.115030    7.774040    3.062070
  H     -7.166580    6.205800    0.648880
  H     -5.150950    5.932700   -0.090100
  H     -0.628660    7.232840    0.948530
  H     -3.420780    5.430920   -1.045640
  H     -0.833220    7.032300   -1.302610
  H     -0.701130    6.254270   -3.516880
  H     -1.309390    4.855720   -5.490330
  H     -2.647370    2.757520   -6.140660
  H     -4.212510    0.965300   -6.223000
  H     -5.984930   -0.811980   -5.711520
  H     -6.885820   -0.987580   -1.886940
  H     -8.234310   -2.468640   -2.986420
  H     -9.484620   -0.200920   -7.640590
  H     -7.851600    1.370440   -6.379480
  H     -8.397830    1.054360   -3.390360
  H     -7.017480    3.857910    0.601530
  H     -5.905830    3.908940   -8.195440
  H     -5.450500    6.800050   -2.167670
  H     -3.941400    6.805220   -4.833000
  H     -3.854690    8.029320   -3.481740

 Total Charge           Charge          ....    0
 Multiplicity           Mult            ....    1
 Number of Electrons    NEL             ....  492
 Basis Dimension        Dim             .... 1020

ORBITAL ENERGIES
----------------

  NO   OCC          E(Eh)            E(eV)
   0   2.0000     -88.980066     -2421.2707
   1   2.0000     -88.979676     -2421.2601
   2   2.0000     -88.973376     -2421.0886
   3   2.0000     -88.972369     -2421.0612
   4   2.0000     -88.963791     -2420.8278
   5   2.0000     -88.955441     -2420.6006
   6   2.0000     -88.950275     -2420.4600
   7   2.0000     -88.948722     -2420.4178
   8   2.0000     -19.233181      -523.3615
   9   2.0000     -19.232338      -523.3385
  10   2.0000     -19.219930      -523.0009
  11   2.0000     -19.219414      -522.9869
  12   2.0000     -14.644621      -398.5004
  13   2.0000     -14.631851      -398.1529
  14   2.0000     -14.490430      -394.3046
  15   2.0000     -14.464135      -393.5891
  16   2.0000     -14.437685      -392.8694
  17   2.0000     -14.425619      -392.5410
  18   2.0000     -14.421053      -392.4168
  19   2.0000     -14.406712      -392.0266
  20   2.0000     -10.369605      -282.1713
  21   2.0000     -10.356525      -281.8154
  22   2.0000     -10.355703      -281.7930
  23   2.0000     -10.348198      -281.5888
  24   2.0000     -10.342328      -281.4291
  25   2.0000     -10.338858      -281.3346
  26   2.0000     -10.333535      -281.1898
  27   2.0000     -10.332301      -281.1562
  28   2.0000     -10.323869      -280.9268
  29   2.0000     -10.323021      -280.9037
  30   2.0000     -10.321583      -280.8646
  31   2.0000     -10.319099      -280.7970
  32   2.0000     -10.318941      -280.7927
  33   2.0000     -10.317145      -280.7438
  34   2.0000     -10.315937      -280.7109
  35   2.0000     -10.311908      -280.6013
  36   2.0000     -10.311745      -280.5968
  37   2.0000     -10.309765      -280.5430
  38   2.0000     -10.308524      -280.5092
  39   2.0000     -10.307626      -280.4848
  40   2.0000     -10.307069      -280.4696
  41   2.0000     -10.306669      -280.4587
  42   2.0000     -10.304564      -280.4015
  43   2.0000     -10.303606      -280.3754
  44   2.0000     -10.301285      -280.3122
  45   2.0000     -10.297355      -280.2053
  46   2.0000     -10.296287      -280.1762
  47   2.0000     -10.294767      -280.1348
  48   2.0000     -10.293995      -280.1138
  49   2.0000     -10.292624      -280.0766
  50   2.0000     -10.289546      -279.9928
  51   2.0000     -10.286983      -279.9230
  52   2.0000     -10.284607      -279.8584
  53   2.0000     -10.284317      -279.8505
  54   2.0000     -10.283257      -279.8217
  55   2.0000     -10.281299      -279.7684
  56   2.0000     -10.280331      -279.7420
  57   2.0000     -10.280058      -279.7346
  58   2.0000     -10.278369      -279.6886
  59   2.0000     -10.276557      -279.6393
  60   2.0000     -10.275086      -279.5993
  61   2.0000     -10.269417      -279.4450
  62   2.0000      -8.075878      -219.7558
  63   2.0000      -8.075697      -219.7509
  64   2.0000      -8.068918      -219.5664
  65   2.0000      -8.067111      -219.5172
  66   2.0000      -8.060456      -219.3362
  67   2.0000      -8.051662      -219.0969
  68   2.0000      -8.045819      -218.9379
  69   2.0000      -8.043592      -218.8773
  70   2.0000      -6.045460      -164.5053
  71   2.0000      -6.045153      -164.4970
  72   2.0000      -6.041143      -164.3879
  73   2.0000      -6.041070      -164.3859
  74   2.0000      -6.038305      -164.3106
  75   2.0000      -6.037794      -164.2967
  76   2.0000      -6.036873      -164.2717
  77   2.0000      -6.036794      -164.2695
  78   2.0000      -6.034074      -164.1955
  79   2.0000      -6.032359      -164.1488
  80   2.0000      -6.030813      -164.1068
  81   2.0000      -6.029741      -164.0776
  82   2.0000      -6.028648      -164.0479
  83   2.0000      -6.025797      -163.9703
  84   2.0000      -6.022139      -163.8707
  85   2.0000      -6.021008      -163.8400
  86   2.0000      -6.016940      -163.7293
  87   2.0000      -6.015824      -163.6989
  88   2.0000      -6.013453      -163.6344
  89   2.0000      -6.013410      -163.6332
  90   2.0000      -6.011814      -163.5898
  91   2.0000      -6.009382      -163.5236
  92   2.0000      -6.006307      -163.4399
  93   2.0000      -6.004527      -163.3915
  94   2.0000      -1.312579       -35.7171
  95   2.0000      -1.299387       -35.3581
  96   2.0000      -1.131613       -30.7928
  97   2.0000      -1.118117       -30.4255
  98   2.0000      -1.089186       -29.6382
  99   2.0000      -1.088607       -29.6225
 100   2.0000      -1.079351       -29.3706
 101   2.0000      -1.073505       -29.2116
 102   2.0000      -1.069856       -29.1123
 103   2.0000      -1.061682       -28.8898
 104   2.0000      -1.002448       -27.2780
 105   2.0000      -0.996985       -27.1293
 106   2.0000      -0.988005       -26.8850
 107   2.0000      -0.975722       -26.5507
 108   2.0000      -0.963203       -26.2101
 109   2.0000      -0.946997       -25.7691
 110   2.0000      -0.942210       -25.6388
 111   2.0000      -0.919507       -25.0211
 112   2.0000      -0.913934       -24.8694
 113   2.0000      -0.911201       -24.7950
 114   2.0000      -0.900299       -24.4984
 115   2.0000      -0.896143       -24.3853
 116   2.0000      -0.885370       -24.0921
 117   2.0000      -0.882622       -24.0174
 118   2.0000      -0.875596       -23.8262
 119   2.0000      -0.868727       -23.6393
 120   2.0000      -0.859739       -23.3947
 121   2.0000      -0.857334       -23.3293
 122   2.0000      -0.851672       -23.1752
 123   2.0000      -0.849931       -23.1278
 124   2.0000      -0.837869       -22.7996
 125   2.0000      -0.827338       -22.5130
 126   2.0000      -0.826189       -22.4817
 127   2.0000      -0.818829       -22.2815
 128   2.0000      -0.811408       -22.0795
 129   2.0000      -0.809082       -22.0162
 130   2.0000      -0.793143       -21.5825
 131   2.0000      -0.775559       -21.1040
 132   2.0000      -0.765807       -20.8387
 133   2.0000      -0.754966       -20.5437
 134   2.0000      -0.743130       -20.2216
 135   2.0000      -0.734711       -19.9925
 136   2.0000      -0.728346       -19.8193
 137   2.0000      -0.710253       -19.3270
 138   2.0000      -0.704188       -19.1619
 139   2.0000      -0.692693       -18.8491
 140   2.0000      -0.690522       -18.7901
 141   2.0000      -0.685465       -18.6524
 142   2.0000      -0.681342       -18.5403
 143   2.0000      -0.675670       -18.3859
 144   2.0000      -0.666421       -18.1342
 145   2.0000      -0.659717       -17.9518
 146   2.0000      -0.656954       -17.8766
 147   2.0000      -0.652205       -17.7474
 148   2.0000      -0.647147       -17.6098
 149   2.0000      -0.644392       -17.5348
 150   2.0000      -0.635777       -17.3004
 151   2.0000      -0.632912       -17.2224
 152   2.0000      -0.630313       -17.1517
 153   2.0000      -0.627949       -17.0874
 154   2.0000      -0.625633       -17.0243
 155   2.0000      -0.622940       -16.9510
 156   2.0000      -0.616499       -16.7758
 157   2.0000      -0.613026       -16.6813
 158   2.0000      -0.612151       -16.6575
 159   2.0000      -0.599687       -16.3183
 160   2.0000      -0.596916       -16.2429
 161   2.0000      -0.593581       -16.1522
 162   2.0000      -0.591826       -16.1044
 163   2.0000      -0.584222       -15.8975
 164   2.0000      -0.580088       -15.7850
 165   2.0000      -0.573834       -15.6148
 166   2.0000      -0.572677       -15.5833
 167   2.0000      -0.568461       -15.4686
 168   2.0000      -0.560745       -15.2586
 169   2.0000      -0.559177       -15.2160
 170   2.0000      -0.554989       -15.1020
 171   2.0000      -0.553924       -15.0730
 172   2.0000      -0.551279       -15.0011
 173   2.0000      -0.548571       -14.9274
 174   2.0000      -0.538441       -14.6517
 175   2.0000      -0.536073       -14.5873
 176   2.0000      -0.534120       -14.5342
 177   2.0000      -0.530384       -14.4325
 178   2.0000      -0.529677       -14.4132
 179   2.0000      -0.525312       -14.2945
 180   2.0000      -0.524742       -14.2790
 181   2.0000      -0.521615       -14.1939
 182   2.0000      -0.518442       -14.1075
 183   2.0000      -0.515830       -14.0365
 184   2.0000      -0.513762       -13.9802
 185   2.0000      -0.509671       -13.8689
 186   2.0000      -0.504870       -13.7382
 187   2.0000      -0.501441       -13.6449
 188   2.0000      -0.497879       -13.5480
 189   2.0000      -0.497221       -13.5301
 190   2.0000      -0.492985       -13.4148
 191   2.0000      -0.490305       -13.3419
 192   2.0000      -0.485705       -13.2167
 193   2.0000      -0.485211       -13.2033
 194   2.0000      -0.484664       -13.1884
 195   2.0000      -0.482612       -13.1325
 196   2.0000      -0.477587       -12.9958
 197   2.0000      -0.471952       -12.8425
 198   2.0000      -0.469144       -12.7661
 199   2.0000      -0.465096       -12.6559
 200   2.0000      -0.461524       -12.5587
 201   2.0000      -0.454171       -12.3586
 202   2.0000      -0.452525       -12.3138
 203   2.0000      -0.451043       -12.2735
 204   2.0000      -0.449125       -12.2213
 205   2.0000      -0.448149       -12.1947
 206   2.0000      -0.437483       -11.9045
 207   2.0000      -0.433957       -11.8086
 208   2.0000      -0.432405       -11.7663
 209   2.0000      -0.430781       -11.7222
 210   2.0000      -0.427875       -11.6431
 211   2.0000      -0.423606       -11.5269
 212   2.0000      -0.418212       -11.3801
 213   2.0000      -0.415704       -11.3119
 214   2.0000      -0.411743       -11.2041
 215   2.0000      -0.408084       -11.1045
 216   2.0000      -0.403842       -10.9891
 217   2.0000      -0.402374       -10.9492
 218   2.0000      -0.387919       -10.5558
 219   2.0000      -0.381334       -10.3766
 220   2.0000      -0.380403       -10.3513
 221   2.0000      -0.376867       -10.2551
 222   2.0000      -0.373765       -10.1707
 223   2.0000      -0.368781       -10.0350
 224   2.0000      -0.366910        -9.9841
 225   2.0000      -0.361513        -9.8373
 226   2.0000      -0.360436        -9.8080
 227   2.0000      -0.358711        -9.7610
 228   2.0000      -0.357302        -9.7227
 229   2.0000      -0.354503        -9.6465
 230   2.0000      -0.354364        -9.6427
 231   2.0000      -0.348698        -9.4886
 232   2.0000      -0.345211        -9.3937
 233   2.0000      -0.342376        -9.3165
 234   2.0000      -0.339890        -9.2489
 235   2.0000      -0.337595        -9.1864
 236   2.0000      -0.327574        -8.9137
 237   2.0000      -0.321909        -8.7596
 238   2.0000      -0.316469        -8.6116
 239   2.0000      -0.311047        -8.4640
 240   2.0000      -0.302424        -8.2294
 241   2.0000      -0.295385        -8.0378
 242   2.0000      -0.276273        -7.5178
 243   2.0000      -0.263445        -7.1687
 244   2.0000      -0.246645        -6.7116
 245   2.0000      -0.211663        -5.7596
 246   0.0000      -0.080334        -2.1860
 247   0.0000      -0.055947        -1.5224
 248   0.0000      -0.048272        -1.3135
 249   0.0000      -0.046616        -1.2685
 250   0.0000      -0.024755        -0.6736

MULLIKEN ATOMIC CHARGES
-----------------------
   0 C :   -0.097697
   1 C :   -0.024654
   2 C :   -0.010456
   3 N :   -0.093541
   4 C :    0.010547
   5 S :    0.101031
   6 C :    0.098045
   7 C :   -0.147909
   8 C :    0.080871
   9 N :   -0.060079
  10 C :    0.013257
  11 S :    0.088686
  12 C :   -0.118627
  13 C :    0.038528
  14 N :   -0.022830
  15 C :   -0.095488
  16 S :    0.126929
  17 C :    0.005192
  18 N :    0.278077
  19 O :   -0.264712
  20 O :   -0.277715
  21 C :   -0.002257
  22 C :    0.114990
  23 C :   -0.059485
  24 C :    0.001285
  25 C :   -0.007513
  26 C :   -0.024275
  27 C :    0.031748
  28 C :    0.034210
  29 C :   -0.042422
  30 S :    0.054869
  31 C :   -0.061447
  32 C :    0.027351
  33 C :    0.095576
  34 C :   -0.100431
  35 S :    0.072127
  36 C :    0.012733
  37 N :   -0.002027
  38 C :   -0.142294
  39 S :    0.146779
  40 C :   -0.001415
  41 N :    0.280347
  42 O :   -0.256449
  43 O :   -0.271116
  44 C :   -0.010772
  45 C :    0.109184
  46 C :   -0.015892
  47 C :   -0.049900
  48 C :    0.042558
  49 C :   -0.114042
  50 C :    0.061428
  51 N :   -0.146006
  52 C :    0.057781
  53 S :    0.099399
  54 C :    0.018153
  55 C :   -0.102981
  56 C :    0.036284
  57 N :   -0.070385
  58 C :    0.017673
  59 S :    0.092732
  60 C :   -0.059366
  61 C :    0.014163
  62 H :   -0.026638
  63 H :    0.032531
  64 H :    0.044996
  65 H :    0.001951
  66 H :    0.041817
  67 H :    0.160679
  68 H :    0.006805
  69 H :    0.011557
  70 H :   -0.015792
  71 H :   -0.015116
  72 H :   -0.016239
  73 H :   -0.020541
  74 H :   -0.016441
  75 H :    0.000421
  76 H :    0.007108
  77 H :    0.144743
  78 H :    0.009250
  79 H :    0.010527
  80 H :   -0.018236
  81 H :    0.062740
  82 H :    0.042749
  83 H :   -0.011418
  84 H :    0.023049
  85 H :    0.031147
Sum of atomic charges:   -0.0000000

LOEWDIN ATOMIC CHARGES
----------------------
   0 C :   -0.045615
   1 C :   -0.165958
   2 C :   -0.040723
   3 N :   -0.093545
   4 C :   -0.111090
   5 S :    0.390847
   6 C :   -0.024111
   7 C :   -0.173600
   8 C :   -0.031459
   9 N :   -0.090663
  10 C :   -0.101680
  11 S :    0.387955
  12 C :   -0.112188
  13 C :    0.036561
  14 N :    0.046828
  15 C :   -0.093879
  16 S :    0.471477
  17 C :   -0.222291
  18 N :    0.274198
  19 O :   -0.230493
  20 O :   -0.244431
  21 C :    0.001336
  22 C :   -0.106102
  23 C :   -0.031350
  24 C :   -0.039489
  25 C :   -0.062368
  26 C :   -0.142338
  27 C :   -0.034645
  28 C :   -0.041401
  29 C :   -0.183271
  30 S :    0.386528
  31 C :   -0.177179
  32 C :   -0.021595
  33 C :   -0.027945
  34 C :   -0.172404
  35 S :    0.367174
  36 C :   -0.032677
  37 N :    0.036903
  38 C :   -0.108908
  39 S :    0.431780
  40 C :   -0.215548
  41 N :    0.274417
  42 O :   -0.222069
  43 O :   -0.236817
  44 C :    0.007601
  45 C :   -0.108705
  46 C :   -0.009997
  47 C :   -0.032910
  48 C :   -0.037468
  49 C :   -0.164668
  50 C :   -0.030601
  51 N :   -0.097011
  52 C :   -0.085151
  53 S :    0.405658
  54 C :   -0.042769
  55 C :   -0.157924
  56 C :   -0.025006
  57 N :   -0.080289
  58 C :   -0.109430
  59 S :    0.417044
  60 C :   -0.031779
  61 C :   -0.023119
  62 H :    0.036805
  63 H :    0.012832
  64 H :    0.020844
  65 H :    0.002336
  66 H :    0.028059
  67 H :    0.075556
  68 H :    0.042783
  69 H :    0.010127
  70 H :    0.028400
  71 H :    0.033131
  72 H :    0.031819
  73 H :    0.028860
  74 H :    0.031773
  75 H :    0.035212
  76 H :    0.025518
  77 H :    0.093455
  78 H :    0.046789
  79 H :    0.029088
  80 H :    0.014643
  81 H :    0.023069
  82 H :    0.020575
  83 H :    0.028433
  84 H :    0.006824
  85 H :    0.031420

  Mayer bond orders larger than 0.100000
B(  0-C ,  1-C ) :   1.3272 B(  0-C ,  6-C ) :   0.1133 B(  0-C ,  8-C ) :   1.3498
B(  0-C , 62-H ) :   1.0243 B(  1-C ,  2-C ) :   1.2999 B(  1-C ,  5-S ) :   1.0530
B(  2-C ,  3-N ) :   1.2940 B(  2-C ,  6-C ) :   1.3092 B(  3-N ,  4-C ) :   1.7353
B(  3-N ,  5-S ) :   0.1096 B(  4-C ,  5-S ) :   1.1276 B(  4-C , 63-H ) :   0.9610
B(  6-C ,  7-C ) :   1.3739 B(  6-C , 12-C ) :   1.1346 B(  7-C ,  8-C ) :   1.2867
B(  7-C , 11-S ) :   1.0660 B(  8-C ,  9-N ) :   1.2886 B(  9-N , 10-C ) :   1.7848
B(  9-N , 11-S ) :   0.1075 B( 10-C , 11-S ) :   1.1089 B( 10-C , 64-H ) :   0.9634
B( 12-C , 13-C ) :   1.6841 B( 12-C , 65-H ) :   0.9402 B( 13-C , 14-N ) :   1.1545
B( 13-C , 66-H ) :   0.9295 B( 14-N , 15-C ) :   1.2545 B( 14-N , 67-H ) :   0.8528
B( 15-C , 16-S ) :   1.1391 B( 15-C , 22-C ) :   1.3223 B( 16-S , 17-C ) :   1.0628
B( 17-C , 18-N ) :   0.9919 B( 17-C , 21-C ) :   1.4595 B( 18-N , 19-O ) :   1.5204
B( 18-N , 20-O ) :   1.4994 B( 19-O , 20-O ) :   0.2483 B( 21-C , 22-C ) :   1.2543
B( 21-C , 68-H ) :   1.0020 B( 22-C , 23-C ) :   1.1004 B( 23-C , 24-C ) :   1.6717
B( 23-C , 69-H ) :   0.9396 B( 24-C , 25-C ) :   1.1758 B( 24-C , 70-H ) :   0.9664
B( 25-C , 26-C ) :   1.5884 B( 25-C , 71-H ) :   0.9609 B( 26-C , 27-C ) :   1.1389
B( 26-C , 30-S ) :   1.0365 B( 27-C , 28-C ) :   1.5888 B( 27-C , 72-H ) :   0.9990
B( 28-C , 29-C ) :   1.1770 B( 28-C , 73-H ) :   0.9959 B( 29-C , 30-S ) :   1.0381
B( 29-C , 31-C ) :   1.5353 B( 31-C , 32-C ) :   1.1632 B( 31-C , 35-S ) :   1.0396
B( 32-C , 33-C ) :   1.6401 B( 32-C , 74-H ) :   0.9953 B( 33-C , 34-C ) :   1.1179
B( 33-C , 75-H ) :   0.9739 B( 34-C , 35-S ) :   1.0236 B( 34-C , 36-C ) :   1.6459
B( 36-C , 37-N ) :   1.1492 B( 36-C , 76-H ) :   0.9437 B( 37-N , 38-C ) :   1.2027
B( 37-N , 77-H ) :   0.9044 B( 38-C , 39-S ) :   1.1264 B( 38-C , 45-C ) :   1.3583
B( 39-S , 40-C ) :   1.0687 B( 40-C , 41-N ) :   0.9793 B( 40-C , 44-C ) :   1.4699
B( 41-N , 42-O ) :   1.5286 B( 41-N , 43-O ) :   1.5036 B( 42-O , 43-O ) :   0.2553
B( 44-C , 45-C ) :   1.2184 B( 44-C , 78-H ) :   1.0162 B( 45-C , 46-C ) :   1.0691
B( 46-C , 47-C ) :   1.7225 B( 46-C , 79-H ) :   0.9294 B( 47-C , 48-C ) :   1.1364
B( 47-C , 80-H ) :   0.9479 B( 48-C , 49-C ) :   1.3568 B( 48-C , 54-C ) :   0.1094
B( 48-C , 56-C ) :   1.2964 B( 49-C , 50-C ) :   1.3000 B( 49-C , 53-S ) :   1.0598
B( 50-C , 51-N ) :   1.2961 B( 50-C , 54-C ) :   1.3199 B( 51-N , 52-C ) :   1.6835
B( 51-N , 53-S ) :   0.1032 B( 51-N , 67-H ) :   0.1019 B( 52-C , 53-S ) :   1.1386
B( 52-C , 81-H ) :   0.9528 B( 54-C , 55-C ) :   1.3904 B( 54-C , 60-C ) :   1.1078
B( 55-C , 56-C ) :   1.2952 B( 55-C , 59-S ) :   1.0706 B( 56-C , 57-N ) :   1.3077
B( 57-N , 58-C ) :   1.7427 B( 57-N , 59-S ) :   0.1088 B( 58-C , 59-S ) :   1.1142
B( 58-C , 82-H ) :   0.9637 B( 60-C , 61-C ) :   1.9257 B( 60-C , 83-H ) :   0.9570
B( 61-C , 84-H ) :   0.9440 B( 61-C , 85-H ) :   0.9405

-----------------------------------------------------------------------------
         ABSORPTION SPECTRUM VIA TRANSITION ELECTRIC DIPOLE MOMENTS
-----------------------------------------------------------------------------
State   Energy  Wavelength   fosc         T2         TX        TY        TZ
        (cm-1)    (nm)                  (au**2)     (au)      (au)      (au)
-----------------------------------------------------------------------------
   0   12575.3    795.2   0.380270590   9.95519   1.57809   2.15640   1.67773
   1   17131.4    583.7   0.386989488   7.43675   1.01765   2.19887   1.25144
   2   21585.9    463.3   0.191725376   2.92405  -1.09122  -1.12379  -0.68584
   3   21851.6    457.6   0.438990935   6.61375   2.37955  -0.75816  -0.61373
   4   22072.5    453.1   0.047353795   0.70628  -0.55790   0.28087   0.56227
   5   22685.2    440.8   0.203413136   2.95198   1.25166   1.15699  -0.21612
   6   24184.1    413.5   0.203108850   2.76487   0.28841   1.05229   1.25474
   7   26743.7    373.9   0.185039060   2.27781  -1.21389  -0.81638   0.37120
   8   27397.8    365.0   0.223903189   2.69042   1.51799  -0.49944  -0.36973
   9   27699.6    361.0   0.479021338   5.69321   1.41682   1.68968   0.91148
  10   27907.5    358.3   0.104091125   1.22791   1.07066   0.18023   0.22163
  11   28387.6    352.3   0.321523226   3.72872  -1.04333  -1.62486   0.00289
  12   29379.1    340.4   0.076280638   0.85478   0.92238  -0.06313   0.00259
  13   30186.4    331.3   0.056252403   0.61349   0.50556   0.29658  -0.51956
  14   30823.8    324.4   0.024536441   0.26206   0.41457   0.06379   0.29346
  15   31345.9    319.0   0.139792264   1.46817  -0.67964  -0.84616  -0.53877
  16   31995.9    312.5   0.053726031   0.55280  -0.24884  -0.30381  -0.63133
  17   32177.2    310.8   0.061351733   0.62770  -0.47972  -0.36228   0.51607
  18   32387.5    308.8   0.079570402   0.80882  -0.72296  -0.52139   0.11958
  19   32890.8    304.0   0.118902651   1.19013  -0.61685  -0.88543  -0.16013
  20   32991.8    303.1   0.123393654   1.23130  -0.53897  -0.71010   0.66073
  21   33344.1    299.9   0.042601461   0.42061  -0.49547  -0.34287   0.23992
  22   34117.0    293.1   0.014405852   0.13901   0.35302  -0.07383   0.09453
  23   34269.4    291.8   0.011570342   0.11115  -0.09735  -0.14383  -0.28458
  24   34635.0    288.7   0.069861594   0.66405  -0.16720  -0.31363  -0.73330
  25   35235.9    283.8   0.034931798   0.32637   0.19713   0.34425   0.41110
  26   35479.1    281.9   0.003270333   0.03035  -0.11001   0.12577  -0.04923
  27   35741.5    279.8   0.039792107   0.36652   0.31883   0.21770   0.46634
  28   35848.6    279.0   0.044152797   0.40547  -0.60623   0.04551   0.18943
  29   36325.8    275.3   0.148954441   1.34994   0.16184   0.36497   1.09112
  30   36738.1    272.2   0.085582876   0.76691  -0.10437  -0.08420  -0.86541
  31   36839.0    271.5   0.129570328   1.15791  -0.60421  -0.04695   0.88918
  32   37276.3    268.3   0.014033006   0.12393   0.30649  -0.11926   0.12559
  33   37667.3    265.5   0.047063210   0.41133   0.34438   0.53151  -0.10114
  34   37825.4    264.4   0.122915885   1.06979   0.56460  -0.07136  -0.86367
  35   37918.8    263.7   0.022402902   0.19450  -0.11567   0.23594   0.35419
  36   38606.9    259.0   0.022497656   0.19184   0.09040   0.41112  -0.12103
  37   38840.2    257.5   0.093241664   0.79032   0.37165   0.24119  -0.77073
  38   39180.2    255.2   0.043976469   0.36951  -0.30796   0.03801   0.52271
  39   39314.6    254.4   0.101674322   0.85140   0.13681  -0.05507  -0.91085
  40   39776.1    251.4   0.160752546   1.33049   0.13087   0.52250   1.01998
  41   39971.5    250.2   0.020633151   0.16994  -0.09838  -0.13278   0.37766
  42   40202.4    248.7   0.003050829   0.02498  -0.09635  -0.12499  -0.00868
  43   40237.3    248.5   0.072440599   0.59269  -0.16793  -0.19468  -0.72567

FINAL SINGLE POINT ENERGY     -5535.195241167620

DIPOLE MOMENT
-------------
                                X             Y             Z
Electronic contribution:    -15.56466      -6.90759      13.61544
Nuclear contribution   :     15.32519       6.12091     -15.11974
                        -----------------------------------------
Total Dipole Moment    :     -0.23947      -0.78667      -1.50430
                        -----------------------------------------
Magnitude (a.u.)       :      1.71438
Magnitude (Debye)      :      4.35762

Rotational constants in cm-1:     0.001574     0.000621     0.000494
Rotational constants in MHz :    47.178385    18.606343    14.801498

                             ****ORCA TERMINATED NORMALLY****
TOTAL RUN TIME: 0 days 0 hours 20 minutes 42 seconds 207 msec
