                         Program Version 4.2.0 -  RELEASE  -
|  1> # ORCA input file
|  2> # SCF done       -161.236758619626          0.000490048289
|  3> ! CAM-B3LYP def2-SVP def2/J RIJCOSX Grid4 TightSCF
|  4> %maxcore 5000
|  5> %tddft
|  6>     Mode sTDDFT
|  7>     Ethresh 5.0
|  8>     maxcore 5000
|  9> end
| 10>
| 11> %pal
| 12>   nprocs 6
| 13>   end
| 14> * xyz 0 1
| 15>    C      -12.51736        -7.76940         3.01506
| 16>    S      -10.92420        -8.29360         2.75432
| 17>    C      -10.74667        -8.84934         4.39666
| 18>    C      -11.92493        -8.60863         5.12336
| 19>    C      -12.93790        -7.99135         4.30798
| 20>    C      -14.22257        -7.67403         4.82742
| 21>    C      -15.23984        -7.02527         3.94449
| 22>    C      -14.46904        -7.98292         6.13151
| 23>    C      -13.48751        -8.59218         6.93539
| 24>    C      -12.23572        -8.91074         6.47777
| 25>    C      -11.26530        -9.56290         7.41482
| 26>    C       -9.52635        -9.45730         4.77966
| 27>    C       -8.55021        -9.79564         3.89848
| 28>    C       -7.32514       -10.45466         4.17280
| 29>    S       -6.58952       -11.24922         2.80119
| 30>    C       -5.32952       -11.94831         3.77771
| 31>    C       -5.49318       -11.55289         5.10163
| 32>    C       -6.59966       -10.70412         5.33550
| 33>    C       -6.83128       -10.16735         6.67045
| 34>    C       -7.21373        -8.92899         6.95222
| 35>    O       -4.63492       -11.97483         6.09021
| 36>    C       -3.65895       -11.02007         6.45764
| 37>    C       -4.35325       -12.80786         3.22836
| 38>    C       -4.38786       -13.16175         1.91013
| 39>    C       -3.54840       -14.03225         1.20712
| 40>    C       -3.81660       -14.34756        -0.10921
| 41>    C       -3.14091       -15.21298        -0.99818
| 42>    C       -3.72621       -15.33115        -2.23001
| 43>    C       -4.89644       -14.56305        -2.37962
| 44>    S       -5.22362       -13.67006        -0.91305
| 45>    C       -5.79660       -14.42444        -3.42288
| 46>    C       -5.86396       -15.00774        -4.70384
| 47>    C       -6.95739       -14.62363        -5.42743
| 48>    C       -7.81607       -13.71468        -4.75795
| 49>    S       -7.15649       -13.35349        -3.17218
| 50>    C       -9.05559       -13.26225        -5.14120
| 51>    C       -9.82683       -12.37916        -4.34955
| 52>    S      -11.54138       -12.65882        -4.13922
| 53>    C      -11.62593       -11.50947        -2.83308
| 54>    C      -10.40456       -10.86734        -2.67029
| 55>    C       -9.38846       -11.33409        -3.53580
| 56>    C       -8.09155       -10.70296        -3.70290
| 57>    C       -7.46594        -9.97000        -2.78876
| 58>    O      -10.19058        -9.85823        -1.76569
| 59>    C      -10.89816        -8.65931        -2.01341
| 60>    C      -12.79558       -11.41010        -2.02783
| 61>    C      -12.73709       -11.03065        -0.72614
| 62>    C      -13.84742       -10.90479         0.14522
| 63>    S      -15.42145       -10.64168        -0.52734
| 64>    C      -16.14655       -10.39796         1.02369
| 65>    C      -15.22562       -10.61707         2.04870
| 66>    C      -13.90175       -10.90291         1.54699
| 67>    C      -12.85269       -11.23486         2.44764
| 68>    C      -11.48676       -11.65429         1.99902
| 69>    C      -13.14270       -11.23487         3.78552
| 70>    C      -14.43006       -10.97068         4.27437
| 71>    C      -15.48338       -10.69329         3.44809
| 72>    C      -16.85654       -10.56953         4.03081
| 73>    C      -17.52837        -9.96963         0.98666
| 74>    C      -18.05215        -8.93902         1.64219
| 75>    H      -13.06519        -7.32921         2.20674
| 76>    H      -14.89492        -6.04236         3.62291
| 77>    H      -16.18321        -6.90408         4.47200
| 78>    H      -15.40154        -7.63032         3.05280
| 79>    H      -15.43318        -7.76403         6.56775
| 80>    H      -13.74261        -8.81760         7.96144
| 81>    H      -11.73229        -9.71430         8.38576
| 82>    H      -10.38224        -8.94077         7.55783
| 83>    H      -10.94914       -10.53390         7.03523
| 84>    H       -9.38043        -9.68494         5.82005
| 85>    H       -8.73266        -9.62830         2.84293
| 86>    H       -6.58011       -10.85519         7.46984
| 87>    H       -7.42517        -8.20850         6.17982
| 88>    H       -7.31841        -8.59156         7.96961
| 89>    H       -3.08233       -11.47121         7.26309
| 90>    H       -4.12038       -10.09135         6.80997
| 91>    H       -2.99638       -10.79130         5.61523
| 92>    H       -3.60419       -13.19740         3.90352
| 93>    H       -5.19552       -12.73104         1.32679
| 94>    H       -2.69816       -14.48780         1.69499
| 95>    H       -2.24346       -15.72999        -0.70504
| 96>    H       -3.34790       -15.95185        -3.02346
| 97>    H       -5.11854       -15.70033        -5.05394
| 98>    H       -7.17953       -14.97292        -6.42086
| 99>    H       -9.51818       -13.70717        -6.01187
|100>    H       -7.64199       -10.85731        -4.67721
|101>    H       -7.86780        -9.82930        -1.80200
|102>    H       -6.52114        -9.50105        -3.00516
|103>    H      -10.64830        -7.99018        -1.19176
|104>    H      -11.97983        -8.82189        -2.03691
|105>    H      -10.58028        -8.21071        -2.96041
|106>    H      -13.73026       -11.73972        -2.46299
|107>    H      -11.76866       -10.80160        -0.31439
|108>    H      -10.92883       -10.82034         1.57590
|109>    H      -11.55103       -12.44034         1.24834
|110>    H      -10.92046       -12.03044         2.84857
|111>    H      -12.36874       -11.49242         4.49392
|112>    H      -14.59588       -11.03402         5.33990
|113>    H      -16.87909       -11.03770         5.01249
|114>    H      -17.59565       -11.04892         3.39368
|115>    H      -17.14242        -9.52673         4.15340
|116>    H      -18.13932       -10.49765         0.26258
|117>    H      -17.47306        -8.33200         2.31492
|118>    H      -19.08571        -8.66718         1.51753
|119> *
|120>
|121>                          ****END OF INPUT****

CARTESIAN COORDINATES (ANGSTROEM)
---------------------------------
  C    -12.517360   -7.769400    3.015060
  S    -10.924200   -8.293600    2.754320
  C    -10.746670   -8.849340    4.396660
  C    -11.924930   -8.608630    5.123360
  C    -12.937900   -7.991350    4.307980
  C    -14.222570   -7.674030    4.827420
  C    -15.239840   -7.025270    3.944490
  C    -14.469040   -7.982920    6.131510
  C    -13.487510   -8.592180    6.935390
  C    -12.235720   -8.910740    6.477770
  C    -11.265300   -9.562900    7.414820
  C     -9.526350   -9.457300    4.779660
  C     -8.550210   -9.795640    3.898480
  C     -7.325140  -10.454660    4.172800
  S     -6.589520  -11.249220    2.801190
  C     -5.329520  -11.948310    3.777710
  C     -5.493180  -11.552890    5.101630
  C     -6.599660  -10.704120    5.335500
  C     -6.831280  -10.167350    6.670450
  C     -7.213730   -8.928990    6.952220
  O     -4.634920  -11.974830    6.090210
  C     -3.658950  -11.020070    6.457640
  C     -4.353250  -12.807860    3.228360
  C     -4.387860  -13.161750    1.910130
  C     -3.548400  -14.032250    1.207120
  C     -3.816600  -14.347560   -0.109210
  C     -3.140910  -15.212980   -0.998180
  C     -3.726210  -15.331150   -2.230010
  C     -4.896440  -14.563050   -2.379620
  S     -5.223620  -13.670060   -0.913050
  C     -5.796600  -14.424440   -3.422880
  C     -5.863960  -15.007740   -4.703840
  C     -6.957390  -14.623630   -5.427430
  C     -7.816070  -13.714680   -4.757950
  S     -7.156490  -13.353490   -3.172180
  C     -9.055590  -13.262250   -5.141200
  C     -9.826830  -12.379160   -4.349550
  S    -11.541380  -12.658820   -4.139220
  C    -11.625930  -11.509470   -2.833080
  C    -10.404560  -10.867340   -2.670290
  C     -9.388460  -11.334090   -3.535800
  C     -8.091550  -10.702960   -3.702900
  C     -7.465940   -9.970000   -2.788760
  O    -10.190580   -9.858230   -1.765690
  C    -10.898160   -8.659310   -2.013410
  C    -12.795580  -11.410100   -2.027830
  C    -12.737090  -11.030650   -0.726140
  C    -13.847420  -10.904790    0.145220
  S    -15.421450  -10.641680   -0.527340
  C    -16.146550  -10.397960    1.023690
  C    -15.225620  -10.617070    2.048700
  C    -13.901750  -10.902910    1.546990
  C    -12.852690  -11.234860    2.447640
  C    -11.486760  -11.654290    1.999020
  C    -13.142700  -11.234870    3.785520
  C    -14.430060  -10.970680    4.274370
  C    -15.483380  -10.693290    3.448090
  C    -16.856540  -10.569530    4.030810
  C    -17.528370   -9.969630    0.986660
  C    -18.052150   -8.939020    1.642190
  H    -13.065190   -7.329210    2.206740
  H    -14.894920   -6.042360    3.622910
  H    -16.183210   -6.904080    4.472000
  H    -15.401540   -7.630320    3.052800
  H    -15.433180   -7.764030    6.567750
  H    -13.742610   -8.817600    7.961440
  H    -11.732290   -9.714300    8.385760
  H    -10.382240   -8.940770    7.557830
  H    -10.949140  -10.533900    7.035230
  H     -9.380430   -9.684940    5.820050
  H     -8.732660   -9.628300    2.842930
  H     -6.580110  -10.855190    7.469840
  H     -7.425170   -8.208500    6.179820
  H     -7.318410   -8.591560    7.969610
  H     -3.082330  -11.471210    7.263090
  H     -4.120380  -10.091350    6.809970
  H     -2.996380  -10.791300    5.615230
  H     -3.604190  -13.197400    3.903520
  H     -5.195520  -12.731040    1.326790
  H     -2.698160  -14.487800    1.694990
  H     -2.243460  -15.729990   -0.705040
  H     -3.347900  -15.951850   -3.023460
  H     -5.118540  -15.700330   -5.053940
  H     -7.179530  -14.972920   -6.420860
  H     -9.518180  -13.707170   -6.011870
  H     -7.641990  -10.857310   -4.677210
  H     -7.867800   -9.829300   -1.802000
  H     -6.521140   -9.501050   -3.005160
  H    -10.648300   -7.990180   -1.191760
  H    -11.979830   -8.821890   -2.036910
  H    -10.580280   -8.210710   -2.960410
  H    -13.730260  -11.739720   -2.462990
  H    -11.768660  -10.801600   -0.314390
  H    -10.928830  -10.820340    1.575900
  H    -11.551030  -12.440340    1.248340
  H    -10.920460  -12.030440    2.848570
  H    -12.368740  -11.492420    4.493920
  H    -14.595880  -11.034020    5.339900
  H    -16.879090  -11.037700    5.012490
  H    -17.595650  -11.048920    3.393680
  H    -17.142420   -9.526730    4.153400
  H    -18.139320  -10.497650    0.262580
  H    -17.473060   -8.332000    2.314920
  H    -19.085710   -8.667180    1.517530

 Total Charge           Charge          ....    0
 Multiplicity           Mult            ....    1
 Number of Electrons    NEL             ....  468
 Basis Dimension        Dim             .... 1084

ORBITAL ENERGIES
----------------

  NO   OCC          E(Eh)            E(eV)
   0   2.0000     -88.953251     -2420.5410
   1   2.0000     -88.946505     -2420.3575
   2   2.0000     -88.940401     -2420.1914
   3   2.0000     -88.938850     -2420.1491
   4   2.0000     -88.927999     -2419.8539
   5   2.0000     -88.925296     -2419.7803
   6   2.0000     -19.229201      -523.2532
   7   2.0000     -19.228274      -523.2279
   8   2.0000     -10.317005      -280.7400
   9   2.0000     -10.313104      -280.6338
  10   2.0000     -10.310963      -280.5756
  11   2.0000     -10.306667      -280.4587
  12   2.0000     -10.296956      -280.1944
  13   2.0000     -10.295847      -280.1642
  14   2.0000     -10.295413      -280.1524
  15   2.0000     -10.293659      -280.1047
  16   2.0000     -10.293557      -280.1019
  17   2.0000     -10.290511      -280.0190
  18   2.0000     -10.289263      -279.9851
  19   2.0000     -10.288204      -279.9563
  20   2.0000     -10.286228      -279.9025
  21   2.0000     -10.285283      -279.8768
  22   2.0000     -10.285068      -279.8709
  23   2.0000     -10.283453      -279.8270
  24   2.0000     -10.277969      -279.6778
  25   2.0000     -10.276919      -279.6492
  26   2.0000     -10.274879      -279.5937
  27   2.0000     -10.274343      -279.5791
  28   2.0000     -10.273247      -279.5493
  29   2.0000     -10.272570      -279.5308
  30   2.0000     -10.271708      -279.5074
  31   2.0000     -10.271441      -279.5001
  32   2.0000     -10.270793      -279.4825
  33   2.0000     -10.270624      -279.4779
  34   2.0000     -10.270369      -279.4709
  35   2.0000     -10.269220      -279.4397
  36   2.0000     -10.268996      -279.4336
  37   2.0000     -10.268869      -279.4301
  38   2.0000     -10.267666      -279.3974
  39   2.0000     -10.266167      -279.3566
  40   2.0000     -10.266043      -279.3532
  41   2.0000     -10.265890      -279.3491
  42   2.0000     -10.265398      -279.3357
  43   2.0000     -10.264701      -279.3167
  44   2.0000     -10.263827      -279.2929
  45   2.0000     -10.263218      -279.2764
  46   2.0000     -10.259965      -279.1879
  47   2.0000     -10.259762      -279.1823
  48   2.0000     -10.259394      -279.1723
  49   2.0000     -10.259111      -279.1646
  50   2.0000     -10.257371      -279.1172
  51   2.0000     -10.257275      -279.1146
  52   2.0000     -10.255539      -279.0674
  53   2.0000     -10.255257      -279.0597
  54   2.0000     -10.252949      -278.9969
  55   2.0000     -10.245986      -278.8074
  56   2.0000     -10.245766      -278.8015
  57   2.0000     -10.245411      -278.7918
  58   2.0000     -10.243885      -278.7503
  59   2.0000     -10.240996      -278.6717
  60   2.0000      -8.047940      -218.9956
  61   2.0000      -8.042214      -218.8398
  62   2.0000      -8.036000      -218.6707
  63   2.0000      -8.034694      -218.6351
  64   2.0000      -8.024494      -218.3576
  65   2.0000      -8.021174      -218.2673
  66   2.0000      -6.016871      -163.7274
  67   2.0000      -6.012735      -163.6148
  68   2.0000      -6.011122      -163.5710
  69   2.0000      -6.011005      -163.5678
  70   2.0000      -6.007086      -163.4611
  71   2.0000      -6.005189      -163.4095
  72   2.0000      -6.005008      -163.4046
  73   2.0000      -6.003988      -163.3768
  74   2.0000      -6.001404      -163.3065
  75   2.0000      -6.000168      -163.2729
  76   2.0000      -5.997917      -163.2116
  77   2.0000      -5.996465      -163.1721
  78   2.0000      -5.994221      -163.1111
  79   2.0000      -5.990976      -163.0227
  80   2.0000      -5.990174      -163.0009
  81   2.0000      -5.986753      -162.9078
  82   2.0000      -5.985343      -162.8695
  83   2.0000      -5.982044      -162.7797
  84   2.0000      -1.131077       -30.7782
  85   2.0000      -1.130149       -30.7529
  86   2.0000      -0.983702       -26.7679
  87   2.0000      -0.982256       -26.7285
  88   2.0000      -0.978646       -26.6303
  89   2.0000      -0.971553       -26.4373
  90   2.0000      -0.969416       -26.3792
  91   2.0000      -0.956440       -26.0261
  92   2.0000      -0.922071       -25.0908
  93   2.0000      -0.916077       -24.9277
  94   2.0000      -0.904386       -24.6096
  95   2.0000      -0.899111       -24.4661
  96   2.0000      -0.888035       -24.1647
  97   2.0000      -0.881335       -23.9823
  98   2.0000      -0.875093       -23.8125
  99   2.0000      -0.868481       -23.6326
 100   2.0000      -0.863169       -23.4880
 101   2.0000      -0.854055       -23.2400
 102   2.0000      -0.850486       -23.1429
 103   2.0000      -0.842841       -22.9349
 104   2.0000      -0.835629       -22.7386
 105   2.0000      -0.820953       -22.3393
 106   2.0000      -0.813568       -22.1383
 107   2.0000      -0.811750       -22.0889
 108   2.0000      -0.807658       -21.9775
 109   2.0000      -0.803487       -21.8640
 110   2.0000      -0.800537       -21.7837
 111   2.0000      -0.798848       -21.7378
 112   2.0000      -0.793960       -21.6048
 113   2.0000      -0.785351       -21.3705
 114   2.0000      -0.781054       -21.2535
 115   2.0000      -0.769912       -20.9504
 116   2.0000      -0.763538       -20.7769
 117   2.0000      -0.754288       -20.5252
 118   2.0000      -0.740662       -20.1544
 119   2.0000      -0.729624       -19.8541
 120   2.0000      -0.721617       -19.6362
 121   2.0000      -0.714209       -19.4346
 122   2.0000      -0.704485       -19.1700
 123   2.0000      -0.697860       -18.9897
 124   2.0000      -0.682354       -18.5678
 125   2.0000      -0.679721       -18.4962
 126   2.0000      -0.678290       -18.4572
 127   2.0000      -0.669250       -18.2112
 128   2.0000      -0.663368       -18.0512
 129   2.0000      -0.655787       -17.8449
 130   2.0000      -0.651932       -17.7400
 131   2.0000      -0.649237       -17.6666
 132   2.0000      -0.633379       -17.2351
 133   2.0000      -0.627150       -17.0656
 134   2.0000      -0.623883       -16.9767
 135   2.0000      -0.620356       -16.8807
 136   2.0000      -0.612474       -16.6663
 137   2.0000      -0.608866       -16.5681
 138   2.0000      -0.600044       -16.3280
 139   2.0000      -0.595173       -16.1955
 140   2.0000      -0.592979       -16.1358
 141   2.0000      -0.590391       -16.0654
 142   2.0000      -0.581743       -15.8300
 143   2.0000      -0.575034       -15.6475
 144   2.0000      -0.569659       -15.5012
 145   2.0000      -0.567664       -15.4469
 146   2.0000      -0.562045       -15.2940
 147   2.0000      -0.557775       -15.1778
 148   2.0000      -0.546026       -14.8581
 149   2.0000      -0.540724       -14.7138
 150   2.0000      -0.538780       -14.6609
 151   2.0000      -0.537092       -14.6150
 152   2.0000      -0.535830       -14.5807
 153   2.0000      -0.535364       -14.5680
 154   2.0000      -0.534221       -14.5369
 155   2.0000      -0.529458       -14.4073
 156   2.0000      -0.528257       -14.3746
 157   2.0000      -0.521118       -14.1803
 158   2.0000      -0.518682       -14.1141
 159   2.0000      -0.518272       -14.1029
 160   2.0000      -0.516234       -14.0474
 161   2.0000      -0.511724       -13.9247
 162   2.0000      -0.506277       -13.7765
 163   2.0000      -0.504355       -13.7242
 164   2.0000      -0.502415       -13.6714
 165   2.0000      -0.496392       -13.5075
 166   2.0000      -0.494849       -13.4655
 167   2.0000      -0.490409       -13.3447
 168   2.0000      -0.488563       -13.2945
 169   2.0000      -0.485472       -13.2104
 170   2.0000      -0.484664       -13.1884
 171   2.0000      -0.482424       -13.1274
 172   2.0000      -0.480006       -13.0616
 173   2.0000      -0.478448       -13.0192
 174   2.0000      -0.477456       -12.9922
 175   2.0000      -0.469968       -12.7885
 176   2.0000      -0.466923       -12.7056
 177   2.0000      -0.466383       -12.6909
 178   2.0000      -0.463875       -12.6227
 179   2.0000      -0.462862       -12.5951
 180   2.0000      -0.461144       -12.5484
 181   2.0000      -0.460425       -12.5288
 182   2.0000      -0.458770       -12.4838
 183   2.0000      -0.456952       -12.4343
 184   2.0000      -0.456878       -12.4323
 185   2.0000      -0.454221       -12.3600
 186   2.0000      -0.452516       -12.3136
 187   2.0000      -0.449951       -12.2438
 188   2.0000      -0.446885       -12.1604
 189   2.0000      -0.445482       -12.1222
 190   2.0000      -0.443516       -12.0687
 191   2.0000      -0.439554       -11.9609
 192   2.0000      -0.435172       -11.8416
 193   2.0000      -0.434365       -11.8197
 194   2.0000      -0.432037       -11.7563
 195   2.0000      -0.424582       -11.5535
 196   2.0000      -0.418449       -11.3866
 197   2.0000      -0.415592       -11.3088
 198   2.0000      -0.415007       -11.2929
 199   2.0000      -0.413138       -11.2420
 200   2.0000      -0.412883       -11.2351
 201   2.0000      -0.410384       -11.1671
 202   2.0000      -0.407711       -11.0944
 203   2.0000      -0.404177       -10.9982
 204   2.0000      -0.400488       -10.8978
 205   2.0000      -0.399815       -10.8795
 206   2.0000      -0.398139       -10.8339
 207   2.0000      -0.396131       -10.7793
 208   2.0000      -0.394624       -10.7383
 209   2.0000      -0.390876       -10.6363
 210   2.0000      -0.386441       -10.5156
 211   2.0000      -0.380332       -10.3494
 212   2.0000      -0.377480       -10.2718
 213   2.0000      -0.372071       -10.1246
 214   2.0000      -0.366277        -9.9669
 215   2.0000      -0.354227        -9.6390
 216   2.0000      -0.350603        -9.5404
 217   2.0000      -0.345058        -9.3895
 218   2.0000      -0.340455        -9.2642
 219   2.0000      -0.335833        -9.1385
 220   2.0000      -0.329000        -8.9525
 221   2.0000      -0.321696        -8.7538
 222   2.0000      -0.312923        -8.5151
 223   2.0000      -0.305127        -8.3029
 224   2.0000      -0.303208        -8.2507
 225   2.0000      -0.296809        -8.0766
 226   2.0000      -0.293222        -7.9790
 227   2.0000      -0.288785        -7.8582
 228   2.0000      -0.280127        -7.6227
 229   2.0000      -0.270841        -7.3700
 230   2.0000      -0.255926        -6.9641
 231   2.0000      -0.228730        -6.2241
 232   2.0000      -0.213598        -5.8123
 233   2.0000      -0.188125        -5.1192
 234   0.0000      -0.075680        -2.0593
 235   0.0000      -0.044773        -1.2183
 236   0.0000      -0.036909        -1.0043
 237   0.0000      -0.006114        -0.1664
 238   0.0000       0.010714         0.2915

MULLIKEN ATOMIC CHARGES
-----------------------
   0 C :   -0.139006
   1 S :    0.121394
   2 C :   -0.187613
   3 C :    0.168027
   4 C :    0.076027
   5 C :   -0.032242
   6 C :    0.080168
   7 C :   -0.057841
   8 C :   -0.036805
   9 C :   -0.114499
  10 C :    0.117887
  11 C :   -0.001159
  12 C :    0.018229
  13 C :   -0.132933
  14 S :    0.098949
  15 C :   -0.099668
  16 C :    0.107313
  17 C :    0.088577
  18 C :   -0.066952
  19 C :   -0.015627
  20 O :   -0.340744
  21 C :    0.205828
  22 C :    0.014640
  23 C :   -0.024359
  24 C :    0.011507
  25 C :   -0.022733
  26 C :    0.031180
  27 C :    0.025423
  28 C :   -0.031325
  29 S :    0.040500
  30 C :   -0.046386
  31 C :    0.029270
  32 C :    0.034510
  33 C :   -0.041720
  34 S :    0.078967
  35 C :    0.003277
  36 C :   -0.157349
  37 S :    0.122197
  38 C :   -0.141607
  39 C :    0.114667
  40 C :    0.092604
  41 C :   -0.049888
  42 C :    0.007068
  43 O :   -0.346056
  44 C :    0.194202
  45 C :    0.005901
  46 C :   -0.021086
  47 C :   -0.166191
  48 S :    0.133228
  49 C :   -0.202669
  50 C :    0.132908
  51 C :    0.124834
  52 C :   -0.107126
  53 C :    0.091571
  54 C :   -0.006684
  55 C :   -0.024736
  56 C :   -0.114374
  57 C :    0.121472
  58 C :   -0.021898
  59 C :   -0.006619
  60 H :    0.015288
  61 H :    0.023050
  62 H :    0.008864
  63 H :    0.043570
  64 H :   -0.041636
  65 H :   -0.039069
  66 H :   -0.003351
  67 H :    0.030286
  68 H :    0.030384
  69 H :   -0.019467
  70 H :   -0.009592
  71 H :    0.013336
  72 H :    0.035140
  73 H :    0.021760
  74 H :    0.030465
  75 H :    0.018424
  76 H :    0.011147
  77 H :   -0.012822
  78 H :    0.021784
  79 H :   -0.020837
  80 H :   -0.016952
  81 H :   -0.017237
  82 H :   -0.018673
  83 H :   -0.017249
  84 H :   -0.011670
  85 H :    0.002679
  86 H :    0.026464
  87 H :    0.012403
  88 H :    0.024074
  89 H :    0.033060
  90 H :    0.018679
  91 H :   -0.016847
  92 H :    0.013884
  93 H :    0.038522
  94 H :    0.034119
  95 H :    0.005418
  96 H :   -0.040013
  97 H :   -0.036945
  98 H :   -0.000048
  99 H :    0.024700
 100 H :    0.007883
 101 H :    0.009111
 102 H :    0.011062
 103 H :    0.022425
Sum of atomic charges:   -0.0000000

LOEWDIN ATOMIC CHARGES
----------------------
   0 C :   -0.189502
   1 S :    0.493954
   2 C :   -0.179992
   3 C :   -0.039107
   4 C :   -0.047665
   5 C :   -0.010399
   6 C :   -0.046640
   7 C :   -0.045074
   8 C :   -0.035989
   9 C :   -0.025286
  10 C :   -0.046522
  11 C :   -0.034650
  12 C :   -0.071630
  13 C :   -0.151781
  14 S :    0.437677
  15 C :   -0.192589
  16 C :    0.016709
  17 C :   -0.085224
  18 C :   -0.021536
  19 C :   -0.043269
  20 O :   -0.133775
  21 C :    0.080063
  22 C :   -0.034178
  23 C :   -0.048967
  24 C :   -0.054299
  25 C :   -0.144953
  26 C :   -0.038259
  27 C :   -0.035855
  28 C :   -0.177777
  29 S :    0.375340
  30 C :   -0.184704
  31 C :   -0.035329
  32 C :   -0.039968
  33 C :   -0.143314
  34 S :    0.415236
  35 C :   -0.087185
  36 C :   -0.173735
  37 S :    0.418789
  38 C :   -0.197661
  39 C :    0.015812
  40 C :   -0.084762
  41 C :   -0.043321
  42 C :   -0.038533
  43 O :   -0.120720
  44 C :    0.079650
  45 C :   -0.063132
  46 C :   -0.037334
  47 C :   -0.184300
  48 S :    0.467742
  49 C :   -0.186128
  50 C :   -0.048369
  51 C :   -0.041294
  52 C :   -0.022145
  53 C :   -0.049266
  54 C :   -0.028759
  55 C :   -0.026885
  56 C :   -0.022708
  57 C :   -0.043355
  58 C :   -0.051262
  59 C :   -0.040163
  60 H :    0.021850
  61 H :    0.034484
  62 H :    0.027978
  63 H :    0.032822
  64 H :    0.022252
  65 H :    0.022763
  66 H :    0.029533
  67 H :    0.032555
  68 H :    0.032443
  69 H :    0.033739
  70 H :    0.015647
  71 H :    0.032334
  72 H :    0.026187
  73 H :    0.023560
  74 H :    0.023469
  75 H :    0.012604
  76 H :    0.011705
  77 H :    0.033027
  78 H :    0.007776
  79 H :    0.030656
  80 H :    0.031263
  81 H :    0.030724
  82 H :    0.030035
  83 H :    0.030547
  84 H :    0.030618
  85 H :    0.028310
  86 H :    0.021016
  87 H :    0.020729
  88 H :    0.021348
  89 H :    0.013916
  90 H :    0.015628
  91 H :    0.019506
  92 H :    0.035806
  93 H :    0.018300
  94 H :    0.035572
  95 H :    0.030598
  96 H :    0.023605
  97 H :    0.024006
  98 H :    0.027589
  99 H :    0.031908
 100 H :    0.026916
 101 H :    0.029634
 102 H :    0.018721
 103 H :    0.024594

  Mayer bond orders larger than 0.100000
B(  0-C ,  1-S ) :   1.1914 B(  0-C ,  2-C ) :   0.1021 B(  0-C ,  4-C ) :   1.4510
B(  0-C , 60-H ) :   0.9538 B(  1-S ,  2-C ) :   1.1530 B(  2-C ,  3-C ) :   1.3358
B(  2-C , 11-C ) :   1.1766 B(  3-C ,  4-C ) :   1.1926 B(  3-C ,  9-C ) :   1.1963
B(  4-C ,  5-C ) :   1.1793 B(  5-C ,  6-C ) :   1.0891 B(  5-C ,  7-C ) :   1.5687
B(  6-C , 61-H ) :   0.9370 B(  6-C , 62-H ) :   0.9522 B(  6-C , 63-H ) :   0.9376
B(  7-C ,  8-C ) :   1.1703 B(  7-C , 64-H ) :   0.9898 B(  8-C ,  9-C ) :   1.5661
B(  8-C , 65-H ) :   0.9838 B(  9-C , 10-C ) :   1.1009 B( 10-C , 66-H ) :   0.9384
B( 10-C , 67-H ) :   0.9356 B( 10-C , 68-H ) :   0.9386 B( 11-C , 12-C ) :   1.6399
B( 11-C , 69-H ) :   0.9644 B( 12-C , 13-C ) :   1.1454 B( 12-C , 70-H ) :   0.9411
B( 13-C , 14-S ) :   1.1263 B( 13-C , 17-C ) :   1.4377 B( 14-S , 15-C ) :   1.0876
B( 15-C , 16-C ) :   1.4407 B( 15-C , 22-C ) :   1.1699 B( 16-C , 17-C ) :   1.2525
B( 16-C , 20-O ) :   1.1588 B( 17-C , 18-C ) :   1.0399 B( 18-C , 19-C ) :   1.9483
B( 18-C , 71-H ) :   0.9570 B( 19-C , 72-H ) :   0.9564 B( 19-C , 73-H ) :   0.9502
B( 20-O , 21-C ) :   0.9442 B( 21-C , 74-H ) :   0.9825 B( 21-C , 75-H ) :   0.9653
B( 21-C , 76-H ) :   0.9668 B( 22-C , 23-C ) :   1.5734 B( 22-C , 77-H ) :   0.9905
B( 23-C , 24-C ) :   1.1779 B( 23-C , 78-H ) :   0.9554 B( 24-C , 25-C ) :   1.5362
B( 24-C , 79-H ) :   0.9891 B( 25-C , 26-C ) :   1.1581 B( 25-C , 29-S ) :   1.0373
B( 26-C , 27-C ) :   1.5668 B( 26-C , 80-H ) :   0.9980 B( 27-C , 28-C ) :   1.2065
B( 27-C , 81-H ) :   0.9960 B( 28-C , 29-S ) :   1.0510 B( 28-C , 30-C ) :   1.4766
B( 30-C , 31-C ) :   1.1961 B( 30-C , 34-S ) :   1.0555 B( 31-C , 32-C ) :   1.5859
B( 31-C , 82-H ) :   0.9953 B( 32-C , 33-C ) :   1.1471 B( 32-C , 83-H ) :   0.9959
B( 33-C , 34-S ) :   1.0579 B( 33-C , 35-C ) :   1.5916 B( 35-C , 36-C ) :   1.1357
B( 35-C , 84-H ) :   0.9580 B( 36-C , 37-S ) :   1.0989 B( 36-C , 40-C ) :   1.4082
B( 37-S , 38-C ) :   1.0933 B( 38-C , 39-C ) :   1.4769 B( 38-C , 45-C ) :   1.1073
B( 39-C , 40-C ) :   1.2606 B( 39-C , 43-O ) :   1.1061 B( 40-C , 41-C ) :   1.0778
B( 41-C , 42-C ) :   1.9370 B( 41-C , 85-H ) :   0.9612 B( 42-C , 86-H ) :   0.9472
B( 42-C , 87-H ) :   0.9465 B( 43-O , 44-C ) :   0.9309 B( 44-C , 88-H ) :   0.9830
B( 44-C , 89-H ) :   0.9658 B( 44-C , 90-H ) :   0.9693 B( 45-C , 46-C ) :   1.6581
B( 45-C , 91-H ) :   0.9577 B( 46-C , 47-C ) :   1.1455 B( 46-C , 92-H ) :   0.9640
B( 47-C , 48-S ) :   1.1499 B( 47-C , 49-C ) :   0.1170 B( 47-C , 51-C ) :   1.3563
B( 48-S , 49-C ) :   1.1549 B( 49-C , 50-C ) :   1.4040 B( 49-C , 58-C ) :   1.0311
B( 50-C , 51-C ) :   1.1789 B( 50-C , 56-C ) :   1.1841 B( 51-C , 52-C ) :   1.1938
B( 52-C , 53-C ) :   1.0908 B( 52-C , 54-C ) :   1.5755 B( 53-C , 93-H ) :   0.9326
B( 53-C , 94-H ) :   0.9414 B( 53-C , 95-H ) :   0.9402 B( 54-C , 55-C ) :   1.1866
B( 54-C , 96-H ) :   0.9737 B( 55-C , 56-C ) :   1.5648 B( 55-C , 97-H ) :   0.9846
B( 56-C , 57-C ) :   1.1024 B( 57-C , 98-H ) :   0.9462 B( 57-C , 99-H ) :   0.9431
B( 57-C ,100-H ) :   0.9353 B( 58-C , 59-C ) :   1.9717 B( 58-C ,101-H ) :   0.9475
B( 59-C ,102-H ) :   0.9555 B( 59-C ,103-H ) :   0.9506

-----------------------------------------------------------------------------
         ABSORPTION SPECTRUM VIA TRANSITION ELECTRIC DIPOLE MOMENTS
-----------------------------------------------------------------------------
State   Energy  Wavelength   fosc         T2         TX        TY        TZ
        (cm-1)    (nm)                  (au**2)     (au)      (au)      (au)
-----------------------------------------------------------------------------
   0   10499.7    952.4   0.317177143   9.94489  -1.61132  -0.48342  -2.66737
   1   16502.7    606.0   0.086649280   1.72856  -0.63994   0.52405   1.02196
   2   18524.0    539.8   1.538027993  27.33407   4.36976  -2.32224  -1.68714
   3   19808.4    504.8   0.343208689   5.70405   0.79913  -0.41647  -2.21179
   4   20318.0    492.2   0.427034576   6.91922   2.36732  -1.14007   0.12343
   5   21781.1    459.1   0.473408226   7.15537   0.90715  -0.08089   2.51514
   6   23148.6    432.0   0.076840785   1.09280   0.17033   0.28310  -0.99179
   7   24526.4    407.7   0.063483062   0.85212  -0.74797  -0.23777  -0.48593
   8   25944.5    385.4   0.021481402   0.27258   0.31731   0.39407   0.12885
   9   26131.3    382.7   0.084595535   1.06577  -1.03038   0.03075  -0.05607
  10   26682.9    374.8   0.340638763   4.20278   0.76681  -1.18040  -1.49045
  11   27499.1    363.6   0.015737311   0.18840   0.40144  -0.09658   0.13386
  12   28289.5    353.5   0.008470037   0.09857  -0.27594  -0.10528  -0.10648
  13   30244.8    330.6   0.015854663   0.17258   0.12398   0.21841   0.33091
  14   30646.2    326.3   0.005608734   0.06025   0.22618   0.07438   0.05969
  15   30775.5    324.9   0.030659195   0.32797   0.46311  -0.18493   0.28160
  16   31113.5    321.4   0.002800686   0.02963   0.16528  -0.03893  -0.02828
  17   31210.3    320.4   0.046778189   0.49343   0.41233  -0.04077   0.56723
  18   31742.4    315.0   0.061223335   0.63497   0.42764  -0.16235  -0.65249
  19   32211.9    310.4   0.124978288   1.27730   0.43431  -0.38965  -0.96791
  20   33200.9    301.2   0.049053146   0.48640   0.36027  -0.55786   0.21306
  21   33926.3    294.8   0.034586978   0.33562   0.25069  -0.27649  -0.44309
  22   34059.1    293.6   0.022407964   0.21659  -0.45272  -0.08708   0.06364
  23   34460.8    290.2   0.009532273   0.09106  -0.14906   0.07603  -0.25113
  24   34699.0    288.2   0.045871851   0.43522  -0.13523  -0.42293  -0.48791
  25   34825.4    287.1   0.038344644   0.36248   0.28642  -0.20776   0.48711
  26   35293.3    283.3   0.079402848   0.74066   0.10085   0.60196   0.60674
  27   35606.9    280.8   0.025602234   0.23671   0.25713  -0.27054  -0.31209
  28   36090.4    277.1   0.032225526   0.29396  -0.31795  -0.00828   0.43908
  29   36259.5    275.8   0.036197659   0.32865   0.41644  -0.05748   0.38977
  30   36732.7    272.2   0.036998184   0.33159   0.21844   0.11672  -0.51986
  31   36775.9    271.9   0.013124714   0.11749  -0.16801   0.29873   0.00472
  32   36902.3    271.0   0.014048992   0.12533  -0.20910   0.08992  -0.27116
  33   37111.5    269.5   0.030966993   0.27470  -0.21468   0.29013  -0.38006
  34   37483.4    266.8   0.039396252   0.34601  -0.26379  -0.04770  -0.52360
  35   37826.4    264.4   0.085517179   0.74428   0.36093  -0.41721  -0.66328
  36   38038.7    262.9   0.148638768   1.28642   1.05565  -0.31973  -0.26421
  37   38192.7    261.8   0.110344031   0.95114   0.09527   0.21665  -0.94611
  38   38700.7    258.4   0.006191314   0.05267  -0.19806   0.01940   0.11429
  39   39072.7    255.9   0.068147140   0.57418  -0.62566   0.42734  -0.01053
  40   39718.4    251.8   0.015681376   0.12998   0.19543  -0.21480   0.21365
  41   39940.8    250.4   0.015454472   0.12738   0.29213   0.05054  -0.19871
  42   40107.0    249.3   0.008829459   0.07248  -0.15109   0.17648   0.13602
  43   40309.7    248.1   0.055545212   0.45364   0.32911  -0.17748   0.56020

FINAL SINGLE POINT ENERGY     -4543.909109534448

DIPOLE MOMENT
-------------
                                X             Y             Z
Electronic contribution:     21.65577     -23.71244     -46.68911
Nuclear contribution   :    -21.45784      24.19059      47.04892
                        -----------------------------------------
Total Dipole Moment    :      0.19793       0.47815       0.35981
                        -----------------------------------------
Magnitude (a.u.)       :      0.63030
Magnitude (Debye)      :      1.60209

Rotational constants in cm-1:     0.001367     0.000872     0.000574
Rotational constants in MHz :    40.992356    26.139573    17.213834

                             ****ORCA TERMINATED NORMALLY****
TOTAL RUN TIME: 0 days 0 hours 21 minutes 30 seconds 81 msec
