                         Program Version 4.2.0 -  RELEASE  -
|  1> # ORCA input file
|  2> # SCF done       -167.459724220540          0.000445995755
|  3> ! CAM-B3LYP def2-SVP def2/J RIJCOSX Grid4 TightSCF
|  4> %maxcore 5000
|  5> %tddft
|  6>     Mode sTDDFT
|  7>     Ethresh 5.0
|  8>     maxcore 5000
|  9> end
| 10>
| 11> %pal
| 12>   nprocs 6
| 13>   end
| 14> * xyz 0 1
| 15>    C       -4.74659         0.79559         1.91123
| 16>    C       -4.99372        -0.24106         2.77450
| 17>    C       -3.99072        -1.01407         3.39333
| 18>    N       -3.21517        -1.67320         3.92419
| 19>    C       -6.28557        -0.65921         3.15219
| 20>    N       -7.32095        -1.02687         3.48507
| 21>    C       -3.42887         1.26723         1.49420
| 22>    C       -3.59047         2.35799         0.59982
| 23>    C       -2.52545         3.01707         0.03442
| 24>    C       -1.23815         2.58246         0.36665
| 25>    C       -1.08597         1.49493         1.25970
| 26>    C       -2.16361         0.82702         1.83070
| 27>    S        0.58758         1.12388         1.53503
| 28>    C        1.05563         2.41661         0.46243
| 29>    C        0.01240         3.09243        -0.07619
| 30>   Br        2.87461         2.75375         0.15553
| 31>    C       -5.02298         2.61402         0.42175
| 32>    O       -5.54711         3.48036        -0.27610
| 33>    C       -5.72364         1.62714         1.24690
| 34>    C       -7.09626         1.58589         1.30572
| 35>    N       -7.81786         2.46536         0.60122
| 36>    C       -9.16768         2.56438         0.53267
| 37>    S      -10.20942         1.47232         1.39059
| 38>    C      -11.57995         2.29871         0.72368
| 39>    N      -12.85891         1.84658         1.07597
| 40>    O      -13.81308         2.43313         0.59916
| 41>    O      -12.91647         0.89784         1.83719
| 42>    C      -11.25046         3.34033        -0.10062
| 43>    C       -9.85915         3.51839        -0.22817
| 44>    C       -9.20923         4.53149        -1.01574
| 45>    C       -9.83428         5.38047        -1.85448
| 46>    C       -9.11885         6.36318        -2.61244
| 47>    C       -9.62437         7.21241        -3.52260
| 48>    C      -11.04881         7.28265        -3.96320
| 49>    C       -8.68829         8.12324        -4.28434
| 50>    N       -8.27581         7.47282        -5.51107
| 51>    C       -8.95668         7.57983        -6.67161
| 52>    C       -8.86857         6.67699        -7.68587
| 53>    C       -9.50472         6.82446        -8.92944
| 54>    C       -9.45690         5.88814        -9.92952
| 55>    C      -10.06138         5.95321       -11.20733
| 56>    C       -9.84518         4.85869       -11.98806
| 57>    C       -9.06022         3.85799       -11.36973
| 58>    S       -8.59359         4.35899        -9.76406
| 59>    C       -8.68182         2.63278       -11.88270
| 60>    C       -8.96942         2.08916       -13.15298
| 61>    C       -8.45672         0.84361       -13.34909
| 62>    C       -7.73528         0.32761       -12.24132
| 63>    S       -7.72671         1.49802       -10.93917
| 64>    C       -7.13383        -0.90200       -12.17814
| 65>    C       -6.42581        -1.44710       -11.09343
| 66>    S       -6.15244        -0.65413        -9.56216
| 67>    C       -5.27390        -1.99000        -8.92506
| 68>    C       -5.19115        -2.99922        -9.83981
| 69>    C       -5.83283        -2.70375       -11.05712
| 70>    O       -5.85755        -3.59035       -12.09816
| 71>    C       -5.24981        -4.78400       -11.95373
| 72>    O       -5.25632        -5.57436       -12.85565
| 73>    C       -4.55344        -5.11290       -10.62280
| 74>    O       -4.00970        -6.16608       -10.45753
| 75>    O       -4.55787        -4.19476        -9.63181
| 76>    H       -2.67874         3.84256        -0.64290
| 77>    H       -1.99534         0.00391         2.50470
| 78>    H        0.11985         3.91669        -0.75735
| 79>    H       -7.63440         0.86309         1.90476
| 80>    H       -7.23753         3.12419         0.04981
| 81>    H      -12.00009         3.94484        -0.57624
| 82>    H       -8.13337         4.60483        -0.92493
| 83>    H      -10.90424         5.32481        -1.97743
| 84>    H       -8.05447         6.40855        -2.41167
| 85>    H      -11.66186         6.50855        -3.51514
| 86>    H      -11.10344         7.17971        -5.04813
| 87>    H      -11.47070         8.25381        -3.70180
| 88>    H       -7.79415         8.34211        -3.69423
| 89>    H       -9.18207         9.06237        -4.54223
| 90>    H       -7.76541         6.60920        -5.37963
| 91>    H       -9.55321         8.47606        -6.78074
| 92>    H       -8.27717         5.78259        -7.53788
| 93>    H      -10.07538         7.72529        -9.11350
| 94>    H      -10.63772         6.81029       -11.50919
| 95>    H      -10.22953         4.74034       -12.98502
| 96>    H       -9.54331         2.62825       -13.88527
| 97>    H       -8.57239         0.27082       -14.25184
| 98>    H       -7.20445        -1.54154       -13.04760
| 99>    H       -4.87431        -1.96435        -7.93386
|100> *
|101>
|102>                          ****END OF INPUT****

CARTESIAN COORDINATES (ANGSTROEM)
---------------------------------
  C     -4.746590    0.795590    1.911230
  C     -4.993720   -0.241060    2.774500
  C     -3.990720   -1.014070    3.393330
  N     -3.215170   -1.673200    3.924190
  C     -6.285570   -0.659210    3.152190
  N     -7.320950   -1.026870    3.485070
  C     -3.428870    1.267230    1.494200
  C     -3.590470    2.357990    0.599820
  C     -2.525450    3.017070    0.034420
  C     -1.238150    2.582460    0.366650
  C     -1.085970    1.494930    1.259700
  C     -2.163610    0.827020    1.830700
  S      0.587580    1.123880    1.535030
  C      1.055630    2.416610    0.462430
  C      0.012400    3.092430   -0.076190
  Br     2.874610    2.753750    0.155530
  C     -5.022980    2.614020    0.421750
  O     -5.547110    3.480360   -0.276100
  C     -5.723640    1.627140    1.246900
  C     -7.096260    1.585890    1.305720
  N     -7.817860    2.465360    0.601220
  C     -9.167680    2.564380    0.532670
  S    -10.209420    1.472320    1.390590
  C    -11.579950    2.298710    0.723680
  N    -12.858910    1.846580    1.075970
  O    -13.813080    2.433130    0.599160
  O    -12.916470    0.897840    1.837190
  C    -11.250460    3.340330   -0.100620
  C     -9.859150    3.518390   -0.228170
  C     -9.209230    4.531490   -1.015740
  C     -9.834280    5.380470   -1.854480
  C     -9.118850    6.363180   -2.612440
  C     -9.624370    7.212410   -3.522600
  C    -11.048810    7.282650   -3.963200
  C     -8.688290    8.123240   -4.284340
  N     -8.275810    7.472820   -5.511070
  C     -8.956680    7.579830   -6.671610
  C     -8.868570    6.676990   -7.685870
  C     -9.504720    6.824460   -8.929440
  C     -9.456900    5.888140   -9.929520
  C    -10.061380    5.953210  -11.207330
  C     -9.845180    4.858690  -11.988060
  C     -9.060220    3.857990  -11.369730
  S     -8.593590    4.358990   -9.764060
  C     -8.681820    2.632780  -11.882700
  C     -8.969420    2.089160  -13.152980
  C     -8.456720    0.843610  -13.349090
  C     -7.735280    0.327610  -12.241320
  S     -7.726710    1.498020  -10.939170
  C     -7.133830   -0.902000  -12.178140
  C     -6.425810   -1.447100  -11.093430
  S     -6.152440   -0.654130   -9.562160
  C     -5.273900   -1.990000   -8.925060
  C     -5.191150   -2.999220   -9.839810
  C     -5.832830   -2.703750  -11.057120
  O     -5.857550   -3.590350  -12.098160
  C     -5.249810   -4.784000  -11.953730
  O     -5.256320   -5.574360  -12.855650
  C     -4.553440   -5.112900  -10.622800
  O     -4.009700   -6.166080  -10.457530
  O     -4.557870   -4.194760   -9.631810
  H     -2.678740    3.842560   -0.642900
  H     -1.995340    0.003910    2.504700
  H      0.119850    3.916690   -0.757350
  H     -7.634400    0.863090    1.904760
  H     -7.237530    3.124190    0.049810
  H    -12.000090    3.944840   -0.576240
  H     -8.133370    4.604830   -0.924930
  H    -10.904240    5.324810   -1.977430
  H     -8.054470    6.408550   -2.411670
  H    -11.661860    6.508550   -3.515140
  H    -11.103440    7.179710   -5.048130
  H    -11.470700    8.253810   -3.701800
  H     -7.794150    8.342110   -3.694230
  H     -9.182070    9.062370   -4.542230
  H     -7.765410    6.609200   -5.379630
  H     -9.553210    8.476060   -6.780740
  H     -8.277170    5.782590   -7.537880
  H    -10.075380    7.725290   -9.113500
  H    -10.637720    6.810290  -11.509190
  H    -10.229530    4.740340  -12.985020
  H     -9.543310    2.628250  -13.885270
  H     -8.572390    0.270820  -14.251840
  H     -7.204450   -1.541540  -13.047600
  H     -4.874310   -1.964350   -7.933860

 Total Charge           Charge          ....    0
 Multiplicity           Mult            ....    1
 Number of Electrons    NEL             ....  488
 Basis Dimension        Dim             .... 1012

ORBITAL ENERGIES
----------------

  NO   OCC          E(Eh)            E(eV)
   0   2.0000    -482.893342    -13140.1959
   1   2.0000     -88.996864     -2421.7278
   2   2.0000     -88.985348     -2421.4144
   3   2.0000     -88.963038     -2420.8073
   4   2.0000     -88.939383     -2420.1636
   5   2.0000     -88.938982     -2420.1527
   6   2.0000     -62.571029     -1702.6442
   7   2.0000     -56.404994     -1534.8579
   8   2.0000     -56.402252     -1534.7833
   9   2.0000     -56.402227     -1534.7826
  10   2.0000     -19.297573      -525.1137
  11   2.0000     -19.295726      -525.0634
  12   2.0000     -19.245364      -523.6930
  13   2.0000     -19.244230      -523.6621
  14   2.0000     -19.242669      -523.6196
  15   2.0000     -19.225062      -523.1405
  16   2.0000     -19.224091      -523.1141
  17   2.0000     -14.656654      -398.8278
  18   2.0000     -14.503668      -394.6649
  19   2.0000     -14.451439      -393.2436
  20   2.0000     -14.426442      -392.5634
  21   2.0000     -14.421809      -392.4374
  22   2.0000     -10.427286      -283.7409
  23   2.0000     -10.426985      -283.7327
  24   2.0000     -10.389105      -282.7019
  25   2.0000     -10.378914      -282.4246
  26   2.0000     -10.378317      -282.4084
  27   2.0000     -10.368013      -282.1280
  28   2.0000     -10.354510      -281.7605
  29   2.0000     -10.354186      -281.7517
  30   2.0000     -10.350066      -281.6396
  31   2.0000     -10.349211      -281.6163
  32   2.0000     -10.342229      -281.4264
  33   2.0000     -10.336034      -281.2578
  34   2.0000     -10.330557      -281.1088
  35   2.0000     -10.328744      -281.0594
  36   2.0000     -10.328598      -281.0554
  37   2.0000     -10.324828      -280.9529
  38   2.0000     -10.319855      -280.8175
  39   2.0000     -10.318549      -280.7820
  40   2.0000     -10.318028      -280.7678
  41   2.0000     -10.316380      -280.7230
  42   2.0000     -10.314681      -280.6767
  43   2.0000     -10.314509      -280.6721
  44   2.0000     -10.310287      -280.5572
  45   2.0000     -10.309067      -280.5240
  46   2.0000     -10.307649      -280.4854
  47   2.0000     -10.306602      -280.4569
  48   2.0000     -10.306067      -280.4423
  49   2.0000     -10.303530      -280.3733
  50   2.0000     -10.301294      -280.3125
  51   2.0000     -10.299712      -280.2694
  52   2.0000     -10.296936      -280.1939
  53   2.0000     -10.296698      -280.1874
  54   2.0000     -10.296560      -280.1836
  55   2.0000     -10.295278      -280.1487
  56   2.0000     -10.288065      -279.9525
  57   2.0000     -10.287384      -279.9340
  58   2.0000     -10.285435      -279.8809
  59   2.0000     -10.284175      -279.8466
  60   2.0000     -10.280896      -279.7574
  61   2.0000     -10.278942      -279.7042
  62   2.0000     -10.274109      -279.5727
  63   2.0000     -10.273143      -279.5464
  64   2.0000     -10.267991      -279.4062
  65   2.0000      -8.800441      -239.4722
  66   2.0000      -8.092052      -220.1959
  67   2.0000      -8.081302      -219.9034
  68   2.0000      -8.057952      -219.2680
  69   2.0000      -8.035387      -218.6540
  70   2.0000      -8.035334      -218.6526
  71   2.0000      -6.636793      -180.5963
  72   2.0000      -6.622168      -180.1983
  73   2.0000      -6.621916      -180.1915
  74   2.0000      -6.061675      -164.9466
  75   2.0000      -6.057340      -164.8286
  76   2.0000      -6.053545      -164.7253
  77   2.0000      -6.050948      -164.6547
  78   2.0000      -6.046696      -164.5390
  79   2.0000      -6.042577      -164.4269
  80   2.0000      -6.027402      -164.0140
  81   2.0000      -6.023267      -163.9014
  82   2.0000      -6.019762      -163.8061
  83   2.0000      -6.005164      -163.4088
  84   2.0000      -6.005056      -163.4059
  85   2.0000      -6.001144      -163.2994
  86   2.0000      -6.001077      -163.2976
  87   2.0000      -5.996295      -163.1675
  88   2.0000      -5.996228      -163.1657
  89   2.0000      -2.752671       -74.9040
  90   2.0000      -2.748516       -74.7909
  91   2.0000      -2.748405       -74.7879
  92   2.0000      -2.736742       -74.4705
  93   2.0000      -2.736740       -74.4705
  94   2.0000      -1.326173       -36.0870
  95   2.0000      -1.239731       -33.7348
  96   2.0000      -1.205562       -32.8050
  97   2.0000      -1.156780       -31.4776
  98   2.0000      -1.145349       -31.1665
  99   2.0000      -1.143044       -31.1038
 100   2.0000      -1.115373       -30.3508
 101   2.0000      -1.111501       -30.2455
 102   2.0000      -1.053958       -28.6796
 103   2.0000      -1.033732       -28.1293
 104   2.0000      -1.023038       -27.8383
 105   2.0000      -1.017469       -27.6867
 106   2.0000      -1.003593       -27.3091
 107   2.0000      -0.999936       -27.2097
 108   2.0000      -0.992752       -27.0141
 109   2.0000      -0.985819       -26.8255
 110   2.0000      -0.965372       -26.2691
 111   2.0000      -0.952368       -25.9153
 112   2.0000      -0.941671       -25.6242
 113   2.0000      -0.924019       -25.1438
 114   2.0000      -0.918988       -25.0069
 115   2.0000      -0.908271       -24.7153
 116   2.0000      -0.898991       -24.4628
 117   2.0000      -0.896708       -24.4007
 118   2.0000      -0.888838       -24.1865
 119   2.0000      -0.882560       -24.0157
 120   2.0000      -0.861927       -23.4542
 121   2.0000      -0.859500       -23.3882
 122   2.0000      -0.850269       -23.1370
 123   2.0000      -0.848538       -23.0899
 124   2.0000      -0.840301       -22.8658
 125   2.0000      -0.835245       -22.7282
 126   2.0000      -0.825063       -22.4511
 127   2.0000      -0.813875       -22.1467
 128   2.0000      -0.807922       -21.9847
 129   2.0000      -0.797974       -21.7140
 130   2.0000      -0.791956       -21.5502
 131   2.0000      -0.783872       -21.3302
 132   2.0000      -0.773618       -21.0512
 133   2.0000      -0.766869       -20.8676
 134   2.0000      -0.757540       -20.6137
 135   2.0000      -0.741065       -20.1654
 136   2.0000      -0.735750       -20.0208
 137   2.0000      -0.722250       -19.6534
 138   2.0000      -0.719001       -19.5650
 139   2.0000      -0.704632       -19.1740
 140   2.0000      -0.702153       -19.1066
 141   2.0000      -0.700957       -19.0740
 142   2.0000      -0.696160       -18.9435
 143   2.0000      -0.679626       -18.4936
 144   2.0000      -0.670875       -18.2554
 145   2.0000      -0.667381       -18.1603
 146   2.0000      -0.664863       -18.0919
 147   2.0000      -0.662550       -18.0289
 148   2.0000      -0.645718       -17.5709
 149   2.0000      -0.640673       -17.4336
 150   2.0000      -0.637858       -17.3570
 151   2.0000      -0.632727       -17.2174
 152   2.0000      -0.629754       -17.1365
 153   2.0000      -0.622653       -16.9433
 154   2.0000      -0.622347       -16.9349
 155   2.0000      -0.613889       -16.7048
 156   2.0000      -0.611913       -16.6510
 157   2.0000      -0.603501       -16.4221
 158   2.0000      -0.599897       -16.3240
 159   2.0000      -0.597658       -16.2631
 160   2.0000      -0.594421       -16.1750
 161   2.0000      -0.588135       -16.0040
 162   2.0000      -0.586561       -15.9611
 163   2.0000      -0.580120       -15.7859
 164   2.0000      -0.573750       -15.6125
 165   2.0000      -0.570860       -15.5339
 166   2.0000      -0.569394       -15.4940
 167   2.0000      -0.568267       -15.4633
 168   2.0000      -0.567245       -15.4355
 169   2.0000      -0.557678       -15.1752
 170   2.0000      -0.551110       -14.9965
 171   2.0000      -0.548073       -14.9138
 172   2.0000      -0.543696       -14.7947
 173   2.0000      -0.541504       -14.7351
 174   2.0000      -0.539351       -14.6765
 175   2.0000      -0.537576       -14.6282
 176   2.0000      -0.532713       -14.4959
 177   2.0000      -0.532095       -14.4790
 178   2.0000      -0.530369       -14.4321
 179   2.0000      -0.529463       -14.4074
 180   2.0000      -0.525635       -14.3033
 181   2.0000      -0.519686       -14.1414
 182   2.0000      -0.518635       -14.1128
 183   2.0000      -0.510672       -13.8961
 184   2.0000      -0.507808       -13.8182
 185   2.0000      -0.507678       -13.8146
 186   2.0000      -0.503419       -13.6987
 187   2.0000      -0.502561       -13.6754
 188   2.0000      -0.500771       -13.6267
 189   2.0000      -0.490378       -13.3439
 190   2.0000      -0.490333       -13.3426
 191   2.0000      -0.487808       -13.2739
 192   2.0000      -0.486111       -13.2277
 193   2.0000      -0.481619       -13.1055
 194   2.0000      -0.479968       -13.0606
 195   2.0000      -0.477802       -13.0017
 196   2.0000      -0.475399       -12.9363
 197   2.0000      -0.472333       -12.8528
 198   2.0000      -0.469396       -12.7729
 199   2.0000      -0.467076       -12.7098
 200   2.0000      -0.463556       -12.6140
 201   2.0000      -0.461844       -12.5674
 202   2.0000      -0.460153       -12.5214
 203   2.0000      -0.459337       -12.4992
 204   2.0000      -0.457531       -12.4500
 205   2.0000      -0.451734       -12.2923
 206   2.0000      -0.450489       -12.2584
 207   2.0000      -0.448834       -12.2134
 208   2.0000      -0.446400       -12.1472
 209   2.0000      -0.437542       -11.9061
 210   2.0000      -0.436054       -11.8656
 211   2.0000      -0.435923       -11.8621
 212   2.0000      -0.432456       -11.7677
 213   2.0000      -0.429308       -11.6821
 214   2.0000      -0.425001       -11.5649
 215   2.0000      -0.422788       -11.5046
 216   2.0000      -0.422511       -11.4971
 217   2.0000      -0.422026       -11.4839
 218   2.0000      -0.418809       -11.3964
 219   2.0000      -0.412457       -11.2235
 220   2.0000      -0.398684       -10.8487
 221   2.0000      -0.392089       -10.6693
 222   2.0000      -0.389559       -10.6004
 223   2.0000      -0.388604       -10.5745
 224   2.0000      -0.385988       -10.5033
 225   2.0000      -0.384987       -10.4760
 226   2.0000      -0.382641       -10.4122
 227   2.0000      -0.381386       -10.3780
 228   2.0000      -0.373703       -10.1690
 229   2.0000      -0.369502       -10.0547
 230   2.0000      -0.365487        -9.9454
 231   2.0000      -0.359645        -9.7864
 232   2.0000      -0.355688        -9.6788
 233   2.0000      -0.348860        -9.4930
 234   2.0000      -0.333747        -9.0817
 235   2.0000      -0.328175        -8.9301
 236   2.0000      -0.320927        -8.7329
 237   2.0000      -0.315504        -8.5853
 238   2.0000      -0.308035        -8.3820
 239   2.0000      -0.303087        -8.2474
 240   2.0000      -0.302541        -8.2326
 241   2.0000      -0.274599        -7.4722
 242   2.0000      -0.261964        -7.1284
 243   2.0000      -0.200740        -5.4624
 244   0.0000      -0.096166        -2.6168
 245   0.0000      -0.078199        -2.1279
 246   0.0000      -0.067706        -1.8424
 247   0.0000      -0.050545        -1.3754
 248   0.0000      -0.031371        -0.8536

MULLIKEN ATOMIC CHARGES
-----------------------
   0 C :    0.324509
   1 C :   -0.341512
   2 C :   -0.187801
   3 N :    0.156223
   4 C :   -0.195097
   5 N :    0.148729
   6 C :    0.009274
   7 C :   -0.003621
   8 C :   -0.066553
   9 C :    0.115076
  10 C :   -0.092404
  11 C :   -0.017456
  12 S :    0.195156
  13 C :   -0.123765
  14 C :    0.038501
  15 Br:    0.030642
  16 C :    0.164819
  17 O :   -0.229695
  18 C :   -0.129987
  19 C :    0.029732
  20 N :   -0.007704
  21 C :   -0.122672
  22 S :    0.180384
  23 C :    0.002358
  24 N :    0.274303
  25 O :   -0.246912
  26 O :   -0.252248
  27 C :    0.005489
  28 C :    0.145448
  29 C :   -0.052629
  30 C :    0.016417
  31 C :    0.008785
  32 C :   -0.184379
  33 C :    0.095182
  34 C :    0.188885
  35 N :   -0.136599
  36 C :    0.054389
  37 C :   -0.033348
  38 C :    0.002669
  39 C :   -0.043905
  40 C :    0.046730
  41 C :    0.010413
  42 C :   -0.033507
  43 S :    0.056142
  44 C :   -0.049553
  45 C :    0.032374
  46 C :    0.024328
  47 C :   -0.016672
  48 S :    0.048540
  49 C :   -0.030330
  50 C :   -0.151903
  51 S :    0.125847
  52 C :   -0.156149
  53 C :    0.219208
  54 C :    0.139988
  55 O :   -0.193600
  56 C :    0.144859
  57 O :   -0.111326
  58 C :    0.139423
  59 O :   -0.108803
  60 O :   -0.192545
  61 H :   -0.011786
  62 H :   -0.003603
  63 H :   -0.002109
  64 H :    0.047190
  65 H :    0.183982
  66 H :    0.012451
  67 H :   -0.008784
  68 H :   -0.012799
  69 H :   -0.024148
  70 H :    0.013226
  71 H :    0.033328
  72 H :    0.029165
  73 H :    0.018781
  74 H :    0.013145
  75 H :    0.120032
  76 H :    0.004260
  77 H :   -0.010701
  78 H :   -0.020751
  79 H :   -0.017289
  80 H :   -0.018880
  81 H :   -0.015784
  82 H :   -0.014928
  83 H :   -0.001625
  84 H :    0.025481
Sum of atomic charges:   -0.0000000

LOEWDIN ATOMIC CHARGES
----------------------
   0 C :    0.078314
   1 C :   -0.146321
   2 C :   -0.020259
   3 N :   -0.050522
   4 C :   -0.020462
   5 N :   -0.050919
   6 C :   -0.018028
   7 C :   -0.052337
   8 C :    0.023871
   9 C :   -0.033697
  10 C :   -0.143241
  11 C :   -0.006167
  12 S :    0.440765
  13 C :   -0.270189
  14 C :   -0.070677
  15 Br:    0.141990
  16 C :    0.097527
  17 O :   -0.182762
  18 C :   -0.146038
  19 C :    0.112851
  20 N :    0.079521
  21 C :   -0.114696
  22 S :    0.474138
  23 C :   -0.199193
  24 N :    0.273432
  25 O :   -0.213613
  26 O :   -0.219511
  27 C :    0.002700
  28 C :   -0.084232
  29 C :   -0.032996
  30 C :   -0.012057
  31 C :   -0.051600
  32 C :   -0.033658
  33 C :   -0.048206
  34 C :    0.047751
  35 N :    0.006123
  36 C :    0.045078
  37 C :   -0.124029
  38 C :   -0.027914
  39 C :   -0.177170
  40 C :   -0.021707
  41 C :   -0.052734
  42 C :   -0.160493
  43 S :    0.358768
  44 C :   -0.201473
  45 C :   -0.027237
  46 C :   -0.048343
  47 C :   -0.138789
  48 S :    0.354648
  49 C :   -0.098196
  50 C :   -0.181676
  51 S :    0.450828
  52 C :   -0.218376
  53 C :   -0.015517
  54 C :   -0.033768
  55 O :   -0.021675
  56 C :    0.051462
  57 O :   -0.094611
  58 C :    0.053078
  59 O :   -0.090325
  60 O :   -0.026772
  61 H :    0.040678
  62 H :    0.042605
  63 H :    0.039117
  64 H :    0.036681
  65 H :    0.084057
  66 H :    0.044525
  67 H :    0.029668
  68 H :    0.025349
  69 H :    0.025937
  70 H :    0.029955
  71 H :    0.038717
  72 H :    0.038890
  73 H :    0.028841
  74 H :    0.029381
  75 H :    0.080226
  76 H :    0.027021
  77 H :    0.018481
  78 H :    0.031113
  79 H :    0.031960
  80 H :    0.029614
  81 H :    0.031339
  82 H :    0.032254
  83 H :    0.042028
  84 H :    0.030906

  Mayer bond orders larger than 0.100000
B(  0-C ,  1-C ) :   1.6307 B(  0-C ,  6-C ) :   1.0048 B(  0-C , 18-C ) :   1.0958
B(  1-C ,  2-C ) :   1.1439 B(  1-C ,  4-C ) :   1.1484 B(  2-C ,  3-N ) :   2.9696
B(  4-C ,  5-N ) :   2.9537 B(  6-C ,  7-C ) :   1.2729 B(  6-C , 11-C ) :   1.4263
B(  7-C ,  8-C ) :   1.4197 B(  7-C , 16-C ) :   0.9858 B(  8-C ,  9-C ) :   1.2445
B(  8-C , 61-H ) :   1.0183 B(  9-C , 10-C ) :   1.3082 B(  9-C , 14-C ) :   1.1643
B( 10-C , 11-C ) :   1.3189 B( 10-C , 12-S ) :   1.0922 B( 11-C , 62-H ) :   0.9804
B( 12-S , 13-C ) :   1.0892 B( 13-C , 14-C ) :   1.6144 B( 13-C , 15-Br) :   1.0229
B( 14-C , 63-H ) :   1.0005 B( 16-C , 17-O ) :   2.0242 B( 16-C , 18-C ) :   1.0085
B( 17-O , 65-H ) :   0.1419 B( 18-C , 19-C ) :   1.4554 B( 19-C , 20-N ) :   1.3404
B( 19-C , 64-H ) :   0.9300 B( 20-N , 21-C ) :   1.1924 B( 20-N , 65-H ) :   0.8236
B( 21-C , 22-S ) :   1.1347 B( 21-C , 28-C ) :   1.3789 B( 22-S , 23-C ) :   1.0842
B( 23-C , 24-N ) :   0.9632 B( 23-C , 27-C ) :   1.5070 B( 24-N , 25-O ) :   1.5323
B( 24-N , 26-O ) :   1.5187 B( 25-O , 26-O ) :   0.2637 B( 27-C , 28-C ) :   1.2194
B( 27-C , 66-H ) :   0.9985 B( 28-C , 29-C ) :   1.0424 B( 29-C , 30-C ) :   1.7473
B( 29-C , 67-H ) :   0.9786 B( 30-C , 31-C ) :   1.0958 B( 30-C , 68-H ) :   0.9717
B( 31-C , 32-C ) :   1.7611 B( 31-C , 69-H ) :   0.9758 B( 32-C , 33-C ) :   1.0793
B( 32-C , 34-C ) :   1.0270 B( 33-C , 70-H ) :   0.9525 B( 33-C , 71-H ) :   0.9432
B( 33-C , 72-H ) :   0.9439 B( 34-C , 35-N ) :   1.0200 B( 34-C , 73-H ) :   0.9437
B( 34-C , 74-H ) :   0.9341 B( 35-N , 36-C ) :   1.2316 B( 35-N , 75-H ) :   0.9365
B( 36-C , 37-C ) :   1.5829 B( 36-C , 76-H ) :   0.9655 B( 37-C , 38-C ) :   1.1797
B( 37-C , 77-H ) :   0.9615 B( 38-C , 39-C ) :   1.5822 B( 38-C , 78-H ) :   0.9781
B( 39-C , 40-C ) :   1.1517 B( 39-C , 43-S ) :   1.0079 B( 40-C , 41-C ) :   1.5854
B( 40-C , 79-H ) :   0.9974 B( 41-C , 42-C ) :   1.1906 B( 41-C , 80-H ) :   0.9935
B( 42-C , 43-S ) :   1.0614 B( 42-C , 44-C ) :   1.5066 B( 44-C , 45-C ) :   1.1949
B( 44-C , 48-S ) :   1.0209 B( 45-C , 46-C ) :   1.5856 B( 45-C , 81-H ) :   0.9924
B( 46-C , 47-C ) :   1.1455 B( 46-C , 82-H ) :   1.0004 B( 47-C , 48-S ) :   1.0467
B( 47-C , 49-C ) :   1.5560 B( 49-C , 50-C ) :   1.1834 B( 49-C , 83-H ) :   0.9700
B( 50-C , 51-S ) :   1.1180 B( 50-C , 54-C ) :   1.4582 B( 51-S , 52-C ) :   1.1253
B( 52-C , 53-C ) :   1.5339 B( 52-C , 84-H ) :   0.9761 B( 53-C , 54-C ) :   1.2380
B( 53-C , 60-O ) :   1.0370 B( 54-C , 55-O ) :   1.0615 B( 55-O , 56-C ) :   1.0954
B( 56-C , 57-O ) :   2.2398 B( 56-C , 58-C ) :   0.8312 B( 58-C , 59-O ) :   2.2419
B( 58-C , 60-O ) :   1.0968

-----------------------------------------------------------------------------
         ABSORPTION SPECTRUM VIA TRANSITION ELECTRIC DIPOLE MOMENTS
-----------------------------------------------------------------------------
State   Energy  Wavelength   fosc         T2         TX        TY        TZ
        (cm-1)    (nm)                  (au**2)     (au)      (au)      (au)
-----------------------------------------------------------------------------
   0   14033.0    712.6   0.074412510   1.74570   0.01116   0.76290   1.07869
   1   15758.1    634.6   1.159050382  24.21437   1.24606  -4.23534  -2.17339
   2   17881.9    559.2   0.009297628   0.17117   0.23577  -0.33696   0.04522
   3   22069.7    453.1   1.028967230  15.34903  -3.34323   1.63255  -1.22745
   4   22460.9    445.2   0.045761689   0.67073   0.32335   0.37247  -0.65379
   5   23022.9    434.4   0.020570102   0.29414   0.06765  -0.52263  -0.12814
   6   25031.2    399.5   0.108142978   1.42230  -1.18198  -0.10883   0.11573
   7   25580.3    390.9   0.013222664   0.17017   0.14299  -0.32503   0.20996
   8   26528.0    377.0   0.089682854   1.11296   0.07336   0.56010  -0.89099
   9   27672.2    361.4   0.064255582   0.76444  -0.75222   0.33511  -0.29377
  10   29238.5    342.0   0.418189672   4.70862  -1.64441  -0.99672   1.00552
  11   29869.9    334.8   0.806286518   8.88650  -1.81503   0.96773  -2.15770
  12   30243.5    330.6   0.185040170   2.01423   0.19979   0.55038  -1.29282
  13   30471.2    328.2   0.000404057   0.00437   0.04812   0.01797   0.04155
  14   30702.4    325.7   0.181842568   1.94984   0.35013   0.07102  -1.34989
  15   31205.9    320.5   0.006332381   0.06680   0.25584  -0.03593  -0.00776
  16   31836.5    314.1   0.385426191   3.98558  -1.76416  -0.89233   0.27759
  17   33516.7    298.4   0.001603737   0.01575   0.04736  -0.11300  -0.02721
  18   33672.2    297.0   0.012149846   0.11879   0.14717   0.08698  -0.29927
  19   33860.4    295.3   0.193753498   1.88379  -0.54872  -0.93164   0.84544
  20   33939.8    294.6   0.004591944   0.04454  -0.11869  -0.13180   0.11438
  21   34398.4    290.7   0.082635572   0.79087  -0.11769  -0.14967  -0.86869
  22   34533.1    289.6   0.393605934   3.75234   1.56818   0.97653  -0.58271
  23   34638.9    288.7   0.000120050   0.00114   0.02217   0.02502   0.00484
  24   34706.5    288.1   0.022224762   0.21081   0.37151   0.25417  -0.09049
  25   36016.4    277.7   0.007362980   0.06730   0.15566   0.15835  -0.13416
  26   36415.2    274.6   0.000014230   0.00013   0.00480  -0.00969  -0.00342
  27   36447.9    274.4   0.000539155   0.00487   0.01507   0.04567  -0.05056
  28   36767.8    272.0   0.014950012   0.13386  -0.10345   0.12895  -0.32639
  29   37397.9    267.4   0.039414109   0.34696   0.33536   0.13893  -0.46389
  30   37523.1    266.5   0.122383432   1.07374   0.00212  -0.96093   0.38775
  31   37928.6    263.7   0.198658320   1.72431   0.23402  -1.19066   0.50187
  32   37999.2    263.2   0.265702994   2.30196   0.21350  -0.96602   1.15030
  33   38135.5    262.2   0.153960651   1.32910  -1.13932  -0.01344   0.17571
  34   39778.0    251.4   0.167556207   1.38673   0.28192  -1.00109   0.55234
  35   40034.2    249.8   0.022939533   0.18864  -0.06026   0.38673   0.18828
  36   40105.7    249.3   0.045694431   0.37509   0.12843  -0.59730   0.04276
  37   40122.4    249.2   0.048175816   0.39529  -0.03267   0.20675   0.59286
  38   40264.4    248.4   0.158528648   1.29617  -0.33415   1.04118  -0.31695

FINAL SINGLE POINT ENERGY     -7014.433286452655

DIPOLE MOMENT
-------------
                                X             Y             Z
Electronic contribution:    131.17086     -47.96104      65.62197
Nuclear contribution   :   -130.64665      54.70270     -65.55480
                        -----------------------------------------
Total Dipole Moment    :      0.52421       6.74166       0.06717
                        -----------------------------------------
Magnitude (a.u.)       :      6.76234
Magnitude (Debye)      :     17.18851

Rotational constants in cm-1:     0.000672     0.000406     0.000328
Rotational constants in MHz :    20.151352    12.172039     9.840429

                             ****ORCA TERMINATED NORMALLY****
TOTAL RUN TIME: 0 days 0 hours 6 minutes 21 seconds 324 msec
