                         Program Version 4.2.0 -  RELEASE  -
|  1> # ORCA input file
|  2> # SCF done       -206.636567488804          0.000878553671
|  3> ! CAM-B3LYP def2-SVP def2/J RIJCOSX Grid4 TightSCF
|  4> %maxcore 5000
|  5> %tddft
|  6>     Mode sTDDFT
|  7>     Ethresh 5.0
|  8>     maxcore 5000
|  9> end
| 10>
| 11> %pal
| 12>   nprocs 6
| 13>   end
| 14> * xyz 0 1
| 15>    C       -8.53721        -0.12577         1.88751
| 16>    C       -9.02548        -0.92557         2.88611
| 17>    C       -9.43937        -2.26249         2.69427
| 18>    N       -9.78865        -3.35267         2.61086
| 19>    C       -9.20133        -0.56639         4.24061
| 20>    N       -9.39740        -0.36995         5.35441
| 21>    C       -8.41471        -0.51408         0.48753
| 22>    C       -7.86437         0.56875        -0.24115
| 23>    C       -7.64738         0.52929        -1.59836
| 24>    C       -7.99593        -0.64374        -2.27265
| 25>    C       -8.53553        -1.72980        -1.53963
| 26>    C       -8.75211        -1.68592        -0.16785
| 27>    S       -8.88578        -3.08031        -2.57407
| 28>    C       -8.31682        -2.17639        -3.95565
| 29>    C       -7.88374        -0.92780        -3.66028
| 30>   Br       -8.35142        -2.97367        -5.65079
| 31>    C       -7.57140         1.68152         0.67162
| 32>    O       -6.95619         2.68292         0.38151
| 33>    C       -8.09166         1.25902         2.01077
| 34>    C       -8.12455         2.00439         3.15235
| 35>    C       -7.85841         3.39379         3.26525
| 36>    O       -7.72238         4.17188         2.16952
| 37>    C       -7.72876         4.21223         4.37879
| 38>    C       -7.71510         4.23447         5.85172
| 39>    O       -7.86077         3.35695         6.65642
| 40>    N       -7.47508         5.57405         6.15211
| 41>    C       -7.32198         6.41967         5.05460
| 42>    O       -7.10720         7.60078         5.11143
| 43>    C       -7.48767         5.52187         3.90496
| 44>    C       -7.48015         5.45296         2.51880
| 45>    C       -7.24761         6.38858         1.47579
| 46>    C       -7.14622         5.92298         0.20341
| 47>    C       -6.91859         6.64734        -0.97979
| 48>    S       -6.70577         8.36581        -1.14839
| 49>    C       -6.49639         8.28168        -2.88805
| 50>    C       -6.58683         6.94336        -3.28742
| 51>    C       -6.82188         6.05770        -2.23805
| 52>    O       -6.95115         4.71396        -2.43220
| 53>    C       -6.82158         4.20729        -3.67168
| 54>    O       -6.94048         3.02907        -3.85332
| 55>    C       -6.52680         5.16861        -4.83309
| 56>    O       -6.38268         4.77480        -5.95243
| 57>    O       -6.43540         6.49241        -4.56598
| 58>    C       -6.28272         9.47536        -3.58950
| 59>    C       -6.19547         9.71069        -4.94410
| 60>    C       -5.96979        10.99751        -5.50151
| 61>    C       -5.95194        11.02564        -6.86265
| 62>    C       -6.16754         9.76041        -7.45180
| 63>    S       -6.37927         8.53714        -6.22694
| 64>    C       -6.21970         9.43750        -8.79868
| 65>    C       -6.08392        10.30174        -9.90800
| 66>    C       -6.18995         9.66643       -11.10912
| 67>    C       -6.41560         8.27300       -11.00482
| 68>    S       -6.48022         7.79417        -9.32625
| 69>    C       -6.53857         7.38245       -12.05169
| 70>    C       -6.77837         6.02037       -11.88020
| 71>    C       -6.81578         5.04256       -12.84717
| 72>    C       -7.51215         3.76334       -12.55849
| 73>    O       -7.90686         3.37887       -11.48143
| 74>    C       -7.66955         3.10121       -13.87046
| 75>    C       -8.32562         1.94407       -14.17337
| 76>    C       -8.37590         1.51545       -15.51931
| 77>    C       -7.74713         2.30305       -16.52646
| 78>    C       -7.80860         1.87602       -17.86778
| 79>    C       -8.46120         0.72007       -18.19351
| 80>    C       -9.08089        -0.05898       -17.19646
| 81>    C       -9.03964         0.32900       -15.88642
| 82>    F       -9.71502        -1.18717       -17.54501
| 83>    F       -8.51825         0.31619       -19.46998
| 84>    C       -7.06759         3.49436       -16.17987
| 85>    C       -7.02327         3.88432       -14.86888
| 86>    C       -6.38038         5.02730       -14.21763
| 87>    C       -5.38687         5.79411       -14.78006
| 88>    C       -4.57337         6.69736       -14.06725
| 89>    N       -3.85114         7.41484       -13.53524
| 90>    C       -4.98540         5.69092       -16.12678
| 91>    N       -4.63331         5.66890       -17.21965
| 92>    H       -7.23685         1.37334        -2.13096
| 93>    H       -9.16794        -2.53961         0.34007
| 94>    H       -7.50286        -0.22712        -4.38103
| 95>    H       -8.39960         1.54035         4.09003
| 96>    H       -7.40998         5.90765         7.10358
| 97>    H       -7.13866         7.42956         1.73697
| 98>    H       -7.22769         4.85298         0.04751
| 99>    H       -6.19135        10.35107        -2.95894
|100>    H       -5.82713        11.85921        -4.87392
|101>    H       -5.79069        11.91257        -7.44794
|102>    H       -5.91479        11.35702        -9.79285
|103>    H       -6.10524        10.14944       -12.06601
|104>    H       -6.46619         7.79314       -13.04848
|105>    H       -7.04483         5.68232       -10.88257
|106>    H       -8.79998         1.36295       -13.39732
|107>    H       -7.33641         2.45874       -18.64327
|108>    H       -9.51871        -0.27838       -15.13455
|109>    H       -6.60637         4.07205       -16.96479
|110> *
|111>
|112>                          ****END OF INPUT****

CARTESIAN COORDINATES (ANGSTROEM)
---------------------------------
  C     -8.537210   -0.125770    1.887510
  C     -9.025480   -0.925570    2.886110
  C     -9.439370   -2.262490    2.694270
  N     -9.788650   -3.352670    2.610860
  C     -9.201330   -0.566390    4.240610
  N     -9.397400   -0.369950    5.354410
  C     -8.414710   -0.514080    0.487530
  C     -7.864370    0.568750   -0.241150
  C     -7.647380    0.529290   -1.598360
  C     -7.995930   -0.643740   -2.272650
  C     -8.535530   -1.729800   -1.539630
  C     -8.752110   -1.685920   -0.167850
  S     -8.885780   -3.080310   -2.574070
  C     -8.316820   -2.176390   -3.955650
  C     -7.883740   -0.927800   -3.660280
  Br    -8.351420   -2.973670   -5.650790
  C     -7.571400    1.681520    0.671620
  O     -6.956190    2.682920    0.381510
  C     -8.091660    1.259020    2.010770
  C     -8.124550    2.004390    3.152350
  C     -7.858410    3.393790    3.265250
  O     -7.722380    4.171880    2.169520
  C     -7.728760    4.212230    4.378790
  C     -7.715100    4.234470    5.851720
  O     -7.860770    3.356950    6.656420
  N     -7.475080    5.574050    6.152110
  C     -7.321980    6.419670    5.054600
  O     -7.107200    7.600780    5.111430
  C     -7.487670    5.521870    3.904960
  C     -7.480150    5.452960    2.518800
  C     -7.247610    6.388580    1.475790
  C     -7.146220    5.922980    0.203410
  C     -6.918590    6.647340   -0.979790
  S     -6.705770    8.365810   -1.148390
  C     -6.496390    8.281680   -2.888050
  C     -6.586830    6.943360   -3.287420
  C     -6.821880    6.057700   -2.238050
  O     -6.951150    4.713960   -2.432200
  C     -6.821580    4.207290   -3.671680
  O     -6.940480    3.029070   -3.853320
  C     -6.526800    5.168610   -4.833090
  O     -6.382680    4.774800   -5.952430
  O     -6.435400    6.492410   -4.565980
  C     -6.282720    9.475360   -3.589500
  C     -6.195470    9.710690   -4.944100
  C     -5.969790   10.997510   -5.501510
  C     -5.951940   11.025640   -6.862650
  C     -6.167540    9.760410   -7.451800
  S     -6.379270    8.537140   -6.226940
  C     -6.219700    9.437500   -8.798680
  C     -6.083920   10.301740   -9.908000
  C     -6.189950    9.666430  -11.109120
  C     -6.415600    8.273000  -11.004820
  S     -6.480220    7.794170   -9.326250
  C     -6.538570    7.382450  -12.051690
  C     -6.778370    6.020370  -11.880200
  C     -6.815780    5.042560  -12.847170
  C     -7.512150    3.763340  -12.558490
  O     -7.906860    3.378870  -11.481430
  C     -7.669550    3.101210  -13.870460
  C     -8.325620    1.944070  -14.173370
  C     -8.375900    1.515450  -15.519310
  C     -7.747130    2.303050  -16.526460
  C     -7.808600    1.876020  -17.867780
  C     -8.461200    0.720070  -18.193510
  C     -9.080890   -0.058980  -17.196460
  C     -9.039640    0.329000  -15.886420
  F     -9.715020   -1.187170  -17.545010
  F     -8.518250    0.316190  -19.469980
  C     -7.067590    3.494360  -16.179870
  C     -7.023270    3.884320  -14.868880
  C     -6.380380    5.027300  -14.217630
  C     -5.386870    5.794110  -14.780060
  C     -4.573370    6.697360  -14.067250
  N     -3.851140    7.414840  -13.535240
  C     -4.985400    5.690920  -16.126780
  N     -4.633310    5.668900  -17.219650
  H     -7.236850    1.373340   -2.130960
  H     -9.167940   -2.539610    0.340070
  H     -7.502860   -0.227120   -4.381030
  H     -8.399600    1.540350    4.090030
  H     -7.409980    5.907650    7.103580
  H     -7.138660    7.429560    1.736970
  H     -7.227690    4.852980    0.047510
  H     -6.191350   10.351070   -2.958940
  H     -5.827130   11.859210   -4.873920
  H     -5.790690   11.912570   -7.447940
  H     -5.914790   11.357020   -9.792850
  H     -6.105240   10.149440  -12.066010
  H     -6.466190    7.793140  -13.048480
  H     -7.044830    5.682320  -10.882570
  H     -8.799980    1.362950  -13.397320
  H     -7.336410    2.458740  -18.643270
  H     -9.518710   -0.278380  -15.134550
  H     -6.606370    4.072050  -16.964790

 Total Charge           Charge          ....    0
 Multiplicity           Mult            ....    1
 Number of Electrons    NEL             ....  578
 Basis Dimension        Dim             .... 1202

ORBITAL ENERGIES
----------------

  NO   OCC          E(Eh)            E(eV)
   0   2.0000    -482.883196    -13139.9198
   1   2.0000     -88.998252     -2421.7655
   2   2.0000     -88.974457     -2421.1181
   3   2.0000     -88.972526     -2421.0655
   4   2.0000     -88.969973     -2420.9960
   5   2.0000     -62.560950     -1702.3700
   6   2.0000     -56.394900     -1534.5832
   7   2.0000     -56.392181     -1534.5093
   8   2.0000     -56.392153     -1534.5085
   9   2.0000     -24.793634      -674.6691
  10   2.0000     -24.792862      -674.6481
  11   2.0000     -19.335638      -526.1495
  12   2.0000     -19.334511      -526.1188
  13   2.0000     -19.316754      -525.6356
  14   2.0000     -19.264621      -524.2170
  15   2.0000     -19.260167      -524.0958
  16   2.0000     -19.221608      -523.0465
  17   2.0000     -19.220664      -523.0209
  18   2.0000     -19.218949      -522.9742
  19   2.0000     -19.207211      -522.6548
  20   2.0000     -14.462336      -393.5402
  21   2.0000     -14.419621      -392.3778
  22   2.0000     -14.419003      -392.3610
  23   2.0000     -14.410254      -392.1230
  24   2.0000     -14.408707      -392.0809
  25   2.0000     -10.465995      -284.7942
  26   2.0000     -10.462813      -284.7076
  27   2.0000     -10.409732      -283.2632
  28   2.0000     -10.408876      -283.2399
  29   2.0000     -10.389290      -282.7070
  30   2.0000     -10.388874      -282.6956
  31   2.0000     -10.379537      -282.4416
  32   2.0000     -10.376093      -282.3479
  33   2.0000     -10.375493      -282.3315
  34   2.0000     -10.375009      -282.3183
  35   2.0000     -10.373915      -282.2886
  36   2.0000     -10.358187      -281.8606
  37   2.0000     -10.357272      -281.8357
  38   2.0000     -10.354712      -281.7660
  39   2.0000     -10.348805      -281.6053
  40   2.0000     -10.347217      -281.5621
  41   2.0000     -10.344016      -281.4750
  42   2.0000     -10.343768      -281.4682
  43   2.0000     -10.340045      -281.3669
  44   2.0000     -10.337648      -281.3017
  45   2.0000     -10.336444      -281.2689
  46   2.0000     -10.336440      -281.2688
  47   2.0000     -10.335340      -281.2389
  48   2.0000     -10.330530      -281.1080
  49   2.0000     -10.325927      -280.9828
  50   2.0000     -10.324362      -280.9402
  51   2.0000     -10.321427      -280.8603
  52   2.0000     -10.321018      -280.8492
  53   2.0000     -10.315645      -280.7030
  54   2.0000     -10.315396      -280.6962
  55   2.0000     -10.315030      -280.6862
  56   2.0000     -10.314967      -280.6845
  57   2.0000     -10.314876      -280.6820
  58   2.0000     -10.313487      -280.6443
  59   2.0000     -10.312301      -280.6120
  60   2.0000     -10.311865      -280.6001
  61   2.0000     -10.310906      -280.5740
  62   2.0000     -10.310694      -280.5682
  63   2.0000     -10.310255      -280.5563
  64   2.0000     -10.306528      -280.4549
  65   2.0000     -10.306221      -280.4465
  66   2.0000     -10.305404      -280.4243
  67   2.0000     -10.304666      -280.4042
  68   2.0000     -10.304361      -280.3959
  69   2.0000     -10.304016      -280.3865
  70   2.0000     -10.301522      -280.3187
  71   2.0000     -10.297311      -280.2041
  72   2.0000     -10.296150      -280.1725
  73   2.0000     -10.296059      -280.1700
  74   2.0000     -10.295650      -280.1589
  75   2.0000     -10.295210      -280.1469
  76   2.0000     -10.294996      -280.1411
  77   2.0000     -10.293430      -280.0985
  78   2.0000     -10.292583      -280.0754
  79   2.0000     -10.289237      -279.9844
  80   2.0000     -10.286834      -279.9190
  81   2.0000      -8.790408      -239.1992
  82   2.0000      -8.093325      -220.2306
  83   2.0000      -8.070474      -219.6088
  84   2.0000      -8.068474      -219.5543
  85   2.0000      -8.066395      -219.4978
  86   2.0000      -6.626739      -180.3227
  87   2.0000      -6.612149      -179.9257
  88   2.0000      -6.611908      -179.9192
  89   2.0000      -6.062688      -164.9741
  90   2.0000      -6.058957      -164.8726
  91   2.0000      -6.054859      -164.7611
  92   2.0000      -6.040182      -164.3617
  93   2.0000      -6.038191      -164.3075
  94   2.0000      -6.035991      -164.2477
  95   2.0000      -6.035879      -164.2446
  96   2.0000      -6.033934      -164.1917
  97   2.0000      -6.031961      -164.1380
  98   2.0000      -6.031673      -164.1302
  99   2.0000      -6.029419      -164.0688
 100   2.0000      -6.027465      -164.0156
 101   2.0000      -2.742553       -74.6287
 102   2.0000      -2.738552       -74.5198
 103   2.0000      -2.738359       -74.5145
 104   2.0000      -2.726760       -74.1989
 105   2.0000      -2.726735       -74.1982
 106   2.0000      -1.316010       -35.8104
 107   2.0000      -1.301192       -35.4072
 108   2.0000      -1.279810       -34.8254
 109   2.0000      -1.244656       -33.8688
 110   2.0000      -1.243771       -33.8447
 111   2.0000      -1.181346       -32.1460
 112   2.0000      -1.164901       -31.6986
 113   2.0000      -1.153961       -31.4009
 114   2.0000      -1.144642       -31.1473
 115   2.0000      -1.138484       -30.9797
 116   2.0000      -1.122641       -30.5486
 117   2.0000      -1.051868       -28.6228
 118   2.0000      -1.030816       -28.0499
 119   2.0000      -1.025046       -27.8929
 120   2.0000      -1.022709       -27.8293
 121   2.0000      -1.014890       -27.6166
 122   2.0000      -1.013431       -27.5769
 123   2.0000      -1.001024       -27.2392
 124   2.0000      -0.998143       -27.1608
 125   2.0000      -0.997532       -27.1442
 126   2.0000      -0.992789       -27.0152
 127   2.0000      -0.988274       -26.8923
 128   2.0000      -0.975099       -26.5338
 129   2.0000      -0.954459       -25.9721
 130   2.0000      -0.943140       -25.6641
 131   2.0000      -0.934873       -25.4392
 132   2.0000      -0.932619       -25.3778
 133   2.0000      -0.926954       -25.2237
 134   2.0000      -0.915272       -24.9058
 135   2.0000      -0.909917       -24.7601
 136   2.0000      -0.906111       -24.6565
 137   2.0000      -0.892406       -24.2836
 138   2.0000      -0.888045       -24.1649
 139   2.0000      -0.886613       -24.1260
 140   2.0000      -0.885508       -24.0959
 141   2.0000      -0.881258       -23.9803
 142   2.0000      -0.874410       -23.7939
 143   2.0000      -0.864227       -23.5168
 144   2.0000      -0.853607       -23.2278
 145   2.0000      -0.847164       -23.0525
 146   2.0000      -0.834680       -22.7128
 147   2.0000      -0.833386       -22.6776
 148   2.0000      -0.828460       -22.5435
 149   2.0000      -0.823119       -22.3982
 150   2.0000      -0.818270       -22.2663
 151   2.0000      -0.795790       -21.6546
 152   2.0000      -0.792537       -21.5660
 153   2.0000      -0.780340       -21.2341
 154   2.0000      -0.772011       -21.0075
 155   2.0000      -0.765002       -20.8168
 156   2.0000      -0.762520       -20.7492
 157   2.0000      -0.758623       -20.6432
 158   2.0000      -0.752184       -20.4680
 159   2.0000      -0.743439       -20.2300
 160   2.0000      -0.735001       -20.0004
 161   2.0000      -0.719931       -19.5903
 162   2.0000      -0.714535       -19.4435
 163   2.0000      -0.712355       -19.3842
 164   2.0000      -0.711149       -19.3514
 165   2.0000      -0.701190       -19.0803
 166   2.0000      -0.691208       -18.8087
 167   2.0000      -0.687494       -18.7077
 168   2.0000      -0.685994       -18.6669
 169   2.0000      -0.677438       -18.4340
 170   2.0000      -0.674039       -18.3415
 171   2.0000      -0.667553       -18.1650
 172   2.0000      -0.659494       -17.9458
 173   2.0000      -0.651808       -17.7366
 174   2.0000      -0.649111       -17.6632
 175   2.0000      -0.646383       -17.5890
 176   2.0000      -0.638553       -17.3759
 177   2.0000      -0.637573       -17.3492
 178   2.0000      -0.633980       -17.2515
 179   2.0000      -0.633847       -17.2479
 180   2.0000      -0.628197       -17.0941
 181   2.0000      -0.624210       -16.9856
 182   2.0000      -0.616666       -16.7803
 183   2.0000      -0.609793       -16.5933
 184   2.0000      -0.607673       -16.5356
 185   2.0000      -0.602188       -16.3864
 186   2.0000      -0.599888       -16.3238
 187   2.0000      -0.597264       -16.2524
 188   2.0000      -0.595101       -16.1935
 189   2.0000      -0.585814       -15.9408
 190   2.0000      -0.583512       -15.8782
 191   2.0000      -0.580630       -15.7998
 192   2.0000      -0.578185       -15.7332
 193   2.0000      -0.577697       -15.7199
 194   2.0000      -0.574051       -15.6207
 195   2.0000      -0.573099       -15.5948
 196   2.0000      -0.571137       -15.5414
 197   2.0000      -0.568853       -15.4793
 198   2.0000      -0.565637       -15.3918
 199   2.0000      -0.563402       -15.3309
 200   2.0000      -0.555418       -15.1137
 201   2.0000      -0.554862       -15.0986
 202   2.0000      -0.549327       -14.9479
 203   2.0000      -0.546944       -14.8831
 204   2.0000      -0.543855       -14.7990
 205   2.0000      -0.543289       -14.7837
 206   2.0000      -0.542602       -14.7650
 207   2.0000      -0.542445       -14.7607
 208   2.0000      -0.538311       -14.6482
 209   2.0000      -0.534917       -14.5558
 210   2.0000      -0.531710       -14.4686
 211   2.0000      -0.529819       -14.4171
 212   2.0000      -0.529238       -14.4013
 213   2.0000      -0.527733       -14.3603
 214   2.0000      -0.523945       -14.2573
 215   2.0000      -0.522953       -14.2303
 216   2.0000      -0.522665       -14.2224
 217   2.0000      -0.522023       -14.2050
 218   2.0000      -0.519899       -14.1472
 219   2.0000      -0.514929       -14.0119
 220   2.0000      -0.510786       -13.8992
 221   2.0000      -0.509066       -13.8524
 222   2.0000      -0.508253       -13.8303
 223   2.0000      -0.504676       -13.7329
 224   2.0000      -0.499767       -13.5993
 225   2.0000      -0.497741       -13.5442
 226   2.0000      -0.494511       -13.4563
 227   2.0000      -0.493720       -13.4348
 228   2.0000      -0.492797       -13.4097
 229   2.0000      -0.491833       -13.3835
 230   2.0000      -0.491381       -13.3712
 231   2.0000      -0.485345       -13.2069
 232   2.0000      -0.480679       -13.0799
 233   2.0000      -0.478999       -13.0342
 234   2.0000      -0.477685       -12.9985
 235   2.0000      -0.474009       -12.8984
 236   2.0000      -0.473251       -12.8778
 237   2.0000      -0.470398       -12.8002
 238   2.0000      -0.465465       -12.6660
 239   2.0000      -0.462313       -12.5802
 240   2.0000      -0.460578       -12.5330
 241   2.0000      -0.459200       -12.4955
 242   2.0000      -0.458324       -12.4716
 243   2.0000      -0.455409       -12.3923
 244   2.0000      -0.451234       -12.2787
 245   2.0000      -0.447815       -12.1857
 246   2.0000      -0.446539       -12.1509
 247   2.0000      -0.445957       -12.1351
 248   2.0000      -0.444548       -12.0968
 249   2.0000      -0.443059       -12.0563
 250   2.0000      -0.440764       -11.9938
 251   2.0000      -0.439225       -11.9519
 252   2.0000      -0.437441       -11.9034
 253   2.0000      -0.432789       -11.7768
 254   2.0000      -0.429348       -11.6832
 255   2.0000      -0.427774       -11.6403
 256   2.0000      -0.423322       -11.5192
 257   2.0000      -0.422660       -11.5012
 258   2.0000      -0.421995       -11.4831
 259   2.0000      -0.420681       -11.4473
 260   2.0000      -0.418065       -11.3761
 261   2.0000      -0.413518       -11.2524
 262   2.0000      -0.410858       -11.1800
 263   2.0000      -0.404538       -11.0080
 264   2.0000      -0.397720       -10.8225
 265   2.0000      -0.393239       -10.7006
 266   2.0000      -0.392342       -10.6762
 267   2.0000      -0.386943       -10.5292
 268   2.0000      -0.384224       -10.4553
 269   2.0000      -0.378849       -10.3090
 270   2.0000      -0.378406       -10.2970
 271   2.0000      -0.372462       -10.1352
 272   2.0000      -0.370188       -10.0733
 273   2.0000      -0.367009        -9.9868
 274   2.0000      -0.362177        -9.8553
 275   2.0000      -0.355340        -9.6693
 276   2.0000      -0.353934        -9.6310
 277   2.0000      -0.346736        -9.4352
 278   2.0000      -0.343723        -9.3532
 279   2.0000      -0.340844        -9.2748
 280   2.0000      -0.336427        -9.1546
 281   2.0000      -0.329345        -8.9619
 282   2.0000      -0.315199        -8.5770
 283   2.0000      -0.312526        -8.5043
 284   2.0000      -0.307827        -8.3764
 285   2.0000      -0.295353        -8.0370
 286   2.0000      -0.293235        -7.9793
 287   2.0000      -0.279162        -7.5964
 288   2.0000      -0.236483        -6.4350
 289   0.0000      -0.127681        -3.4744
 290   0.0000      -0.104462        -2.8426
 291   0.0000      -0.080767        -2.1978
 292   0.0000      -0.065657        -1.7866
 293   0.0000      -0.063661        -1.7323

MULLIKEN ATOMIC CHARGES
-----------------------
   0 C :    0.314833
   1 C :   -0.353649
   2 C :   -0.184288
   3 N :    0.156615
   4 C :   -0.189192
   5 N :    0.168083
   6 C :    0.022993
   7 C :   -0.003319
   8 C :   -0.063774
   9 C :    0.109275
  10 C :   -0.090125
  11 C :   -0.024138
  12 S :    0.185645
  13 C :   -0.123279
  14 C :    0.044049
  15 Br:    0.027183
  16 C :    0.146137
  17 O :   -0.140539
  18 C :   -0.062425
  19 C :   -0.036609
  20 C :    0.070733
  21 O :   -0.178032
  22 C :   -0.019644
  23 C :    0.168713
  24 O :   -0.117812
  25 N :   -0.168211
  26 C :    0.166708
  27 O :   -0.136746
  28 C :   -0.040604
  29 C :    0.094025
  30 C :   -0.036395
  31 C :    0.018136
  32 C :   -0.123733
  33 S :    0.178813
  34 C :   -0.187097
  35 C :    0.208075
  36 C :    0.166800
  37 O :   -0.182211
  38 C :    0.167784
  39 O :   -0.112356
  40 C :    0.173892
  41 O :   -0.087936
  42 O :   -0.219865
  43 C :    0.025263
  44 C :   -0.023697
  45 C :    0.034410
  46 C :    0.042151
  47 C :   -0.032163
  48 S :    0.127887
  49 C :   -0.057210
  50 C :    0.037772
  51 C :    0.045162
  52 C :   -0.017296
  53 S :    0.125570
  54 C :    0.000649
  55 C :    0.019547
  56 C :   -0.128825
  57 C :    0.141200
  58 O :   -0.143267
  59 C :    0.005277
  60 C :   -0.084861
  61 C :    0.113877
  62 C :    0.112798
  63 C :   -0.110426
  64 C :    0.242443
  65 C :    0.237722
  66 C :   -0.106093
  67 F :   -0.174070
  68 F :   -0.173795
  69 C :   -0.084628
  70 C :    0.038171
  71 C :    0.292123
  72 C :   -0.342391
  73 C :   -0.217783
  74 N :    0.159814
  75 C :   -0.178416
  76 N :    0.141753
  77 H :   -0.025026
  78 H :   -0.006370
  79 H :    0.009703
  80 H :    0.029817
  81 H :    0.142651
  82 H :    0.013118
  83 H :    0.045451
  84 H :   -0.006384
  85 H :   -0.000350
  86 H :   -0.002862
  87 H :   -0.000728
  88 H :    0.005566
  89 H :    0.013323
  90 H :    0.023745
  91 H :   -0.012095
  92 H :    0.004719
  93 H :   -0.002240
  94 H :   -0.007222
Sum of atomic charges:   -0.0000000

LOEWDIN ATOMIC CHARGES
----------------------
   0 C :    0.071379
   1 C :   -0.130850
   2 C :   -0.016737
   3 N :   -0.047330
   4 C :   -0.027069
   5 N :   -0.034270
   6 C :   -0.022741
   7 C :   -0.055389
   8 C :    0.028312
   9 C :   -0.029663
  10 C :   -0.142507
  11 C :   -0.011365
  12 S :    0.430988
  13 C :   -0.270329
  14 C :   -0.064670
  15 Br:    0.139690
  16 C :    0.083494
  17 O :   -0.136219
  18 C :   -0.069466
  19 C :    0.042002
  20 C :    0.045336
  21 O :    0.047996
  22 C :   -0.061691
  23 C :    0.083376
  24 O :   -0.136450
  25 N :   -0.006096
  26 C :    0.084061
  27 O :   -0.155323
  28 C :   -0.103525
  29 C :    0.087940
  30 C :   -0.046560
  31 C :    0.001827
  32 C :   -0.191122
  33 S :    0.467548
  34 C :   -0.171914
  35 C :   -0.019049
  36 C :    0.002327
  37 O :   -0.005535
  38 C :    0.066437
  39 O :   -0.086420
  40 C :    0.060443
  41 O :   -0.072028
  42 O :   -0.028903
  43 C :   -0.075986
  44 C :   -0.138324
  45 C :   -0.020456
  46 C :   -0.024998
  47 C :   -0.163933
  48 S :    0.422994
  49 C :   -0.177936
  50 C :   -0.010208
  51 C :   -0.024584
  52 C :   -0.103891
  53 S :    0.415120
  54 C :   -0.057653
  55 C :    0.051815
  56 C :   -0.097727
  57 C :    0.077869
  58 O :   -0.147206
  59 C :   -0.052066
  60 C :    0.026852
  61 C :   -0.010397
  62 C :   -0.006908
  63 C :   -0.030806
  64 C :    0.065148
  65 C :    0.065119
  66 C :   -0.034045
  67 F :   -0.051472
  68 F :   -0.051060
  69 C :    0.010993
  70 C :   -0.018821
  71 C :    0.067353
  72 C :   -0.147446
  73 C :   -0.023975
  74 N :   -0.058782
  75 C :   -0.019413
  76 N :   -0.059503
  77 H :    0.036307
  78 H :    0.040729
  79 H :    0.044735
  80 H :    0.058236
  81 H :    0.097106
  82 H :    0.040922
  83 H :    0.047346
  84 H :    0.040014
  85 H :    0.037701
  86 H :    0.036171
  87 H :    0.036987
  88 H :    0.041858
  89 H :    0.039491
  90 H :    0.037850
  91 H :    0.039476
  92 H :    0.046677
  93 H :    0.044005
  94 H :    0.038791

  Mayer bond orders larger than 0.100000
B(  0-C ,  1-C ) :   1.6417 B(  0-C ,  6-C ) :   1.0123 B(  0-C , 18-C ) :   1.0505
B(  1-C ,  2-C ) :   1.1449 B(  1-C ,  4-C ) :   1.1380 B(  2-C ,  3-N ) :   2.9688
B(  4-C ,  5-N ) :   2.9659 B(  6-C ,  7-C ) :   1.2664 B(  6-C , 11-C ) :   1.4007
B(  7-C ,  8-C ) :   1.3980 B(  7-C , 16-C ) :   0.9524 B(  8-C ,  9-C ) :   1.2576
B(  8-C , 77-H ) :   1.0107 B(  9-C , 10-C ) :   1.2921 B(  9-C , 14-C ) :   1.1698
B( 10-C , 11-C ) :   1.3385 B( 10-C , 12-S ) :   1.0885 B( 11-C , 78-H ) :   0.9791
B( 12-S , 13-C ) :   1.0822 B( 13-C , 14-C ) :   1.6114 B( 13-C , 15-Br) :   1.0211
B( 14-C , 79-H ) :   1.0011 B( 16-C , 17-O ) :   2.1717 B( 16-C , 18-C ) :   0.9185
B( 18-C , 19-C ) :   1.5891 B( 19-C , 20-C ) :   1.1961 B( 19-C , 80-H ) :   0.9304
B( 20-C , 21-O ) :   1.1524 B( 20-C , 22-C ) :   1.3760 B( 21-O , 29-C ) :   1.1902
B( 22-C , 23-C ) :   0.8633 B( 22-C , 28-C ) :   1.3158 B( 23-C , 24-O ) :   2.2820
B( 23-C , 25-N ) :   1.0799 B( 25-N , 26-C ) :   1.0737 B( 25-N , 81-H ) :   0.9131
B( 26-C , 27-O ) :   2.2821 B( 26-C , 28-C ) :   0.8765 B( 28-C , 29-C ) :   1.3353
B( 29-C , 30-C ) :   1.1962 B( 30-C , 31-C ) :   1.5814 B( 30-C , 82-H ) :   0.9698
B( 31-C , 32-C ) :   1.1784 B( 31-C , 83-H ) :   0.9553 B( 32-C , 33-S ) :   1.0799
B( 32-C , 34-C ) :   0.1108 B( 32-C , 36-C ) :   1.4525 B( 33-S , 34-C ) :   1.1268
B( 34-C , 35-C ) :   1.3927 B( 34-C , 43-C ) :   1.1929 B( 35-C , 36-C ) :   1.2735
B( 35-C , 42-O ) :   1.0560 B( 36-C , 37-O ) :   1.0737 B( 37-O , 38-C ) :   1.0891
B( 38-C , 39-O ) :   2.1765 B( 38-C , 40-C ) :   0.8472 B( 40-C , 41-O ) :   2.2563
B( 40-C , 42-O ) :   1.0525 B( 43-C , 44-C ) :   1.5728 B( 43-C , 84-H ) :   0.9398
B( 44-C , 45-C ) :   1.1468 B( 44-C , 48-S ) :   1.0568 B( 45-C , 46-C ) :   1.5837
B( 45-C , 85-H ) :   1.0014 B( 46-C , 47-C ) :   1.1890 B( 46-C , 86-H ) :   0.9939
B( 47-C , 48-S ) :   1.0540 B( 47-C , 49-C ) :   1.4782 B( 49-C , 50-C ) :   1.2025
B( 49-C , 53-S ) :   1.0550 B( 50-C , 51-C ) :   1.5618 B( 50-C , 87-H ) :   0.9948
B( 51-C , 52-C ) :   1.1658 B( 51-C , 88-H ) :   1.0013 B( 52-C , 53-S ) :   1.0787
B( 52-C , 54-C ) :   1.5199 B( 54-C , 55-C ) :   1.2015 B( 54-C , 89-H ) :   0.9623
B( 55-C , 56-C ) :   1.5489 B( 55-C , 90-H ) :   0.9394 B( 56-C , 57-C ) :   0.9547
B( 56-C , 71-C ) :   1.0810 B( 57-C , 58-O ) :   2.2626 B( 57-C , 59-C ) :   0.9173
B( 59-C , 60-C ) :   1.4793 B( 59-C , 70-C ) :   1.2200 B( 60-C , 61-C ) :   1.1876
B( 60-C , 91-H ) :   1.0166 B( 61-C , 62-C ) :   1.2605 B( 61-C , 66-C ) :   1.1927
B( 62-C , 63-C ) :   1.1925 B( 62-C , 69-C ) :   1.2075 B( 63-C , 64-C ) :   1.4378
B( 63-C , 66-C ) :   0.1093 B( 63-C , 92-H ) :   1.0075 B( 64-C , 65-C ) :   1.1938
B( 64-C , 68-F ) :   1.1312 B( 65-C , 66-C ) :   1.4411 B( 65-C , 67-F ) :   1.1308
B( 66-C , 93-H ) :   1.0074 B( 69-C , 70-C ) :   1.4619 B( 69-C , 94-H ) :   0.9924
B( 70-C , 71-C ) :   0.9899 B( 71-C , 72-C ) :   1.6078 B( 72-C , 73-C ) :   1.1650
B( 72-C , 75-C ) :   1.1360 B( 73-C , 74-N ) :   3.0110 B( 75-C , 76-N ) :   2.9730

-----------------------------------------------------------------------------
         ABSORPTION SPECTRUM VIA TRANSITION ELECTRIC DIPOLE MOMENTS
-----------------------------------------------------------------------------
State   Energy  Wavelength   fosc         T2         TX        TY        TZ
        (cm-1)    (nm)                  (au**2)     (au)      (au)      (au)
-----------------------------------------------------------------------------
   0   10566.9    946.4   1.445713919  45.04143  -0.33448   0.15615   6.70113
   1   17273.4    578.9   0.517181391   9.85688  -0.46524  -3.04088  -0.62729
   2   19591.8    510.4   0.229925517   3.86357   0.38855   1.91559   0.20766
   3   20782.3    481.2   0.240015063   3.80207   0.16033   1.93261  -0.20338
   4   21820.9    458.3   0.165470724   2.49646   0.06737   1.13027  -1.10200
   5   23568.8    424.3   0.044744900   0.62500  -0.37032  -0.13289  -0.68571
   6   23873.2    418.9   0.062963766   0.86827  -0.22223   0.07177   0.90207
   7   24428.6    409.4   0.109599492   1.47702  -0.39198  -0.85148  -0.77353
   8   25347.4    394.5   0.114994988   1.49355  -0.60823  -0.91354   0.53764
   9   25668.5    389.6   0.003223141   0.04134  -0.15339  -0.02911   0.13024
  10   25808.8    387.5   0.047784842   0.60954  -0.12442   0.38328   0.66869
  11   25953.5    385.3   0.014922642   0.18929   0.08271  -0.01046  -0.42701
  12   26613.5    375.7   0.072468230   0.89644   0.22804   0.83874  -0.37544
  13   27283.9    366.5   0.006433528   0.07763  -0.04284  -0.08339   0.26237
  14   27462.9    364.1   0.094757351   1.13590  -0.50961  -0.93045  -0.10230
  15   27950.6    357.8   0.029733447   0.35021   0.07795   0.44258  -0.38504
  16   28213.5    354.4   0.117445838   1.37043   0.10059  -0.42745  -1.08517
  17   29677.8    337.0   0.064743059   0.71819   0.17885   0.81968  -0.11967
  18   30093.0    332.3   0.028221523   0.30874   0.06903  -0.33709  -0.43628
  19   31161.3    320.9   0.291692799   3.08167  -0.22973   0.32735   1.70931
  20   31355.8    318.9   0.133934363   1.40621   0.10336   0.67324   0.97071
  21   31465.2    317.8   0.149020947   1.55916  -0.18461   0.08436   1.23206
  22   31723.7    315.2   0.059308088   0.61547   0.05250  -0.46302  -0.63113
  23   32057.9    311.9   0.110651954   1.13632  -0.68096  -0.79565   0.19890
  24   32106.6    311.5   0.306298359   3.14070  -0.05738  -0.91827  -1.51466
  25   32550.3    307.2   0.009008057   0.09111   0.00491  -0.16579  -0.25218
  26   32700.1    305.8   0.563716937   5.67528   0.08136  -0.59554  -2.30521
  27   32835.7    304.5   0.005896554   0.05912  -0.17844  -0.11859   0.11495
  28   32945.8    303.5   0.265958372   2.65759  -0.77761  -1.39306  -0.33513
  29   33324.4    300.1   0.138772749   1.37094  -0.22839  -1.12215  -0.24405
  30   33658.6    297.1   0.070856153   0.69304   0.39062   0.40547   0.61323
  31   33756.5    296.2   0.012258185   0.11955  -0.13356  -0.13578   0.28857
  32   34342.8    291.2   0.036414587   0.34907  -0.15523  -0.46117  -0.33510
  33   34619.2    288.9   0.001093550   0.01040  -0.04700  -0.08058   0.04118
  34   34842.8    287.0   0.017444304   0.16482   0.17491   0.36183  -0.05752
  35   35118.8    284.7   0.122246777   1.14597  -0.56916  -0.81114  -0.40508
  36   35839.2    279.0   0.029630979   0.27218   0.29136   0.34073  -0.26683
  37   36011.9    277.7   0.033634426   0.30748  -0.20403  -0.25076  -0.45052
  38   36400.9    274.7   0.006223348   0.05628  -0.21938   0.08297   0.03571
  39   36517.6    273.8   0.052103316   0.46972   0.44508   0.38982  -0.34593
  40   36703.3    272.5   0.059391684   0.53272  -0.34845  -0.61871   0.16883
  41   36709.1    272.4   0.006087554   0.05459  -0.14036  -0.18252   0.03975
  42   36956.7    270.6   0.240579352   2.14309  -0.28906  -1.34684  -0.49553
  43   37237.6    268.5   0.335462990   2.96577   0.81966   1.48329   0.30625
  44   37713.1    265.2   0.007971197   0.06958   0.15150  -0.03922  -0.21235
  45   37927.7    263.7   0.055071544   0.47802   0.43883   0.46665  -0.26016
  46   37957.7    263.5   0.052349792   0.45404   0.32164   0.58665  -0.08015
  47   38101.6    262.5   0.051127353   0.44176   0.22053   0.40692   0.47701
  48   38599.5    259.1   0.023291409   0.19865  -0.04916  -0.28294  -0.34085
  49   38717.3    258.3   0.016673619   0.14178  -0.25679  -0.06984   0.26638
  50   38942.3    256.8   0.004703936   0.03977   0.13916   0.09719   0.10467
  51   39022.8    256.3   0.113211922   0.95510  -0.56266  -0.56844   0.56160
  52   39130.8    255.6   0.078290135   0.65866  -0.47473  -0.60334   0.26321
  53   39283.6    254.6   0.010404512   0.08719  -0.12439  -0.21261  -0.16285
  54   39711.8    251.8   0.040389049   0.33483   0.03151   0.35851   0.45310
  55   39997.3    250.0   0.000845166   0.00696  -0.03474  -0.03190   0.06879
  56   40075.7    249.5   0.048701189   0.40007  -0.09822   0.22378   0.58339
  57   40212.3    248.7   0.067682613   0.55411  -0.15316  -0.03083   0.72780

FINAL SINGLE POINT ENERGY     -7457.369300801953

DIPOLE MOMENT
-------------
                                X             Y             Z
Electronic contribution:    -15.68974     -92.58104      -7.39338
Nuclear contribution   :     15.28334      96.96996       7.39072
                        -----------------------------------------
Total Dipole Moment    :     -0.40640       4.38892      -0.00266
                        -----------------------------------------
Magnitude (a.u.)       :      4.40769
Magnitude (Debye)      :     11.20347

Rotational constants in cm-1:     0.000824     0.000281     0.000212
Rotational constants in MHz :    24.698564     8.417695     6.350084

                             ****ORCA TERMINATED NORMALLY****
TOTAL RUN TIME: 0 days 0 hours 24 minutes 39 seconds 450 msec
