                         Program Version 4.2.0 -  RELEASE  -
|  1> # ORCA input file
|  2> # SCF done       -174.993078283978          0.000906551501
|  3> ! CAM-B3LYP def2-SVP def2/J RIJCOSX Grid4 TightSCF
|  4> %maxcore 5000
|  5> %tddft
|  6>     Mode sTDDFT
|  7>     Ethresh 5.0
|  8>     maxcore 5000
|  9> end
| 10>
| 11> %pal
| 12>   nprocs 6
| 13>   end
| 14> * xyz 0 1
| 15>    C       -4.45884         9.45916         4.53527
| 16>    C       -3.63858         9.31805         5.61831
| 17>    C       -3.65820        10.17551         6.73898
| 18>    N       -3.65419        10.83176         7.67970
| 19>    C       -2.60581         8.35802         5.68975
| 20>    N       -1.70938         7.64474         5.75905
| 21>    C       -5.36098        10.56419         4.27175
| 22>    C       -5.72605        10.52901         2.90338
| 23>    C       -6.53737        11.48133         2.33527
| 24>    C       -7.02198        12.50230         3.15880
| 25>    C       -6.66143        12.51881         4.52903
| 26>    C       -5.83157        11.56533         5.10188
| 27>    S       -7.37665        13.86421         5.36228
| 28>    C       -8.13619        14.38281         3.88114
| 29>    C       -7.87041        13.58980         2.81573
| 30>   Br       -9.21060        15.91840         3.88189
| 31>    C       -5.08555         9.37242         2.23678
| 32>    O       -5.07798         9.14776         1.05404
| 33>    C       -4.45624         8.59469         3.35447
| 34>    C       -4.11346         7.29099         3.39059
| 35>    C       -4.08636         6.31538         2.31684
| 36>    N       -3.95618         5.04939         2.73010
| 37>    C       -3.89344         4.12137         1.79100
| 38>    C       -3.95934         4.42042         0.44233
| 39>    C       -4.08875         5.77770         0.09654
| 40>    N       -4.14122         6.70510         1.05781
| 41>    C       -4.14125         6.28669        -1.24505
| 42>    C       -3.85337         5.56845        -2.35785
| 43>    C       -3.83461         6.09409        -3.66435
| 44>    C       -3.41688         5.37306        -4.74989
| 45>    C       -3.33794         5.80221        -6.10102
| 46>    C       -2.86159         4.86345        -6.95949
| 47>    C       -2.52067         3.63537        -6.34233
| 48>    S       -2.85393         3.71255        -4.62454
| 49>    C       -2.00128         2.49273        -6.90121
| 50>    C       -1.77821         2.21984        -8.27589
| 51>    C       -1.29709         0.97317        -8.50340
| 52>    C       -1.08576         0.20706        -7.31970
| 53>    S       -1.51812         1.12734        -5.90369
| 54>    C       -0.63229        -1.07102        -7.22042
| 55>    C       -0.41747        -1.67621        -5.94383
| 56>    N       -0.04183        -2.96268        -5.91297
| 57>    C        0.16744        -3.49389        -4.72793
| 58>    C        0.05303        -2.76441        -3.55195
| 59>    C       -0.31999        -1.41727        -3.67114
| 60>    N       -0.58451        -0.90215        -4.86844
| 61>    C       -0.34951        -0.57807        -2.49237
| 62>    C       -0.53980         0.75840        -2.47719
| 63>    C       -0.40764         1.47633        -1.25586
| 64>    C       -0.38135         2.80759        -0.98989
| 65>    C       -0.43289         4.01258        -1.79798
| 66>    C       -0.06234         4.15577        -3.10863
| 67>    C       -0.18185         5.36106        -3.83323
| 68>    N       -0.29295         6.29372        -4.49393
| 69>    C        0.59969         3.18176        -3.88623
| 70>    N        1.21821         2.49000        -4.56138
| 71>    C       -0.75881         5.11962        -0.90272
| 72>    C       -0.67271         4.66838         0.44010
| 73>    C       -0.42072         3.22055         0.44685
| 74>    O       -0.31007         2.48584         1.40120
| 75>    C       -0.81496         5.50941         1.51803
| 76>    C       -1.09705         6.85357         1.26035
| 77>    C       -1.24686         7.28411        -0.08052
| 78>    C       -1.06302         6.44165        -1.17025
| 79>    S       -1.68326         8.95880        -0.16478
| 80>    C       -1.62026         9.06588         1.56905
| 81>    C       -1.29962         7.90763         2.19176
| 82>   Br       -1.98616        10.70203         2.40151
| 83>    H       -6.78914        11.44193         1.28720
| 84>    H       -5.58100        11.61400         6.14860
| 85>    H       -8.25655        13.76369         1.82807
| 86>    H       -3.85142         6.84543         4.34289
| 87>    H       -3.78242         3.10355         2.14240
| 88>    H       -3.91774         3.64339        -0.30266
| 89>    H       -4.38242         7.33793        -1.31498
| 90>    H       -3.57851         4.52401        -2.26663
| 91>    H       -4.14024         7.11946        -3.81686
| 92>    H       -3.63252         6.79680        -6.38432
| 93>    H       -2.72767         5.01785        -8.01504
| 94>    H       -1.99561         2.93840        -9.04639
| 95>    H       -1.07494         0.56587        -9.47394
| 96>    H       -0.40766        -1.65772        -8.09598
| 97>    H        0.45022        -4.53916        -4.72038
| 98>    H        0.25846        -3.20612        -2.59077
| 99>    H       -0.11625        -1.08885        -1.56552
|100>    H       -0.77541         1.27171        -3.39470
|101>    H       -0.32684         0.86240        -0.36092
|102>    H       -0.72239         5.14216         2.52815
|103>    H       -1.16675         6.82192        -2.17258
|104>    H       -1.20778         7.79150         3.25706
|105> *
|106>
|107>                          ****END OF INPUT****

CARTESIAN COORDINATES (ANGSTROEM)
---------------------------------
  C     -4.458840    9.459160    4.535270
  C     -3.638580    9.318050    5.618310
  C     -3.658200   10.175510    6.738980
  N     -3.654190   10.831760    7.679700
  C     -2.605810    8.358020    5.689750
  N     -1.709380    7.644740    5.759050
  C     -5.360980   10.564190    4.271750
  C     -5.726050   10.529010    2.903380
  C     -6.537370   11.481330    2.335270
  C     -7.021980   12.502300    3.158800
  C     -6.661430   12.518810    4.529030
  C     -5.831570   11.565330    5.101880
  S     -7.376650   13.864210    5.362280
  C     -8.136190   14.382810    3.881140
  C     -7.870410   13.589800    2.815730
  Br    -9.210600   15.918400    3.881890
  C     -5.085550    9.372420    2.236780
  O     -5.077980    9.147760    1.054040
  C     -4.456240    8.594690    3.354470
  C     -4.113460    7.290990    3.390590
  C     -4.086360    6.315380    2.316840
  N     -3.956180    5.049390    2.730100
  C     -3.893440    4.121370    1.791000
  C     -3.959340    4.420420    0.442330
  C     -4.088750    5.777700    0.096540
  N     -4.141220    6.705100    1.057810
  C     -4.141250    6.286690   -1.245050
  C     -3.853370    5.568450   -2.357850
  C     -3.834610    6.094090   -3.664350
  C     -3.416880    5.373060   -4.749890
  C     -3.337940    5.802210   -6.101020
  C     -2.861590    4.863450   -6.959490
  C     -2.520670    3.635370   -6.342330
  S     -2.853930    3.712550   -4.624540
  C     -2.001280    2.492730   -6.901210
  C     -1.778210    2.219840   -8.275890
  C     -1.297090    0.973170   -8.503400
  C     -1.085760    0.207060   -7.319700
  S     -1.518120    1.127340   -5.903690
  C     -0.632290   -1.071020   -7.220420
  C     -0.417470   -1.676210   -5.943830
  N     -0.041830   -2.962680   -5.912970
  C      0.167440   -3.493890   -4.727930
  C      0.053030   -2.764410   -3.551950
  C     -0.319990   -1.417270   -3.671140
  N     -0.584510   -0.902150   -4.868440
  C     -0.349510   -0.578070   -2.492370
  C     -0.539800    0.758400   -2.477190
  C     -0.407640    1.476330   -1.255860
  C     -0.381350    2.807590   -0.989890
  C     -0.432890    4.012580   -1.797980
  C     -0.062340    4.155770   -3.108630
  C     -0.181850    5.361060   -3.833230
  N     -0.292950    6.293720   -4.493930
  C      0.599690    3.181760   -3.886230
  N      1.218210    2.490000   -4.561380
  C     -0.758810    5.119620   -0.902720
  C     -0.672710    4.668380    0.440100
  C     -0.420720    3.220550    0.446850
  O     -0.310070    2.485840    1.401200
  C     -0.814960    5.509410    1.518030
  C     -1.097050    6.853570    1.260350
  C     -1.246860    7.284110   -0.080520
  C     -1.063020    6.441650   -1.170250
  S     -1.683260    8.958800   -0.164780
  C     -1.620260    9.065880    1.569050
  C     -1.299620    7.907630    2.191760
  Br    -1.986160   10.702030    2.401510
  H     -6.789140   11.441930    1.287200
  H     -5.581000   11.614000    6.148600
  H     -8.256550   13.763690    1.828070
  H     -3.851420    6.845430    4.342890
  H     -3.782420    3.103550    2.142400
  H     -3.917740    3.643390   -0.302660
  H     -4.382420    7.337930   -1.314980
  H     -3.578510    4.524010   -2.266630
  H     -4.140240    7.119460   -3.816860
  H     -3.632520    6.796800   -6.384320
  H     -2.727670    5.017850   -8.015040
  H     -1.995610    2.938400   -9.046390
  H     -1.074940    0.565870   -9.473940
  H     -0.407660   -1.657720   -8.095980
  H      0.450220   -4.539160   -4.720380
  H      0.258460   -3.206120   -2.590770
  H     -0.116250   -1.088850   -1.565520
  H     -0.775410    1.271710   -3.394700
  H     -0.326840    0.862400   -0.360920
  H     -0.722390    5.142160    2.528150
  H     -1.166750    6.821920   -2.172580
  H     -1.207780    7.791500    3.257060

 Total Charge           Charge          ....    0
 Multiplicity           Mult            ....    1
 Number of Electrons    NEL             ....  540
 Basis Dimension        Dim             .... 1114

ORBITAL ENERGIES
----------------

  NO   OCC          E(Eh)            E(eV)
   0   2.0000    -482.888415    -13140.0618
   1   2.0000    -482.886547    -13140.0110
   2   2.0000     -88.978487     -2421.2277
   3   2.0000     -88.968983     -2420.9691
   4   2.0000     -88.952377     -2420.5172
   5   2.0000     -88.942535     -2420.2494
   6   2.0000     -62.566136     -1702.5111
   7   2.0000     -62.563706     -1702.4450
   8   2.0000     -56.400087     -1534.7244
   9   2.0000     -56.397631     -1534.6576
  10   2.0000     -56.397368     -1534.6504
  11   2.0000     -56.397338     -1534.6496
  12   2.0000     -56.395060     -1534.5876
  13   2.0000     -56.394913     -1534.5836
  14   2.0000     -19.214431      -522.8512
  15   2.0000     -19.214332      -522.8486
  16   2.0000     -14.420539      -392.4028
  17   2.0000     -14.420218      -392.3941
  18   2.0000     -14.416297      -392.2874
  19   2.0000     -14.414664      -392.2430
  20   2.0000     -14.412561      -392.1857
  21   2.0000     -14.411153      -392.1474
  22   2.0000     -14.408610      -392.0782
  23   2.0000     -14.406583      -392.0230
  24   2.0000     -10.369441      -282.1668
  25   2.0000     -10.363299      -281.9997
  26   2.0000     -10.362244      -281.9710
  27   2.0000     -10.352056      -281.6938
  28   2.0000     -10.348006      -281.5836
  29   2.0000     -10.346739      -281.5491
  30   2.0000     -10.345427      -281.5134
  31   2.0000     -10.344291      -281.4825
  32   2.0000     -10.343170      -281.4520
  33   2.0000     -10.339307      -281.3468
  34   2.0000     -10.335972      -281.2561
  35   2.0000     -10.329734      -281.0864
  36   2.0000     -10.328982      -281.0659
  37   2.0000     -10.324015      -280.9307
  38   2.0000     -10.322478      -280.8889
  39   2.0000     -10.322350      -280.8854
  40   2.0000     -10.321175      -280.8535
  41   2.0000     -10.319197      -280.7996
  42   2.0000     -10.318590      -280.7831
  43   2.0000     -10.317069      -280.7417
  44   2.0000     -10.315406      -280.6965
  45   2.0000     -10.312808      -280.6258
  46   2.0000     -10.312425      -280.6153
  47   2.0000     -10.311396      -280.5874
  48   2.0000     -10.311317      -280.5852
  49   2.0000     -10.310141      -280.5532
  50   2.0000     -10.310130      -280.5529
  51   2.0000     -10.309808      -280.5441
  52   2.0000     -10.306851      -280.4637
  53   2.0000     -10.304488      -280.3994
  54   2.0000     -10.303255      -280.3658
  55   2.0000     -10.303025      -280.3596
  56   2.0000     -10.301689      -280.3232
  57   2.0000     -10.300416      -280.2886
  58   2.0000     -10.300323      -280.2860
  59   2.0000     -10.299565      -280.2654
  60   2.0000     -10.299347      -280.2595
  61   2.0000     -10.295620      -280.1581
  62   2.0000     -10.295109      -280.1442
  63   2.0000     -10.294598      -280.1302
  64   2.0000     -10.294010      -280.1142
  65   2.0000     -10.291386      -280.0429
  66   2.0000     -10.290993      -280.0321
  67   2.0000     -10.290508      -280.0190
  68   2.0000     -10.289703      -279.9971
  69   2.0000     -10.288203      -279.9562
  70   2.0000     -10.288187      -279.9558
  71   2.0000     -10.287059      -279.9251
  72   2.0000     -10.286720      -279.9159
  73   2.0000     -10.282926      -279.8126
  74   2.0000     -10.275299      -279.6051
  75   2.0000     -10.269386      -279.4442
  76   2.0000      -8.795574      -239.3397
  77   2.0000      -8.792931      -239.2678
  78   2.0000      -8.074519      -219.7188
  79   2.0000      -8.064694      -219.4515
  80   2.0000      -8.047647      -218.9876
  81   2.0000      -8.035857      -218.6668
  82   2.0000      -6.631883      -180.4627
  83   2.0000      -6.628905      -180.3817
  84   2.0000      -6.617307      -180.0661
  85   2.0000      -6.617099      -180.0604
  86   2.0000      -6.615030      -180.0041
  87   2.0000      -6.614454      -179.9884
  88   2.0000      -6.044206      -164.4712
  89   2.0000      -6.039946      -164.3553
  90   2.0000      -6.035716      -164.2402
  91   2.0000      -6.034374      -164.2037
  92   2.0000      -6.030132      -164.0882
  93   2.0000      -6.025955      -163.9746
  94   2.0000      -6.017354      -163.7405
  95   2.0000      -6.013448      -163.6342
  96   2.0000      -6.008676      -163.5044
  97   2.0000      -6.005984      -163.4311
  98   2.0000      -6.001291      -163.3034
  99   2.0000      -5.996894      -163.1838
 100   2.0000      -2.747781       -74.7709
 101   2.0000      -2.744871       -74.6917
 102   2.0000      -2.743661       -74.6588
 103   2.0000      -2.743492       -74.6542
 104   2.0000      -2.741028       -74.5872
 105   2.0000      -2.740627       -74.5762
 106   2.0000      -2.731936       -74.3397
 107   2.0000      -2.731903       -74.3389
 108   2.0000      -2.729576       -74.2755
 109   2.0000      -2.729555       -74.2750
 110   2.0000      -1.132189       -30.8084
 111   2.0000      -1.129734       -30.7416
 112   2.0000      -1.086122       -29.5549
 113   2.0000      -1.085557       -29.5395
 114   2.0000      -1.027014       -27.9465
 115   2.0000      -1.019429       -27.7401
 116   2.0000      -1.017593       -27.6901
 117   2.0000      -1.010103       -27.4863
 118   2.0000      -0.999431       -27.1959
 119   2.0000      -0.998091       -27.1594
 120   2.0000      -0.993467       -27.0336
 121   2.0000      -0.992043       -26.9949
 122   2.0000      -0.986863       -26.8539
 123   2.0000      -0.985822       -26.8256
 124   2.0000      -0.982738       -26.7417
 125   2.0000      -0.974661       -26.5219
 126   2.0000      -0.947370       -25.7793
 127   2.0000      -0.941248       -25.6127
 128   2.0000      -0.926644       -25.2153
 129   2.0000      -0.923283       -25.1238
 130   2.0000      -0.912108       -24.8197
 131   2.0000      -0.908938       -24.7335
 132   2.0000      -0.906688       -24.6722
 133   2.0000      -0.903479       -24.5849
 134   2.0000      -0.889578       -24.2067
 135   2.0000      -0.885153       -24.0862
 136   2.0000      -0.880530       -23.9604
 137   2.0000      -0.877599       -23.8807
 138   2.0000      -0.867887       -23.6164
 139   2.0000      -0.849976       -23.1290
 140   2.0000      -0.847675       -23.0664
 141   2.0000      -0.837786       -22.7973
 142   2.0000      -0.834139       -22.6981
 143   2.0000      -0.832050       -22.6412
 144   2.0000      -0.823157       -22.3993
 145   2.0000      -0.820747       -22.3337
 146   2.0000      -0.798002       -21.7147
 147   2.0000      -0.785383       -21.3714
 148   2.0000      -0.779537       -21.2123
 149   2.0000      -0.765732       -20.8366
 150   2.0000      -0.761723       -20.7275
 151   2.0000      -0.759962       -20.6796
 152   2.0000      -0.741247       -20.1704
 153   2.0000      -0.740332       -20.1455
 154   2.0000      -0.733346       -19.9554
 155   2.0000      -0.710371       -19.3302
 156   2.0000      -0.703626       -19.1466
 157   2.0000      -0.699264       -19.0279
 158   2.0000      -0.695493       -18.9253
 159   2.0000      -0.692576       -18.8459
 160   2.0000      -0.683810       -18.6074
 161   2.0000      -0.676402       -18.4058
 162   2.0000      -0.673928       -18.3385
 163   2.0000      -0.662913       -18.0388
 164   2.0000      -0.661991       -18.0137
 165   2.0000      -0.653114       -17.7721
 166   2.0000      -0.648174       -17.6377
 167   2.0000      -0.641637       -17.4598
 168   2.0000      -0.630236       -17.1496
 169   2.0000      -0.628915       -17.1137
 170   2.0000      -0.624422       -16.9914
 171   2.0000      -0.621425       -16.9098
 172   2.0000      -0.619256       -16.8508
 173   2.0000      -0.615463       -16.7476
 174   2.0000      -0.607964       -16.5435
 175   2.0000      -0.600774       -16.3479
 176   2.0000      -0.597469       -16.2579
 177   2.0000      -0.595507       -16.2046
 178   2.0000      -0.588140       -16.0041
 179   2.0000      -0.582557       -15.8522
 180   2.0000      -0.579485       -15.7686
 181   2.0000      -0.572772       -15.5859
 182   2.0000      -0.569663       -15.5013
 183   2.0000      -0.557299       -15.1649
 184   2.0000      -0.554225       -15.0812
 185   2.0000      -0.551752       -15.0139
 186   2.0000      -0.544842       -14.8259
 187   2.0000      -0.543527       -14.7901
 188   2.0000      -0.542852       -14.7718
 189   2.0000      -0.538452       -14.6520
 190   2.0000      -0.535406       -14.5691
 191   2.0000      -0.533450       -14.5159
 192   2.0000      -0.530527       -14.4364
 193   2.0000      -0.530355       -14.4317
 194   2.0000      -0.529176       -14.3996
 195   2.0000      -0.525052       -14.2874
 196   2.0000      -0.521057       -14.1787
 197   2.0000      -0.518678       -14.1140
 198   2.0000      -0.515081       -14.0161
 199   2.0000      -0.511776       -13.9261
 200   2.0000      -0.509537       -13.8652
 201   2.0000      -0.508284       -13.8311
 202   2.0000      -0.507230       -13.8024
 203   2.0000      -0.503017       -13.6878
 204   2.0000      -0.500083       -13.6080
 205   2.0000      -0.498771       -13.5723
 206   2.0000      -0.497143       -13.5279
 207   2.0000      -0.494022       -13.4430
 208   2.0000      -0.492078       -13.3901
 209   2.0000      -0.489824       -13.3288
 210   2.0000      -0.487514       -13.2659
 211   2.0000      -0.486126       -13.2282
 212   2.0000      -0.483688       -13.1618
 213   2.0000      -0.478595       -13.0232
 214   2.0000      -0.473449       -12.8832
 215   2.0000      -0.470478       -12.8024
 216   2.0000      -0.469870       -12.7858
 217   2.0000      -0.461795       -12.5661
 218   2.0000      -0.460294       -12.5252
 219   2.0000      -0.457847       -12.4587
 220   2.0000      -0.455304       -12.3895
 221   2.0000      -0.454067       -12.3558
 222   2.0000      -0.453097       -12.3294
 223   2.0000      -0.452468       -12.3123
 224   2.0000      -0.448617       -12.2075
 225   2.0000      -0.447262       -12.1706
 226   2.0000      -0.446055       -12.1378
 227   2.0000      -0.444192       -12.0871
 228   2.0000      -0.442147       -12.0314
 229   2.0000      -0.440188       -11.9781
 230   2.0000      -0.436391       -11.8748
 231   2.0000      -0.434229       -11.8160
 232   2.0000      -0.431277       -11.7356
 233   2.0000      -0.429293       -11.6816
 234   2.0000      -0.427626       -11.6363
 235   2.0000      -0.425571       -11.5804
 236   2.0000      -0.423513       -11.5244
 237   2.0000      -0.420437       -11.4407
 238   2.0000      -0.418753       -11.3948
 239   2.0000      -0.414358       -11.2752
 240   2.0000      -0.413185       -11.2433
 241   2.0000      -0.408470       -11.1150
 242   2.0000      -0.406175       -11.0526
 243   2.0000      -0.401161       -10.9161
 244   2.0000      -0.396885       -10.7998
 245   2.0000      -0.391015       -10.6401
 246   2.0000      -0.386139       -10.5074
 247   2.0000      -0.385352       -10.4860
 248   2.0000      -0.378985       -10.3127
 249   2.0000      -0.377635       -10.2760
 250   2.0000      -0.374771       -10.1980
 251   2.0000      -0.373424       -10.1614
 252   2.0000      -0.364834        -9.9277
 253   2.0000      -0.363631        -9.8949
 254   2.0000      -0.351150        -9.5553
 255   2.0000      -0.346835        -9.4379
 256   2.0000      -0.344373        -9.3709
 257   2.0000      -0.337654        -9.1880
 258   2.0000      -0.333840        -9.0843
 259   2.0000      -0.325869        -8.8674
 260   2.0000      -0.319519        -8.6946
 261   2.0000      -0.318322        -8.6620
 262   2.0000      -0.315213        -8.5774
 263   2.0000      -0.308173        -8.3858
 264   2.0000      -0.305994        -8.3265
 265   2.0000      -0.299434        -8.1480
 266   2.0000      -0.296721        -8.0742
 267   2.0000      -0.288956        -7.8629
 268   2.0000      -0.284736        -7.7481
 269   2.0000      -0.224940        -6.1209
 270   0.0000      -0.094714        -2.5773
 271   0.0000      -0.092196        -2.5088
 272   0.0000      -0.086507        -2.3540
 273   0.0000      -0.058890        -1.6025
 274   0.0000      -0.057331        -1.5600

MULLIKEN ATOMIC CHARGES
-----------------------
   0 C :    0.269707
   1 C :   -0.326926
   2 C :   -0.182020
   3 N :    0.157753
   4 C :   -0.161527
   5 N :    0.137161
   6 C :    0.018762
   7 C :   -0.001945
   8 C :   -0.073603
   9 C :    0.114988
  10 C :   -0.088428
  11 C :   -0.021566
  12 S :    0.187420
  13 C :   -0.124173
  14 C :    0.041335
  15 Br:    0.026777
  16 C :    0.141414
  17 O :   -0.100489
  18 C :   -0.041191
  19 C :    0.025235
  20 C :   -0.127214
  21 N :   -0.058104
  22 C :    0.069917
  23 C :   -0.015736
  24 C :    0.014135
  25 N :   -0.016175
  26 C :    0.032583
  27 C :    0.014055
  28 C :   -0.012497
  29 C :   -0.008936
  30 C :    0.065380
  31 C :    0.042885
  32 C :   -0.058471
  33 S :    0.039306
  34 C :   -0.012178
  35 C :    0.034243
  36 C :    0.040181
  37 C :    0.040529
  38 S :    0.098375
  39 C :   -0.014997
  40 C :    0.003959
  41 N :   -0.069595
  42 C :    0.082564
  43 C :   -0.056172
  44 C :    0.076938
  45 N :   -0.126549
  46 C :    0.002149
  47 C :    0.069712
  48 C :   -0.021027
  49 C :   -0.081527
  50 C :    0.294669
  51 C :   -0.325227
  52 C :   -0.175148
  53 N :    0.147477
  54 C :   -0.226790
  55 N :    0.190062
  56 C :   -0.012211
  57 C :    0.008015
  58 C :    0.126388
  59 O :   -0.142003
  60 C :   -0.085540
  61 C :    0.096473
  62 C :   -0.076114
  63 C :   -0.012086
  64 S :    0.201598
  65 C :   -0.126822
  66 C :    0.061516
  67 Br:    0.020395
  68 H :   -0.010029
  69 H :   -0.002426
  70 H :   -0.002584
  71 H :    0.023082
  72 H :    0.012080
  73 H :   -0.001962
  74 H :    0.002961
  75 H :    0.005414
  76 H :   -0.011223
  77 H :   -0.009015
  78 H :   -0.008562
  79 H :   -0.012627
  80 H :   -0.009271
  81 H :   -0.016084
  82 H :    0.008349
  83 H :   -0.004077
  84 H :   -0.005883
  85 H :    0.030556
  86 H :    0.017713
  87 H :    0.000513
  88 H :   -0.011424
  89 H :   -0.006565
Sum of atomic charges:   -0.0000000

LOEWDIN ATOMIC CHARGES
----------------------
   0 C :    0.076706
   1 C :   -0.135161
   2 C :   -0.019269
   3 N :   -0.046589
   4 C :   -0.015334
   5 N :   -0.052810
   6 C :   -0.024669
   7 C :   -0.047721
   8 C :    0.020310
   9 C :   -0.030257
  10 C :   -0.144704
  11 C :   -0.009234
  12 S :    0.433127
  13 C :   -0.270484
  14 C :   -0.070505
  15 Br:    0.139564
  16 C :    0.071361
  17 O :   -0.107487
  18 C :   -0.062498
  19 C :    0.054762
  20 C :    0.003331
  21 N :   -0.084272
  22 C :    0.046287
  23 C :   -0.046425
  24 C :    0.033734
  25 N :   -0.053785
  26 C :   -0.035511
  27 C :   -0.008275
  28 C :   -0.064508
  29 C :   -0.123418
  30 C :   -0.023428
  31 C :   -0.016455
  32 C :   -0.170160
  33 S :    0.382882
  34 C :   -0.181028
  35 C :   -0.020042
  36 C :   -0.026702
  37 C :   -0.112822
  38 S :    0.438507
  39 C :   -0.077867
  40 C :    0.032850
  41 N :   -0.085589
  42 C :    0.051516
  43 C :   -0.065709
  44 C :    0.031982
  45 N :   -0.103668
  46 C :    0.009868
  47 C :    0.004072
  48 C :    0.058367
  49 C :   -0.082262
  50 C :    0.058960
  51 C :   -0.133306
  52 C :   -0.018853
  53 N :   -0.054399
  54 C :   -0.032112
  55 N :   -0.039022
  56 C :   -0.023976
  57 C :   -0.057921
  58 C :    0.080950
  59 O :   -0.142164
  60 C :    0.022338
  61 C :   -0.034085
  62 C :   -0.140152
  63 C :   -0.008206
  64 S :    0.447765
  65 C :   -0.269070
  66 C :   -0.063753
  67 Br:    0.154364
  68 H :    0.040778
  69 H :    0.041416
  70 H :    0.039157
  71 H :    0.048259
  72 H :    0.029738
  73 H :    0.032184
  74 H :    0.037188
  75 H :    0.016932
  76 H :    0.035654
  77 H :    0.036597
  78 H :    0.035131
  79 H :    0.031132
  80 H :    0.035111
  81 H :    0.037380
  82 H :    0.027456
  83 H :    0.033167
  84 H :    0.034077
  85 H :    0.026073
  86 H :    0.043420
  87 H :    0.044673
  88 H :    0.038230
  89 H :    0.038314

  Mayer bond orders larger than 0.100000
B(  0-C ,  1-C ) :   1.6716 B(  0-C ,  6-C ) :   1.0189 B(  0-C , 18-C ) :   1.0179
B(  1-C ,  2-C ) :   1.1268 B(  1-C ,  4-C ) :   1.1483 B(  2-C ,  3-N ) :   2.9885
B(  4-C ,  5-N ) :   2.9170 B(  6-C ,  7-C ) :   1.2733 B(  6-C , 11-C ) :   1.3980
B(  7-C ,  8-C ) :   1.4248 B(  7-C , 16-C ) :   0.9314 B(  8-C ,  9-C ) :   1.2502
B(  8-C , 68-H ) :   1.0163 B(  9-C , 10-C ) :   1.3000 B(  9-C , 14-C ) :   1.1654
B( 10-C , 11-C ) :   1.3375 B( 10-C , 12-S ) :   1.0826 B( 11-C , 69-H ) :   0.9831
B( 12-S , 13-C ) :   1.0875 B( 13-C , 14-C ) :   1.6172 B( 13-C , 15-Br) :   1.0209
B( 14-C , 70-H ) :   0.9998 B( 16-C , 17-O ) :   2.2797 B( 16-C , 18-C ) :   0.8939
B( 18-C , 19-C ) :   1.6649 B( 19-C , 20-C ) :   1.0204 B( 19-C , 71-H ) :   0.9534
B( 20-C , 21-N ) :   1.5267 B( 20-C , 25-N ) :   1.5628 B( 21-N , 22-C ) :   1.5219
B( 22-C , 23-C ) :   1.3854 B( 22-C , 72-H ) :   0.9812 B( 23-C , 24-C ) :   1.3220
B( 23-C , 73-H ) :   0.9709 B( 24-C , 25-N ) :   1.4647 B( 24-C , 26-C ) :   1.0770
B( 26-C , 27-C ) :   1.6067 B( 26-C , 74-H ) :   0.9952 B( 27-C , 28-C ) :   1.1571
B( 27-C , 75-H ) :   0.9568 B( 28-C , 29-C ) :   1.5668 B( 28-C , 76-H ) :   0.9885
B( 29-C , 30-C ) :   1.1289 B( 29-C , 33-S ) :   1.0384 B( 30-C , 31-C ) :   1.6041
B( 30-C , 77-H ) :   0.9962 B( 31-C , 32-C ) :   1.1750 B( 31-C , 78-H ) :   0.9913
B( 32-C , 33-S ) :   1.0334 B( 32-C , 34-C ) :   1.5471 B( 34-C , 35-C ) :   1.1627
B( 34-C , 38-S ) :   0.9924 B( 35-C , 36-C ) :   1.6209 B( 35-C , 79-H ) :   0.9945
B( 36-C , 37-C ) :   1.1169 B( 36-C , 80-H ) :   1.0001 B( 37-C , 38-S ) :   1.0737
B( 37-C , 39-C ) :   1.5655 B( 38-S , 45-N ) :   0.1017 B( 39-C , 40-C ) :   1.0993
B( 39-C , 81-H ) :   0.9824 B( 40-C , 41-N ) :   1.4809 B( 40-C , 45-N ) :   1.4295
B( 41-N , 42-C ) :   1.5796 B( 42-C , 43-C ) :   1.3414 B( 42-C , 82-H ) :   0.9787
B( 43-C , 44-C ) :   1.3425 B( 43-C , 83-H ) :   0.9760 B( 44-C , 45-N ) :   1.5044
B( 44-C , 46-C ) :   1.0482 B( 46-C , 47-C ) :   1.6993 B( 46-C , 84-H ) :   0.9792
B( 47-C , 48-C ) :   1.0891 B( 47-C , 85-H ) :   0.9645 B( 48-C , 49-C ) :   1.6525
B( 48-C , 86-H ) :   0.9443 B( 49-C , 50-C ) :   1.0043 B( 49-C , 58-C ) :   0.9352
B( 50-C , 51-C ) :   1.6546 B( 50-C , 56-C ) :   1.0191 B( 51-C , 52-C ) :   1.1251
B( 51-C , 54-C ) :   1.1682 B( 52-C , 53-N ) :   2.9535 B( 54-C , 55-N ) :   2.9895
B( 56-C , 57-C ) :   1.2777 B( 56-C , 63-C ) :   1.4113 B( 57-C , 58-C ) :   0.9326
B( 57-C , 60-C ) :   1.4006 B( 58-C , 59-O ) :   2.2503 B( 60-C , 61-C ) :   1.2463
B( 60-C , 87-H ) :   1.0205 B( 61-C , 62-C ) :   1.3080 B( 61-C , 66-C ) :   1.1756
B( 62-C , 63-C ) :   1.3229 B( 62-C , 64-S ) :   1.0980 B( 63-C , 88-H ) :   0.9738
B( 64-S , 65-C ) :   1.0859 B( 65-C , 66-C ) :   1.6065 B( 65-C , 67-Br) :   1.0197
B( 66-C , 89-H ) :   0.9795

-----------------------------------------------------------------------------
         ABSORPTION SPECTRUM VIA TRANSITION ELECTRIC DIPOLE MOMENTS
-----------------------------------------------------------------------------
State   Energy  Wavelength   fosc         T2         TX        TY        TZ
        (cm-1)    (nm)                  (au**2)     (au)      (au)      (au)
-----------------------------------------------------------------------------
   0   11171.9    895.1   0.002209324   0.06510  -0.08148  -0.02494  -0.24051
   1   15780.2    633.7   0.874107600  18.23598  -1.69487   3.11180   2.38329
   2   17802.6    561.7   0.043072530   0.79651   0.27864  -0.78043  -0.33136
   3   19790.9    505.3   0.006395459   0.10639   0.28574  -0.04412   0.15097
   4   22734.3    439.9   0.003196318   0.04629  -0.13040  -0.03211  -0.16808
   5   24345.2    410.8   0.072808632   0.98457  -0.55886   0.73120   0.37093
   6   24737.5    404.2   0.165731650   2.20559  -0.50671   0.73401   1.18746
   7   25004.9    399.9   0.065195463   0.85836   0.40127   0.26755   0.79105
   8   25302.4    395.2   0.013095726   0.17039   0.03726   0.38423   0.14619
   9   25723.0    388.8   0.064600971   0.82678  -0.09451   0.39129   0.81532
  10   26609.3    375.8   0.093641109   1.15853  -0.18920   0.65814   0.83042
  11   27023.9    370.0   0.605998037   7.38243  -0.15783   2.41655   1.23198
  12   27431.7    364.5   0.148221953   1.77883  -0.20247   1.06006   0.78365
  13   27975.9    357.5   0.311974681   3.67122  -1.36431   1.22225  -0.56213
  14   28476.6    351.2   0.089037775   1.02935   0.20144  -0.92203  -0.37234
  15   28640.8    349.2   0.009451000   0.10863  -0.25930   0.13319   0.15380
  16   28733.8    348.0   0.241433049   2.76617   0.25635  -1.22997   1.08979
  17   29008.4    344.7   0.021937980   0.24897   0.30138  -0.10111  -0.38460
  18   29195.2    342.5   0.060474285   0.68192   0.01496  -0.59051   0.57706
  19   29373.1    340.4   0.041556955   0.46577  -0.03604  -0.67298  -0.10757
  20   29393.4    340.2   0.012823267   0.14362   0.04220   0.37466   0.03841
  21   29860.0    334.9   0.151502600   1.67035   0.21052  -0.82461   0.97264
  22   30149.0    331.7   0.066924869   0.73079   0.15830   0.60052   0.58745
  23   30310.7    329.9   0.002235674   0.02428   0.02617   0.03447   0.14970
  24   30805.3    324.6   0.106953863   1.14300  -0.19493   1.04916   0.06538
  25   30928.7    323.3   0.010898038   0.11600   0.08533  -0.32971   0.00322
  26   31735.8    315.1   0.312163327   3.23824   0.50519  -1.21203  -1.23045
  27   31853.2    313.9   0.371256833   3.83704   0.11774  -1.43576  -1.32732
  28   32196.5    310.6   0.113130973   1.15677  -0.49866   0.21443   0.92851
  29   32445.7    308.2   0.021036918   0.21345  -0.45612   0.03731  -0.06334
  30   32587.2    306.9   0.040128990   0.40540  -0.13583   0.01855  -0.62178
  31   32851.2    304.4   0.279816677   2.80413   0.45642  -1.29647  -0.95655
  32   33236.1    300.9   0.439744946   4.35579   0.18992  -0.74022  -1.94211
  33   33417.4    299.2   0.012594517   0.12408  -0.10353   0.07958   0.32714
  34   33717.9    296.6   0.047768614   0.46640   0.18016   0.53366   0.38620
  35   33788.1    296.0   0.068128457   0.66380   0.19074   0.74879  -0.25835
  36   34029.2    293.9   0.347679757   3.36359   0.42889  -1.63888   0.70266
  37   34043.8    293.7   0.114642573   1.10862  -0.54678   0.32978  -0.83720
  38   34173.0    292.6   0.440143763   4.24021  -1.30943   1.40610  -0.74061
  39   34470.5    290.1   0.104027299   0.99352   0.42907  -0.01306   0.89958
  40   34595.5    289.1   0.311402940   2.96332   0.14806  -1.18778  -1.23717
  41   34902.3    286.5   0.037456063   0.35330   0.02147  -0.40043   0.43874
  42   35165.1    284.4   0.017598441   0.16475  -0.06487  -0.39261  -0.08005
  43   35903.6    278.5   0.006356010   0.05828  -0.00600  -0.21226   0.11484
  44   36019.5    277.6   0.010579630   0.09670  -0.12309  -0.17447   0.22606
  45   36503.3    273.9   0.005237759   0.04724  -0.16421   0.10066  -0.10070
  46   36556.3    273.6   0.022776811   0.20512   0.03308  -0.27593  -0.35761
  47   36753.0    272.1   0.107042282   0.95882  -0.43291   0.81887   0.31760
  48   36826.5    271.5   0.081577439   0.72926  -0.08292   0.69009  -0.49615
  49   36967.4    270.5   0.077646202   0.69148   0.04325  -0.49041   0.67015
  50   37960.7    263.4   0.085071195   0.73778  -0.44971   0.72861   0.06823
  51   38076.9    262.6   0.069407150   0.60009  -0.28356   0.17089   0.70034
  52   38221.6    261.6   0.055936070   0.48179   0.11570   0.63059   0.26602
  53   38346.4    260.8   0.001900983   0.01632   0.00159  -0.12589  -0.02165
  54   38635.5    258.8   0.019781860   0.16856  -0.12744   0.38603  -0.05746
  55   38899.6    257.1   0.019221633   0.16268   0.33467   0.12317  -0.18842
  56   39064.8    256.0   0.009763451   0.08228   0.10144  -0.09262   0.25181
  57   39453.8    253.5   0.011512660   0.09606   0.10683   0.19441   0.21646
  58   39561.2    252.8   0.017434048   0.14508   0.09499   0.15687  -0.33384
  59   39595.7    252.6   0.124297944   1.03345   0.07687   0.84167   0.56492
  60   39711.8    251.8   0.022924443   0.19004  -0.14553   0.25948   0.31864
  61   39816.0    251.2   0.093584137   0.77378  -0.28957   0.63490   0.53558
  62   39922.2    250.5   0.122031168   1.00631   0.10767  -0.74669  -0.66119
  63   39976.8    250.1   0.000289105   0.00238  -0.02307   0.04023  -0.01516
  64   40155.5    249.0   0.028523187   0.23385  -0.12003   0.28997  -0.36790
  65   40202.8    248.7   0.018879364   0.15460   0.02145   0.26827  -0.28665

FINAL SINGLE POINT ENERGY     -9320.024008373806

DIPOLE MOMENT
-------------
                                X             Y             Z
Electronic contribution:    -58.53369     171.02121      95.34032
Nuclear contribution   :     56.29438    -171.12163     -97.27165
                        -----------------------------------------
Total Dipole Moment    :     -2.23931      -0.10041      -1.93133
                        -----------------------------------------
Magnitude (a.u.)       :      2.95883
Magnitude (Debye)      :      7.52074

Rotational constants in cm-1:     0.002188     0.000352     0.000327
Rotational constants in MHz :    65.591666    10.558672     9.792727

                             ****ORCA TERMINATED NORMALLY****
TOTAL RUN TIME: 0 days 0 hours 10 minutes 35 seconds 89 msec
