                         Program Version 4.2.0 -  RELEASE  -
|  1> # ORCA input file
|  2> # SCF done       -182.816950088386          0.000461035687
|  3> ! CAM-B3LYP def2-SVP def2/J RIJCOSX Grid4 TightSCF
|  4> %maxcore 5000
|  5> %tddft
|  6>     Mode sTDDFT
|  7>     Ethresh 5.0
|  8>     maxcore 5000
|  9> end
| 10>
| 11> %pal
| 12>   nprocs 6
| 13>   end
| 14> * xyz 0 1
| 15>    C      -14.15003         2.14269        -3.32278
| 16>    C      -15.17873         1.59117        -2.60555
| 17>    C      -16.35527         1.06656        -3.17974
| 18>    N      -17.33284         0.62858        -3.59144
| 19>    C      -15.19143         1.47876        -1.19994
| 20>    N      -15.23942         1.36686        -0.05856
| 21>    C      -14.09156         2.27224        -4.77586
| 22>    C      -12.86158         2.88302        -5.13715
| 23>    C      -12.51792         3.14064        -6.44302
| 24>    C      -13.42968         2.78131        -7.44079
| 25>    C      -14.65418         2.17348        -7.07129
| 26>    C      -15.00095         1.91133        -5.75081
| 27>    S      -15.63375         1.81484        -8.45826
| 28>    C      -14.40506         2.47692        -9.50373
| 29>    C      -13.31453         2.94275        -8.84796
| 30>   Br      -14.67843         2.49174       -11.35841
| 31>    C      -12.09932         3.16615        -3.91792
| 32>    O      -10.99781         3.70274        -3.83017
| 33>    C      -12.92183         2.70010        -2.79921
| 34>    C      -12.51864         2.83727        -1.49511
| 35>    N      -11.33607         3.38729        -1.19340
| 36>    C      -10.83541         3.57560         0.05692
| 37>    S      -11.69683         2.97521         1.44447
| 38>    C      -10.41732         3.54240         2.46275
| 39>    N      -10.53694         3.34200         3.84765
| 40>    O       -9.63194         3.74268         4.55280
| 41>    O      -11.54473         2.77980         4.23294
| 42>    C       -9.40084         4.14414         1.77547
| 43>    C       -9.62157         4.19055         0.38189
| 44>    C       -8.64938         4.80784        -0.48592
| 45>    C       -8.77589         5.23766        -1.75501
| 46>    C       -7.67543         5.84967        -2.44525
| 47>    C       -7.68381         6.27343        -3.71867
| 48>    C       -8.86154         6.17491        -4.63816
| 49>    C       -6.44946         6.90034        -4.31042
| 50>    N       -6.76281         8.16729        -4.93076
| 51>    C       -6.11003         8.67105        -5.97522
| 52>    C       -6.34251         9.90176        -6.52675
| 53>    C       -5.56646        10.35427        -7.59344
| 54>    C       -5.54796        11.53138        -8.28189
| 55>    C       -4.58702        11.63959        -9.31235
| 56>    C       -3.77530        10.56085        -9.52442
| 57>    S       -4.22173         9.34009        -8.26896
| 58>    O       -3.17505         9.21860        -7.28595
| 59>    O       -4.71825         8.10954        -8.82235
| 60>    C       -2.67588        10.30141       -10.33915
| 61>    C       -2.17653        10.95048       -11.44067
| 62>    C       -0.75747        10.70374       -11.81167
| 63>    O       -0.03577         9.83150       -11.38672
| 64>    C       -0.41002        11.77791       -12.76574
| 65>    C        0.80141        12.07679       -13.31733
| 66>    C        0.90482        13.18626       -14.18700
| 67>    C       -0.25493        13.96589       -14.46438
| 68>    C       -0.14405        15.07551       -15.32591
| 69>    C        1.06069        15.39479       -15.88683
| 70>    C        2.20666        14.62272       -15.61223
| 71>    C        2.13175        13.54068       -14.78046
| 72>    F        3.37582        14.96021       -16.17458
| 73>    F        1.16327        16.45065       -16.70594
| 74>    C       -1.49877        13.62583       -13.88273
| 75>    C       -1.57606        12.54317       -13.04889
| 76>    C       -2.70614        11.95057       -12.33029
| 77>    C       -4.02736        12.17566       -12.63332
| 78>    C       -5.09504        11.43075       -12.10131
| 79>    N       -6.00210        10.84853       -11.70453
| 80>    C       -4.46734        13.13350       -13.56853
| 81>    N       -4.88371        13.91122       -14.30366
| 82>    H      -11.57593         3.60481        -6.68989
| 83>    H      -15.94515         1.44695        -5.52076
| 84>    H      -12.46420         3.38214        -9.33653
| 85>    H      -13.13924         2.51997        -0.66723
| 86>    H      -10.76481         3.65280        -2.00904
| 87>    H       -8.53358         4.54870         2.26571
| 88>    H       -7.69406         4.96631        -0.00027
| 89>    H       -9.70572         5.17767        -2.29616
| 90>    H       -6.76491         5.95779        -1.86902
| 91>    H       -9.59663         6.94740        -4.40809
| 92>    H       -9.35798         5.21293        -4.53942
| 93>    H       -8.54836         6.30372        -5.67110
| 94>    H       -6.02836         6.24314        -5.07888
| 95>    H       -5.68713         7.03985        -3.53297
| 96>    H       -7.44634         8.74522        -4.46129
| 97>    H       -5.34624         8.04170        -6.41065
| 98>    H       -7.11818        10.54488        -6.12984
| 99>    H       -6.21288        12.35208        -8.06567
|100>    H       -4.47782        12.57152        -9.84562
|101>    H       -2.05750         9.47634        -9.99270
|102>    H        1.67006        11.47710       -13.09222
|103>    H       -1.01221        15.67559       -15.54960
|104>    H        3.01817        12.95956       -14.57991
|105>    H       -2.35716        14.23899       -14.10579
|106> *
|107>
|108>                          ****END OF INPUT****

CARTESIAN COORDINATES (ANGSTROEM)
---------------------------------
  C    -14.150030    2.142690   -3.322780
  C    -15.178730    1.591170   -2.605550
  C    -16.355270    1.066560   -3.179740
  N    -17.332840    0.628580   -3.591440
  C    -15.191430    1.478760   -1.199940
  N    -15.239420    1.366860   -0.058560
  C    -14.091560    2.272240   -4.775860
  C    -12.861580    2.883020   -5.137150
  C    -12.517920    3.140640   -6.443020
  C    -13.429680    2.781310   -7.440790
  C    -14.654180    2.173480   -7.071290
  C    -15.000950    1.911330   -5.750810
  S    -15.633750    1.814840   -8.458260
  C    -14.405060    2.476920   -9.503730
  C    -13.314530    2.942750   -8.847960
  Br   -14.678430    2.491740  -11.358410
  C    -12.099320    3.166150   -3.917920
  O    -10.997810    3.702740   -3.830170
  C    -12.921830    2.700100   -2.799210
  C    -12.518640    2.837270   -1.495110
  N    -11.336070    3.387290   -1.193400
  C    -10.835410    3.575600    0.056920
  S    -11.696830    2.975210    1.444470
  C    -10.417320    3.542400    2.462750
  N    -10.536940    3.342000    3.847650
  O     -9.631940    3.742680    4.552800
  O    -11.544730    2.779800    4.232940
  C     -9.400840    4.144140    1.775470
  C     -9.621570    4.190550    0.381890
  C     -8.649380    4.807840   -0.485920
  C     -8.775890    5.237660   -1.755010
  C     -7.675430    5.849670   -2.445250
  C     -7.683810    6.273430   -3.718670
  C     -8.861540    6.174910   -4.638160
  C     -6.449460    6.900340   -4.310420
  N     -6.762810    8.167290   -4.930760
  C     -6.110030    8.671050   -5.975220
  C     -6.342510    9.901760   -6.526750
  C     -5.566460   10.354270   -7.593440
  C     -5.547960   11.531380   -8.281890
  C     -4.587020   11.639590   -9.312350
  C     -3.775300   10.560850   -9.524420
  S     -4.221730    9.340090   -8.268960
  O     -3.175050    9.218600   -7.285950
  O     -4.718250    8.109540   -8.822350
  C     -2.675880   10.301410  -10.339150
  C     -2.176530   10.950480  -11.440670
  C     -0.757470   10.703740  -11.811670
  O     -0.035770    9.831500  -11.386720
  C     -0.410020   11.777910  -12.765740
  C      0.801410   12.076790  -13.317330
  C      0.904820   13.186260  -14.187000
  C     -0.254930   13.965890  -14.464380
  C     -0.144050   15.075510  -15.325910
  C      1.060690   15.394790  -15.886830
  C      2.206660   14.622720  -15.612230
  C      2.131750   13.540680  -14.780460
  F      3.375820   14.960210  -16.174580
  F      1.163270   16.450650  -16.705940
  C     -1.498770   13.625830  -13.882730
  C     -1.576060   12.543170  -13.048890
  C     -2.706140   11.950570  -12.330290
  C     -4.027360   12.175660  -12.633320
  C     -5.095040   11.430750  -12.101310
  N     -6.002100   10.848530  -11.704530
  C     -4.467340   13.133500  -13.568530
  N     -4.883710   13.911220  -14.303660
  H    -11.575930    3.604810   -6.689890
  H    -15.945150    1.446950   -5.520760
  H    -12.464200    3.382140   -9.336530
  H    -13.139240    2.519970   -0.667230
  H    -10.764810    3.652800   -2.009040
  H     -8.533580    4.548700    2.265710
  H     -7.694060    4.966310   -0.000270
  H     -9.705720    5.177670   -2.296160
  H     -6.764910    5.957790   -1.869020
  H     -9.596630    6.947400   -4.408090
  H     -9.357980    5.212930   -4.539420
  H     -8.548360    6.303720   -5.671100
  H     -6.028360    6.243140   -5.078880
  H     -5.687130    7.039850   -3.532970
  H     -7.446340    8.745220   -4.461290
  H     -5.346240    8.041700   -6.410650
  H     -7.118180   10.544880   -6.129840
  H     -6.212880   12.352080   -8.065670
  H     -4.477820   12.571520   -9.845620
  H     -2.057500    9.476340   -9.992700
  H      1.670060   11.477100  -13.092220
  H     -1.012210   15.675590  -15.549600
  H      3.018170   12.959560  -14.579910
  H     -2.357160   14.238990  -14.105790

 Total Charge           Charge          ....    0
 Multiplicity           Mult            ....    1
 Number of Electrons    NEL             ....  510
 Basis Dimension        Dim             .... 1088

ORBITAL ENERGIES
----------------

  NO   OCC          E(Eh)            E(eV)
   0   2.0000    -482.894526    -13140.2281
   1   2.0000     -89.143145     -2425.7083
   2   2.0000     -89.000233     -2421.8195
   3   2.0000     -88.987739     -2421.4795
   4   2.0000     -62.572249     -1702.6774
   5   2.0000     -56.406217     -1534.8912
   6   2.0000     -56.403465     -1534.8163
   7   2.0000     -56.403440     -1534.8156
   8   2.0000     -24.794217      -674.6849
   9   2.0000     -24.793584      -674.6677
  10   2.0000     -19.248726      -523.7845
  11   2.0000     -19.247882      -523.7615
  12   2.0000     -19.246985      -523.7371
  13   2.0000     -19.207781      -522.6703
  14   2.0000     -19.202413      -522.5242
  15   2.0000     -19.200956      -522.4846
  16   2.0000     -14.659518      -398.9058
  17   2.0000     -14.510539      -394.8518
  18   2.0000     -14.479442      -394.0057
  19   2.0000     -14.431022      -392.6881
  20   2.0000     -14.426171      -392.5561
  21   2.0000     -14.413953      -392.2236
  22   2.0000     -14.412355      -392.1801
  23   2.0000     -10.394865      -282.8587
  24   2.0000     -10.384201      -282.5685
  25   2.0000     -10.382741      -282.5287
  26   2.0000     -10.376873      -282.3691
  27   2.0000     -10.376369      -282.3554
  28   2.0000     -10.370200      -282.1875
  29   2.0000     -10.359370      -281.8928
  30   2.0000     -10.358692      -281.8743
  31   2.0000     -10.356934      -281.8265
  32   2.0000     -10.356564      -281.8164
  33   2.0000     -10.355246      -281.7806
  34   2.0000     -10.339170      -281.3431
  35   2.0000     -10.338484      -281.3245
  36   2.0000     -10.337610      -281.3007
  37   2.0000     -10.337336      -281.2932
  38   2.0000     -10.333057      -281.1768
  39   2.0000     -10.328972      -281.0656
  40   2.0000     -10.326655      -281.0026
  41   2.0000     -10.324504      -280.9440
  42   2.0000     -10.323797      -280.9248
  43   2.0000     -10.321342      -280.8580
  44   2.0000     -10.321123      -280.8520
  45   2.0000     -10.319954      -280.8202
  46   2.0000     -10.319060      -280.7959
  47   2.0000     -10.319011      -280.7946
  48   2.0000     -10.318593      -280.7832
  49   2.0000     -10.315827      -280.7079
  50   2.0000     -10.315008      -280.6856
  51   2.0000     -10.313312      -280.6395
  52   2.0000     -10.310631      -280.5665
  53   2.0000     -10.308143      -280.4988
  54   2.0000     -10.306252      -280.4474
  55   2.0000     -10.305667      -280.4315
  56   2.0000     -10.305286      -280.4211
  57   2.0000     -10.304312      -280.3946
  58   2.0000     -10.303522      -280.3731
  59   2.0000     -10.302615      -280.3484
  60   2.0000     -10.299683      -280.2686
  61   2.0000     -10.297262      -280.2027
  62   2.0000     -10.296980      -280.1951
  63   2.0000     -10.296746      -280.1887
  64   2.0000     -10.296120      -280.1717
  65   2.0000     -10.292456      -280.0720
  66   2.0000     -10.292323      -280.0683
  67   2.0000     -10.291338      -280.0415
  68   2.0000     -10.290770      -280.0261
  69   2.0000     -10.287703      -279.9426
  70   2.0000     -10.280089      -279.7354
  71   2.0000      -8.801696      -239.5063
  72   2.0000      -8.209463      -223.3908
  73   2.0000      -8.095442      -220.2882
  74   2.0000      -8.083802      -219.9714
  75   2.0000      -6.638082      -180.6314
  76   2.0000      -6.623399      -180.2319
  77   2.0000      -6.623164      -180.2254
  78   2.0000      -6.178343      -168.1213
  79   2.0000      -6.178191      -168.1171
  80   2.0000      -6.177345      -168.0941
  81   2.0000      -6.065088      -165.0394
  82   2.0000      -6.060642      -164.9185
  83   2.0000      -6.056969      -164.8185
  84   2.0000      -6.053465      -164.7232
  85   2.0000      -6.049177      -164.6065
  86   2.0000      -6.045045      -164.4940
  87   2.0000      -2.753922       -74.9380
  88   2.0000      -2.749840       -74.8269
  89   2.0000      -2.749643       -74.8216
  90   2.0000      -2.737976       -74.5041
  91   2.0000      -2.737966       -74.5039
  92   2.0000      -1.329825       -36.1864
  93   2.0000      -1.316586       -35.8261
  94   2.0000      -1.301764       -35.4228
  95   2.0000      -1.206097       -32.8196
  96   2.0000      -1.162321       -31.6284
  97   2.0000      -1.149190       -31.2710
  98   2.0000      -1.123618       -30.5752
  99   2.0000      -1.116996       -30.3950
 100   2.0000      -1.082252       -29.4496
 101   2.0000      -1.077280       -29.3143
 102   2.0000      -1.037527       -28.2326
 103   2.0000      -1.026787       -27.9403
 104   2.0000      -1.020987       -27.7825
 105   2.0000      -1.016317       -27.6554
 106   2.0000      -1.007970       -27.4283
 107   2.0000      -1.004011       -27.3205
 108   2.0000      -1.000124       -27.2148
 109   2.0000      -0.992552       -27.0087
 110   2.0000      -0.981073       -26.6963
 111   2.0000      -0.975202       -26.5366
 112   2.0000      -0.955780       -26.0081
 113   2.0000      -0.947157       -25.7735
 114   2.0000      -0.931368       -25.3438
 115   2.0000      -0.926773       -25.2188
 116   2.0000      -0.922539       -25.1036
 117   2.0000      -0.916027       -24.9264
 118   2.0000      -0.907710       -24.7001
 119   2.0000      -0.900132       -24.4938
 120   2.0000      -0.895906       -24.3788
 121   2.0000      -0.890696       -24.2371
 122   2.0000      -0.887352       -24.1461
 123   2.0000      -0.875386       -23.8205
 124   2.0000      -0.864548       -23.5255
 125   2.0000      -0.860760       -23.4225
 126   2.0000      -0.843456       -22.9516
 127   2.0000      -0.835823       -22.7439
 128   2.0000      -0.831032       -22.6135
 129   2.0000      -0.813351       -22.1324
 130   2.0000      -0.807509       -21.9734
 131   2.0000      -0.796718       -21.6798
 132   2.0000      -0.785125       -21.3643
 133   2.0000      -0.781100       -21.2548
 134   2.0000      -0.777840       -21.1661
 135   2.0000      -0.761871       -20.7316
 136   2.0000      -0.760613       -20.6973
 137   2.0000      -0.742762       -20.2116
 138   2.0000      -0.741758       -20.1843
 139   2.0000      -0.731938       -19.9170
 140   2.0000      -0.728229       -19.8161
 141   2.0000      -0.714098       -19.4316
 142   2.0000      -0.711552       -19.3623
 143   2.0000      -0.705527       -19.1984
 144   2.0000      -0.703460       -19.1421
 145   2.0000      -0.689070       -18.7505
 146   2.0000      -0.681132       -18.5345
 147   2.0000      -0.672601       -18.3024
 148   2.0000      -0.671465       -18.2715
 149   2.0000      -0.663671       -18.0594
 150   2.0000      -0.654941       -17.8218
 151   2.0000      -0.650498       -17.7010
 152   2.0000      -0.646593       -17.5947
 153   2.0000      -0.640959       -17.4414
 154   2.0000      -0.640192       -17.4205
 155   2.0000      -0.638890       -17.3851
 156   2.0000      -0.635887       -17.3034
 157   2.0000      -0.634515       -17.2660
 158   2.0000      -0.632190       -17.2028
 159   2.0000      -0.617934       -16.8148
 160   2.0000      -0.611722       -16.6458
 161   2.0000      -0.609328       -16.5807
 162   2.0000      -0.607313       -16.5258
 163   2.0000      -0.605545       -16.4777
 164   2.0000      -0.597186       -16.2503
 165   2.0000      -0.593797       -16.1580
 166   2.0000      -0.590568       -16.0702
 167   2.0000      -0.581273       -15.8172
 168   2.0000      -0.578602       -15.7446
 169   2.0000      -0.577548       -15.7159
 170   2.0000      -0.576127       -15.6772
 171   2.0000      -0.571874       -15.5615
 172   2.0000      -0.571047       -15.5390
 173   2.0000      -0.561999       -15.2928
 174   2.0000      -0.558845       -15.2070
 175   2.0000      -0.555015       -15.1027
 176   2.0000      -0.553678       -15.0664
 177   2.0000      -0.549612       -14.9557
 178   2.0000      -0.546844       -14.8804
 179   2.0000      -0.545185       -14.8352
 180   2.0000      -0.543619       -14.7926
 181   2.0000      -0.543047       -14.7771
 182   2.0000      -0.537834       -14.6352
 183   2.0000      -0.536464       -14.5979
 184   2.0000      -0.534178       -14.5357
 185   2.0000      -0.531496       -14.4627
 186   2.0000      -0.530041       -14.4232
 187   2.0000      -0.527363       -14.3503
 188   2.0000      -0.521746       -14.1974
 189   2.0000      -0.520737       -14.1700
 190   2.0000      -0.520409       -14.1610
 191   2.0000      -0.516045       -14.0423
 192   2.0000      -0.514976       -14.0132
 193   2.0000      -0.512807       -13.9542
 194   2.0000      -0.511071       -13.9070
 195   2.0000      -0.508154       -13.8276
 196   2.0000      -0.507224       -13.8023
 197   2.0000      -0.503754       -13.7079
 198   2.0000      -0.500426       -13.6173
 199   2.0000      -0.496589       -13.5129
 200   2.0000      -0.491693       -13.3796
 201   2.0000      -0.491612       -13.3774
 202   2.0000      -0.487782       -13.2732
 203   2.0000      -0.481379       -13.0990
 204   2.0000      -0.480257       -13.0685
 205   2.0000      -0.480011       -13.0618
 206   2.0000      -0.473353       -12.8806
 207   2.0000      -0.472485       -12.8570
 208   2.0000      -0.466490       -12.6938
 209   2.0000      -0.464358       -12.6358
 210   2.0000      -0.462642       -12.5891
 211   2.0000      -0.462108       -12.5746
 212   2.0000      -0.460600       -12.5336
 213   2.0000      -0.457757       -12.4562
 214   2.0000      -0.455779       -12.4024
 215   2.0000      -0.454712       -12.3733
 216   2.0000      -0.452164       -12.3040
 217   2.0000      -0.448019       -12.1912
 218   2.0000      -0.441735       -12.0202
 219   2.0000      -0.440647       -11.9906
 220   2.0000      -0.440268       -11.9803
 221   2.0000      -0.440226       -11.9792
 222   2.0000      -0.437325       -11.9002
 223   2.0000      -0.430871       -11.7246
 224   2.0000      -0.425505       -11.5786
 225   2.0000      -0.425421       -11.5763
 226   2.0000      -0.422913       -11.5080
 227   2.0000      -0.422820       -11.5055
 228   2.0000      -0.418669       -11.3926
 229   2.0000      -0.416274       -11.3274
 230   2.0000      -0.407402       -11.0860
 231   2.0000      -0.403026       -10.9669
 232   2.0000      -0.401760       -10.9324
 233   2.0000      -0.394467       -10.7340
 234   2.0000      -0.392450       -10.6791
 235   2.0000      -0.387706       -10.5500
 236   2.0000      -0.384336       -10.4583
 237   2.0000      -0.383807       -10.4439
 238   2.0000      -0.380784       -10.3617
 239   2.0000      -0.376745       -10.2518
 240   2.0000      -0.372525       -10.1369
 241   2.0000      -0.369892       -10.0653
 242   2.0000      -0.368975       -10.0403
 243   2.0000      -0.362787        -9.8719
 244   2.0000      -0.359534        -9.7834
 245   2.0000      -0.352027        -9.5792
 246   2.0000      -0.333215        -9.0673
 247   2.0000      -0.331583        -9.0228
 248   2.0000      -0.324156        -8.8207
 249   2.0000      -0.316410        -8.6099
 250   2.0000      -0.312614        -8.5067
 251   2.0000      -0.306200        -8.3321
 252   2.0000      -0.297361        -8.0916
 253   2.0000      -0.280445        -7.6313
 254   2.0000      -0.258301        -7.0287
 255   0.0000      -0.100605        -2.7376
 256   0.0000      -0.097854        -2.6627
 257   0.0000      -0.083223        -2.2646
 258   0.0000      -0.059073        -1.6075
 259   0.0000      -0.051508        -1.4016

MULLIKEN ATOMIC CHARGES
-----------------------
   0 C :    0.332102
   1 C :   -0.341336
   2 C :   -0.184893
   3 N :    0.158999
   4 C :   -0.195329
   5 N :    0.145732
   6 C :    0.006808
   7 C :   -0.009596
   8 C :   -0.067268
   9 C :    0.115127
  10 C :   -0.092409
  11 C :   -0.015126
  12 S :    0.197445
  13 C :   -0.124370
  14 C :    0.037916
  15 Br:    0.035614
  16 C :    0.177638
  17 O :   -0.217299
  18 C :   -0.122328
  19 C :    0.022162
  20 N :   -0.003202
  21 C :   -0.129892
  22 S :    0.173380
  23 C :    0.014665
  24 N :    0.274794
  25 O :   -0.244123
  26 O :   -0.251515
  27 C :   -0.000701
  28 C :    0.144150
  29 C :   -0.027139
  30 C :    0.002275
  31 C :   -0.001129
  32 C :   -0.244501
  33 C :    0.084867
  34 C :    0.229524
  35 N :   -0.137919
  36 C :    0.095048
  37 C :   -0.037704
  38 C :    0.050130
  39 C :   -0.032930
  40 C :    0.076578
  41 C :   -0.100935
  42 S :    0.733420
  43 O :   -0.462505
  44 O :   -0.451288
  45 C :    0.114479
  46 C :   -0.151176
  47 C :    0.137875
  48 O :   -0.142577
  49 C :    0.016263
  50 C :   -0.083484
  51 C :    0.110503
  52 C :    0.111616
  53 C :   -0.107097
  54 C :    0.239189
  55 C :    0.237428
  56 C :   -0.102979
  57 F :   -0.173545
  58 F :   -0.173281
  59 C :   -0.084933
  60 C :    0.034312
  61 C :    0.291714
  62 C :   -0.355473
  63 C :   -0.213111
  64 N :    0.174720
  65 C :   -0.176199
  66 N :    0.144033
  67 H :   -0.011192
  68 H :   -0.003650
  69 H :    0.001482
  70 H :    0.050899
  71 H :    0.173118
  72 H :    0.014829
  73 H :   -0.008734
  74 H :   -0.006627
  75 H :   -0.022357
  76 H :    0.026832
  77 H :    0.050632
  78 H :    0.015382
  79 H :    0.045950
  80 H :    0.025446
  81 H :    0.132839
  82 H :    0.044965
  83 H :   -0.018752
  84 H :   -0.009017
  85 H :    0.018556
  86 H :    0.033334
  87 H :   -0.010935
  88 H :    0.003943
  89 H :   -0.001433
  90 H :   -0.006728
Sum of atomic charges:   -0.0000000

LOEWDIN ATOMIC CHARGES
----------------------
   0 C :    0.078219
   1 C :   -0.143800
   2 C :   -0.020245
   3 N :   -0.047903
   4 C :   -0.021051
   5 N :   -0.048462
   6 C :   -0.018599
   7 C :   -0.054177
   8 C :    0.024880
   9 C :   -0.032661
  10 C :   -0.142783
  11 C :   -0.005410
  12 S :    0.442031
  13 C :   -0.269173
  14 C :   -0.069697
  15 Br:    0.145440
  16 C :    0.100949
  17 O :   -0.180013
  18 C :   -0.142449
  19 C :    0.111327
  20 N :    0.080388
  21 C :   -0.108716
  22 S :    0.478367
  23 C :   -0.202677
  24 N :    0.273032
  25 O :   -0.209975
  26 O :   -0.218510
  27 C :    0.001779
  28 C :   -0.086838
  29 C :   -0.023112
  30 C :   -0.026432
  31 C :   -0.041218
  32 C :   -0.040348
  33 C :   -0.061164
  34 C :    0.050708
  35 N :    0.037549
  36 C :    0.092956
  37 C :   -0.129439
  38 C :   -0.089435
  39 C :   -0.086763
  40 C :    0.055052
  41 C :   -0.207860
  42 S :    1.173198
  43 O :   -0.502878
  44 O :   -0.495012
  45 C :    0.058627
  46 C :   -0.105721
  47 C :    0.081236
  48 O :   -0.143668
  49 C :   -0.051808
  50 C :    0.028284
  51 C :   -0.010037
  52 C :   -0.007021
  53 C :   -0.030924
  54 C :    0.065343
  55 C :    0.065663
  56 C :   -0.033480
  57 F :   -0.051298
  58 F :   -0.050961
  59 C :    0.011174
  60 C :   -0.020116
  61 C :    0.067599
  62 C :   -0.153182
  63 C :   -0.018727
  64 N :   -0.045658
  65 C :   -0.020426
  66 N :   -0.059935
  67 H :    0.041192
  68 H :    0.042718
  69 H :    0.040534
  70 H :    0.035781
  71 H :    0.087788
  72 H :    0.047402
  73 H :    0.034112
  74 H :    0.022110
  75 H :    0.026688
  76 H :    0.037051
  77 H :    0.037363
  78 H :    0.031367
  79 H :    0.042042
  80 H :    0.028492
  81 H :    0.088681
  82 H :    0.031777
  83 H :    0.032505
  84 H :    0.034784
  85 H :    0.043507
  86 H :    0.050475
  87 H :    0.040068
  88 H :    0.046494
  89 H :    0.044405
  90 H :    0.038627

  Mayer bond orders larger than 0.100000
B(  0-C ,  1-C ) :   1.6354 B(  0-C ,  6-C ) :   1.0036 B(  0-C , 18-C ) :   1.0949
B(  1-C ,  2-C ) :   1.1423 B(  1-C ,  4-C ) :   1.1453 B(  2-C ,  3-N ) :   2.9710
B(  4-C ,  5-N ) :   2.9532 B(  6-C ,  7-C ) :   1.2698 B(  6-C , 11-C ) :   1.4262
B(  7-C ,  8-C ) :   1.4143 B(  7-C , 16-C ) :   0.9833 B(  8-C ,  9-C ) :   1.2498
B(  8-C , 67-H ) :   1.0182 B(  9-C , 10-C ) :   1.3043 B(  9-C , 14-C ) :   1.1638
B( 10-C , 11-C ) :   1.3203 B( 10-C , 12-S ) :   1.0943 B( 11-C , 68-H ) :   0.9790
B( 12-S , 13-C ) :   1.0887 B( 13-C , 14-C ) :   1.6170 B( 13-C , 15-Br) :   1.0260
B( 14-C , 69-H ) :   0.9997 B( 16-C , 17-O ) :   1.9926 B( 16-C , 18-C ) :   1.0095
B( 17-O , 71-H ) :   0.1220 B( 18-C , 19-C ) :   1.4613 B( 19-C , 20-N ) :   1.3333
B( 19-C , 70-H ) :   0.9269 B( 20-N , 21-C ) :   1.1835 B( 20-N , 71-H ) :   0.8381
B( 21-C , 22-S ) :   1.1434 B( 21-C , 28-C ) :   1.3854 B( 22-S , 23-C ) :   1.0853
B( 23-C , 24-N ) :   0.9594 B( 23-C , 27-C ) :   1.5022 B( 24-N , 25-O ) :   1.5392
B( 24-N , 26-O ) :   1.5202 B( 25-O , 26-O ) :   0.2648 B( 27-C , 28-C ) :   1.2075
B( 27-C , 72-H ) :   1.0064 B( 28-C , 29-C ) :   1.0555 B( 29-C , 30-C ) :   1.7184
B( 29-C , 73-H ) :   0.9714 B( 30-C , 31-C ) :   1.1167 B( 30-C , 74-H ) :   0.9511
B( 31-C , 32-C ) :   1.7727 B( 31-C , 75-H ) :   0.9788 B( 32-C , 33-C ) :   1.0602
B( 32-C , 34-C ) :   1.0513 B( 33-C , 76-H ) :   0.9427 B( 33-C , 77-H ) :   0.9342
B( 33-C , 78-H ) :   0.9498 B( 34-C , 35-N ) :   0.9557 B( 34-C , 79-H ) :   0.9241
B( 34-C , 80-H ) :   0.9426 B( 35-N , 36-C ) :   1.3376 B( 35-N , 81-H ) :   0.9356
B( 36-C , 37-C ) :   1.4477 B( 36-C , 82-H ) :   0.9384 B( 37-C , 38-C ) :   1.3352
B( 37-C , 83-H ) :   0.9743 B( 38-C , 39-C ) :   1.5019 B( 38-C , 42-S ) :   0.7795
B( 39-C , 40-C ) :   1.2215 B( 39-C , 84-H ) :   0.9995 B( 40-C , 41-C ) :   1.4837
B( 40-C , 85-H ) :   0.9888 B( 41-C , 42-S ) :   0.8108 B( 41-C , 45-C ) :   1.2264
B( 42-S , 43-O ) :   1.6765 B( 42-S , 44-O ) :   1.6969 B( 45-C , 46-C ) :   1.5775
B( 45-C , 86-H ) :   0.9181 B( 46-C , 47-C ) :   0.9547 B( 46-C , 61-C ) :   1.0810
B( 47-C , 48-O ) :   2.2650 B( 47-C , 49-C ) :   0.9114 B( 49-C , 50-C ) :   1.4813
B( 49-C , 60-C ) :   1.2230 B( 50-C , 51-C ) :   1.1890 B( 50-C , 87-H ) :   1.0158
B( 51-C , 52-C ) :   1.2604 B( 51-C , 56-C ) :   1.1939 B( 52-C , 53-C ) :   1.1922
B( 52-C , 59-C ) :   1.2100 B( 53-C , 54-C ) :   1.4397 B( 53-C , 56-C ) :   0.1091
B( 53-C , 88-H ) :   1.0063 B( 54-C , 55-C ) :   1.1951 B( 54-C , 58-F ) :   1.1322
B( 55-C , 56-C ) :   1.4419 B( 55-C , 57-F ) :   1.1318 B( 56-C , 89-H ) :   1.0064
B( 59-C , 60-C ) :   1.4627 B( 59-C , 90-H ) :   0.9917 B( 60-C , 61-C ) :   0.9893
B( 61-C , 62-C ) :   1.6109 B( 62-C , 63-C ) :   1.1792 B( 62-C , 65-C ) :   1.1306
B( 63-C , 64-N ) :   2.9853 B( 65-C , 66-N ) :   2.9778

-----------------------------------------------------------------------------
         ABSORPTION SPECTRUM VIA TRANSITION ELECTRIC DIPOLE MOMENTS
-----------------------------------------------------------------------------
State   Energy  Wavelength   fosc         T2         TX        TY        TZ
        (cm-1)    (nm)                  (au**2)     (au)      (au)      (au)
-----------------------------------------------------------------------------
   0   17886.1    559.1   1.090446074  20.07079   2.13284   1.72729  -3.54094
   1   22143.8    451.6   0.722402853  10.73998   2.17022   1.05799   2.21603
   2   24928.9    401.1   0.037674869   0.49754  -0.03542  -0.02385  -0.70407
   3   25787.1    387.8   0.037915702   0.48405  -0.07064   0.00457   0.69213
   4   25916.7    385.9   0.043914263   0.55783   0.62990   0.04251  -0.39906
   5   27624.2    362.0   0.251076792   2.99221   1.48482   0.47415  -0.75013
   6   28242.1    354.1   0.027528718   0.32090  -0.27786  -0.36539   0.33193
   7   28839.0    346.8   0.165892013   1.89374   0.31775   0.20219  -1.32359
   8   29071.2    344.0   0.093327425   1.05687  -0.17054  -0.16160   1.00084
   9   29654.0    337.2   0.091532908   1.01618   0.92749   0.24964  -0.30596
  10   29782.2    335.8   0.177852130   1.96598   0.06443  -0.03195   1.40029
  11   29935.1    334.1   0.005025199   0.05526  -0.06926   0.12152  -0.18894
  12   30347.1    329.5   0.295520174   3.20586   0.53198   0.13670   1.70416
  13   31843.5    314.0   0.160413521   1.65842  -0.57652  -0.62444   0.96754
  14   32262.3    310.0   0.184017809   1.87776   0.36295   0.45219  -1.24159
  15   32589.5    306.8   0.066559565   0.67237  -0.81666  -0.06698   0.03074
  16   33017.3    302.9   0.106207828   1.05899   0.34411   0.00648   0.96981
  17   33461.2    298.9   0.041931563   0.41255   0.57328   0.13308  -0.25727
  18   33805.7    295.8   0.536313938   5.22281  -0.95935  -0.58872   1.98894
  19   34133.0    293.0   0.409628330   3.95086   1.67383   0.80050  -0.71299
  20   35029.7    285.5   0.054842313   0.51541  -0.69390  -0.12298   0.13708
  21   35574.8    281.1   0.036375417   0.33662  -0.25736  -0.27086   0.44387
  22   36360.3    275.0   0.237967110   2.15459  -1.14951  -0.54940   0.72896
  23   36703.7    272.5   0.603586821   5.41384  -0.35619  -0.65145   2.20513
  24   37078.4    269.7   0.223401758   1.98354  -1.19757  -0.73591   0.08827
  25   37345.1    267.8   0.022036900   0.19426   0.30300   0.15647  -0.27923
  26   37447.0    267.0   0.048292176   0.42456  -0.58282   0.28282  -0.06997
  27   37534.3    266.4   0.021009386   0.18427  -0.40488  -0.06275   0.12808
  28   37585.9    266.1   0.094783856   0.83020  -0.42260  -0.47064   0.65583
  29   38551.0    259.4   0.004393328   0.03752  -0.02730   0.14319  -0.12755
  30   39386.2    253.9   0.051333353   0.42907  -0.02988   0.60089  -0.25905
  31   39599.8    252.5   0.133240796   1.10769  -0.77344   0.43337  -0.56716
  32   39822.9    251.1   0.011074662   0.09155  -0.07105  -0.26173   0.13417

FINAL SINGLE POINT ENERGY     -6642.178783916026

DIPOLE MOMENT
-------------
                                X             Y             Z
Electronic contribution:    -66.86092     -39.96639     -76.19001
Nuclear contribution   :     66.80656      40.63320      76.46796
                        -----------------------------------------
Total Dipole Moment    :     -0.05436       0.66681       0.27794
                        -----------------------------------------
Magnitude (a.u.)       :      0.72446
Magnitude (Debye)      :      1.84143

Rotational constants in cm-1:     0.001104     0.000230     0.000195
Rotational constants in MHz :    33.094039     6.909964     5.831577

                             ****ORCA TERMINATED NORMALLY****
TOTAL RUN TIME: 0 days 0 hours 17 minutes 7 seconds 40 msec
