                         Program Version 4.2.0 -  RELEASE  -
|  1> # ORCA input file
|  2> # SCF done       -197.300998276573          0.000872301658
|  3> ! CAM-B3LYP def2-SVP def2/J RIJCOSX Grid4 TightSCF
|  4> %maxcore 5000
|  5> %tddft
|  6>     Mode sTDDFT
|  7>     Ethresh 5.0
|  8>     maxcore 5000
|  9> end
| 10>
| 11> %pal
| 12>   nprocs 6
| 13>   end
| 14> * xyz 0 1
| 15>    C       -9.55514         1.16523         1.08323
| 16>    C       -9.53756        -0.03729         1.73589
| 17>    C      -10.31247        -0.31888         2.88159
| 18>    N      -10.92349        -0.59978         3.81146
| 19>    C       -8.69300        -1.12256         1.41153
| 20>    N       -8.01223        -2.03026         1.24092
| 21>    C      -10.28343         2.35338         1.50479
| 22>    C       -9.84088         3.45265         0.72937
| 23>    C      -10.32765         4.72574         0.90452
| 24>    C      -11.30680         4.92062         1.88360
| 25>    C      -11.75149         3.81309         2.64655
| 26>    C      -11.25283         2.52798         2.47558
| 27>    S      -12.97218         4.27545         3.79231
| 28>    C      -12.86897         5.92707         3.24215
| 29>    C      -11.96778         6.12437         2.25034
| 30>   Br      -13.96118         7.23342         4.02658
| 31>    C       -8.82652         3.00307        -0.24578
| 32>    O       -8.20189         3.71457        -0.99787
| 33>    C       -8.77035         1.51976        -0.09168
| 34>    C       -8.24868         0.61231        -0.96365
| 35>    C       -7.51084         0.84787        -2.14697
| 36>    O       -7.03004         2.06395        -2.50401
| 37>    C       -7.15012        -0.05964        -3.13284
| 38>    C       -7.26221        -1.46409        -3.56191
| 39>    O       -7.81170        -2.40237        -3.05326
| 40>    N       -6.57281        -1.48711        -4.77134
| 41>    C       -6.04632        -0.26299        -5.18631
| 42>    O       -5.43088        -0.08103        -6.20286
| 43>    C       -6.43473         0.65736        -4.11278
| 44>    C       -6.38401         1.97816        -3.68544
| 45>    C       -5.82373         3.13171        -4.28923
| 46>    C       -5.91264         4.35675        -3.71430
| 47>    C       -5.42399         5.55957        -4.28799
| 48>    S       -5.53680         7.04876        -3.37039
| 49>    C       -4.84598         7.95223        -4.68126
| 50>    C       -4.54681         7.11347        -5.77769
| 51>    C       -4.87116         5.76903        -5.53073
| 52>    C       -3.97853         7.70852        -6.92540
| 53>    C       -3.80572         9.10036        -6.95076
| 54>    S       -3.01608         9.59460        -8.41831
| 55>    C       -2.96322         7.96492        -8.97828
| 56>    C       -3.50251         7.08245        -8.10834
| 57>    C       -4.14057         9.93114        -5.85889
| 58>    C       -4.61837         9.31969        -4.70255
| 59>    C       -4.00365        11.36834        -5.88768
| 60>    C       -4.40792        12.19682        -6.88518
| 61>    C       -4.25411        13.61582        -6.91476
| 62>    C       -4.84057        14.22066        -7.97654
| 63>    C       -5.51730        13.32576        -8.84611
| 64>    S       -5.34916        11.68305        -8.28452
| 65>    C       -6.24945        13.63199        -9.97498
| 66>    C       -6.46141        14.89884       -10.56516
| 67>    C       -7.26464        14.86334       -11.66463
| 68>    C       -7.73597        13.57029       -11.99610
| 69>    S       -7.10735        12.39383       -10.86880
| 70>    C       -8.60744        13.25042       -13.01741
| 71>    C       -9.05151        11.95355       -13.25860
| 72>    C       -9.99531        11.51415       -14.15949
| 73>    C      -10.97801        12.19950       -14.95416
| 74>    C      -11.55071        13.42537       -14.70224
| 75>    C      -12.53401        14.01703       -15.51892
| 76>    N      -13.31740        14.56122       -16.15899
| 77>    C      -11.32425        14.19775       -13.54669
| 78>    N      -11.22897        14.85085       -12.60622
| 79>    C      -11.44621        11.26031       -15.97515
| 80>    C      -10.91397         9.97831       -15.69000
| 81>    C      -10.02595        10.07698       -14.51315
| 82>    O       -9.41925         9.17972       -13.96795
| 83>    C      -11.21551         8.86859       -16.43961
| 84>    C      -12.07656         9.03197       -17.53062
| 85>    C      -12.58822        10.31845       -17.81809
| 86>    C      -12.28796        11.44127       -17.05478
| 87>    S      -13.62509        10.29663       -19.21270
| 88>    C      -13.36505         8.58092       -19.38349
| 89>    C      -12.54241         8.05048       -18.44838
| 90>   Br      -14.20529         7.65186       -20.78009
| 91>    H       -9.96621         5.54490         0.30283
| 92>    H      -11.62514         1.71574         3.07716
| 93>    H      -11.77677         7.07862         1.79447
| 94>    H       -8.43616        -0.44099        -0.79496
| 95>    H       -6.47152        -2.33110        -5.31735
| 96>    H       -5.33725         2.96879        -5.23830
| 97>    H       -6.40638         4.43742        -2.75419
| 98>    H       -4.72378         4.98204        -6.24693
| 99>    H       -2.52761         7.76588        -9.93762
|100>    H       -3.55522         6.02400        -8.28520
|101>    H       -4.86490         9.92158        -3.84183
|102>    H       -3.60919        11.83022        -4.99130
|103>    H       -3.70549        14.12869        -6.14471
|104>    H       -4.82279        15.28009        -8.15807
|105>    H       -6.01766        15.79405       -10.16827
|106>    H       -7.54973        15.72483       -12.24147
|107>    H       -8.93913        14.06386       -13.64510
|108>    H       -8.55068        11.15535       -12.71655
|109>    H      -10.80325         7.90308       -16.19173
|110>    H      -12.70141        12.40097       -17.31660
|111>    H      -12.27460         7.01058       -18.40433
|112> *
|113>
|114>                          ****END OF INPUT****

CARTESIAN COORDINATES (ANGSTROEM)
---------------------------------
  C     -9.555140    1.165230    1.083230
  C     -9.537560   -0.037290    1.735890
  C    -10.312470   -0.318880    2.881590
  N    -10.923490   -0.599780    3.811460
  C     -8.693000   -1.122560    1.411530
  N     -8.012230   -2.030260    1.240920
  C    -10.283430    2.353380    1.504790
  C     -9.840880    3.452650    0.729370
  C    -10.327650    4.725740    0.904520
  C    -11.306800    4.920620    1.883600
  C    -11.751490    3.813090    2.646550
  C    -11.252830    2.527980    2.475580
  S    -12.972180    4.275450    3.792310
  C    -12.868970    5.927070    3.242150
  C    -11.967780    6.124370    2.250340
  Br   -13.961180    7.233420    4.026580
  C     -8.826520    3.003070   -0.245780
  O     -8.201890    3.714570   -0.997870
  C     -8.770350    1.519760   -0.091680
  C     -8.248680    0.612310   -0.963650
  C     -7.510840    0.847870   -2.146970
  O     -7.030040    2.063950   -2.504010
  C     -7.150120   -0.059640   -3.132840
  C     -7.262210   -1.464090   -3.561910
  O     -7.811700   -2.402370   -3.053260
  N     -6.572810   -1.487110   -4.771340
  C     -6.046320   -0.262990   -5.186310
  O     -5.430880   -0.081030   -6.202860
  C     -6.434730    0.657360   -4.112780
  C     -6.384010    1.978160   -3.685440
  C     -5.823730    3.131710   -4.289230
  C     -5.912640    4.356750   -3.714300
  C     -5.423990    5.559570   -4.287990
  S     -5.536800    7.048760   -3.370390
  C     -4.845980    7.952230   -4.681260
  C     -4.546810    7.113470   -5.777690
  C     -4.871160    5.769030   -5.530730
  C     -3.978530    7.708520   -6.925400
  C     -3.805720    9.100360   -6.950760
  S     -3.016080    9.594600   -8.418310
  C     -2.963220    7.964920   -8.978280
  C     -3.502510    7.082450   -8.108340
  C     -4.140570    9.931140   -5.858890
  C     -4.618370    9.319690   -4.702550
  C     -4.003650   11.368340   -5.887680
  C     -4.407920   12.196820   -6.885180
  C     -4.254110   13.615820   -6.914760
  C     -4.840570   14.220660   -7.976540
  C     -5.517300   13.325760   -8.846110
  S     -5.349160   11.683050   -8.284520
  C     -6.249450   13.631990   -9.974980
  C     -6.461410   14.898840  -10.565160
  C     -7.264640   14.863340  -11.664630
  C     -7.735970   13.570290  -11.996100
  S     -7.107350   12.393830  -10.868800
  C     -8.607440   13.250420  -13.017410
  C     -9.051510   11.953550  -13.258600
  C     -9.995310   11.514150  -14.159490
  C    -10.978010   12.199500  -14.954160
  C    -11.550710   13.425370  -14.702240
  C    -12.534010   14.017030  -15.518920
  N    -13.317400   14.561220  -16.158990
  C    -11.324250   14.197750  -13.546690
  N    -11.228970   14.850850  -12.606220
  C    -11.446210   11.260310  -15.975150
  C    -10.913970    9.978310  -15.690000
  C    -10.025950   10.076980  -14.513150
  O     -9.419250    9.179720  -13.967950
  C    -11.215510    8.868590  -16.439610
  C    -12.076560    9.031970  -17.530620
  C    -12.588220   10.318450  -17.818090
  C    -12.287960   11.441270  -17.054780
  S    -13.625090   10.296630  -19.212700
  C    -13.365050    8.580920  -19.383490
  C    -12.542410    8.050480  -18.448380
  Br   -14.205290    7.651860  -20.780090
  H     -9.966210    5.544900    0.302830
  H    -11.625140    1.715740    3.077160
  H    -11.776770    7.078620    1.794470
  H     -8.436160   -0.440990   -0.794960
  H     -6.471520   -2.331100   -5.317350
  H     -5.337250    2.968790   -5.238300
  H     -6.406380    4.437420   -2.754190
  H     -4.723780    4.982040   -6.246930
  H     -2.527610    7.765880   -9.937620
  H     -3.555220    6.024000   -8.285200
  H     -4.864900    9.921580   -3.841830
  H     -3.609190   11.830220   -4.991300
  H     -3.705490   14.128690   -6.144710
  H     -4.822790   15.280090   -8.158070
  H     -6.017660   15.794050  -10.168270
  H     -7.549730   15.724830  -12.241470
  H     -8.939130   14.063860  -13.645100
  H     -8.550680   11.155350  -12.716550
  H    -10.803250    7.903080  -16.191730
  H    -12.701410   12.400970  -17.316600
  H    -12.274600    7.010580  -18.404330

 Total Charge           Charge          ....    0
 Multiplicity           Mult            ....    1
 Number of Electrons    NEL             ....  610
 Basis Dimension        Dim             .... 1229

ORBITAL ENERGIES
----------------

  NO   OCC          E(Eh)            E(eV)
   0   2.0000    -482.889808    -13140.0997
   1   2.0000    -482.878823    -13139.8008
   2   2.0000     -88.980295     -2421.2769
   3   2.0000     -88.967162     -2420.9196
   4   2.0000     -88.964287     -2420.8413
   5   2.0000     -88.963659     -2420.8242
   6   2.0000     -88.962055     -2420.7806
   7   2.0000     -88.960467     -2420.7374
   8   2.0000     -62.567501     -1702.5483
   9   2.0000     -62.556565     -1702.2507
  10   2.0000     -56.401459     -1534.7617
  11   2.0000     -56.398731     -1534.6875
  12   2.0000     -56.398702     -1534.6867
  13   2.0000     -56.390503     -1534.4636
  14   2.0000     -56.387809     -1534.3903
  15   2.0000     -56.387769     -1534.3892
  16   2.0000     -19.316808      -525.6371
  17   2.0000     -19.223989      -523.1113
  18   2.0000     -19.220493      -523.0162
  19   2.0000     -19.218175      -522.9531
  20   2.0000     -19.200472      -522.4714
  21   2.0000     -14.461457      -393.5163
  22   2.0000     -14.420462      -392.4007
  23   2.0000     -14.418315      -392.3423
  24   2.0000     -14.403666      -391.9437
  25   2.0000     -14.401859      -391.8945
  26   2.0000     -10.409356      -283.2530
  27   2.0000     -10.407652      -283.2066
  28   2.0000     -10.377475      -282.3854
  29   2.0000     -10.376859      -282.3687
  30   2.0000     -10.371692      -282.2281
  31   2.0000     -10.363804      -282.0135
  32   2.0000     -10.351016      -281.6655
  33   2.0000     -10.350516      -281.6519
  34   2.0000     -10.349742      -281.6308
  35   2.0000     -10.347212      -281.5619
  36   2.0000     -10.337198      -281.2894
  37   2.0000     -10.331231      -281.1271
  38   2.0000     -10.331126      -281.1242
  39   2.0000     -10.331021      -281.1214
  40   2.0000     -10.329261      -281.0735
  41   2.0000     -10.328549      -281.0541
  42   2.0000     -10.328374      -281.0494
  43   2.0000     -10.325790      -280.9790
  44   2.0000     -10.322700      -280.8950
  45   2.0000     -10.319989      -280.8212
  46   2.0000     -10.319595      -280.8105
  47   2.0000     -10.316076      -280.7147
  48   2.0000     -10.314362      -280.6681
  49   2.0000     -10.314288      -280.6660
  50   2.0000     -10.313583      -280.6469
  51   2.0000     -10.313279      -280.6386
  52   2.0000     -10.311179      -280.5815
  53   2.0000     -10.311023      -280.5772
  54   2.0000     -10.310277      -280.5569
  55   2.0000     -10.309302      -280.5304
  56   2.0000     -10.309283      -280.5298
  57   2.0000     -10.308551      -280.5099
  58   2.0000     -10.307609      -280.4843
  59   2.0000     -10.307308      -280.4761
  60   2.0000     -10.307301      -280.4759
  61   2.0000     -10.306909      -280.4652
  62   2.0000     -10.306888      -280.4647
  63   2.0000     -10.305556      -280.4284
  64   2.0000     -10.305461      -280.4258
  65   2.0000     -10.302504      -280.3454
  66   2.0000     -10.301680      -280.3230
  67   2.0000     -10.301378      -280.3148
  68   2.0000     -10.300116      -280.2804
  69   2.0000     -10.298593      -280.2390
  70   2.0000     -10.297663      -280.2137
  71   2.0000     -10.297509      -280.2095
  72   2.0000     -10.296724      -280.1881
  73   2.0000     -10.296125      -280.1718
  74   2.0000     -10.296070      -280.1703
  75   2.0000     -10.294891      -280.1382
  76   2.0000     -10.293845      -280.1098
  77   2.0000     -10.292733      -280.0795
  78   2.0000     -10.290965      -280.0314
  79   2.0000     -10.288859      -279.9741
  80   2.0000     -10.283746      -279.8350
  81   2.0000     -10.282796      -279.8091
  82   2.0000     -10.281135      -279.7639
  83   2.0000     -10.279747      -279.7261
  84   2.0000      -8.796915      -239.3762
  85   2.0000      -8.786010      -239.0795
  86   2.0000      -8.076356      -219.7688
  87   2.0000      -8.063150      -219.4095
  88   2.0000      -8.060224      -219.3298
  89   2.0000      -8.059824      -219.3189
  90   2.0000      -8.058387      -219.2799
  91   2.0000      -8.056215      -219.2207
  92   2.0000      -6.633246      -180.4998
  93   2.0000      -6.622274      -180.2012
  94   2.0000      -6.618652      -180.1027
  95   2.0000      -6.618413      -180.0962
  96   2.0000      -6.607736      -179.8057
  97   2.0000      -6.607593      -179.8017
  98   2.0000      -6.046026      -164.5207
  99   2.0000      -6.041772      -164.4050
 100   2.0000      -6.037560      -164.2904
 101   2.0000      -6.032853      -164.1623
 102   2.0000      -6.029616      -164.0742
 103   2.0000      -6.029574      -164.0731
 104   2.0000      -6.028578      -164.0459
 105   2.0000      -6.028034      -164.0311
 106   2.0000      -6.025751      -163.9690
 107   2.0000      -6.025719      -163.9681
 108   2.0000      -6.025450      -163.9608
 109   2.0000      -6.024362      -163.9312
 110   2.0000      -6.023989      -163.9211
 111   2.0000      -6.021788      -163.8612
 112   2.0000      -6.021284      -163.8475
 113   2.0000      -6.020639      -163.8299
 114   2.0000      -6.019426      -163.7969
 115   2.0000      -6.018039      -163.7592
 116   2.0000      -2.749106       -74.8070
 117   2.0000      -2.745010       -74.6955
 118   2.0000      -2.744866       -74.6916
 119   2.0000      -2.738165       -74.5093
 120   2.0000      -2.734085       -74.3982
 121   2.0000      -2.733919       -74.3937
 122   2.0000      -2.733251       -74.3755
 123   2.0000      -2.733235       -74.3751
 124   2.0000      -2.722404       -74.0804
 125   2.0000      -2.722393       -74.0801
 126   2.0000      -1.240342       -33.7514
 127   2.0000      -1.163968       -31.6732
 128   2.0000      -1.143676       -31.1210
 129   2.0000      -1.140177       -31.0258
 130   2.0000      -1.114870       -30.3371
 131   2.0000      -1.051072       -28.6011
 132   2.0000      -1.028589       -27.9893
 133   2.0000      -1.017890       -27.6982
 134   2.0000      -1.017264       -27.6811
 135   2.0000      -1.012749       -27.5583
 136   2.0000      -1.012122       -27.5413
 137   2.0000      -1.002115       -27.2689
 138   2.0000      -0.997931       -27.1551
 139   2.0000      -0.995581       -27.0911
 140   2.0000      -0.992896       -27.0181
 141   2.0000      -0.984835       -26.7987
 142   2.0000      -0.981628       -26.7114
 143   2.0000      -0.977761       -26.6062
 144   2.0000      -0.953021       -25.9330
 145   2.0000      -0.942457       -25.6456
 146   2.0000      -0.935748       -25.4630
 147   2.0000      -0.934220       -25.4214
 148   2.0000      -0.932581       -25.3768
 149   2.0000      -0.914777       -24.8923
 150   2.0000      -0.913646       -24.8616
 151   2.0000      -0.907651       -24.6984
 152   2.0000      -0.898034       -24.4368
 153   2.0000      -0.892755       -24.2931
 154   2.0000      -0.891251       -24.2522
 155   2.0000      -0.880974       -23.9725
 156   2.0000      -0.875909       -23.8347
 157   2.0000      -0.874263       -23.7899
 158   2.0000      -0.867889       -23.6164
 159   2.0000      -0.864966       -23.5369
 160   2.0000      -0.849764       -23.1233
 161   2.0000      -0.841365       -22.8947
 162   2.0000      -0.835491       -22.7349
 163   2.0000      -0.833824       -22.6895
 164   2.0000      -0.830203       -22.5910
 165   2.0000      -0.819660       -22.3041
 166   2.0000      -0.811118       -22.0716
 167   2.0000      -0.808083       -21.9891
 168   2.0000      -0.795834       -21.6557
 169   2.0000      -0.784180       -21.3386
 170   2.0000      -0.775347       -21.0983
 171   2.0000      -0.769133       -20.9292
 172   2.0000      -0.764871       -20.8132
 173   2.0000      -0.759717       -20.6730
 174   2.0000      -0.749106       -20.3842
 175   2.0000      -0.739131       -20.1128
 176   2.0000      -0.724959       -19.7271
 177   2.0000      -0.715439       -19.4681
 178   2.0000      -0.710271       -19.3275
 179   2.0000      -0.705398       -19.1949
 180   2.0000      -0.699523       -19.0350
 181   2.0000      -0.695101       -18.9147
 182   2.0000      -0.690023       -18.7765
 183   2.0000      -0.684819       -18.6349
 184   2.0000      -0.682014       -18.5585
 185   2.0000      -0.676506       -18.4087
 186   2.0000      -0.664961       -18.0945
 187   2.0000      -0.660863       -17.9830
 188   2.0000      -0.660786       -17.9809
 189   2.0000      -0.650337       -17.6966
 190   2.0000      -0.642257       -17.4767
 191   2.0000      -0.638719       -17.3804
 192   2.0000      -0.636658       -17.3243
 193   2.0000      -0.632533       -17.2121
 194   2.0000      -0.628780       -17.1100
 195   2.0000      -0.625110       -17.0101
 196   2.0000      -0.621954       -16.9242
 197   2.0000      -0.612421       -16.6648
 198   2.0000      -0.612134       -16.6570
 199   2.0000      -0.607022       -16.5179
 200   2.0000      -0.603232       -16.4148
 201   2.0000      -0.598483       -16.2855
 202   2.0000      -0.595731       -16.2107
 203   2.0000      -0.590612       -16.0714
 204   2.0000      -0.585897       -15.9431
 205   2.0000      -0.585312       -15.9271
 206   2.0000      -0.582326       -15.8459
 207   2.0000      -0.573938       -15.6176
 208   2.0000      -0.566726       -15.4214
 209   2.0000      -0.561595       -15.2818
 210   2.0000      -0.560646       -15.2560
 211   2.0000      -0.554813       -15.0972
 212   2.0000      -0.554026       -15.0758
 213   2.0000      -0.553495       -15.0614
 214   2.0000      -0.547735       -14.9046
 215   2.0000      -0.545778       -14.8514
 216   2.0000      -0.541930       -14.7467
 217   2.0000      -0.538704       -14.6589
 218   2.0000      -0.534627       -14.5479
 219   2.0000      -0.533043       -14.5048
 220   2.0000      -0.530585       -14.4380
 221   2.0000      -0.527365       -14.3503
 222   2.0000      -0.525596       -14.3022
 223   2.0000      -0.523818       -14.2538
 224   2.0000      -0.523339       -14.2408
 225   2.0000      -0.522150       -14.2084
 226   2.0000      -0.520014       -14.1503
 227   2.0000      -0.515998       -14.0410
 228   2.0000      -0.515156       -14.0181
 229   2.0000      -0.513102       -13.9622
 230   2.0000      -0.512092       -13.9347
 231   2.0000      -0.507733       -13.8161
 232   2.0000      -0.506529       -13.7833
 233   2.0000      -0.505359       -13.7515
 234   2.0000      -0.499204       -13.5840
 235   2.0000      -0.498444       -13.5634
 236   2.0000      -0.498249       -13.5580
 237   2.0000      -0.494156       -13.4467
 238   2.0000      -0.490490       -13.3469
 239   2.0000      -0.489057       -13.3079
 240   2.0000      -0.486586       -13.2407
 241   2.0000      -0.484555       -13.1854
 242   2.0000      -0.482631       -13.1331
 243   2.0000      -0.479847       -13.0573
 244   2.0000      -0.479501       -13.0479
 245   2.0000      -0.477421       -12.9913
 246   2.0000      -0.474305       -12.9065
 247   2.0000      -0.472271       -12.8511
 248   2.0000      -0.470348       -12.7988
 249   2.0000      -0.463047       -12.6002
 250   2.0000      -0.460170       -12.5219
 251   2.0000      -0.456376       -12.4186
 252   2.0000      -0.453190       -12.3319
 253   2.0000      -0.452692       -12.3184
 254   2.0000      -0.451974       -12.2988
 255   2.0000      -0.449845       -12.2409
 256   2.0000      -0.448451       -12.2030
 257   2.0000      -0.446745       -12.1566
 258   2.0000      -0.443542       -12.0694
 259   2.0000      -0.439310       -11.9542
 260   2.0000      -0.438723       -11.9383
 261   2.0000      -0.437080       -11.8936
 262   2.0000      -0.436663       -11.8822
 263   2.0000      -0.432377       -11.7656
 264   2.0000      -0.432061       -11.7570
 265   2.0000      -0.430416       -11.7122
 266   2.0000      -0.428675       -11.6648
 267   2.0000      -0.428060       -11.6481
 268   2.0000      -0.427683       -11.6378
 269   2.0000      -0.423482       -11.5235
 270   2.0000      -0.420650       -11.4465
 271   2.0000      -0.416760       -11.3406
 272   2.0000      -0.413266       -11.2455
 273   2.0000      -0.412250       -11.2179
 274   2.0000      -0.410203       -11.1622
 275   2.0000      -0.407003       -11.0751
 276   2.0000      -0.398210       -10.8358
 277   2.0000      -0.397159       -10.8072
 278   2.0000      -0.392147       -10.6709
 279   2.0000      -0.390979       -10.6391
 280   2.0000      -0.381908       -10.3922
 281   2.0000      -0.379146       -10.3171
 282   2.0000      -0.378207       -10.2915
 283   2.0000      -0.377941       -10.2843
 284   2.0000      -0.370566       -10.0836
 285   2.0000      -0.368433       -10.0256
 286   2.0000      -0.368152       -10.0179
 287   2.0000      -0.367927       -10.0118
 288   2.0000      -0.357489        -9.7278
 289   2.0000      -0.353490        -9.6189
 290   2.0000      -0.353147        -9.6096
 291   2.0000      -0.347828        -9.4649
 292   2.0000      -0.343256        -9.3405
 293   2.0000      -0.338328        -9.2064
 294   2.0000      -0.331163        -9.0114
 295   2.0000      -0.324083        -8.8187
 296   2.0000      -0.320755        -8.7282
 297   2.0000      -0.306049        -8.3280
 298   2.0000      -0.304264        -8.2795
 299   2.0000      -0.300887        -8.1875
 300   2.0000      -0.297421        -8.0932
 301   2.0000      -0.293212        -7.9787
 302   2.0000      -0.284653        -7.7458
 303   2.0000      -0.263296        -7.1646
 304   2.0000      -0.234167        -6.3720
 305   0.0000      -0.109913        -2.9909
 306   0.0000      -0.103255        -2.8097
 307   0.0000      -0.071806        -1.9539
 308   0.0000      -0.065412        -1.7799
 309   0.0000      -0.057205        -1.5566

MULLIKEN ATOMIC CHARGES
-----------------------
   0 C :    0.283312
   1 C :   -0.327123
   2 C :   -0.184384
   3 N :    0.152230
   4 C :   -0.206342
   5 N :    0.176981
   6 C :    0.021637
   7 C :   -0.016703
   8 C :   -0.070018
   9 C :    0.116997
  10 C :   -0.089534
  11 C :   -0.017181
  12 S :    0.189639
  13 C :   -0.123607
  14 C :    0.040132
  15 Br:    0.027808
  16 C :    0.141460
  17 O :   -0.127541
  18 C :   -0.057360
  19 C :   -0.050758
  20 C :    0.072322
  21 O :   -0.169378
  22 C :   -0.016394
  23 C :    0.173213
  24 O :   -0.123573
  25 N :   -0.167998
  26 C :    0.168416
  27 O :   -0.137227
  28 C :   -0.045662
  29 C :    0.101666
  30 C :   -0.039097
  31 C :    0.080387
  32 C :   -0.066801
  33 S :    0.142483
  34 C :   -0.063906
  35 C :    0.105240
  36 C :   -0.042484
  37 C :    0.087018
  38 C :   -0.141441
  39 S :    0.137639
  40 C :   -0.048350
  41 C :    0.005627
  42 C :    0.055784
  43 C :   -0.053620
  44 C :   -0.063359
  45 C :   -0.034437
  46 C :    0.050827
  47 C :    0.032148
  48 C :   -0.045851
  49 S :    0.129360
  50 C :   -0.062052
  51 C :    0.044159
  52 C :    0.039785
  53 C :   -0.016815
  54 S :    0.107346
  55 C :   -0.002585
  56 C :    0.014546
  57 C :   -0.118135
  58 C :    0.292190
  59 C :   -0.345909
  60 C :   -0.176543
  61 N :    0.134544
  62 C :   -0.219222
  63 N :    0.154937
  64 C :    0.003150
  65 C :   -0.005473
  66 C :    0.133002
  67 O :   -0.155084
  68 C :   -0.073919
  69 C :    0.113100
  70 C :   -0.090396
  71 C :   -0.023099
  72 S :    0.179997
  73 C :   -0.125785
  74 C :    0.040235
  75 Br:    0.016136
  76 H :   -0.010757
  77 H :   -0.003946
  78 H :   -0.003238
  79 H :    0.040211
  80 H :    0.142703
  81 H :    0.011738
  82 H :    0.020953
  83 H :   -0.014888
  84 H :    0.032125
  85 H :   -0.014842
  86 H :   -0.028401
  87 H :    0.011834
  88 H :   -0.000325
  89 H :   -0.003516
  90 H :   -0.004110
  91 H :    0.004165
  92 H :    0.009253
  93 H :    0.017188
  94 H :   -0.014162
  95 H :   -0.006627
  96 H :   -0.005659
Sum of atomic charges:   -0.0000000

LOEWDIN ATOMIC CHARGES
----------------------
   0 C :    0.071311
   1 C :   -0.130665
   2 C :   -0.017633
   3 N :   -0.047188
   4 C :   -0.029310
   5 N :   -0.035493
   6 C :   -0.020772
   7 C :   -0.051781
   8 C :    0.021945
   9 C :   -0.031504
  10 C :   -0.142683
  11 C :   -0.009005
  12 S :    0.435539
  13 C :   -0.270201
  14 C :   -0.070394
  15 Br:    0.140178
  16 C :    0.081120
  17 O :   -0.135806
  18 C :   -0.074763
  19 C :    0.045051
  20 C :    0.041463
  21 O :    0.046800
  22 C :   -0.058834
  23 C :    0.084633
  24 O :   -0.140204
  25 N :   -0.005525
  26 C :    0.085802
  27 O :   -0.155316
  28 C :   -0.106027
  29 C :    0.089583
  30 C :   -0.044672
  31 C :    0.010666
  32 C :   -0.160807
  33 S :    0.422306
  34 C :   -0.156153
  35 C :   -0.038876
  36 C :   -0.033785
  37 C :   -0.038859
  38 C :   -0.170893
  39 S :    0.428559
  40 C :   -0.157953
  41 C :   -0.061947
  42 C :   -0.049301
  43 C :   -0.030560
  44 C :   -0.034061
  45 C :   -0.151684
  46 C :   -0.011032
  47 C :   -0.032925
  48 C :   -0.152271
  49 S :    0.397824
  50 C :   -0.189557
  51 C :   -0.006125
  52 C :   -0.033401
  53 C :   -0.098997
  54 S :    0.401882
  55 C :   -0.069844
  56 C :    0.052904
  57 C :   -0.106747
  58 C :    0.069720
  59 C :   -0.152506
  60 C :   -0.019456
  61 N :   -0.064025
  62 C :   -0.023565
  63 N :   -0.063009
  64 C :   -0.016252
  65 C :   -0.051228
  66 C :    0.078411
  67 O :   -0.155927
  68 C :    0.019143
  69 C :   -0.036428
  70 C :   -0.144794
  71 C :   -0.015510
  72 S :    0.427781
  73 C :   -0.274738
  74 C :   -0.070604
  75 Br:    0.130904
  76 H :    0.040545
  77 H :    0.041652
  78 H :    0.039006
  79 H :    0.060906
  80 H :    0.097100
  81 H :    0.043349
  82 H :    0.041898
  83 H :    0.031959
  84 H :    0.027948
  85 H :    0.031432
  86 H :    0.031424
  87 H :    0.040420
  88 H :    0.037991
  89 H :    0.035582
  90 H :    0.035960
  91 H :    0.041009
  92 H :    0.038035
  93 H :    0.034659
  94 H :    0.039521
  95 H :    0.039883
  96 H :    0.037795

  Mayer bond orders larger than 0.100000
B(  0-C ,  1-C ) :   1.6573 B(  0-C ,  6-C ) :   1.0107 B(  0-C , 18-C ) :   1.0430
B(  1-C ,  2-C ) :   1.1357 B(  1-C ,  4-C ) :   1.1366 B(  2-C ,  3-N ) :   2.9771
B(  4-C ,  5-N ) :   3.0041 B(  6-C ,  7-C ) :   1.2732 B(  6-C , 11-C ) :   1.4061
B(  7-C ,  8-C ) :   1.4224 B(  7-C , 16-C ) :   0.9426 B(  8-C ,  9-C ) :   1.2517
B(  8-C , 76-H ) :   1.0158 B(  9-C , 10-C ) :   1.2999 B(  9-C , 14-C ) :   1.1639
B( 10-C , 11-C ) :   1.3353 B( 10-C , 12-S ) :   1.0866 B( 11-C , 77-H ) :   0.9811
B( 12-S , 13-C ) :   1.0870 B( 13-C , 14-C ) :   1.6172 B( 13-C , 15-Br) :   1.0209
B( 14-C , 78-H ) :   1.0008 B( 16-C , 17-O ) :   2.2308 B( 16-C , 18-C ) :   0.9221
B( 18-C , 19-C ) :   1.5748 B( 19-C , 20-C ) :   1.2086 B( 19-C , 79-H ) :   0.9371
B( 20-C , 21-O ) :   1.1538 B( 20-C , 22-C ) :   1.3772 B( 21-O , 29-C ) :   1.1997
B( 22-C , 23-C ) :   0.8647 B( 22-C , 28-C ) :   1.3178 B( 23-C , 24-O ) :   2.2685
B( 23-C , 25-N ) :   1.0861 B( 25-N , 26-C ) :   1.0740 B( 25-N , 80-H ) :   0.9131
B( 26-C , 27-O ) :   2.2744 B( 26-C , 28-C ) :   0.8784 B( 28-C , 29-C ) :   1.3332
B( 29-C , 30-C ) :   1.1943 B( 30-C , 31-C ) :   1.6452 B( 30-C , 81-H ) :   0.9566
B( 31-C , 32-C ) :   1.0913 B( 31-C , 82-H ) :   0.9674 B( 32-C , 33-S ) :   1.0913
B( 32-C , 36-C ) :   1.5246 B( 33-S , 34-C ) :   1.0645 B( 34-C , 35-C ) :   1.3253
B( 34-C , 43-C ) :   1.2978 B( 35-C , 36-C ) :   1.2326 B( 35-C , 37-C ) :   1.1884
B( 36-C , 83-H ) :   0.9912 B( 37-C , 38-C ) :   1.3616 B( 37-C , 41-C ) :   1.2133
B( 38-C , 39-S ) :   1.0918 B( 38-C , 42-C ) :   1.2910 B( 39-S , 40-C ) :   1.1412
B( 40-C , 41-C ) :   1.6118 B( 40-C , 84-H ) :   0.9669 B( 41-C , 85-H ) :   0.9946
B( 42-C , 43-C ) :   1.4263 B( 42-C , 44-C ) :   1.0209 B( 43-C , 86-H ) :   0.9987
B( 44-C , 45-C ) :   1.6869 B( 44-C , 87-H ) :   0.9657 B( 45-C , 46-C ) :   1.1061
B( 45-C , 49-S ) :   1.0285 B( 46-C , 47-C ) :   1.6294 B( 46-C , 88-H ) :   0.9978
B( 47-C , 48-C ) :   1.1604 B( 47-C , 89-H ) :   0.9944 B( 48-C , 49-S ) :   1.0771
B( 48-C , 50-C ) :   1.5067 B( 50-C , 51-C ) :   1.1988 B( 50-C , 54-S ) :   1.0398
B( 51-C , 52-C ) :   1.5656 B( 51-C , 90-H ) :   0.9944 B( 52-C , 53-C ) :   1.1675
B( 52-C , 91-H ) :   1.0001 B( 53-C , 54-S ) :   1.0831 B( 53-C , 55-C ) :   1.5134
B( 55-C , 56-C ) :   1.2078 B( 55-C , 92-H ) :   0.9621 B( 56-C , 57-C ) :   1.5423
B( 56-C , 93-H ) :   0.9370 B( 57-C , 58-C ) :   1.0820 B( 57-C , 66-C ) :   0.9642
B( 58-C , 59-C ) :   1.5970 B( 58-C , 64-C ) :   1.0053 B( 59-C , 60-C ) :   1.1321
B( 59-C , 62-C ) :   1.1683 B( 60-C , 61-N ) :   2.9734 B( 62-C , 63-N ) :   3.0073
B( 64-C , 65-C ) :   1.2767 B( 64-C , 71-C ) :   1.4203 B( 65-C , 66-C ) :   0.9209
B( 65-C , 68-C ) :   1.4330 B( 66-C , 67-O ) :   2.2439 B( 68-C , 69-C ) :   1.2442
B( 68-C , 94-H ) :   1.0164 B( 69-C , 70-C ) :   1.3161 B( 69-C , 74-C ) :   1.1613
B( 70-C , 71-C ) :   1.3202 B( 70-C , 72-S ) :   1.0830 B( 71-C , 95-H ) :   0.9807
B( 72-S , 73-C ) :   1.0858 B( 73-C , 74-C ) :   1.6212 B( 73-C , 75-Br) :   1.0145
B( 74-C , 96-H ) :   0.9997

-----------------------------------------------------------------------------
         ABSORPTION SPECTRUM VIA TRANSITION ELECTRIC DIPOLE MOMENTS
-----------------------------------------------------------------------------
State   Energy  Wavelength   fosc         T2         TX        TY        TZ
        (cm-1)    (nm)                  (au**2)     (au)      (au)      (au)
-----------------------------------------------------------------------------
   0   13462.6    742.8   1.548677550  37.87106  -2.88477   1.63865  -5.18305
   1   18114.9    552.0   0.701232427  12.74385  -2.62780  -1.93706   1.44441
   2   20519.8    487.3   0.229386369   3.68019   1.30167   1.22715  -0.69277
   3   22021.3    454.1   0.194115465   2.90197  -0.17033   1.12644   1.26653
   4   23002.4    434.7   0.110917714   1.58746   0.26820   0.48838  -1.13005
   5   24564.9    407.1   0.261918621   3.51017  -0.56020  -1.74567   0.38598
   6   25365.0    394.2   0.205202292   2.66331  -0.23712  -1.19314  -1.08789
   7   25848.1    386.9   0.046930207   0.59772   0.62166  -0.44353  -0.12056
   8   25987.0    384.8   0.040211645   0.50941   0.44253   0.55846  -0.04134
   9   26620.5    375.7   0.022839256   0.28245   0.35997   0.10803   0.37577
  10   27006.0    370.3   0.167609234   2.04321  -0.74576  -1.19412  -0.24724
  11   27232.4    367.2   0.150151262   1.81517   0.28406  -1.27237  -0.33994
  12   27644.0    361.7   0.103197531   1.22898   0.24600  -1.07988  -0.04814
  13   27851.0    359.1   0.040600336   0.47992   0.51239  -0.22056  -0.41076
  14   28420.3    351.9   0.143400260   1.66110  -0.50924  -1.03105   0.58199
  15   28961.8    345.3   0.010876154   0.12363   0.06069  -0.28257  -0.20025
  16   29113.5    343.5   0.058080757   0.65677   0.07450  -0.78101  -0.20307
  17   29142.0    343.1   0.004663577   0.05268   0.03372   0.15094   0.16960
  18   29535.3    338.6   0.211184600   2.35394   0.27800  -1.36437  -0.64432
  19   30363.9    329.3   0.120961069   1.31149   0.25641  -1.11259  -0.08874
  20   30910.6    323.5   0.128209042   1.36548   0.48801  -0.12805  -1.05401
  21   31978.0    312.7   0.047971091   0.49386  -0.50473  -0.44175  -0.20967
  22   32426.2    308.4   0.608002062   6.17284  -0.49375  -2.00775  -1.37768
  23   32688.4    305.9   0.280297523   2.82294  -0.59050   1.56436   0.16439
  24   32836.4    304.5   0.039786745   0.39889  -0.28151  -0.19247  -0.53160
  25   33017.7    302.9   0.444950758   4.43650  -0.72755   1.96747   0.19038
  26   33239.4    300.8   0.048200301   0.47739  -0.28356  -0.46808  -0.42176
  27   33706.8    296.7   0.061118381   0.59694  -0.31057   0.59279   0.38612
  28   33888.6    295.1   0.000287249   0.00279   0.04672  -0.02426   0.00438
  29   34032.2    293.8   0.020215287   0.19555  -0.10523  -0.17460  -0.39242
  30   34489.6    289.9   0.116408061   1.11115  -0.11035   0.81711   0.65673
  31   34551.7    289.4   0.086897610   0.82797  -0.17463   0.69793   0.55711
  32   34903.0    286.5   0.014530700   0.13706  -0.06581  -0.31727  -0.17907
  33   35286.6    283.4   0.024602402   0.22953  -0.02562  -0.47682   0.03901
  34   35615.9    280.8   0.025912644   0.23952   0.05457   0.26262  -0.40936
  35   35853.8    278.9   0.045790688   0.42045   0.00992   0.50820   0.40260
  36   36092.5    277.1   0.001279968   0.01168  -0.03608   0.09731   0.03008
  37   36332.3    275.2   0.082389257   0.74654  -0.33718   0.50592   0.61392
  38   36546.8    273.6   0.119819590   1.07933   0.42347  -0.94768  -0.04363
  39   36609.2    273.2   0.054724504   0.49212  -0.42373   0.10641  -0.54886
  40   36956.7    270.6   0.126949171   1.13087   0.18406  -0.94274  -0.45632
  41   37375.3    267.6   0.000433158   0.00382   0.02883   0.00733  -0.05413
  42   37464.5    266.9   0.009279214   0.08154   0.21737  -0.18505   0.00671
  43   37847.7    264.2   0.008343590   0.07258  -0.17931  -0.19829   0.03324
  44   38178.4    261.9   0.151789325   1.30888   0.44124   0.71384  -0.77757
  45   38686.9    258.5   0.018491403   0.15736  -0.13315  -0.10218  -0.35942
  46   38838.6    257.5   0.039350216   0.33355  -0.26775   0.19324   0.47383
  47   38858.4    257.3   0.045958224   0.38936  -0.16077   0.37855  -0.46927
  48   38967.8    256.6   0.064417981   0.54422   0.32577   0.03798  -0.66080
  49   39325.0    254.3   0.006114984   0.05119   0.09355   0.04645  -0.20071
  50   39426.1    253.6   0.042934787   0.35851   0.29483   0.05979  -0.51770
  51   39502.2    253.2   0.201944782   1.68301  -0.47938   1.20203   0.09124
  52   39812.0    251.2   0.059809981   0.49458  -0.14013   0.60595   0.32827
  53   39893.9    250.7   0.051007663   0.42093   0.12418  -0.35344  -0.52970
  54   40102.6    249.4   0.066272722   0.54405  -0.30703  -0.28743   0.60594

FINAL SINGLE POINT ENERGY    -10405.358092584589

DIPOLE MOMENT
-------------
                                X             Y             Z
Electronic contribution:   -123.75047     -12.77561     -15.81838
Nuclear contribution   :    126.52237      15.13895      16.35765
                        -----------------------------------------
Total Dipole Moment    :      2.77190       2.36334       0.53926
                        -----------------------------------------
Magnitude (a.u.)       :      3.68234
Magnitude (Debye)      :      9.35977

Rotational constants in cm-1:     0.000558     0.000173     0.000166
Rotational constants in MHz :    16.718860     5.175200     4.975480

                             ****ORCA TERMINATED NORMALLY****
TOTAL RUN TIME: 0 days 0 hours 14 minutes 5 seconds 171 msec
