                         Program Version 4.2.0 -  RELEASE  -
|  1> # ORCA input file
|  2> # SCF done       -184.870448859907          0.000920829735
|  3> ! CAM-B3LYP def2-SVP def2/J RIJCOSX Grid4 TightSCF
|  4> %maxcore 5000
|  5> %tddft
|  6>     Mode sTDDFT
|  7>     Ethresh 5.0
|  8>     maxcore 5000
|  9> end
| 10>
| 11> %pal
| 12>   nprocs 6
| 13>   end
| 14> * xyz 0 1
| 15>    C        5.91748         2.72838        -3.16209
| 16>    C        6.02621         3.45382        -4.31620
| 17>    F        7.16241         4.10451        -4.59786
| 18>    C        4.94923         3.52692        -5.22098
| 19>    F        5.08117         4.24562        -6.34463
| 20>    C        3.77732         2.87292        -4.95956
| 21>    C        3.63494         2.11864        -3.77946
| 22>    C        4.72319         2.04392        -2.86304
| 23>    C        4.60156         1.29450        -1.66894
| 24>    C        3.42834         0.64277        -1.39920
| 25>    C        2.34497         0.72355        -2.32206
| 26>    C        2.43361         1.43662        -3.48277
| 27>    C        1.21453        -0.04696        -1.79115
| 28>    O        0.11204        -0.20980        -2.31236
| 29>    C        1.65136        -0.58243        -0.50196
| 30>    C        3.01734        -0.18216        -0.26366
| 31>    C        3.80194        -0.51205         0.81213
| 32>    C        5.13540        -0.08799         0.97819
| 33>    N        6.22450         0.22500         1.16254
| 34>    C        3.37250        -1.32503         1.88011
| 35>    N        3.06108        -1.98423         2.76726
| 36>    C        0.80130        -1.31703         0.29454
| 37>    N       -0.44277        -1.57126        -0.12300
| 38>    C       -1.42770        -2.22139         0.54375
| 39>    S       -1.20956        -2.81828         2.15959
| 40>    C       -2.85737        -3.35815         2.15238
| 41>    N       -3.33926        -4.00527         3.29786
| 42>    O       -4.49679        -4.38130         3.28756
| 43>    O       -2.55716        -4.13787         4.22279
| 44>    C       -3.52317        -3.09121         0.98594
| 45>    C       -2.71554        -2.43904         0.03527
| 46>    C       -3.11795        -2.06561        -1.29555
| 47>    C       -4.39213        -1.98466        -1.72271
| 48>    C       -4.71971        -1.64989        -3.07708
| 49>    C       -5.94020        -1.41028        -3.58414
| 50>    C       -7.21758        -1.37197        -2.81583
| 51>    C       -6.06426        -1.04576        -5.04960
| 52>    N       -5.72625         0.34446        -5.26750
| 53>    C       -6.60778         1.34372        -5.05925
| 54>    C       -6.26885         2.66011        -5.00533
| 55>    C       -7.15491         3.73942        -4.80890
| 56>    C       -8.47140         3.73341        -4.42954
| 57>    C       -9.26888         4.89281        -4.24441
| 58>    C      -10.53049         4.65760        -3.79839
| 59>    C      -10.82356         3.28704        -3.59548
| 60>    S       -9.43226         2.31182        -4.01876
| 61>    C      -11.98931         2.72992        -3.12655
| 62>    C      -13.17835         3.40197        -2.74756
| 63>    C      -14.16207         2.59298        -2.28631
| 64>    C      -13.82060         1.20453        -2.26002
| 65>    S      -12.17811         0.99945        -2.88428
| 66>    C      -14.55094         0.13997        -1.86569
| 67>    C      -15.92553         0.22952        -1.28840
| 68>    C      -15.98748        -0.70745        -0.07619
| 69>    O      -15.49355        -0.52400         0.99397
| 70>    O      -16.68252        -1.81253        -0.38645
| 71>    C      -17.13884        -1.79740        -1.73306
| 72>    C      -17.08035        -0.31739        -2.15063
| 73>    C      -17.02047        -0.07603        -3.65425
| 74>    C      -16.00784        -0.95669        -4.37410
| 75>    C      -16.18440        -2.43819        -4.06820
| 76>    C      -16.28674        -2.77874        -2.57024
| 77>    O      -16.91256        -4.05640        -2.54030
| 78>    C      -17.64615        -4.26505        -3.64833
| 79>    O      -18.32830        -5.23098        -3.80764
| 80>    C      -17.44649        -3.10336        -4.61246
| 81>    H        6.75221         2.68302        -2.48020
| 82>    H        2.96188         2.93923        -5.66274
| 83>    H        5.44243         1.25949        -0.99558
| 84>    H        1.59875         1.48238        -4.16550
| 85>    H        1.09274        -1.69906         1.26401
| 86>    H       -0.65472        -1.17078        -1.05591
| 87>    H       -4.54575        -3.38279         0.83333
| 88>    H       -2.32526        -1.83207        -1.99474
| 89>    H       -5.20147        -2.17265        -1.03466
| 90>    H       -3.87109        -1.60062        -3.75049
| 91>    H       -7.07586        -1.58794        -1.76273
| 92>    H       -7.92305        -2.09323        -3.22886
| 93>    H       -7.67194        -0.38409        -2.90561
| 94>    H       -7.08824        -1.20393        -5.39354
| 95>    H       -5.38950        -1.65656        -5.65568
| 96>    H       -4.74647         0.57844        -5.18610
| 97>    H       -7.64062         1.03458        -5.01332
| 98>    H       -5.22608         2.91956        -5.13698
| 99>    H       -6.72735         4.72593        -4.94081
|100>    H       -8.87188         5.87299        -4.44417
|101>    H      -11.25440         5.42641        -3.59715
|102>    H      -13.26654         4.47106        -2.82687
|103>    H      -15.12253         2.94625        -1.95741
|104>    H      -14.10042        -0.84075        -1.90819
|105>    H      -16.12148         1.25272        -0.96716
|106>    H      -18.16653        -2.17700        -1.72252
|107>    H      -17.99499         0.15522        -1.77250
|108>    H      -16.77333         0.97207        -3.83149
|109>    H      -18.01633        -0.25041        -4.06757
|110>    H      -14.99970        -0.65703        -4.08736
|111>    H      -16.10323        -0.80743        -5.45113
|112>    H      -15.31822        -2.97768        -4.46796
|113>    H      -15.31079        -2.89184        -2.09058
|114>    H      -18.31878        -2.45048        -4.55302
|115>    H      -17.35520        -3.46361        -5.63459
|116> *
|117>
|118>                          ****END OF INPUT****

CARTESIAN COORDINATES (ANGSTROEM)
---------------------------------
  C      5.917480    2.728380   -3.162090
  C      6.026210    3.453820   -4.316200
  F      7.162410    4.104510   -4.597860
  C      4.949230    3.526920   -5.220980
  F      5.081170    4.245620   -6.344630
  C      3.777320    2.872920   -4.959560
  C      3.634940    2.118640   -3.779460
  C      4.723190    2.043920   -2.863040
  C      4.601560    1.294500   -1.668940
  C      3.428340    0.642770   -1.399200
  C      2.344970    0.723550   -2.322060
  C      2.433610    1.436620   -3.482770
  C      1.214530   -0.046960   -1.791150
  O      0.112040   -0.209800   -2.312360
  C      1.651360   -0.582430   -0.501960
  C      3.017340   -0.182160   -0.263660
  C      3.801940   -0.512050    0.812130
  C      5.135400   -0.087990    0.978190
  N      6.224500    0.225000    1.162540
  C      3.372500   -1.325030    1.880110
  N      3.061080   -1.984230    2.767260
  C      0.801300   -1.317030    0.294540
  N     -0.442770   -1.571260   -0.123000
  C     -1.427700   -2.221390    0.543750
  S     -1.209560   -2.818280    2.159590
  C     -2.857370   -3.358150    2.152380
  N     -3.339260   -4.005270    3.297860
  O     -4.496790   -4.381300    3.287560
  O     -2.557160   -4.137870    4.222790
  C     -3.523170   -3.091210    0.985940
  C     -2.715540   -2.439040    0.035270
  C     -3.117950   -2.065610   -1.295550
  C     -4.392130   -1.984660   -1.722710
  C     -4.719710   -1.649890   -3.077080
  C     -5.940200   -1.410280   -3.584140
  C     -7.217580   -1.371970   -2.815830
  C     -6.064260   -1.045760   -5.049600
  N     -5.726250    0.344460   -5.267500
  C     -6.607780    1.343720   -5.059250
  C     -6.268850    2.660110   -5.005330
  C     -7.154910    3.739420   -4.808900
  C     -8.471400    3.733410   -4.429540
  C     -9.268880    4.892810   -4.244410
  C    -10.530490    4.657600   -3.798390
  C    -10.823560    3.287040   -3.595480
  S     -9.432260    2.311820   -4.018760
  C    -11.989310    2.729920   -3.126550
  C    -13.178350    3.401970   -2.747560
  C    -14.162070    2.592980   -2.286310
  C    -13.820600    1.204530   -2.260020
  S    -12.178110    0.999450   -2.884280
  C    -14.550940    0.139970   -1.865690
  C    -15.925530    0.229520   -1.288400
  C    -15.987480   -0.707450   -0.076190
  O    -15.493550   -0.524000    0.993970
  O    -16.682520   -1.812530   -0.386450
  C    -17.138840   -1.797400   -1.733060
  C    -17.080350   -0.317390   -2.150630
  C    -17.020470   -0.076030   -3.654250
  C    -16.007840   -0.956690   -4.374100
  C    -16.184400   -2.438190   -4.068200
  C    -16.286740   -2.778740   -2.570240
  O    -16.912560   -4.056400   -2.540300
  C    -17.646150   -4.265050   -3.648330
  O    -18.328300   -5.230980   -3.807640
  C    -17.446490   -3.103360   -4.612460
  H      6.752210    2.683020   -2.480200
  H      2.961880    2.939230   -5.662740
  H      5.442430    1.259490   -0.995580
  H      1.598750    1.482380   -4.165500
  H      1.092740   -1.699060    1.264010
  H     -0.654720   -1.170780   -1.055910
  H     -4.545750   -3.382790    0.833330
  H     -2.325260   -1.832070   -1.994740
  H     -5.201470   -2.172650   -1.034660
  H     -3.871090   -1.600620   -3.750490
  H     -7.075860   -1.587940   -1.762730
  H     -7.923050   -2.093230   -3.228860
  H     -7.671940   -0.384090   -2.905610
  H     -7.088240   -1.203930   -5.393540
  H     -5.389500   -1.656560   -5.655680
  H     -4.746470    0.578440   -5.186100
  H     -7.640620    1.034580   -5.013320
  H     -5.226080    2.919560   -5.136980
  H     -6.727350    4.725930   -4.940810
  H     -8.871880    5.872990   -4.444170
  H    -11.254400    5.426410   -3.597150
  H    -13.266540    4.471060   -2.826870
  H    -15.122530    2.946250   -1.957410
  H    -14.100420   -0.840750   -1.908190
  H    -16.121480    1.252720   -0.967160
  H    -18.166530   -2.177000   -1.722520
  H    -17.994990    0.155220   -1.772500
  H    -16.773330    0.972070   -3.831490
  H    -18.016330   -0.250410   -4.067570
  H    -14.999700   -0.657030   -4.087360
  H    -16.103230   -0.807430   -5.451130
  H    -15.318220   -2.977680   -4.467960
  H    -15.310790   -2.891840   -2.090580
  H    -18.318780   -2.450480   -4.553020
  H    -17.355200   -3.463610   -5.634590

 Total Charge           Charge          ....    0
 Multiplicity           Mult            ....    1
 Number of Electrons    NEL             ....  486
 Basis Dimension        Dim             .... 1111

ORBITAL ENERGIES
----------------

  NO   OCC          E(Eh)            E(eV)
   0   2.0000     -88.995675     -2421.6954
   1   2.0000     -88.942909     -2420.2596
   2   2.0000     -88.935897     -2420.0688
   3   2.0000     -24.806706      -675.0248
   4   2.0000     -24.805468      -674.9911
   5   2.0000     -19.256575      -523.9980
   6   2.0000     -19.254447      -523.9401
   7   2.0000     -19.243630      -523.6458
   8   2.0000     -19.242689      -523.6202
   9   2.0000     -19.242159      -523.6058
  10   2.0000     -19.192730      -522.2607
  11   2.0000     -19.192301      -522.2491
  12   2.0000     -14.654932      -398.7810
  13   2.0000     -14.504968      -394.7002
  14   2.0000     -14.446546      -393.1105
  15   2.0000     -14.426367      -392.5614
  16   2.0000     -14.421789      -392.4368
  17   2.0000     -10.391330      -282.7625
  18   2.0000     -10.390549      -282.7412
  19   2.0000     -10.389868      -282.7227
  20   2.0000     -10.389840      -282.7219
  21   2.0000     -10.389100      -282.7018
  22   2.0000     -10.379457      -282.4394
  23   2.0000     -10.376654      -282.3631
  24   2.0000     -10.354107      -281.7496
  25   2.0000     -10.353488      -281.7327
  26   2.0000     -10.349539      -281.6253
  27   2.0000     -10.338840      -281.3341
  28   2.0000     -10.338327      -281.3202
  29   2.0000     -10.328545      -281.0540
  30   2.0000     -10.324933      -280.9557
  31   2.0000     -10.323713      -280.9225
  32   2.0000     -10.322089      -280.8783
  33   2.0000     -10.320497      -280.8350
  34   2.0000     -10.320115      -280.8246
  35   2.0000     -10.318212      -280.7728
  36   2.0000     -10.316846      -280.7357
  37   2.0000     -10.315594      -280.7016
  38   2.0000     -10.313225      -280.6371
  39   2.0000     -10.312467      -280.6165
  40   2.0000     -10.310986      -280.5762
  41   2.0000     -10.309436      -280.5340
  42   2.0000     -10.308323      -280.5037
  43   2.0000     -10.307377      -280.4780
  44   2.0000     -10.306848      -280.4636
  45   2.0000     -10.306070      -280.4424
  46   2.0000     -10.299728      -280.2699
  47   2.0000     -10.297431      -280.2073
  48   2.0000     -10.295341      -280.1505
  49   2.0000     -10.294686      -280.1327
  50   2.0000     -10.293048      -280.0881
  51   2.0000     -10.292381      -280.0699
  52   2.0000     -10.292082      -280.0618
  53   2.0000     -10.291328      -280.0413
  54   2.0000     -10.287841      -279.9464
  55   2.0000     -10.284671      -279.8601
  56   2.0000     -10.283022      -279.8152
  57   2.0000     -10.282726      -279.8072
  58   2.0000     -10.281485      -279.7734
  59   2.0000     -10.279851      -279.7290
  60   2.0000     -10.279543      -279.7206
  61   2.0000     -10.278324      -279.6874
  62   2.0000     -10.277234      -279.6577
  63   2.0000     -10.275771      -279.6179
  64   2.0000     -10.274359      -279.5795
  65   2.0000     -10.261430      -279.2277
  66   2.0000      -8.090905      -220.1647
  67   2.0000      -8.038540      -218.7398
  68   2.0000      -8.032301      -218.5700
  69   2.0000      -6.060500      -164.9146
  70   2.0000      -6.056210      -164.7978
  71   2.0000      -6.052389      -164.6939
  72   2.0000      -6.008308      -163.4944
  73   2.0000      -6.004296      -163.3852
  74   2.0000      -6.002184      -163.3277
  75   2.0000      -5.999542      -163.2558
  76   2.0000      -5.998290      -163.2218
  77   2.0000      -5.992791      -163.0721
  78   2.0000      -1.328914       -36.1616
  79   2.0000      -1.324320       -36.0366
  80   2.0000      -1.314051       -35.7571
  81   2.0000      -1.195937       -32.5431
  82   2.0000      -1.187607       -32.3164
  83   2.0000      -1.156311       -31.4648
  84   2.0000      -1.143542       -31.1174
  85   2.0000      -1.111816       -30.2541
  86   2.0000      -1.103994       -30.0412
  87   2.0000      -1.098632       -29.8953
  88   2.0000      -1.048142       -28.5214
  89   2.0000      -1.029899       -28.0250
  90   2.0000      -1.016403       -27.6577
  91   2.0000      -1.014464       -27.6050
  92   2.0000      -1.002659       -27.2837
  93   2.0000      -0.991347       -26.9759
  94   2.0000      -0.987828       -26.8802
  95   2.0000      -0.966610       -26.3028
  96   2.0000      -0.946294       -25.7500
  97   2.0000      -0.942255       -25.6401
  98   2.0000      -0.937574       -25.5127
  99   2.0000      -0.921672       -25.0800
 100   2.0000      -0.910851       -24.7855
 101   2.0000      -0.908869       -24.7316
 102   2.0000      -0.902632       -24.5619
 103   2.0000      -0.896637       -24.3987
 104   2.0000      -0.889625       -24.2079
 105   2.0000      -0.871600       -23.7174
 106   2.0000      -0.869414       -23.6580
 107   2.0000      -0.858499       -23.3610
 108   2.0000      -0.851167       -23.1614
 109   2.0000      -0.850291       -23.1376
 110   2.0000      -0.844032       -22.9673
 111   2.0000      -0.837268       -22.7832
 112   2.0000      -0.825679       -22.4679
 113   2.0000      -0.823720       -22.4146
 114   2.0000      -0.816021       -22.2051
 115   2.0000      -0.804345       -21.8873
 116   2.0000      -0.795774       -21.6541
 117   2.0000      -0.784024       -21.3344
 118   2.0000      -0.779917       -21.2226
 119   2.0000      -0.769917       -20.9505
 120   2.0000      -0.756413       -20.5831
 121   2.0000      -0.747984       -20.3537
 122   2.0000      -0.739238       -20.1157
 123   2.0000      -0.736406       -20.0386
 124   2.0000      -0.726800       -19.7772
 125   2.0000      -0.725936       -19.7537
 126   2.0000      -0.714647       -19.4465
 127   2.0000      -0.703762       -19.1503
 128   2.0000      -0.697092       -18.9688
 129   2.0000      -0.691293       -18.8110
 130   2.0000      -0.684115       -18.6157
 131   2.0000      -0.671886       -18.2829
 132   2.0000      -0.666842       -18.1457
 133   2.0000      -0.665553       -18.1106
 134   2.0000      -0.661299       -17.9948
 135   2.0000      -0.656927       -17.8759
 136   2.0000      -0.655331       -17.8325
 137   2.0000      -0.651020       -17.7152
 138   2.0000      -0.639900       -17.4126
 139   2.0000      -0.636123       -17.3098
 140   2.0000      -0.635614       -17.2959
 141   2.0000      -0.633885       -17.2489
 142   2.0000      -0.627587       -17.0775
 143   2.0000      -0.623984       -16.9795
 144   2.0000      -0.617435       -16.8012
 145   2.0000      -0.616102       -16.7650
 146   2.0000      -0.614880       -16.7317
 147   2.0000      -0.612373       -16.6635
 148   2.0000      -0.605774       -16.4840
 149   2.0000      -0.604876       -16.4595
 150   2.0000      -0.593902       -16.1609
 151   2.0000      -0.593748       -16.1567
 152   2.0000      -0.592055       -16.1106
 153   2.0000      -0.589654       -16.0453
 154   2.0000      -0.584539       -15.9061
 155   2.0000      -0.578780       -15.7494
 156   2.0000      -0.573533       -15.6066
 157   2.0000      -0.569685       -15.5019
 158   2.0000      -0.567067       -15.4307
 159   2.0000      -0.566430       -15.4133
 160   2.0000      -0.565117       -15.3776
 161   2.0000      -0.563035       -15.3210
 162   2.0000      -0.555136       -15.1060
 163   2.0000      -0.554203       -15.0806
 164   2.0000      -0.550520       -14.9804
 165   2.0000      -0.546807       -14.8794
 166   2.0000      -0.544703       -14.8221
 167   2.0000      -0.540757       -14.7147
 168   2.0000      -0.540452       -14.7064
 169   2.0000      -0.538768       -14.6606
 170   2.0000      -0.535407       -14.5692
 171   2.0000      -0.534360       -14.5407
 172   2.0000      -0.530779       -14.4432
 173   2.0000      -0.529839       -14.4177
 174   2.0000      -0.525652       -14.3037
 175   2.0000      -0.522199       -14.2098
 176   2.0000      -0.518481       -14.1086
 177   2.0000      -0.513304       -13.9677
 178   2.0000      -0.512233       -13.9386
 179   2.0000      -0.508602       -13.8398
 180   2.0000      -0.508142       -13.8272
 181   2.0000      -0.501575       -13.6486
 182   2.0000      -0.499829       -13.6010
 183   2.0000      -0.499077       -13.5806
 184   2.0000      -0.498087       -13.5536
 185   2.0000      -0.490725       -13.3533
 186   2.0000      -0.489282       -13.3140
 187   2.0000      -0.487607       -13.2685
 188   2.0000      -0.486691       -13.2435
 189   2.0000      -0.481231       -13.0950
 190   2.0000      -0.481014       -13.0890
 191   2.0000      -0.474272       -12.9056
 192   2.0000      -0.473606       -12.8875
 193   2.0000      -0.472837       -12.8665
 194   2.0000      -0.468844       -12.7579
 195   2.0000      -0.467458       -12.7202
 196   2.0000      -0.462905       -12.5963
 197   2.0000      -0.459649       -12.5077
 198   2.0000      -0.459229       -12.4963
 199   2.0000      -0.456472       -12.4212
 200   2.0000      -0.456217       -12.4143
 201   2.0000      -0.455480       -12.3942
 202   2.0000      -0.453536       -12.3413
 203   2.0000      -0.451634       -12.2896
 204   2.0000      -0.449720       -12.2375
 205   2.0000      -0.448399       -12.2016
 206   2.0000      -0.443672       -12.0729
 207   2.0000      -0.442359       -12.0372
 208   2.0000      -0.438192       -11.9238
 209   2.0000      -0.435690       -11.8557
 210   2.0000      -0.435537       -11.8516
 211   2.0000      -0.433948       -11.8083
 212   2.0000      -0.427241       -11.6258
 213   2.0000      -0.424645       -11.5552
 214   2.0000      -0.421056       -11.4575
 215   2.0000      -0.420165       -11.4333
 216   2.0000      -0.418547       -11.3892
 217   2.0000      -0.415248       -11.2995
 218   2.0000      -0.404990       -11.0203
 219   2.0000      -0.398530       -10.8445
 220   2.0000      -0.397250       -10.8097
 221   2.0000      -0.393506       -10.7079
 222   2.0000      -0.393147       -10.6981
 223   2.0000      -0.390347       -10.6219
 224   2.0000      -0.385099       -10.4791
 225   2.0000      -0.383100       -10.4247
 226   2.0000      -0.380799       -10.3621
 227   2.0000      -0.372167       -10.1272
 228   2.0000      -0.365541        -9.9469
 229   2.0000      -0.365245        -9.9388
 230   2.0000      -0.353664        -9.6237
 231   2.0000      -0.352570        -9.5939
 232   2.0000      -0.345223        -9.3940
 233   2.0000      -0.336910        -9.1678
 234   2.0000      -0.334798        -9.1103
 235   2.0000      -0.329541        -8.9673
 236   2.0000      -0.329336        -8.9617
 237   2.0000      -0.318698        -8.6722
 238   2.0000      -0.316724        -8.6185
 239   2.0000      -0.305451        -8.3118
 240   2.0000      -0.276969        -7.5367
 241   2.0000      -0.268551        -7.3076
 242   2.0000      -0.207175        -5.6375
 243   0.0000      -0.098577        -2.6824
 244   0.0000      -0.077348        -2.1048
 245   0.0000      -0.058303        -1.5865
 246   0.0000      -0.053377        -1.4525
 247   0.0000      -0.035298        -0.9605

MULLIKEN ATOMIC CHARGES
-----------------------
   0 C :   -0.110999
   1 C :    0.244729
   2 F :   -0.168424
   3 C :    0.239973
   4 F :   -0.170419
   5 C :   -0.109633
   6 C :    0.120912
   7 C :    0.118030
   8 C :   -0.088985
   9 C :    0.045830
  10 C :    0.008080
  11 C :   -0.085860
  12 C :    0.175072
  13 O :   -0.228723
  14 C :   -0.142355
  15 C :    0.336208
  16 C :   -0.345327
  17 C :   -0.181137
  18 N :    0.151050
  19 C :   -0.196634
  20 N :    0.145446
  21 C :    0.034190
  22 N :   -0.003322
  23 C :   -0.126876
  24 S :    0.181990
  25 C :    0.003045
  26 N :    0.274239
  27 O :   -0.244569
  28 O :   -0.253364
  29 C :    0.003691
  30 C :    0.143801
  31 C :   -0.059315
  32 C :    0.019765
  33 C :    0.003570
  34 C :   -0.170319
  35 C :    0.095349
  36 C :    0.184401
  37 N :   -0.145096
  38 C :    0.054862
  39 C :   -0.043033
  40 C :    0.013104
  41 C :   -0.045978
  42 C :    0.043224
  43 C :    0.010793
  44 C :   -0.028111
  45 S :    0.026908
  46 C :   -0.059860
  47 C :    0.024319
  48 C :    0.021116
  49 C :   -0.016570
  50 S :    0.059052
  51 C :   -0.040289
  52 C :   -0.053556
  53 C :    0.172354
  54 O :   -0.153320
  55 O :   -0.258035
  56 C :    0.167793
  57 C :   -0.086154
  58 C :    0.103096
  59 C :    0.108910
  60 C :   -0.141670
  61 C :    0.155632
  62 O :   -0.263548
  63 C :    0.140702
  64 O :   -0.160349
  65 C :    0.022330
  66 H :    0.011116
  67 H :   -0.000619
  68 H :   -0.002870
  69 H :   -0.012810
  70 H :    0.047819
  71 H :    0.182417
  72 H :    0.014571
  73 H :   -0.005250
  74 H :   -0.006956
  75 H :   -0.029271
  76 H :    0.012495
  77 H :    0.030100
  78 H :    0.033473
  79 H :    0.014477
  80 H :    0.023223
  81 H :    0.117034
  82 H :    0.023062
  83 H :   -0.031110
  84 H :   -0.016115
  85 H :   -0.017075
  86 H :   -0.020247
  87 H :   -0.014824
  88 H :   -0.021454
  89 H :   -0.014180
  90 H :    0.026700
  91 H :    0.015355
  92 H :    0.013250
  93 H :    0.007065
  94 H :    0.002296
  95 H :    0.021278
  96 H :    0.004792
  97 H :    0.017463
  98 H :    0.020084
  99 H :    0.040654
 100 H :    0.042322
Sum of atomic charges:   -0.0000000

LOEWDIN ATOMIC CHARGES
----------------------
   0 C :   -0.027759
   1 C :    0.068603
   2 F :   -0.046954
   3 C :    0.068755
   4 F :   -0.048752
   5 C :   -0.033060
   6 C :   -0.010111
   7 C :   -0.005701
   8 C :    0.020360
   9 C :   -0.019748
  10 C :   -0.052184
  11 C :    0.030654
  12 C :    0.095816
  13 O :   -0.183361
  14 C :   -0.147205
  15 C :    0.077897
  16 C :   -0.147646
  17 C :   -0.019191
  18 N :   -0.053120
  19 C :   -0.020951
  20 N :   -0.051425
  21 C :    0.115616
  22 N :    0.084369
  23 C :   -0.119483
  24 S :    0.473263
  25 C :   -0.197664
  26 N :    0.273526
  27 O :   -0.210921
  28 O :   -0.220834
  29 C :    0.002476
  30 C :   -0.080448
  31 C :   -0.039575
  32 C :   -0.005613
  33 C :   -0.054030
  34 C :   -0.026884
  35 C :   -0.047429
  36 C :    0.045292
  37 N :    0.008715
  38 C :    0.044674
  39 C :   -0.133607
  40 C :   -0.030255
  41 C :   -0.179977
  42 C :   -0.019671
  43 C :   -0.061459
  44 C :   -0.166597
  45 S :    0.354988
  46 C :   -0.199049
  47 C :   -0.015803
  48 C :   -0.058895
  49 C :   -0.134698
  50 S :    0.336139
  51 C :   -0.077183
  52 C :   -0.054517
  53 C :    0.079260
  54 O :   -0.144243
  55 O :   -0.069823
  56 C :    0.067823
  57 C :   -0.035778
  58 C :   -0.026333
  59 C :   -0.028692
  60 C :   -0.039567
  61 C :    0.065523
  62 O :   -0.075731
  63 C :    0.074291
  64 O :   -0.149276
  65 C :   -0.059133
  66 H :    0.048991
  67 H :    0.044457
  68 H :    0.041399
  69 H :    0.039351
  70 H :    0.037313
  71 H :    0.085021
  72 H :    0.045953
  73 H :    0.028522
  74 H :    0.027173
  75 H :    0.022732
  76 H :    0.029727
  77 H :    0.038835
  78 H :    0.038276
  79 H :    0.030463
  80 H :    0.031919
  81 H :    0.077446
  82 H :    0.011314
  83 H :    0.022297
  84 H :    0.034978
  85 H :    0.031950
  86 H :    0.028539
  87 H :    0.032332
  88 H :    0.026997
  89 H :    0.018378
  90 H :    0.042644
  91 H :    0.029427
  92 H :    0.034603
  93 H :    0.032790
  94 H :    0.022816
  95 H :    0.029404
  96 H :    0.030067
  97 H :    0.034173
  98 H :    0.027106
  99 H :    0.040045
 100 H :    0.044862

  Mayer bond orders larger than 0.100000
B(  0-C ,  1-C ) :   1.4363 B(  0-C ,  5-C ) :   0.1082 B(  0-C ,  7-C ) :   1.1935
B(  0-C , 66-H ) :   1.0064 B(  1-C ,  2-F ) :   1.1381 B(  1-C ,  3-C ) :   1.1948
B(  3-C ,  4-F ) :   1.1355 B(  3-C ,  5-C ) :   1.4403 B(  5-C ,  6-C ) :   1.1932
B(  5-C , 67-H ) :   1.0064 B(  6-C ,  7-C ) :   1.2583 B(  6-C , 11-C ) :   1.1837
B(  7-C ,  8-C ) :   1.2060 B(  8-C ,  9-C ) :   1.4669 B(  8-C , 68-H ) :   0.9894
B(  9-C , 10-C ) :   1.2202 B(  9-C , 15-C ) :   0.9845 B( 10-C , 11-C ) :   1.4700
B( 10-C , 12-C ) :   0.9798 B( 11-C , 69-H ) :   1.0176 B( 12-C , 13-O ) :   2.0246
B( 12-C , 14-C ) :   1.0135 B( 13-O , 71-H ) :   0.1476 B( 14-C , 15-C ) :   1.1038
B( 14-C , 21-C ) :   1.4305 B( 15-C , 16-C ) :   1.6269 B( 16-C , 17-C ) :   1.1492
B( 16-C , 19-C ) :   1.1471 B( 17-C , 18-N ) :   2.9605 B( 19-C , 20-N ) :   2.9541
B( 21-C , 22-N ) :   1.3568 B( 21-C , 70-H ) :   0.9322 B( 22-N , 23-C ) :   1.1873
B( 22-N , 71-H ) :   0.8197 B( 23-C , 24-S ) :   1.1327 B( 23-C , 30-C ) :   1.3844
B( 24-S , 25-C ) :   1.0886 B( 25-C , 26-N ) :   0.9630 B( 25-C , 29-C ) :   1.5013
B( 26-N , 27-O ) :   1.5359 B( 26-N , 28-O ) :   1.5163 B( 27-O , 28-O ) :   0.2645
B( 29-C , 30-C ) :   1.2242 B( 29-C , 72-H ) :   1.0000 B( 30-C , 31-C ) :   1.0393
B( 31-C , 32-C ) :   1.7494 B( 31-C , 73-H ) :   0.9724 B( 32-C , 33-C ) :   1.0977
B( 32-C , 74-H ) :   0.9731 B( 33-C , 34-C ) :   1.7639 B( 33-C , 75-H ) :   0.9751
B( 34-C , 35-C ) :   1.0880 B( 34-C , 36-C ) :   1.0141 B( 35-C , 76-H ) :   0.9530
B( 35-C , 77-H ) :   0.9422 B( 35-C , 78-H ) :   0.9406 B( 36-C , 37-N ) :   1.0303
B( 36-C , 79-H ) :   0.9353 B( 36-C , 80-H ) :   0.9463 B( 37-N , 38-C ) :   1.2385
B( 37-N , 81-H ) :   0.9407 B( 38-C , 39-C ) :   1.5711 B( 38-C , 82-H ) :   0.9454
B( 39-C , 40-C ) :   1.2205 B( 39-C , 83-H ) :   0.9611 B( 40-C , 41-C ) :   1.5943
B( 40-C , 84-H ) :   0.9596 B( 41-C , 42-C ) :   1.1512 B( 41-C , 45-S ) :   1.0025
B( 42-C , 43-C ) :   1.5991 B( 42-C , 85-H ) :   0.9967 B( 43-C , 44-C ) :   1.1735
B( 43-C , 86-H ) :   0.9920 B( 44-C , 45-S ) :   1.0441 B( 44-C , 46-C ) :   1.5417
B( 46-C , 47-C ) :   1.1754 B( 46-C , 50-S ) :   1.0163 B( 47-C , 48-C ) :   1.6375
B( 47-C , 87-H ) :   0.9918 B( 48-C , 49-C ) :   1.1080 B( 48-C , 88-H ) :   0.9856
B( 49-C , 50-S ) :   1.0245 B( 49-C , 51-C ) :   1.7415 B( 51-C , 52-C ) :   1.0271
B( 51-C , 89-H ) :   0.9326 B( 52-C , 53-C ) :   0.8902 B( 52-C , 57-C ) :   0.9909
B( 52-C , 90-H ) :   0.9049 B( 53-C , 54-O ) :   2.2502 B( 53-C , 55-O ) :   1.1282
B( 55-O , 56-C ) :   0.9653 B( 56-C , 57-C ) :   1.0144 B( 56-C , 61-C ) :   0.9721
B( 56-C , 91-H ) :   0.9177 B( 57-C , 58-C ) :   1.0647 B( 57-C , 92-H ) :   0.9076
B( 58-C , 59-C ) :   1.0601 B( 58-C , 93-H ) :   0.9236 B( 58-C , 94-H ) :   0.9362
B( 59-C , 60-C ) :   1.0694 B( 59-C , 95-H ) :   0.9281 B( 59-C , 96-H ) :   0.9243
B( 60-C , 61-C ) :   1.0199 B( 60-C , 65-C ) :   1.0210 B( 60-C , 97-H ) :   0.9158
B( 61-C , 62-O ) :   0.9571 B( 61-C , 98-H ) :   0.9135 B( 62-O , 63-C ) :   1.1215
B( 63-C , 64-O ) :   2.2345 B( 63-C , 65-C ) :   0.9608 B( 65-C , 99-H ) :   0.9277
B( 65-C ,100-H ) :   0.9307

-----------------------------------------------------------------------------
         ABSORPTION SPECTRUM VIA TRANSITION ELECTRIC DIPOLE MOMENTS
-----------------------------------------------------------------------------
State   Energy  Wavelength   fosc         T2         TX        TY        TZ
        (cm-1)    (nm)                  (au**2)     (au)      (au)      (au)
-----------------------------------------------------------------------------
   0   14644.8    682.8   0.049492946   1.11259  -1.05408   0.03111  -0.02321
   1   18558.2    538.8   1.208179874  21.43247  -4.44430  -0.31362   1.25789
   2   19556.9    511.3   0.002834495   0.04771  -0.21421  -0.00064   0.04275
   3   21518.0    464.7   0.757452370  11.58855   3.10408   1.31087  -0.48459
   4   23489.2    425.7   0.050832356   0.71244  -0.40849  -0.46870   0.57087
   5   25646.7    389.9   0.093017549   1.19401   0.04734   0.52936  -0.95475
   6   25765.9    388.1   0.020043324   0.25609   0.13012   0.39683  -0.28581
   7   28136.4    355.4   0.075678875   0.88548  -0.72533  -0.51629   0.30468
   8   28748.1    347.8   0.038650456   0.44261  -0.12729  -0.56038   0.33523
   9   29457.9    339.5   0.074971597   0.83786  -0.12231  -0.51642   0.74579
  10   29908.5    334.4   0.058574722   0.64475  -0.23088  -0.44138   0.62978
  11   30526.5    327.6   0.108815014   1.17351   1.05798   0.15264   0.17577
  12   31402.9    318.4   0.493054672   5.16894  -0.73545  -1.29868   1.71508
  13   32031.5    312.2   0.170376526   1.75109   0.07926   1.30735  -0.18880
  14   33145.6    301.7   0.318470574   3.16315   0.08292  -1.40248   1.09055
  15   33193.1    301.3   0.088311629   0.87588   0.39585  -0.75979  -0.37670
  16   33264.0    300.6   0.002365963   0.02342  -0.01198  -0.13276  -0.07515
  17   33525.2    298.3   0.022724949   0.22315   0.28534  -0.20686  -0.31456
  18   34448.9    290.3   0.652241413   6.23317   0.41989   1.54797  -1.91328
  19   34581.5    289.2   0.000223546   0.00213  -0.03509  -0.00518   0.02949
  20   34927.8    286.3   0.105942782   0.99856   0.04273   0.11145   0.99213
  21   35218.3    283.9   0.018095907   0.16916   0.11302   0.19267  -0.34534
  22   36105.5    277.0   0.032607584   0.29732  -0.03960   0.36285  -0.40508
  23   36501.0    274.0   0.726648757   6.55384  -1.48452   0.54181  -2.01407
  24   36673.6    272.7   0.001243742   0.01116  -0.07519   0.00516  -0.07405
  25   37480.1    266.8   0.056904296   0.49983   0.38634  -0.22250   0.54869
  26   38048.2    262.8   0.138645669   1.19963  -1.01859  -0.40042   0.04197
  27   39011.1    256.3   0.012881099   0.10870  -0.26657  -0.11838   0.15372
  28   39303.5    254.4   0.002696725   0.02259   0.04450   0.08665  -0.11446
  29   40066.4    249.6   0.018955467   0.15575   0.32620   0.06075   0.21367

FINAL SINGLE POINT ENERGY     -4078.796179551640

DIPOLE MOMENT
-------------
                                X             Y             Z
Electronic contribution:    124.00400       5.56029      28.00199
Nuclear contribution   :   -123.33941      -2.45215     -33.04952
                        -----------------------------------------
Total Dipole Moment    :      0.66459       3.10814      -5.04753
                        -----------------------------------------
Magnitude (a.u.)       :      5.96488
Magnitude (Debye)      :     15.16151

Rotational constants in cm-1:     0.001430     0.000270     0.000239
Rotational constants in MHz :    42.864394     8.085135     7.173057

                             ****ORCA TERMINATED NORMALLY****
TOTAL RUN TIME: 0 days 0 hours 19 minutes 33 seconds 164 msec
