                         Program Version 4.2.0 -  RELEASE  -
|  1> # ORCA input file
|  2> # SCF done       -166.307033574615          0.000586328798
|  3> ! CAM-B3LYP def2-SVP def2/J RIJCOSX Grid4 TightSCF
|  4> %maxcore 5000
|  5> %tddft
|  6>     Mode sTDDFT
|  7>     Ethresh 5.0
|  8>     maxcore 5000
|  9> end
| 10>
| 11> %pal
| 12>   nprocs 6
| 13>   end
| 14> * xyz 0 1
| 15>    C        3.02507       -14.47456         4.21109
| 16>    C        3.49134       -14.86561         3.01824
| 17>    C        3.83090       -16.19703         2.60059
| 18>    C        4.28256       -16.28701         1.33173
| 19>    C        4.34138       -15.04271         0.63975
| 20>    S        3.78807       -13.74416         1.68037
| 21>    C        4.75616       -14.82229        -0.64816
| 22>    C        5.22379       -15.76872        -1.59795
| 23>    C        5.54970       -15.23373        -2.79881
| 24>    C        5.37293       -13.82085        -2.88478
| 25>    S        4.76669       -13.21155        -1.34659
| 26>    C        5.55777       -13.07890        -4.01170
| 27>    N        5.42206       -11.72764        -4.14211
| 28>    C        5.63320       -10.78161        -3.19499
| 29>    S        6.74462       -11.00288        -1.87814
| 30>    C        6.60131        -9.31570        -1.48669
| 31>    N        7.31280        -8.84283        -0.39168
| 32>    O        7.21776        -7.65595        -0.11518
| 33>    O        7.99741        -9.65317         0.21816
| 34>    C        5.75678        -8.63178        -2.32778
| 35>    C        5.17667        -9.45911        -3.29557
| 36>    C        4.18618        -9.01579        -4.24920
| 37>    C        3.10172        -9.72228        -4.61211
| 38>    C        2.16208        -9.22135        -5.58017
| 39>    S        0.47103        -9.14164        -5.24831
| 40>    C        0.13440        -8.20511        -6.67215
| 41>    C        1.29806        -8.02443        -7.42911
| 42>    C        2.44027        -8.63126        -6.80546
| 43>    C        3.68355        -8.71363        -7.50444
| 44>    C        4.68815        -9.56444        -7.02342
| 45>    N        5.46185       -10.33730        -6.66429
| 46>    C        3.80237        -8.09624        -8.72755
| 47>    C        2.71408        -7.43748        -9.30855
| 48>    C        1.46897        -7.42601        -8.71591
| 49>    O        0.36808        -6.90041        -9.29707
| 50>    C        0.46290        -6.34486       -10.58963
| 51>    C       -1.22484        -7.78686        -6.81028
| 52>    C       -1.64745        -6.64906        -7.39311
| 53>    N       -2.94184        -6.21938        -7.54386
| 54>    C       -4.12809        -6.80068        -7.25648
| 55>    S       -4.29301        -8.36317        -6.53132
| 56>    C       -6.02482        -8.21170        -6.60004
| 57>    N       -6.77892        -9.27525        -6.11520
| 58>    O       -7.99494        -9.18056        -6.15382
| 59>    O       -6.15798       -10.23667        -5.68272
| 60>    C       -6.44234        -7.02791        -7.14525
| 61>    C       -5.37717        -6.19552        -7.53305
| 62>    C       -5.49945        -4.91458        -8.15259
| 63>    C       -6.65594        -4.26048        -8.43253
| 64>    C       -6.75510        -3.00632        -9.07908
| 65>    C       -5.77511        -2.22675        -9.63452
| 66>    C       -6.00268        -0.97505       -10.27286
| 67>    C       -4.89562        -0.37505       -10.77913
| 68>    C       -3.69889        -1.10819       -10.57957
| 69>    S       -4.05426        -2.59210        -9.71484
| 70>    C       -2.42195        -0.78636       -10.96079
| 71>    C       -1.98874         0.38180       -11.64865
| 72>    C       -0.65981         0.43118       -11.88392
| 73>    C        0.07503        -0.70168       -11.39710
| 74>    S       -1.05108        -1.83313       -10.62843
| 75>    C        1.39330        -0.92178       -11.47958
| 76>    H        2.86081       -15.18920         4.99825
| 77>    H        2.80561       -13.44395         4.42180
| 78>    H        3.72064       -17.02697         3.27603
| 79>    H        4.58235       -17.20464         0.85720
| 80>    H        5.30305       -16.81404        -1.35965
| 81>    H        5.92039       -15.79575        -3.63774
| 82>    H        5.78407       -13.59794        -4.93289
| 83>    H        5.30012       -11.35941        -5.09119
| 84>    H        5.54936        -7.58355        -2.21257
| 85>    H        4.32308        -8.01542        -4.64012
| 86>    H        2.86697       -10.65691        -4.12073
| 87>    H        4.73578        -8.14942        -9.26749
| 88>    H        2.86147        -6.97842       -10.27211
| 89>    H       -0.54612        -6.02360       -10.84304
| 90>    H        0.80246        -7.08374       -11.32079
| 91>    H        1.13003        -5.47782       -10.60585
| 92>    H       -1.92929        -8.43167        -6.30612
| 93>    H       -0.93330        -5.95470        -7.80336
| 94>    H       -3.03012        -5.30806        -7.97720
| 95>    H       -7.48338        -6.78981        -7.25877
| 96>    H       -4.57634        -4.42444        -8.42011
| 97>    H       -7.59614        -4.70832        -8.14445
| 98>    H       -7.75552        -2.60079        -9.16542
| 99>    H       -6.99456        -0.56235       -10.33417
|100>    H       -4.90065         0.56978       -11.29222
|101>    H       -2.68625         1.14635       -11.94188
|102>    H       -0.15317         1.23512       -12.38753
|103>    H        2.03918        -0.20620       -11.95635
|104>    H        1.84721        -1.80825       -11.07626
|105> *
|106>
|107>                          ****END OF INPUT****

CARTESIAN COORDINATES (ANGSTROEM)
---------------------------------
  C      3.025070  -14.474560    4.211090
  C      3.491340  -14.865610    3.018240
  C      3.830900  -16.197030    2.600590
  C      4.282560  -16.287010    1.331730
  C      4.341380  -15.042710    0.639750
  S      3.788070  -13.744160    1.680370
  C      4.756160  -14.822290   -0.648160
  C      5.223790  -15.768720   -1.597950
  C      5.549700  -15.233730   -2.798810
  C      5.372930  -13.820850   -2.884780
  S      4.766690  -13.211550   -1.346590
  C      5.557770  -13.078900   -4.011700
  N      5.422060  -11.727640   -4.142110
  C      5.633200  -10.781610   -3.194990
  S      6.744620  -11.002880   -1.878140
  C      6.601310   -9.315700   -1.486690
  N      7.312800   -8.842830   -0.391680
  O      7.217760   -7.655950   -0.115180
  O      7.997410   -9.653170    0.218160
  C      5.756780   -8.631780   -2.327780
  C      5.176670   -9.459110   -3.295570
  C      4.186180   -9.015790   -4.249200
  C      3.101720   -9.722280   -4.612110
  C      2.162080   -9.221350   -5.580170
  S      0.471030   -9.141640   -5.248310
  C      0.134400   -8.205110   -6.672150
  C      1.298060   -8.024430   -7.429110
  C      2.440270   -8.631260   -6.805460
  C      3.683550   -8.713630   -7.504440
  C      4.688150   -9.564440   -7.023420
  N      5.461850  -10.337300   -6.664290
  C      3.802370   -8.096240   -8.727550
  C      2.714080   -7.437480   -9.308550
  C      1.468970   -7.426010   -8.715910
  O      0.368080   -6.900410   -9.297070
  C      0.462900   -6.344860  -10.589630
  C     -1.224840   -7.786860   -6.810280
  C     -1.647450   -6.649060   -7.393110
  N     -2.941840   -6.219380   -7.543860
  C     -4.128090   -6.800680   -7.256480
  S     -4.293010   -8.363170   -6.531320
  C     -6.024820   -8.211700   -6.600040
  N     -6.778920   -9.275250   -6.115200
  O     -7.994940   -9.180560   -6.153820
  O     -6.157980  -10.236670   -5.682720
  C     -6.442340   -7.027910   -7.145250
  C     -5.377170   -6.195520   -7.533050
  C     -5.499450   -4.914580   -8.152590
  C     -6.655940   -4.260480   -8.432530
  C     -6.755100   -3.006320   -9.079080
  C     -5.775110   -2.226750   -9.634520
  C     -6.002680   -0.975050  -10.272860
  C     -4.895620   -0.375050  -10.779130
  C     -3.698890   -1.108190  -10.579570
  S     -4.054260   -2.592100   -9.714840
  C     -2.421950   -0.786360  -10.960790
  C     -1.988740    0.381800  -11.648650
  C     -0.659810    0.431180  -11.883920
  C      0.075030   -0.701680  -11.397100
  S     -1.051080   -1.833130  -10.628430
  C      1.393300   -0.921780  -11.479580
  H      2.860810  -15.189200    4.998250
  H      2.805610  -13.443950    4.421800
  H      3.720640  -17.026970    3.276030
  H      4.582350  -17.204640    0.857200
  H      5.303050  -16.814040   -1.359650
  H      5.920390  -15.795750   -3.637740
  H      5.784070  -13.597940   -4.932890
  H      5.300120  -11.359410   -5.091190
  H      5.549360   -7.583550   -2.212570
  H      4.323080   -8.015420   -4.640120
  H      2.866970  -10.656910   -4.120730
  H      4.735780   -8.149420   -9.267490
  H      2.861470   -6.978420  -10.272110
  H     -0.546120   -6.023600  -10.843040
  H      0.802460   -7.083740  -11.320790
  H      1.130030   -5.477820  -10.605850
  H     -1.929290   -8.431670   -6.306120
  H     -0.933300   -5.954700   -7.803360
  H     -3.030120   -5.308060   -7.977200
  H     -7.483380   -6.789810   -7.258770
  H     -4.576340   -4.424440   -8.420110
  H     -7.596140   -4.708320   -8.144450
  H     -7.755520   -2.600790   -9.165420
  H     -6.994560   -0.562350  -10.334170
  H     -4.900650    0.569780  -11.292220
  H     -2.686250    1.146350  -11.941880
  H     -0.153170    1.235120  -12.387530
  H      2.039180   -0.206200  -11.956350
  H      1.847210   -1.808250  -11.076260

 Total Charge           Charge          ....    0
 Multiplicity           Mult            ....    1
 Number of Electrons    NEL             ....  480
 Basis Dimension        Dim             .... 1027

ORBITAL ENERGIES
----------------

  NO   OCC          E(Eh)            E(eV)
   0   2.0000     -88.984531     -2421.3922
   1   2.0000     -88.970420     -2421.0082
   2   2.0000     -88.959401     -2420.7084
   3   2.0000     -88.958732     -2420.6902
   4   2.0000     -88.952468     -2420.5197
   5   2.0000     -88.932063     -2419.9645
   6   2.0000     -88.922381     -2419.7010
   7   2.0000     -19.278429      -524.5927
   8   2.0000     -19.228940      -523.2461
   9   2.0000     -19.228532      -523.2350
  10   2.0000     -19.209137      -522.7072
  11   2.0000     -19.208308      -522.6846
  12   2.0000     -14.640828      -398.3972
  13   2.0000     -14.620686      -397.8491
  14   2.0000     -14.487537      -394.2259
  15   2.0000     -14.449765      -393.1981
  16   2.0000     -14.415472      -392.2649
  17   2.0000     -10.369591      -282.1709
  18   2.0000     -10.367797      -282.1221
  19   2.0000     -10.346798      -281.5507
  20   2.0000     -10.342373      -281.4303
  21   2.0000     -10.335208      -281.2353
  22   2.0000     -10.331633      -281.1380
  23   2.0000     -10.323543      -280.9179
  24   2.0000     -10.322325      -280.8847
  25   2.0000     -10.321255      -280.8556
  26   2.0000     -10.320128      -280.8250
  27   2.0000     -10.319613      -280.8109
  28   2.0000     -10.316052      -280.7140
  29   2.0000     -10.313805      -280.6529
  30   2.0000     -10.313080      -280.6332
  31   2.0000     -10.311231      -280.5829
  32   2.0000     -10.307090      -280.4702
  33   2.0000     -10.306935      -280.4660
  34   2.0000     -10.305237      -280.4198
  35   2.0000     -10.301052      -280.3059
  36   2.0000     -10.299516      -280.2641
  37   2.0000     -10.298121      -280.2261
  38   2.0000     -10.296985      -280.1952
  39   2.0000     -10.296303      -280.1767
  40   2.0000     -10.295154      -280.1454
  41   2.0000     -10.294356      -280.1237
  42   2.0000     -10.293934      -280.1122
  43   2.0000     -10.292947      -280.0853
  44   2.0000     -10.292917      -280.0845
  45   2.0000     -10.292661      -280.0775
  46   2.0000     -10.291843      -280.0553
  47   2.0000     -10.287927      -279.9487
  48   2.0000     -10.287296      -279.9315
  49   2.0000     -10.286387      -279.9068
  50   2.0000     -10.285184      -279.8741
  51   2.0000     -10.284378      -279.8521
  52   2.0000     -10.284121      -279.8452
  53   2.0000     -10.282719      -279.8070
  54   2.0000     -10.280025      -279.7337
  55   2.0000     -10.275991      -279.6239
  56   2.0000     -10.275231      -279.6032
  57   2.0000     -10.275030      -279.5978
  58   2.0000     -10.271516      -279.5022
  59   2.0000     -10.270029      -279.4617
  60   2.0000     -10.254423      -279.0370
  61   2.0000      -8.079245      -219.8474
  62   2.0000      -8.066264      -219.4942
  63   2.0000      -8.054797      -219.1822
  64   2.0000      -8.053778      -219.1544
  65   2.0000      -8.049157      -219.0287
  66   2.0000      -8.027850      -218.4489
  67   2.0000      -8.019210      -218.2138
  68   2.0000      -6.048968      -164.6008
  69   2.0000      -6.044467      -164.4783
  70   2.0000      -6.040764      -164.3775
  71   2.0000      -6.035241      -164.2273
  72   2.0000      -6.030994      -164.1117
  73   2.0000      -6.029023      -164.0581
  74   2.0000      -6.024580      -163.9372
  75   2.0000      -6.023295      -163.9022
  76   2.0000      -6.020670      -163.8307
  77   2.0000      -6.018996      -163.7852
  78   2.0000      -6.018871      -163.7818
  79   2.0000      -6.015742      -163.6967
  80   2.0000      -6.015489      -163.6898
  81   2.0000      -6.015151      -163.6806
  82   2.0000      -6.009640      -163.5306
  83   2.0000      -5.997694      -163.2056
  84   2.0000      -5.993558      -163.0930
  85   2.0000      -5.989055      -162.9705
  86   2.0000      -5.988618      -162.9586
  87   2.0000      -5.985155      -162.8643
  88   2.0000      -5.979647      -162.7145
  89   2.0000      -1.308171       -35.5971
  90   2.0000      -1.287771       -35.0420
  91   2.0000      -1.182779       -32.1851
  92   2.0000      -1.127015       -30.6676
  93   2.0000      -1.106104       -30.0986
  94   2.0000      -1.089760       -29.6539
  95   2.0000      -1.061272       -28.8787
  96   2.0000      -1.014538       -27.6070
  97   2.0000      -1.003632       -27.3102
  98   2.0000      -1.000560       -27.2266
  99   2.0000      -0.997760       -27.1504
 100   2.0000      -0.980380       -26.6775
 101   2.0000      -0.979769       -26.6609
 102   2.0000      -0.974520       -26.5180
 103   2.0000      -0.952907       -25.9299
 104   2.0000      -0.950113       -25.8539
 105   2.0000      -0.925437       -25.1824
 106   2.0000      -0.916908       -24.9503
 107   2.0000      -0.900734       -24.5102
 108   2.0000      -0.891440       -24.2573
 109   2.0000      -0.884721       -24.0745
 110   2.0000      -0.874494       -23.7962
 111   2.0000      -0.869917       -23.6717
 112   2.0000      -0.865489       -23.5512
 113   2.0000      -0.859332       -23.3836
 114   2.0000      -0.856405       -23.3040
 115   2.0000      -0.850482       -23.1428
 116   2.0000      -0.838296       -22.8112
 117   2.0000      -0.834258       -22.7013
 118   2.0000      -0.832602       -22.6562
 119   2.0000      -0.830270       -22.5928
 120   2.0000      -0.827055       -22.5053
 121   2.0000      -0.816580       -22.2203
 122   2.0000      -0.808748       -22.0072
 123   2.0000      -0.804528       -21.8923
 124   2.0000      -0.791675       -21.5426
 125   2.0000      -0.779149       -21.2017
 126   2.0000      -0.769142       -20.9294
 127   2.0000      -0.746979       -20.3263
 128   2.0000      -0.741619       -20.1805
 129   2.0000      -0.733549       -19.9609
 130   2.0000      -0.718608       -19.5543
 131   2.0000      -0.715624       -19.4731
 132   2.0000      -0.708444       -19.2777
 133   2.0000      -0.692754       -18.8508
 134   2.0000      -0.691099       -18.8058
 135   2.0000      -0.683867       -18.6090
 136   2.0000      -0.675285       -18.3754
 137   2.0000      -0.672447       -18.2982
 138   2.0000      -0.667221       -18.1560
 139   2.0000      -0.657415       -17.8892
 140   2.0000      -0.647152       -17.6099
 141   2.0000      -0.641466       -17.4552
 142   2.0000      -0.635667       -17.2974
 143   2.0000      -0.633231       -17.2311
 144   2.0000      -0.625968       -17.0334
 145   2.0000      -0.624954       -17.0059
 146   2.0000      -0.621859       -16.9217
 147   2.0000      -0.614778       -16.7290
 148   2.0000      -0.613923       -16.7057
 149   2.0000      -0.610519       -16.6131
 150   2.0000      -0.609356       -16.5814
 151   2.0000      -0.604930       -16.4610
 152   2.0000      -0.602722       -16.4009
 153   2.0000      -0.601733       -16.3740
 154   2.0000      -0.599163       -16.3041
 155   2.0000      -0.594471       -16.1764
 156   2.0000      -0.593078       -16.1385
 157   2.0000      -0.589333       -16.0366
 158   2.0000      -0.587401       -15.9840
 159   2.0000      -0.581021       -15.8104
 160   2.0000      -0.577542       -15.7157
 161   2.0000      -0.569500       -15.4969
 162   2.0000      -0.566526       -15.4160
 163   2.0000      -0.561968       -15.2919
 164   2.0000      -0.560133       -15.2420
 165   2.0000      -0.552114       -15.0238
 166   2.0000      -0.546996       -14.8845
 167   2.0000      -0.542724       -14.7683
 168   2.0000      -0.536756       -14.6059
 169   2.0000      -0.535602       -14.5745
 170   2.0000      -0.530175       -14.4268
 171   2.0000      -0.525224       -14.2921
 172   2.0000      -0.520594       -14.1661
 173   2.0000      -0.516915       -14.0660
 174   2.0000      -0.514961       -14.0128
 175   2.0000      -0.511235       -13.9114
 176   2.0000      -0.506213       -13.7748
 177   2.0000      -0.505240       -13.7483
 178   2.0000      -0.504272       -13.7219
 179   2.0000      -0.501983       -13.6596
 180   2.0000      -0.498117       -13.5544
 181   2.0000      -0.495515       -13.4836
 182   2.0000      -0.494256       -13.4494
 183   2.0000      -0.493387       -13.4257
 184   2.0000      -0.488417       -13.2905
 185   2.0000      -0.484299       -13.1784
 186   2.0000      -0.480744       -13.0817
 187   2.0000      -0.480141       -13.0653
 188   2.0000      -0.476653       -12.9704
 189   2.0000      -0.474498       -12.9117
 190   2.0000      -0.472381       -12.8541
 191   2.0000      -0.471508       -12.8304
 192   2.0000      -0.469421       -12.7736
 193   2.0000      -0.466013       -12.6809
 194   2.0000      -0.460120       -12.5205
 195   2.0000      -0.457921       -12.4607
 196   2.0000      -0.452793       -12.3211
 197   2.0000      -0.452004       -12.2996
 198   2.0000      -0.449140       -12.2217
 199   2.0000      -0.445137       -12.1128
 200   2.0000      -0.443376       -12.0649
 201   2.0000      -0.438183       -11.9236
 202   2.0000      -0.437185       -11.8964
 203   2.0000      -0.433159       -11.7868
 204   2.0000      -0.430788       -11.7223
 205   2.0000      -0.429543       -11.6884
 206   2.0000      -0.429374       -11.6839
 207   2.0000      -0.427329       -11.6282
 208   2.0000      -0.421675       -11.4743
 209   2.0000      -0.417204       -11.3527
 210   2.0000      -0.410984       -11.1834
 211   2.0000      -0.407044       -11.0762
 212   2.0000      -0.406209       -11.0535
 213   2.0000      -0.404570       -11.0089
 214   2.0000      -0.389122       -10.5885
 215   2.0000      -0.385568       -10.4918
 216   2.0000      -0.377708       -10.2780
 217   2.0000      -0.376799       -10.2532
 218   2.0000      -0.369410       -10.0522
 219   2.0000      -0.365006        -9.9323
 220   2.0000      -0.358681        -9.7602
 221   2.0000      -0.357977        -9.7410
 222   2.0000      -0.357636        -9.7318
 223   2.0000      -0.350751        -9.5444
 224   2.0000      -0.350030        -9.5248
 225   2.0000      -0.349247        -9.5035
 226   2.0000      -0.337695        -9.1892
 227   2.0000      -0.335542        -9.1306
 228   2.0000      -0.333146        -9.0654
 229   2.0000      -0.332179        -9.0390
 230   2.0000      -0.325781        -8.8650
 231   2.0000      -0.320549        -8.7226
 232   2.0000      -0.312394        -8.5007
 233   2.0000      -0.306676        -8.3451
 234   2.0000      -0.296910        -8.0793
 235   2.0000      -0.284311        -7.7365
 236   2.0000      -0.265791        -7.2325
 237   2.0000      -0.242889        -6.6093
 238   2.0000      -0.224530        -6.1098
 239   2.0000      -0.202569        -5.5122
 240   0.0000      -0.079905        -2.1743
 241   0.0000      -0.063396        -1.7251
 242   0.0000      -0.049326        -1.3422
 243   0.0000      -0.042991        -1.1698
 244   0.0000      -0.019361        -0.5268

MULLIKEN ATOMIC CHARGES
-----------------------
   0 C :   -0.034243
   1 C :   -0.061981
   2 C :    0.049703
   3 C :    0.029590
   4 C :   -0.068670
   5 S :    0.074605
   6 C :   -0.051782
   7 C :    0.020555
   8 C :    0.040036
   9 C :   -0.066409
  10 S :    0.078989
  11 C :    0.014929
  12 N :   -0.047098
  13 C :   -0.118625
  14 S :    0.201662
  15 C :   -0.035433
  16 N :    0.280101
  17 O :   -0.271598
  18 O :   -0.277059
  19 C :    0.013580
  20 C :    0.095456
  21 C :   -0.016880
  22 C :   -0.012448
  23 C :   -0.171735
  24 S :    0.183418
  25 C :   -0.181699
  26 C :    0.104740
  27 C :    0.133519
  28 C :   -0.107592
  29 C :   -0.107579
  30 N :    0.037174
  31 C :    0.027692
  32 C :   -0.128523
  33 C :    0.205183
  34 O :   -0.305985
  35 C :    0.172595
  36 C :   -0.016452
  37 C :    0.074117
  38 N :   -0.015414
  39 C :   -0.106995
  40 S :    0.141513
  41 C :    0.002058
  42 N :    0.278556
  43 O :   -0.258952
  44 O :   -0.273394
  45 C :    0.001845
  46 C :    0.135018
  47 C :   -0.027718
  48 C :    0.011730
  49 C :   -0.012098
  50 C :   -0.009802
  51 C :    0.036414
  52 C :    0.029952
  53 C :   -0.024539
  54 S :    0.001402
  55 C :   -0.060920
  56 C :    0.030948
  57 C :    0.053889
  58 C :   -0.060504
  59 S :    0.054922
  60 C :   -0.028938
  61 H :    0.015316
  62 H :    0.019365
  63 H :   -0.015615
  64 H :   -0.016177
  65 H :   -0.018998
  66 H :   -0.016576
  67 H :    0.009882
  68 H :    0.153994
  69 H :   -0.002289
  70 H :    0.008732
  71 H :    0.014683
  72 H :   -0.006402
  73 H :   -0.025432
  74 H :    0.042912
  75 H :    0.038588
  76 H :    0.032000
  77 H :    0.011489
  78 H :    0.018048
  79 H :    0.143194
  80 H :    0.008710
  81 H :   -0.040353
  82 H :   -0.019769
  83 H :   -0.013676
  84 H :   -0.009628
  85 H :   -0.012659
  86 H :   -0.007600
  87 H :   -0.007151
  88 H :    0.024390
  89 H :    0.016202
Sum of atomic charges:    0.0000000

LOEWDIN ATOMIC CHARGES
----------------------
   0 C :   -0.084713
   1 C :   -0.138273
   2 C :   -0.036383
   3 C :   -0.026284
   4 C :   -0.184193
   5 S :    0.346542
   6 C :   -0.179363
   7 C :   -0.046764
   8 C :   -0.028971
   9 C :   -0.201503
  10 S :    0.361911
  11 C :   -0.017738
  12 N :    0.039288
  13 C :   -0.114662
  14 S :    0.477405
  15 C :   -0.223396
  16 N :    0.274266
  17 O :   -0.236885
  18 O :   -0.243659
  19 C :   -0.005565
  20 C :   -0.107569
  21 C :    0.003985
  22 C :   -0.059322
  23 C :   -0.189105
  24 S :    0.495214
  25 C :   -0.151665
  26 C :   -0.075090
  27 C :   -0.033585
  28 C :   -0.099658
  29 C :    0.025184
  30 N :   -0.092300
  31 C :    0.029579
  32 C :   -0.107258
  33 C :    0.089668
  34 O :   -0.076141
  35 C :    0.080734
  36 C :   -0.121195
  37 C :    0.032925
  38 N :    0.048177
  39 C :   -0.096920
  40 S :    0.477011
  41 C :   -0.216874
  42 N :    0.274670
  43 O :   -0.225240
  44 O :   -0.240112
  45 C :    0.005515
  46 C :   -0.105056
  47 C :   -0.036177
  48 C :   -0.036115
  49 C :   -0.057627
  50 C :   -0.143611
  51 C :   -0.026054
  52 C :   -0.039863
  53 C :   -0.178492
  54 S :    0.359064
  55 C :   -0.175347
  56 C :   -0.024182
  57 C :   -0.029194
  58 C :   -0.137803
  59 S :    0.332242
  60 C :   -0.076593
  61 H :    0.026623
  62 H :    0.025208
  63 H :    0.031549
  64 H :    0.030650
  65 H :    0.029510
  66 H :    0.031043
  67 H :    0.034078
  68 H :    0.076703
  69 H :    0.041571
  70 H :    0.031943
  71 H :    0.031694
  72 H :    0.040748
  73 H :    0.030739
  74 H :    0.031013
  75 H :    0.022764
  76 H :    0.018703
  77 H :    0.012803
  78 H :    0.028860
  79 H :    0.097778
  80 H :    0.043946
  81 H :   -0.002473
  82 H :    0.029808
  83 H :    0.036133
  84 H :    0.035058
  85 H :    0.032353
  86 H :    0.034394
  87 H :    0.035319
  88 H :    0.030767
  89 H :    0.023834

  Mayer bond orders larger than 0.100000
B(  0-C ,  1-C ) :   1.8676 B(  0-C , 61-H ) :   0.9500 B(  0-C , 62-H ) :   0.9411
B(  1-C ,  2-C ) :   1.0786 B(  1-C ,  5-S ) :   1.0097 B(  2-C ,  3-C ) :   1.6651
B(  2-C , 63-H ) :   0.9927 B(  3-C ,  4-C ) :   1.1496 B(  3-C , 64-H ) :   0.9915
B(  4-C ,  5-S ) :   1.0369 B(  4-C ,  6-C ) :   1.5782 B(  6-C ,  7-C ) :   1.1551
B(  6-C , 10-S ) :   1.0310 B(  7-C ,  8-C ) :   1.6407 B(  7-C , 65-H ) :   0.9924
B(  8-C ,  9-C ) :   1.1282 B(  8-C , 66-H ) :   0.9956 B(  9-C , 10-S ) :   1.0200
B(  9-C , 11-C ) :   1.6089 B( 11-C , 12-N ) :   1.1593 B( 11-C , 67-H ) :   0.9649
B( 12-N , 13-C ) :   1.2040 B( 12-N , 68-H ) :   0.8609 B( 13-C , 14-S ) :   1.1429
B( 13-C , 20-C ) :   1.3562 B( 14-S , 15-C ) :   1.0848 B( 15-C , 16-N ) :   0.9945
B( 15-C , 19-C ) :   1.4398 B( 16-N , 17-O ) :   1.5157 B( 16-N , 18-O ) :   1.5026
B( 17-O , 18-O ) :   0.2472 B( 19-C , 20-C ) :   1.2743 B( 19-C , 69-H ) :   1.0066
B( 20-C , 21-C ) :   1.0704 B( 21-C , 22-C ) :   1.7827 B( 21-C , 70-H ) :   0.9612
B( 22-C , 23-C ) :   1.0403 B( 22-C , 71-H ) :   0.9563 B( 23-C , 24-S ) :   1.1373
B( 23-C , 25-C ) :   0.1047 B( 23-C , 27-C ) :   1.4405 B( 24-S , 25-C ) :   1.1941
B( 25-C , 26-C ) :   1.3659 B( 25-C , 36-C ) :   1.1349 B( 26-C , 27-C ) :   1.2024
B( 26-C , 33-C ) :   1.1634 B( 27-C , 28-C ) :   1.1742 B( 28-C , 29-C ) :   1.1232
B( 28-C , 31-C ) :   1.5189 B( 29-C , 30-N ) :   2.8737 B( 30-N , 68-H ) :   0.1359
B( 31-C , 32-C ) :   1.1944 B( 31-C , 72-H ) :   0.9965 B( 32-C , 33-C ) :   1.4244
B( 32-C , 73-H ) :   0.9902 B( 33-C , 34-O ) :   1.1970 B( 34-O , 35-C ) :   0.9421
B( 35-C , 74-H ) :   0.9769 B( 35-C , 75-H ) :   0.9703 B( 35-C , 76-H ) :   0.9698
B( 36-C , 37-C ) :   1.7209 B( 36-C , 77-H ) :   0.9173 B( 37-C , 38-N ) :   1.1366
B( 37-C , 78-H ) :   0.9489 B( 38-N , 39-C ) :   1.2446 B( 38-N , 79-H ) :   0.9110
B( 39-C , 40-S ) :   1.1398 B( 39-C , 46-C ) :   1.3116 B( 40-S , 41-C ) :   1.0627
B( 41-C , 42-N ) :   0.9879 B( 41-C , 45-C ) :   1.4766 B( 42-N , 43-O ) :   1.5210
B( 42-N , 44-O ) :   1.5003 B( 43-O , 44-O ) :   0.2521 B( 45-C , 46-C ) :   1.2477
B( 45-C , 80-H ) :   1.0016 B( 46-C , 47-C ) :   1.1215 B( 47-C , 48-C ) :   1.6749
B( 47-C , 81-H ) :   0.9400 B( 48-C , 49-C ) :   1.1819 B( 48-C , 82-H ) :   0.9720
B( 49-C , 50-C ) :   1.5972 B( 49-C , 83-H ) :   0.9614 B( 50-C , 51-C ) :   1.1391
B( 50-C , 54-S ) :   1.0217 B( 51-C , 52-C ) :   1.6121 B( 51-C , 84-H ) :   0.9985
B( 52-C , 53-C ) :   1.1658 B( 52-C , 85-H ) :   0.9908 B( 53-C , 54-S ) :   1.0294
B( 53-C , 55-C ) :   1.5695 B( 55-C , 56-C ) :   1.1516 B( 55-C , 59-S ) :   1.0349
B( 56-C , 57-C ) :   1.6636 B( 56-C , 86-H ) :   0.9915 B( 57-C , 58-C ) :   1.0805
B( 57-C , 87-H ) :   0.9926 B( 58-C , 59-S ) :   1.0032 B( 58-C , 60-C ) :   1.8669
B( 60-C , 88-H ) :   0.9499 B( 60-C , 89-H ) :   0.9428

-----------------------------------------------------------------------------
         ABSORPTION SPECTRUM VIA TRANSITION ELECTRIC DIPOLE MOMENTS
-----------------------------------------------------------------------------
State   Energy  Wavelength   fosc         T2         TX        TY        TZ
        (cm-1)    (nm)                  (au**2)     (au)      (au)      (au)
-----------------------------------------------------------------------------
   0   16366.8    611.0   1.010896841  20.33375   0.52494  -3.35658   2.96506
   1   17633.9    567.1   0.061185808   1.14230   0.91386   0.46991   0.29385
   2   18763.6    532.9   0.701192461  12.30258   2.31714   2.23021  -1.39985
   3   20132.8    496.7   0.082688169   1.35212  -1.10692   0.14384  -0.32582
   4   21354.2    468.3   0.562463881   8.67136  -2.80114  -0.72499   0.54715
   5   23297.7    429.2   0.355547091   5.02412   2.23225  -0.02734   0.20108
   6   23924.1    418.0   0.161550158   2.22304   1.21746   0.63328  -0.58291
   7   24545.1    407.4   0.370024502   4.96296   0.24702   0.28233  -2.19596
   8   25117.3    398.1   0.015573704   0.20412  -0.42125   0.15892  -0.03769
   9   26221.8    381.4   0.015310631   0.19222  -0.22736   0.36948  -0.06339
  10   27686.6    361.2   0.153315588   1.82303  -1.07105  -0.06111  -0.81985
  11   28029.1    356.8   0.177868451   2.08913  -0.94683   0.29438   1.05165
  12   28268.0    353.8   0.122980520   1.43224   0.72855  -0.52519  -0.79098
  13   29145.0    343.1   0.081015324   0.91512   0.85964   0.41966  -0.00490
  14   29916.0    334.3   0.020354468   0.22399  -0.19235  -0.18330  -0.39165
  15   30982.8    322.8   0.454955903   4.83419   1.37847  -1.36343  -1.03686
  16   31112.3    321.4   0.453077450   4.79420   1.28275  -0.33477   1.74260
  17   32487.3    307.8   0.033088320   0.33530   0.42570   0.23406   0.31511
  18   32770.6    305.2   0.089931205   0.90344  -0.12769  -0.40066   0.85241
  19   32939.4    303.6   0.027456175   0.27441  -0.24730   0.37533  -0.26903
  20   33102.1    302.1   0.031962918   0.31788  -0.39999  -0.19109  -0.34839
  21   33901.4    295.0   0.064561383   0.62695   0.24466  -0.71312   0.24196
  22   33969.0    294.4   0.079326544   0.76880  -0.22921   0.81998  -0.20949
  23   34365.6    291.0   0.033106293   0.31715   0.25086  -0.50323   0.03119
  24   34594.8    289.1   0.004343309   0.04133  -0.04904   0.12880  -0.14946
  25   34641.1    288.7   0.001730468   0.01645   0.00839   0.12762  -0.00935
  26   34789.7    287.4   0.024331907   0.23025   0.09956   0.26945   0.38436
  27   35412.9    282.4   0.027280169   0.25361   0.05839  -0.40356  -0.29553
  28   35791.8    279.4   0.014688616   0.13511   0.27991  -0.16370  -0.17308
  29   36273.2    275.7   0.108461746   0.98439   0.80781  -0.52880   0.22848
  30   36449.9    274.3   0.028630321   0.25859  -0.03354   0.21533  -0.45945
  31   36604.5    273.2   0.070542918   0.63445  -0.13129   0.78522  -0.02528
  32   36737.8    272.2   0.045552561   0.40820   0.35388   0.52692   0.07300
  33   37206.6    268.8   0.036200993   0.32031   0.22306  -0.22551   0.46872
  34   37234.0    268.6   0.078691990   0.69577   0.38937  -0.08909   0.73228
  35   37561.8    266.2   0.026152282   0.22921  -0.42974  -0.15081   0.14763
  36   38514.6    259.6   0.003505642   0.02997  -0.08790   0.05390  -0.13905
  37   38784.6    257.8   0.053297693   0.45240  -0.67173  -0.00221   0.03434
  38   39137.8    255.5   0.030645708   0.25778   0.31353  -0.02409  -0.39862
  39   39253.6    254.8   0.028282185   0.23720   0.30879  -0.18224  -0.32960
  40   39415.8    253.7   0.004676740   0.03906   0.14351  -0.07947   0.11023
  41   39751.2    251.6   0.017531478   0.14519  -0.33927   0.08445   0.15151
  42   39928.4    250.4   0.053541222   0.44145   0.07410   0.49680  -0.43492
  43   40120.3    249.3   0.048988856   0.40198  -0.41336   0.09700   0.47086
  44   40163.9    249.0   0.154343822   1.26511  -1.07170   0.30623  -0.15099

FINAL SINGLE POINT ENERGY     -5127.201320610578

DIPOLE MOMENT
-------------
                                X             Y             Z
Electronic contribution:      6.94585     -16.65230      21.97039
Nuclear contribution   :     -8.42050      19.50919     -27.33565
                        -----------------------------------------
Total Dipole Moment    :     -1.47466       2.85690      -5.36526
                        -----------------------------------------
Magnitude (a.u.)       :      6.25480
Magnitude (Debye)      :     15.89844

Rotational constants in cm-1:     0.001531     0.000372     0.000325
Rotational constants in MHz :    45.900664    11.165195     9.729707

                             ****ORCA TERMINATED NORMALLY****
TOTAL RUN TIME: 0 days 0 hours 9 minutes 49 seconds 779 msec
