                         Program Version 4.2.0 -  RELEASE  -
|  1> # ORCA input file
|  2> # SCF done       -214.629534445980          0.000949673317
|  3> ! CAM-B3LYP def2-SVP def2/J RIJCOSX Grid4 TightSCF
|  4> %maxcore 5000
|  5> %tddft
|  6>     Mode sTDDFT
|  7>     Ethresh 5.0
|  8>     maxcore 5000
|  9> end
| 10>
| 11> %pal
| 12>   nprocs 6
| 13>   end
| 14> * xyz 0 1
| 15>    C        3.59085         3.39048         7.28582
| 16>    C        2.41628         3.91004         7.75507
| 17>    F        2.26964         4.13034         9.07358
| 18>    C        1.34392         4.22718         6.91016
| 19>    C        1.47358         4.00992         5.56655
| 20>    C        2.66246         3.47614         5.02854
| 21>    C        3.74269         3.16269         5.90459
| 22>    C        4.94915         2.63433         5.38778
| 23>    C        5.06507         2.42565         4.04069
| 24>    C        3.97466         2.72083         3.17174
| 25>    C        2.80290         3.23879         3.64260
| 26>    C        4.34052         2.35460         1.79121
| 27>    O        3.69548         2.50713         0.77977
| 28>    C        5.66978         1.68825         1.90406
| 29>    C        6.17511         1.92131         3.23623
| 30>    C        7.49058         1.90816         3.62803
| 31>    C        7.92821         2.24315         4.92568
| 32>    N        8.34400         2.49970         5.96402
| 33>    C        8.56749         1.63738         2.76315
| 34>    N        9.47944         1.45770         2.08856
| 35>    C        6.14138         0.96999         0.84264
| 36>    C        7.13184        -0.02872         0.82186
| 37>    S        7.95228        -0.39771        -0.67320
| 38>    C        8.96957        -1.60390         0.06294
| 39>    C        8.63840        -1.73160         1.40214
| 40>    C        7.60119        -0.86640         1.83919
| 41>    C        7.26943        -1.09554         3.19379
| 42>    C        8.06130        -2.04992         3.76247
| 43>    C        7.99088        -2.48172         5.16300
| 44>    O        7.18415        -2.05921         5.95324
| 45>    O        8.92842        -3.39456         5.43221
| 46>    C        8.99170        -3.88886         6.76305
| 47>    S        9.23305        -2.74420         2.67512
| 48>    C        9.94648        -2.29743        -0.68426
| 49>    C       10.25477        -2.11581        -2.02457
| 50>    C       11.25095        -2.98766        -2.44950
| 51>    C       11.70554        -3.84293        -1.42575
| 52>    S       10.91240        -3.56139         0.06119
| 53>    C       12.69042        -4.70550        -1.96223
| 54>    C       12.86498        -4.39423        -3.32529
| 55>    C       11.97554        -3.29785        -3.67238
| 56>    C       11.85468        -2.68706        -4.88529
| 57>    C       10.94419        -1.63199        -5.10838
| 58>    N       10.20269        -0.77754        -5.29263
| 59>    C       12.64119        -3.06904        -5.99297
| 60>    N       13.28875        -3.37139        -6.88955
| 61>    C       13.79275        -5.21429        -3.95823
| 62>    C       14.33476        -6.15378        -3.09328
| 63>    S       13.67716        -6.00528        -1.46557
| 64>    C       15.26591        -7.17601        -3.38311
| 65>    S       15.62794        -8.39334        -2.20057
| 66>    C       16.65592        -9.30145        -3.28715
| 67>    C       16.73412        -8.62412        -4.49696
| 68>    C       15.97314        -7.42300        -4.56511
| 69>    C       16.15011        -6.76308        -5.80474
| 70>    C       17.01456        -7.42668        -6.62108
| 71>    C       17.46379        -7.07336        -7.97209
| 72>    O       18.25646        -7.72587        -8.60509
| 73>    O       16.89183        -5.94486        -8.40325
| 74>    C       17.25682        -5.52578        -9.71159
| 75>    S       17.65056        -8.90241        -5.93487
| 76>    C       17.27919       -10.47419        -2.82654
| 77>    C       17.82762       -11.49962        -3.54392
| 78>    C       18.81506       -12.39828        -2.88036
| 79>    O       19.06155       -12.44903        -1.69709
| 80>    C       19.44538       -13.15607        -3.97719
| 81>    C       20.48664       -14.03698        -3.92765
| 82>    C       20.94535       -14.62969        -5.12592
| 83>    C       20.31753       -14.28807        -6.35922
| 84>    C       20.78642       -14.87486        -7.55022
| 85>    C       21.82675       -15.76070        -7.49785
| 86>    C       22.45482       -16.11212        -6.29543
| 87>    C       22.01403       -15.54914        -5.12995
| 88>    F       22.27469       -16.32455        -8.63419
| 89>    C       19.23409       -13.37802        -6.37936
| 90>    C       18.79966       -12.82876        -5.20467
| 91>    C       17.70221       -11.90871        -4.91827
| 92>    C       16.62645       -11.67962        -5.74204
| 93>    C       15.45022       -11.03043        -5.32136
| 94>    N       14.46618       -10.53197        -5.00166
| 95>    C       16.51861       -12.18267        -7.05468
| 96>    N       16.37579       -12.56311        -8.12782
| 97>    H        4.39660         3.16002         7.96505
| 98>    H        0.44134         4.63424         7.33760
| 99>    H        0.66100         4.24543         4.89590
|100>    H        5.74652         2.39404         6.07318
|101>    H        1.99107         3.46260         2.96693
|102>    H        5.64447         1.17141        -0.10181
|103>    H        6.47779        -0.61564         3.73833
|104>    H        9.30989        -4.92734         6.69991
|105>    H        8.01243        -3.80971         7.23881
|106>    H        9.71925        -3.30731         7.33238
|107>    H        9.76263        -1.38179        -2.63701
|108>    H       14.04362        -5.15663        -4.99927
|109>    H       15.69395        -5.83710        -6.09896
|110>    H       16.69025        -4.61880        -9.90423
|111>    H       17.00684        -6.29963       -10.44000
|112>    H       18.32990        -5.32966        -9.76105
|113>    H       17.39780       -10.55597        -1.75026
|114>    H       20.95615       -14.28003        -2.98621
|115>    H       20.32446       -14.62953        -8.49369
|116>    H       23.27064       -16.81718        -6.31561
|117>    H       22.48251       -15.80383        -4.19118
|118>    H       18.78167       -13.13006        -7.32634
|119> *
|120>
|121>                          ****END OF INPUT****

CARTESIAN COORDINATES (ANGSTROEM)
---------------------------------
  C      3.590850    3.390480    7.285820
  C      2.416280    3.910040    7.755070
  F      2.269640    4.130340    9.073580
  C      1.343920    4.227180    6.910160
  C      1.473580    4.009920    5.566550
  C      2.662460    3.476140    5.028540
  C      3.742690    3.162690    5.904590
  C      4.949150    2.634330    5.387780
  C      5.065070    2.425650    4.040690
  C      3.974660    2.720830    3.171740
  C      2.802900    3.238790    3.642600
  C      4.340520    2.354600    1.791210
  O      3.695480    2.507130    0.779770
  C      5.669780    1.688250    1.904060
  C      6.175110    1.921310    3.236230
  C      7.490580    1.908160    3.628030
  C      7.928210    2.243150    4.925680
  N      8.344000    2.499700    5.964020
  C      8.567490    1.637380    2.763150
  N      9.479440    1.457700    2.088560
  C      6.141380    0.969990    0.842640
  C      7.131840   -0.028720    0.821860
  S      7.952280   -0.397710   -0.673200
  C      8.969570   -1.603900    0.062940
  C      8.638400   -1.731600    1.402140
  C      7.601190   -0.866400    1.839190
  C      7.269430   -1.095540    3.193790
  C      8.061300   -2.049920    3.762470
  C      7.990880   -2.481720    5.163000
  O      7.184150   -2.059210    5.953240
  O      8.928420   -3.394560    5.432210
  C      8.991700   -3.888860    6.763050
  S      9.233050   -2.744200    2.675120
  C      9.946480   -2.297430   -0.684260
  C     10.254770   -2.115810   -2.024570
  C     11.250950   -2.987660   -2.449500
  C     11.705540   -3.842930   -1.425750
  S     10.912400   -3.561390    0.061190
  C     12.690420   -4.705500   -1.962230
  C     12.864980   -4.394230   -3.325290
  C     11.975540   -3.297850   -3.672380
  C     11.854680   -2.687060   -4.885290
  C     10.944190   -1.631990   -5.108380
  N     10.202690   -0.777540   -5.292630
  C     12.641190   -3.069040   -5.992970
  N     13.288750   -3.371390   -6.889550
  C     13.792750   -5.214290   -3.958230
  C     14.334760   -6.153780   -3.093280
  S     13.677160   -6.005280   -1.465570
  C     15.265910   -7.176010   -3.383110
  S     15.627940   -8.393340   -2.200570
  C     16.655920   -9.301450   -3.287150
  C     16.734120   -8.624120   -4.496960
  C     15.973140   -7.423000   -4.565110
  C     16.150110   -6.763080   -5.804740
  C     17.014560   -7.426680   -6.621080
  C     17.463790   -7.073360   -7.972090
  O     18.256460   -7.725870   -8.605090
  O     16.891830   -5.944860   -8.403250
  C     17.256820   -5.525780   -9.711590
  S     17.650560   -8.902410   -5.934870
  C     17.279190  -10.474190   -2.826540
  C     17.827620  -11.499620   -3.543920
  C     18.815060  -12.398280   -2.880360
  O     19.061550  -12.449030   -1.697090
  C     19.445380  -13.156070   -3.977190
  C     20.486640  -14.036980   -3.927650
  C     20.945350  -14.629690   -5.125920
  C     20.317530  -14.288070   -6.359220
  C     20.786420  -14.874860   -7.550220
  C     21.826750  -15.760700   -7.497850
  C     22.454820  -16.112120   -6.295430
  C     22.014030  -15.549140   -5.129950
  F     22.274690  -16.324550   -8.634190
  C     19.234090  -13.378020   -6.379360
  C     18.799660  -12.828760   -5.204670
  C     17.702210  -11.908710   -4.918270
  C     16.626450  -11.679620   -5.742040
  C     15.450220  -11.030430   -5.321360
  N     14.466180  -10.531970   -5.001660
  C     16.518610  -12.182670   -7.054680
  N     16.375790  -12.563110   -8.127820
  H      4.396600    3.160020    7.965050
  H      0.441340    4.634240    7.337600
  H      0.661000    4.245430    4.895900
  H      5.746520    2.394040    6.073180
  H      1.991070    3.462600    2.966930
  H      5.644470    1.171410   -0.101810
  H      6.477790   -0.615640    3.738330
  H      9.309890   -4.927340    6.699910
  H      8.012430   -3.809710    7.238810
  H      9.719250   -3.307310    7.332380
  H      9.762630   -1.381790   -2.637010
  H     14.043620   -5.156630   -4.999270
  H     15.693950   -5.837100   -6.098960
  H     16.690250   -4.618800   -9.904230
  H     17.006840   -6.299630  -10.440000
  H     18.329900   -5.329660   -9.761050
  H     17.397800  -10.555970   -1.750260
  H     20.956150  -14.280030   -2.986210
  H     20.324460  -14.629530   -8.493690
  H     23.270640  -16.817180   -6.315610
  H     22.482510  -15.803830   -4.191180
  H     18.781670  -13.130060   -7.326340

 Total Charge           Charge          ....    0
 Multiplicity           Mult            ....    1
 Number of Electrons    NEL             ....  598
 Basis Dimension        Dim             .... 1282

ORBITAL ENERGIES
----------------

  NO   OCC          E(Eh)            E(eV)
   0   2.0000     -89.006317     -2421.9850
   1   2.0000     -89.004542     -2421.9367
   2   2.0000     -88.989569     -2421.5293
   3   2.0000     -88.986604     -2421.4486
   4   2.0000     -88.980975     -2421.2954
   5   2.0000     -88.976211     -2421.1658
   6   2.0000     -24.786047      -674.4626
   7   2.0000     -24.781697      -674.3442
   8   2.0000     -19.277967      -524.5801
   9   2.0000     -19.265978      -524.2539
  10   2.0000     -19.219291      -522.9835
  11   2.0000     -19.215674      -522.8851
  12   2.0000     -19.211470      -522.7707
  13   2.0000     -19.210713      -522.7501
  14   2.0000     -14.442665      -393.0049
  15   2.0000     -14.440857      -392.9557
  16   2.0000     -14.416709      -392.2986
  17   2.0000     -14.415692      -392.2709
  18   2.0000     -14.411473      -392.1561
  19   2.0000     -14.410291      -392.1240
  20   2.0000     -10.421246      -283.5765
  21   2.0000     -10.410667      -283.2887
  22   2.0000     -10.377811      -282.3946
  23   2.0000     -10.369846      -282.1779
  24   2.0000     -10.367008      -282.1006
  25   2.0000     -10.365034      -282.0469
  26   2.0000     -10.364437      -282.0307
  27   2.0000     -10.362341      -281.9736
  28   2.0000     -10.349196      -281.6159
  29   2.0000     -10.349001      -281.6106
  30   2.0000     -10.347269      -281.5635
  31   2.0000     -10.346515      -281.5430
  32   2.0000     -10.344874      -281.4983
  33   2.0000     -10.344440      -281.4865
  34   2.0000     -10.343332      -281.4564
  35   2.0000     -10.342641      -281.4376
  36   2.0000     -10.342040      -281.4212
  37   2.0000     -10.340613      -281.3824
  38   2.0000     -10.340154      -281.3699
  39   2.0000     -10.333784      -281.1966
  40   2.0000     -10.333049      -281.1766
  41   2.0000     -10.332415      -281.1593
  42   2.0000     -10.331835      -281.1435
  43   2.0000     -10.329471      -281.0792
  44   2.0000     -10.327821      -281.0343
  45   2.0000     -10.327742      -281.0321
  46   2.0000     -10.325726      -280.9773
  47   2.0000     -10.324000      -280.9303
  48   2.0000     -10.319994      -280.8213
  49   2.0000     -10.319957      -280.8203
  50   2.0000     -10.319292      -280.8022
  51   2.0000     -10.318738      -280.7871
  52   2.0000     -10.318473      -280.7799
  53   2.0000     -10.318378      -280.7774
  54   2.0000     -10.317468      -280.7526
  55   2.0000     -10.317078      -280.7420
  56   2.0000     -10.314691      -280.6770
  57   2.0000     -10.313653      -280.6488
  58   2.0000     -10.313063      -280.6327
  59   2.0000     -10.309210      -280.5279
  60   2.0000     -10.308245      -280.5016
  61   2.0000     -10.306796      -280.4622
  62   2.0000     -10.306493      -280.4539
  63   2.0000     -10.306157      -280.4448
  64   2.0000     -10.301928      -280.3297
  65   2.0000     -10.301513      -280.3184
  66   2.0000     -10.301215      -280.3103
  67   2.0000     -10.300749      -280.2976
  68   2.0000     -10.300601      -280.2936
  69   2.0000     -10.298487      -280.2361
  70   2.0000     -10.298019      -280.2233
  71   2.0000     -10.296130      -280.1719
  72   2.0000     -10.295969      -280.1676
  73   2.0000     -10.295733      -280.1611
  74   2.0000     -10.294747      -280.1343
  75   2.0000     -10.293458      -280.0992
  76   2.0000     -10.291965      -280.0586
  77   2.0000     -10.290617      -280.0219
  78   2.0000     -10.289888      -280.0021
  79   2.0000     -10.289100      -279.9807
  80   2.0000     -10.284999      -279.8691
  81   2.0000     -10.284236      -279.8483
  82   2.0000      -8.100656      -220.4300
  83   2.0000      -8.099296      -220.3930
  84   2.0000      -8.084459      -219.9893
  85   2.0000      -8.081986      -219.9220
  86   2.0000      -8.076041      -219.7603
  87   2.0000      -8.070392      -219.6065
  88   2.0000      -6.069963      -165.1721
  89   2.0000      -6.068611      -165.1353
  90   2.0000      -6.065753      -165.0575
  91   2.0000      -6.064353      -165.0194
  92   2.0000      -6.062920      -164.9804
  93   2.0000      -6.061537      -164.9428
  94   2.0000      -6.053823      -164.7329
  95   2.0000      -6.051410      -164.6672
  96   2.0000      -6.049618      -164.6185
  97   2.0000      -6.047144      -164.5511
  98   2.0000      -6.046506      -164.5338
  99   2.0000      -6.045763      -164.5136
 100   2.0000      -6.043933      -164.4638
 101   2.0000      -6.041459      -164.3965
 102   2.0000      -6.040028      -164.3575
 103   2.0000      -6.037356      -164.2848
 104   2.0000      -6.035631      -164.2379
 105   2.0000      -6.032067      -164.1409
 106   2.0000      -1.301174       -35.4067
 107   2.0000      -1.296639       -35.2834
 108   2.0000      -1.208417       -32.8827
 109   2.0000      -1.197980       -32.5987
 110   2.0000      -1.131106       -30.7789
 111   2.0000      -1.126575       -30.6557
 112   2.0000      -1.114323       -30.3223
 113   2.0000      -1.104877       -30.0652
 114   2.0000      -1.059655       -28.8347
 115   2.0000      -1.038785       -28.2668
 116   2.0000      -1.035602       -28.1802
 117   2.0000      -1.031445       -28.0670
 118   2.0000      -1.019469       -27.7412
 119   2.0000      -1.018953       -27.7271
 120   2.0000      -1.014177       -27.5971
 121   2.0000      -1.008869       -27.4527
 122   2.0000      -1.001421       -27.2501
 123   2.0000      -0.995964       -27.1016
 124   2.0000      -0.994485       -27.0613
 125   2.0000      -0.989288       -26.9199
 126   2.0000      -0.979579       -26.6557
 127   2.0000      -0.977805       -26.6074
 128   2.0000      -0.972699       -26.4685
 129   2.0000      -0.970978       -26.4216
 130   2.0000      -0.964784       -26.2531
 131   2.0000      -0.935937       -25.4681
 132   2.0000      -0.929426       -25.2910
 133   2.0000      -0.923788       -25.1375
 134   2.0000      -0.912464       -24.8294
 135   2.0000      -0.904370       -24.6092
 136   2.0000      -0.893446       -24.3119
 137   2.0000      -0.890335       -24.2272
 138   2.0000      -0.886373       -24.1194
 139   2.0000      -0.882603       -24.0168
 140   2.0000      -0.880155       -23.9502
 141   2.0000      -0.873608       -23.7721
 142   2.0000      -0.868547       -23.6344
 143   2.0000      -0.862792       -23.4778
 144   2.0000      -0.860083       -23.4040
 145   2.0000      -0.851475       -23.1698
 146   2.0000      -0.843411       -22.9504
 147   2.0000      -0.835423       -22.7330
 148   2.0000      -0.830470       -22.5982
 149   2.0000      -0.825523       -22.4636
 150   2.0000      -0.819634       -22.3034
 151   2.0000      -0.810703       -22.0603
 152   2.0000      -0.807815       -21.9818
 153   2.0000      -0.796935       -21.6857
 154   2.0000      -0.787833       -21.4380
 155   2.0000      -0.770510       -20.9667
 156   2.0000      -0.762617       -20.7519
 157   2.0000      -0.756417       -20.5831
 158   2.0000      -0.741303       -20.1719
 159   2.0000      -0.734963       -19.9994
 160   2.0000      -0.727198       -19.7881
 161   2.0000      -0.725544       -19.7431
 162   2.0000      -0.719984       -19.5918
 163   2.0000      -0.717329       -19.5195
 164   2.0000      -0.709772       -19.3139
 165   2.0000      -0.704844       -19.1798
 166   2.0000      -0.703949       -19.1554
 167   2.0000      -0.697780       -18.9876
 168   2.0000      -0.693424       -18.8690
 169   2.0000      -0.683313       -18.5939
 170   2.0000      -0.679069       -18.4784
 171   2.0000      -0.674791       -18.3620
 172   2.0000      -0.665098       -18.0982
 173   2.0000      -0.658698       -17.9241
 174   2.0000      -0.651236       -17.7210
 175   2.0000      -0.648354       -17.6426
 176   2.0000      -0.647355       -17.6154
 177   2.0000      -0.643726       -17.5167
 178   2.0000      -0.638641       -17.3783
 179   2.0000      -0.635265       -17.2865
 180   2.0000      -0.630454       -17.1555
 181   2.0000      -0.629644       -17.1335
 182   2.0000      -0.628703       -17.1079
 183   2.0000      -0.624582       -16.9957
 184   2.0000      -0.619172       -16.8485
 185   2.0000      -0.607789       -16.5388
 186   2.0000      -0.601595       -16.3702
 187   2.0000      -0.597449       -16.2574
 188   2.0000      -0.597108       -16.2481
 189   2.0000      -0.593219       -16.1423
 190   2.0000      -0.586796       -15.9675
 191   2.0000      -0.585714       -15.9381
 192   2.0000      -0.581571       -15.8254
 193   2.0000      -0.576345       -15.6831
 194   2.0000      -0.573826       -15.6146
 195   2.0000      -0.567702       -15.4480
 196   2.0000      -0.566998       -15.4288
 197   2.0000      -0.564682       -15.3658
 198   2.0000      -0.562033       -15.2937
 199   2.0000      -0.561118       -15.2688
 200   2.0000      -0.558598       -15.2002
 201   2.0000      -0.557553       -15.1718
 202   2.0000      -0.555142       -15.1062
 203   2.0000      -0.554089       -15.0775
 204   2.0000      -0.549199       -14.9445
 205   2.0000      -0.547722       -14.9043
 206   2.0000      -0.543635       -14.7931
 207   2.0000      -0.541890       -14.7456
 208   2.0000      -0.539708       -14.6862
 209   2.0000      -0.536973       -14.6118
 210   2.0000      -0.535293       -14.5661
 211   2.0000      -0.533250       -14.5105
 212   2.0000      -0.532019       -14.4770
 213   2.0000      -0.523890       -14.2558
 214   2.0000      -0.523184       -14.2366
 215   2.0000      -0.523010       -14.2318
 216   2.0000      -0.520445       -14.1620
 217   2.0000      -0.519004       -14.1228
 218   2.0000      -0.516335       -14.0502
 219   2.0000      -0.515270       -14.0212
 220   2.0000      -0.514207       -13.9923
 221   2.0000      -0.513640       -13.9769
 222   2.0000      -0.511451       -13.9173
 223   2.0000      -0.507970       -13.8226
 224   2.0000      -0.505740       -13.7619
 225   2.0000      -0.503288       -13.6952
 226   2.0000      -0.502491       -13.6735
 227   2.0000      -0.498915       -13.5762
 228   2.0000      -0.496916       -13.5218
 229   2.0000      -0.493783       -13.4365
 230   2.0000      -0.492145       -13.3920
 231   2.0000      -0.491257       -13.3678
 232   2.0000      -0.490799       -13.3553
 233   2.0000      -0.486304       -13.2330
 234   2.0000      -0.483361       -13.1529
 235   2.0000      -0.482219       -13.1218
 236   2.0000      -0.479362       -13.0441
 237   2.0000      -0.478482       -13.0201
 238   2.0000      -0.475492       -12.9388
 239   2.0000      -0.472714       -12.8632
 240   2.0000      -0.471596       -12.8328
 241   2.0000      -0.468249       -12.7417
 242   2.0000      -0.464195       -12.6314
 243   2.0000      -0.462304       -12.5799
 244   2.0000      -0.461034       -12.5454
 245   2.0000      -0.457924       -12.4608
 246   2.0000      -0.453421       -12.3382
 247   2.0000      -0.452538       -12.3142
 248   2.0000      -0.451942       -12.2980
 249   2.0000      -0.451396       -12.2831
 250   2.0000      -0.450395       -12.2559
 251   2.0000      -0.449189       -12.2231
 252   2.0000      -0.447183       -12.1685
 253   2.0000      -0.445550       -12.1240
 254   2.0000      -0.443710       -12.0740
 255   2.0000      -0.443019       -12.0552
 256   2.0000      -0.441033       -12.0011
 257   2.0000      -0.440507       -11.9868
 258   2.0000      -0.437956       -11.9174
 259   2.0000      -0.437279       -11.8990
 260   2.0000      -0.436439       -11.8761
 261   2.0000      -0.435996       -11.8640
 262   2.0000      -0.432841       -11.7782
 263   2.0000      -0.431343       -11.7374
 264   2.0000      -0.430932       -11.7263
 265   2.0000      -0.428949       -11.6723
 266   2.0000      -0.426659       -11.6100
 267   2.0000      -0.424384       -11.5481
 268   2.0000      -0.422057       -11.4847
 269   2.0000      -0.420838       -11.4516
 270   2.0000      -0.416838       -11.3427
 271   2.0000      -0.414877       -11.2894
 272   2.0000      -0.411689       -11.2026
 273   2.0000      -0.405597       -11.0369
 274   2.0000      -0.401070       -10.9137
 275   2.0000      -0.392706       -10.6861
 276   2.0000      -0.388332       -10.5671
 277   2.0000      -0.383665       -10.4401
 278   2.0000      -0.382059       -10.3964
 279   2.0000      -0.378717       -10.3054
 280   2.0000      -0.374559       -10.1923
 281   2.0000      -0.373013       -10.1502
 282   2.0000      -0.365383        -9.9426
 283   2.0000      -0.364828        -9.9275
 284   2.0000      -0.362645        -9.8681
 285   2.0000      -0.345609        -9.4045
 286   2.0000      -0.340126        -9.2553
 287   2.0000      -0.336296        -9.1511
 288   2.0000      -0.335315        -9.1244
 289   2.0000      -0.330846        -9.0028
 290   2.0000      -0.329670        -8.9708
 291   2.0000      -0.325331        -8.8527
 292   2.0000      -0.319144        -8.6844
 293   2.0000      -0.312829        -8.5125
 294   2.0000      -0.306419        -8.3381
 295   2.0000      -0.298683        -8.1276
 296   2.0000      -0.292755        -7.9663
 297   2.0000      -0.277602        -7.5539
 298   2.0000      -0.248849        -6.7715
 299   0.0000      -0.124779        -3.3954
 300   0.0000      -0.104576        -2.8457
 301   0.0000      -0.094325        -2.5667
 302   0.0000      -0.063454        -1.7267
 303   0.0000      -0.058298        -1.5864

MULLIKEN ATOMIC CHARGES
-----------------------
   0 C :   -0.096657
   1 C :    0.302633
   2 F :   -0.190017
   3 C :   -0.029305
   4 C :   -0.007360
   5 C :    0.098874
   6 C :    0.100649
   7 C :   -0.084410
   8 C :    0.039543
   9 C :    0.016440
  10 C :   -0.082435
  11 C :    0.136991
  12 O :   -0.143188
  13 C :   -0.143725
  14 C :    0.251323
  15 C :   -0.348381
  16 C :   -0.179080
  17 N :    0.162708
  18 C :   -0.190670
  19 N :    0.165493
  20 C :    0.073563
  21 C :   -0.141373
  22 S :    0.197390
  23 C :   -0.093147
  24 C :   -0.064731
  25 C :    0.133270
  26 C :    0.000941
  27 C :   -0.107475
  28 C :    0.205158
  29 O :   -0.188606
  30 O :   -0.307264
  31 C :    0.166108
  32 S :    0.175188
  33 C :   -0.060604
  34 C :   -0.066020
  35 C :    0.025021
  36 C :   -0.098483
  37 S :    0.201006
  38 C :   -0.085673
  39 C :    0.006267
  40 C :    0.300837
  41 C :   -0.285157
  42 C :   -0.188891
  43 N :    0.182404
  44 C :   -0.189675
  45 N :    0.176198
  46 C :   -0.038731
  47 C :   -0.059333
  48 S :    0.201789
  49 C :   -0.055715
  50 S :    0.173896
  51 C :   -0.166219
  52 C :   -0.033787
  53 C :    0.117003
  54 C :   -0.001418
  55 C :   -0.145446
  56 C :    0.210250
  57 O :   -0.197186
  58 O :   -0.295769
  59 C :    0.188254
  60 S :    0.205498
  61 C :    0.062431
  62 C :   -0.145114
  63 C :    0.138352
  64 O :   -0.145333
  65 C :    0.009312
  66 C :   -0.077248
  67 C :    0.095658
  68 C :    0.099336
  69 C :   -0.095317
  70 C :    0.302844
  71 C :   -0.035069
  72 C :   -0.007031
  73 F :   -0.190948
  74 C :   -0.087187
  75 C :    0.043555
  76 C :    0.273070
  77 C :   -0.350990
  78 C :   -0.197464
  79 N :    0.163613
  80 C :   -0.175253
  81 N :    0.160961
  82 H :   -0.001779
  83 H :    0.003359
  84 H :   -0.008302
  85 H :    0.000069
  86 H :   -0.011090
  87 H :    0.025326
  88 H :    0.019531
  89 H :    0.041625
  90 H :    0.052272
  91 H :    0.045425
  92 H :    0.020207
  93 H :    0.000899
  94 H :    0.011793
  95 H :    0.043007
  96 H :    0.038718
  97 H :    0.034722
  98 H :    0.020747
  99 H :   -0.013780
 100 H :   -0.002194
 101 H :    0.003320
 102 H :   -0.011090
 103 H :   -0.003725
Sum of atomic charges:    0.0000000

LOEWDIN ATOMIC CHARGES
----------------------
   0 C :   -0.041421
   1 C :    0.093524
   2 F :   -0.064207
   3 C :   -0.036821
   4 C :    0.004757
   5 C :   -0.019052
   6 C :    0.004059
   7 C :    0.011678
   8 C :   -0.017948
   9 C :   -0.060592
  10 C :    0.035183
  11 C :    0.082443
  12 O :   -0.143740
  13 C :   -0.092182
  14 C :    0.057031
  15 C :   -0.136832
  16 C :   -0.019734
  17 N :   -0.050576
  18 C :   -0.015621
  19 N :   -0.051215
  20 C :    0.039394
  21 C :   -0.177740
  22 S :    0.495835
  23 C :   -0.180823
  24 C :   -0.189762
  25 C :   -0.052933
  26 C :   -0.010344
  27 C :   -0.182080
  28 C :    0.069446
  29 O :   -0.166521
  30 O :   -0.094975
  31 C :    0.084675
  32 S :    0.434524
  33 C :   -0.177826
  34 C :   -0.024928
  35 C :   -0.060300
  36 C :   -0.181824
  37 S :    0.487333
  38 C :   -0.170712
  39 C :   -0.067728
  40 C :    0.080384
  41 C :   -0.094764
  42 C :   -0.017751
  43 N :   -0.024012
  44 C :   -0.014609
  45 N :   -0.029147
  46 C :   -0.013410
  47 C :   -0.181176
  48 S :    0.480420
  49 C :   -0.151863
  50 S :    0.469108
  51 C :   -0.197695
  52 C :   -0.162526
  53 C :   -0.072040
  54 C :   -0.011594
  55 C :   -0.194367
  56 C :    0.062240
  57 O :   -0.173536
  58 O :   -0.086255
  59 C :    0.085312
  60 S :    0.494857
  61 C :    0.029752
  62 C :   -0.095764
  63 C :    0.083526
  64 O :   -0.146423
  65 C :   -0.061434
  66 C :    0.034491
  67 C :   -0.020837
  68 C :    0.004238
  69 C :   -0.042202
  70 C :    0.092819
  71 C :   -0.039445
  72 C :    0.004350
  73 F :   -0.065380
  74 C :    0.008706
  75 C :   -0.014388
  76 C :    0.045078
  77 C :   -0.149546
  78 C :   -0.023066
  79 N :   -0.055158
  80 C :   -0.019642
  81 N :   -0.050856
  82 H :    0.043575
  83 H :    0.041895
  84 H :    0.035950
  85 H :    0.040551
  86 H :    0.039957
  87 H :    0.047714
  88 H :    0.043377
  89 H :    0.028335
  90 H :    0.027446
  91 H :    0.028542
  92 H :    0.039692
  93 H :    0.040646
  94 H :    0.040056
  95 H :    0.029879
  96 H :    0.026411
  97 H :    0.024624
  98 H :    0.045636
  99 H :    0.038850
 100 H :    0.043227
 101 H :    0.041313
 102 H :    0.034953
 103 H :    0.039530

  Mayer bond orders larger than 0.100000
B(  0-C ,  1-C ) :   1.4384 B(  0-C ,  6-C ) :   1.2047 B(  0-C , 82-H ) :   1.0065
B(  1-C ,  2-F ) :   1.0893 B(  1-C ,  3-C ) :   1.2571 B(  3-C ,  4-C ) :   1.4590
B(  3-C , 83-H ) :   0.9922 B(  4-C ,  5-C ) :   1.2367 B(  4-C , 84-H ) :   0.9966
B(  5-C ,  6-C ) :   1.2561 B(  5-C , 10-C ) :   1.1884 B(  6-C ,  7-C ) :   1.2011
B(  7-C ,  8-C ) :   1.4638 B(  7-C , 85-H ) :   0.9948 B(  8-C ,  9-C ) :   1.2177
B(  8-C , 14-C ) :   0.9948 B(  9-C , 10-C ) :   1.4704 B(  9-C , 11-C ) :   0.9188
B( 10-C , 86-H ) :   1.0156 B( 11-C , 12-O ) :   2.2708 B( 11-C , 13-C ) :   0.9402
B( 13-C , 14-C ) :   1.0592 B( 13-C , 20-C ) :   1.6232 B( 14-C , 15-C ) :   1.6364
B( 15-C , 16-C ) :   1.1393 B( 15-C , 18-C ) :   1.1642 B( 16-C , 17-N ) :   2.9900
B( 18-C , 19-N ) :   3.0026 B( 20-C , 21-C ) :   1.1671 B( 20-C , 87-H ) :   0.9303
B( 21-C , 22-S ) :   1.1065 B( 21-C , 25-C ) :   1.3429 B( 22-S , 23-C ) :   1.1672
B( 23-C , 24-C ) :   1.4644 B( 23-C , 33-C ) :   1.1915 B( 24-C , 25-C ) :   1.2735
B( 24-C , 32-S ) :   1.0464 B( 25-C , 26-C ) :   1.1529 B( 26-C , 27-C ) :   1.6176
B( 26-C , 88-H ) :   0.9947 B( 27-C , 28-C ) :   0.9432 B( 27-C , 32-S ) :   1.0785
B( 28-C , 29-O ) :   2.1433 B( 28-C , 30-O ) :   1.2426 B( 30-O , 31-C ) :   0.9077
B( 31-C , 89-H ) :   0.9827 B( 31-C , 90-H ) :   0.9650 B( 31-C , 91-H ) :   0.9827
B( 33-C , 34-C ) :   1.4218 B( 33-C , 37-S ) :   1.1062 B( 34-C , 35-C ) :   1.3207
B( 34-C , 92-H ) :   0.9910 B( 35-C , 36-C ) :   1.4218 B( 35-C , 40-C ) :   0.9883
B( 36-C , 37-S ) :   1.1299 B( 36-C , 38-C ) :   1.2005 B( 38-C , 39-C ) :   1.4166
B( 38-C , 48-S ) :   1.1341 B( 39-C , 40-C ) :   0.9975 B( 39-C , 46-C ) :   1.3157
B( 40-C , 41-C ) :   1.7209 B( 41-C , 42-C ) :   1.1299 B( 41-C , 44-C ) :   1.1341
B( 42-C , 43-N ) :   2.9944 B( 44-C , 45-N ) :   2.9974 B( 46-C , 47-C ) :   1.4497
B( 46-C , 93-H ) :   0.9893 B( 47-C , 48-S ) :   1.0876 B( 47-C , 49-C ) :   1.1664
B( 49-C , 50-S ) :   1.1591 B( 49-C , 51-C ) :   0.1010 B( 49-C , 53-C ) :   1.3997
B( 50-S , 51-C ) :   1.0947 B( 51-C , 52-C ) :   1.4312 B( 51-C , 61-C ) :   1.1898
B( 52-C , 53-C ) :   1.2513 B( 52-C , 60-S ) :   1.1017 B( 53-C , 54-C ) :   1.1292
B( 54-C , 55-C ) :   1.6244 B( 54-C , 94-H ) :   0.9963 B( 55-C , 56-C ) :   0.9508
B( 55-C , 60-S ) :   1.0652 B( 56-C , 57-O ) :   2.1422 B( 56-C , 58-O ) :   1.2522
B( 58-O , 59-C ) :   0.9147 B( 59-C , 95-H ) :   0.9809 B( 59-C , 96-H ) :   0.9762
B( 59-C , 97-H ) :   0.9763 B( 61-C , 62-C ) :   1.6029 B( 61-C , 98-H ) :   0.9297
B( 62-C , 63-C ) :   0.9408 B( 62-C , 76-C ) :   1.0815 B( 63-C , 64-O ) :   2.2693
B( 63-C , 65-C ) :   0.9215 B( 65-C , 66-C ) :   1.4748 B( 65-C , 75-C ) :   1.2175
B( 66-C , 67-C ) :   1.1882 B( 66-C , 99-H ) :   1.0148 B( 67-C , 68-C ) :   1.2585
B( 67-C , 72-C ) :   1.2373 B( 68-C , 69-C ) :   1.2047 B( 68-C , 74-C ) :   1.1996
B( 69-C , 70-C ) :   1.4391 B( 69-C ,100-H ) :   1.0066 B( 70-C , 71-C ) :   1.2569
B( 70-C , 73-F ) :   1.0883 B( 71-C , 72-C ) :   1.4579 B( 71-C ,101-H ) :   0.9935
B( 72-C ,102-H ) :   0.9968 B( 74-C , 75-C ) :   1.4700 B( 74-C ,103-H ) :   0.9947
B( 75-C , 76-C ) :   0.9952 B( 76-C , 77-C ) :   1.5986 B( 77-C , 78-C ) :   1.1660
B( 77-C , 80-C ) :   1.1398 B( 78-C , 79-N ) :   3.0098 B( 80-C , 81-N ) :   2.9911

-----------------------------------------------------------------------------
         ABSORPTION SPECTRUM VIA TRANSITION ELECTRIC DIPOLE MOMENTS
-----------------------------------------------------------------------------
State   Energy  Wavelength   fosc         T2         TX        TY        TZ
        (cm-1)    (nm)                  (au**2)     (au)      (au)      (au)
-----------------------------------------------------------------------------
   0   10762.3    929.2   0.562090786  17.19397   2.56191  -2.71565  -1.80440
   1   15953.0    626.8   1.463377684  30.19882  -3.10391   3.86032   2.37959
   2   18736.5    533.7   0.288812317   5.07462   1.09351  -1.96734  -0.09193
   3   19300.8    518.1   0.108242826   1.84629   0.77480  -1.07061  -0.31587
   4   24395.6    409.9   0.003521113   0.04752  -0.07276   0.19765  -0.05619
   5   24695.8    404.9   0.064462299   0.85933  -0.77874  -0.36337   0.34763
   6   24992.0    400.1   0.016094289   0.21201  -0.17783   0.30888   0.29150
   7   25852.0    386.8   0.199545091   2.54111  -1.49152   0.19730   0.52684
   8   26089.9    383.3   0.026097043   0.32930   0.29744  -0.46464  -0.15792
   9   26352.1    379.5   0.053591446   0.66951  -0.81536  -0.02355  -0.06438
  10   27185.9    367.8   0.056561144   0.68494   0.76179  -0.13254  -0.29503
  11   27371.1    365.3   0.021756846   0.26169  -0.31141   0.06951  -0.39985
  12   27978.1    357.4   0.034902900   0.41069   0.13783  -0.60823   0.14749
  13   28189.3    354.7   0.056504085   0.65989  -0.30576   0.64401  -0.38942
  14   28282.5    353.6   0.068384320   0.79600   0.74034  -0.47362  -0.15354
  15   29119.0    343.4   0.051965588   0.58751   0.70592  -0.13687  -0.26543
  16   29321.6    341.0   0.044498064   0.49961   0.00415   0.39748  -0.58447
  17   29506.7    338.9   0.008243998   0.09198   0.26791   0.04712  -0.13410
  18   30069.5    332.6   0.066006012   0.72266   0.65652  -0.51184   0.17221
  19   30447.6    328.4   0.111563292   1.20627   0.71026  -0.76713   0.33662
  20   30835.9    324.3   0.071541263   0.76379  -0.00326  -0.49270   0.72182
  21   31066.4    321.9   0.024817665   0.26299  -0.33482   0.07156   0.38180
  22   31374.8    318.7   0.243699414   2.55711   0.01671   0.86792  -1.34296
  23   31794.0    314.5   0.236460710   2.44844  -0.45191   0.73263  -1.30670
  24   31943.1    313.1   0.192459844   1.98353  -1.03991   0.45595   0.83320
  25   32198.8    310.6   0.108621716   1.11059  -0.15546  -0.39415   0.96492
  26   32745.6    305.4   0.158704006   1.59555   0.85823  -0.39878  -0.83664
  27   32788.0    305.0   0.115430916   1.15900  -0.39411   0.47354   0.88286
  28   32950.7    303.5   0.036238204   0.36206  -0.50235   0.18140   0.27711
  29   33487.1    298.6   0.347005741   3.41142  -1.35776   0.98497  -0.77313
  30   33620.2    297.4   0.347092833   3.39876  -0.97964   0.94602   1.24262
  31   33868.1    295.3   0.484540619   4.70994  -1.72056   0.79236   1.05915
  32   34360.5    291.0   0.059450554   0.56960   0.10798  -0.02003  -0.74669
  33   34512.9    289.7   0.062430668   0.59551   0.60603  -0.26405  -0.39814
  34   34627.1    288.8   0.008717503   0.08288   0.28720  -0.01479  -0.01343
  35   34705.1    288.1   0.004073868   0.03864   0.09737  -0.16550  -0.04210
  36   34927.8    286.3   0.073975834   0.69726  -0.67491   0.47003   0.14434
  37   35405.6    282.4   0.027640647   0.25701   0.29682  -0.36231   0.19402
  38   35562.6    281.2   0.028121893   0.26033  -0.08092   0.35248  -0.35992
  39   35987.1    277.9   0.111017659   1.01560  -0.22687   0.72643  -0.66062
  40   36101.4    277.0   0.099903634   0.91103   0.59228  -0.13836  -0.73559
  41   36324.1    275.3   0.210699976   1.90961  -1.25307   0.58237   0.01608
  42   36567.2    273.5   0.039745785   0.35783   0.43600  -0.12971  -0.38847
  43   36965.1    270.5   0.075023764   0.66816   0.76678  -0.25656   0.11997
  44   37070.0    269.8   0.011577322   0.10282   0.31480   0.05810  -0.01856
  45   37346.4    267.8   0.095392154   0.84089   0.81384  -0.38233  -0.17994
  46   37482.1    266.8   0.005343916   0.04694  -0.11692  -0.17038   0.06509
  47   37643.6    265.6   0.065441941   0.57232   0.55355  -0.37840   0.35030
  48   37907.7    263.8   0.087355732   0.75865  -0.45012   0.15793  -0.72876
  49   38173.2    262.0   0.010712433   0.09239  -0.17388  -0.21527   0.12574
  50   38213.2    261.7   0.086049266   0.74133  -0.75953   0.35273  -0.20005
  51   38247.9    261.5   0.003618866   0.03115  -0.04943   0.09497   0.14031
  52   38287.1    261.2   0.019750290   0.16982   0.34066  -0.15450   0.17293
  53   38561.3    259.3   0.005739352   0.04900   0.17672  -0.03140   0.12955
  54   38834.1    257.5   0.064628206   0.54788   0.24997  -0.50401   0.48101
  55   39141.6    255.5   0.028755226   0.24185   0.05019   0.20519  -0.44411
  56   39614.2    252.4   0.150119358   1.24756  -1.09821   0.17704  -0.10071
  57   39816.3    251.2   0.050466674   0.41727  -0.04999   0.25901  -0.58965

FINAL SINGLE POINT ENERGY     -5739.546978114883

DIPOLE MOMENT
-------------
                                X             Y             Z
Electronic contribution:     -0.01215      -0.66722      -2.51160
Nuclear contribution   :     -0.37461       0.57823       4.49155
                        -----------------------------------------
Total Dipole Moment    :     -0.38676      -0.08899       1.97995
                        -----------------------------------------
Magnitude (a.u.)       :      2.01934
Magnitude (Debye)      :      5.13274

Rotational constants in cm-1:     0.001946     0.000170     0.000159
Rotational constants in MHz :    58.332614     5.086633     4.779782

                             ****ORCA TERMINATED NORMALLY****
TOTAL RUN TIME: 0 days 0 hours 11 minutes 58 seconds 772 msec
