                         Program Version 4.2.0 -  RELEASE  -
|  1> # ORCA input file
|  2> # SCF done       -189.186176150902          0.000919630950
|  3> ! CAM-B3LYP def2-SVP def2/J RIJCOSX Grid4 TightSCF
|  4> %maxcore 5000
|  5> %tddft
|  6>     Mode sTDDFT
|  7>     Ethresh 5.0
|  8>     maxcore 5000
|  9> end
| 10>
| 11> %pal
| 12>   nprocs 6
| 13>   end
| 14> * xyz 0 1
| 15>    C       -9.87832         2.53802         1.83355
| 16>    C      -11.23479         2.65148         1.71383
| 17>    F      -11.82332         3.84888         1.82884
| 18>    C      -12.03129         1.51428         1.46932
| 19>    F      -13.35886         1.65540         1.35859
| 20>    C      -11.45955         0.27903         1.34698
| 21>    C      -10.06413         0.12907         1.46625
| 22>    C       -9.25751         1.27799         1.71349
| 23>    C       -7.85569         1.15160         1.83836
| 24>    C       -7.27726        -0.08551         1.71716
| 25>    C       -8.09067        -1.22702         1.47281
| 26>    C       -9.44746        -1.13623         1.35107
| 27>    C       -7.24579        -2.43485         1.40545
| 28>    O       -7.62532        -3.57821         1.29813
| 29>    C       -5.85108        -1.95411         1.62951
| 30>    C       -5.88447        -0.51073         1.79696
| 31>    C       -4.80086         0.31500         1.92987
| 32>    C       -4.88637         1.71817         2.05463
| 33>    N       -4.89385         2.86039         2.16572
| 34>    C       -3.45621        -0.11387         1.94323
| 35>    N       -2.34212        -0.38931         1.95636
| 36>    C       -4.79245        -2.77852         1.82588
| 37>    C       -4.78017        -4.18515         1.51093
| 38>    C       -4.18473        -5.10472         2.37914
| 39>    C       -4.20241        -6.44835         2.09833
| 40>    F       -3.63558        -7.27441         3.01141
| 41>    C       -4.75757        -6.98258         0.92235
| 42>    C       -5.29205        -6.04474         0.02554
| 43>    C       -5.30921        -4.70383         0.31958
| 44>    F       -5.77570        -3.86062        -0.61525
| 45>    C       -4.77594        -8.38482         0.60853
| 46>    N       -4.47512        -9.36865         1.52534
| 47>    C       -4.58733       -10.57496         0.91726
| 48>    C       -4.47201       -11.94721         1.11628
| 49>    C       -4.76857       -12.54205        -0.11559
| 50>    N       -5.05920       -11.55815        -1.04116
| 51>    C       -4.96116       -10.34876        -0.43222
| 52>    C       -5.08465        -8.97669        -0.62280
| 53>    C       -4.78498       -13.91310        -0.48403
| 54>    C       -4.58922       -14.93915         0.37546
| 55>    C       -4.56871       -16.33292         0.03776
| 56>    C       -4.60272       -16.83076        -1.27108
| 57>    C       -4.52291       -18.17956        -1.51391
| 58>    F       -4.58124       -18.58863        -2.79972
| 59>    C       -4.43417       -19.13856        -0.49356
| 60>    C       -4.46535       -18.64829         0.81930
| 61>    C       -4.50200       -17.29894         1.05966
| 62>    F       -4.49417       -16.88308         2.34097
| 63>    C       -4.38543       -20.55678        -0.71690
| 64>    C       -3.86814       -21.27631        -1.74228
| 65>    C       -4.28468       -22.70364        -1.89032
| 66>    O       -4.87842       -23.36766        -1.07397
| 67>    C       -3.86279       -23.09364        -3.24900
| 68>    C       -4.10759       -24.25603        -3.92232
| 69>    C       -3.61894       -24.40209        -5.23965
| 70>    C       -2.89018       -23.33279        -5.83754
| 71>    C       -2.40979       -23.48318        -7.15417
| 72>    C       -2.63909       -24.64080        -7.84306
| 73>    C       -3.35926       -25.69781        -7.25052
| 74>    C       -3.83958       -25.58234        -5.97632
| 75>    F       -3.57014       -26.82063        -7.95036
| 76>    F       -2.17994       -24.78271        -9.09325
| 77>    C       -2.64934       -22.14250        -5.11448
| 78>    C       -3.12223       -22.02742        -3.83432
| 79>    C       -2.99601       -20.95201        -2.85475
| 80>    C       -2.05773       -19.95695        -2.89522
| 81>    C       -1.80303       -19.07004        -1.83033
| 82>    N       -1.54046       -18.34825        -0.97737
| 83>    C       -1.18050       -19.74609        -3.97979
| 84>    N       -0.45325       -19.52188        -4.83873
| 85>    H       -9.28338         3.41854         2.01962
| 86>    H      -12.08269        -0.58148         1.16013
| 87>    H       -7.27394         2.03802         2.03300
| 88>    H      -10.04071        -2.01911         1.16768
| 89>    H       -3.88727        -2.39233         2.27690
| 90>    H       -3.73842        -4.76729         3.30179
| 91>    H       -5.71688        -6.36955        -0.90887
| 92>    H       -4.21804        -9.20991         2.48410
| 93>    H       -4.20207       -12.46191         2.01511
| 94>    H       -5.30769       -11.73121        -1.99999
| 95>    H       -5.33984        -8.46445        -1.52735
| 96>    H       -4.97801       -14.11222        -1.52999
| 97>    H       -4.43776       -14.71534         1.42099
| 98>    H       -4.66813       -16.16349        -2.11451
| 99>    H       -4.41538       -19.33394         1.65059
|100>    H       -4.88857       -21.15536         0.03787
|101>    H       -4.66606       -25.05337        -3.45603
|102>    H       -1.85387       -22.68526        -7.62118
|103>    H       -4.38885       -26.40030        -5.53706
|104>    H       -2.10456       -21.34551        -5.59458
|105> *
|106>
|107>                          ****END OF INPUT****

CARTESIAN COORDINATES (ANGSTROEM)
---------------------------------
  C     -9.878320    2.538020    1.833550
  C    -11.234790    2.651480    1.713830
  F    -11.823320    3.848880    1.828840
  C    -12.031290    1.514280    1.469320
  F    -13.358860    1.655400    1.358590
  C    -11.459550    0.279030    1.346980
  C    -10.064130    0.129070    1.466250
  C     -9.257510    1.277990    1.713490
  C     -7.855690    1.151600    1.838360
  C     -7.277260   -0.085510    1.717160
  C     -8.090670   -1.227020    1.472810
  C     -9.447460   -1.136230    1.351070
  C     -7.245790   -2.434850    1.405450
  O     -7.625320   -3.578210    1.298130
  C     -5.851080   -1.954110    1.629510
  C     -5.884470   -0.510730    1.796960
  C     -4.800860    0.315000    1.929870
  C     -4.886370    1.718170    2.054630
  N     -4.893850    2.860390    2.165720
  C     -3.456210   -0.113870    1.943230
  N     -2.342120   -0.389310    1.956360
  C     -4.792450   -2.778520    1.825880
  C     -4.780170   -4.185150    1.510930
  C     -4.184730   -5.104720    2.379140
  C     -4.202410   -6.448350    2.098330
  F     -3.635580   -7.274410    3.011410
  C     -4.757570   -6.982580    0.922350
  C     -5.292050   -6.044740    0.025540
  C     -5.309210   -4.703830    0.319580
  F     -5.775700   -3.860620   -0.615250
  C     -4.775940   -8.384820    0.608530
  N     -4.475120   -9.368650    1.525340
  C     -4.587330  -10.574960    0.917260
  C     -4.472010  -11.947210    1.116280
  C     -4.768570  -12.542050   -0.115590
  N     -5.059200  -11.558150   -1.041160
  C     -4.961160  -10.348760   -0.432220
  C     -5.084650   -8.976690   -0.622800
  C     -4.784980  -13.913100   -0.484030
  C     -4.589220  -14.939150    0.375460
  C     -4.568710  -16.332920    0.037760
  C     -4.602720  -16.830760   -1.271080
  C     -4.522910  -18.179560   -1.513910
  F     -4.581240  -18.588630   -2.799720
  C     -4.434170  -19.138560   -0.493560
  C     -4.465350  -18.648290    0.819300
  C     -4.502000  -17.298940    1.059660
  F     -4.494170  -16.883080    2.340970
  C     -4.385430  -20.556780   -0.716900
  C     -3.868140  -21.276310   -1.742280
  C     -4.284680  -22.703640   -1.890320
  O     -4.878420  -23.367660   -1.073970
  C     -3.862790  -23.093640   -3.249000
  C     -4.107590  -24.256030   -3.922320
  C     -3.618940  -24.402090   -5.239650
  C     -2.890180  -23.332790   -5.837540
  C     -2.409790  -23.483180   -7.154170
  C     -2.639090  -24.640800   -7.843060
  C     -3.359260  -25.697810   -7.250520
  C     -3.839580  -25.582340   -5.976320
  F     -3.570140  -26.820630   -7.950360
  F     -2.179940  -24.782710   -9.093250
  C     -2.649340  -22.142500   -5.114480
  C     -3.122230  -22.027420   -3.834320
  C     -2.996010  -20.952010   -2.854750
  C     -2.057730  -19.956950   -2.895220
  C     -1.803030  -19.070040   -1.830330
  N     -1.540460  -18.348250   -0.977370
  C     -1.180500  -19.746090   -3.979790
  N     -0.453250  -19.521880   -4.838730
  H     -9.283380    3.418540    2.019620
  H    -12.082690   -0.581480    1.160130
  H     -7.273940    2.038020    2.033000
  H    -10.040710   -2.019110    1.167680
  H     -3.887270   -2.392330    2.276900
  H     -3.738420   -4.767290    3.301790
  H     -5.716880   -6.369550   -0.908870
  H     -4.218040   -9.209910    2.484100
  H     -4.202070  -12.461910    2.015110
  H     -5.307690  -11.731210   -1.999990
  H     -5.339840   -8.464450   -1.527350
  H     -4.978010  -14.112220   -1.529990
  H     -4.437760  -14.715340    1.420990
  H     -4.668130  -16.163490   -2.114510
  H     -4.415380  -19.333940    1.650590
  H     -4.888570  -21.155360    0.037870
  H     -4.666060  -25.053370   -3.456030
  H     -1.853870  -22.685260   -7.621180
  H     -4.388850  -26.400300   -5.537060
  H     -2.104560  -21.345510   -5.594580

 Total Charge           Charge          ....    0
 Multiplicity           Mult            ....    1
 Number of Electrons    NEL             ....  474
 Basis Dimension        Dim             .... 1080

ORBITAL ENERGIES
----------------

  NO   OCC          E(Eh)            E(eV)
   0   2.0000     -24.801381      -674.8799
   1   2.0000     -24.800330      -674.8513
   2   2.0000     -24.800316      -674.8509
   3   2.0000     -24.799278      -674.8227
   4   2.0000     -24.798752      -674.8083
   5   2.0000     -24.798629      -674.8050
   6   2.0000     -24.790078      -674.5723
   7   2.0000     -24.787045      -674.4898
   8   2.0000     -19.221166      -523.0345
   9   2.0000     -19.219317      -522.9842
  10   2.0000     -14.465174      -393.6174
  11   2.0000     -14.461674      -393.5222
  12   2.0000     -14.421046      -392.4166
  13   2.0000     -14.420868      -392.4118
  14   2.0000     -14.418939      -392.3593
  15   2.0000     -14.417790      -392.3280
  16   2.0000     -10.384807      -282.5850
  17   2.0000     -10.383990      -282.5627
  18   2.0000     -10.382556      -282.5237
  19   2.0000     -10.382100      -282.5113
  20   2.0000     -10.373239      -282.2702
  21   2.0000     -10.372253      -282.2433
  22   2.0000     -10.372204      -282.2420
  23   2.0000     -10.369850      -282.1780
  24   2.0000     -10.369799      -282.1766
  25   2.0000     -10.364163      -282.0232
  26   2.0000     -10.349217      -281.6165
  27   2.0000     -10.346452      -281.5413
  28   2.0000     -10.346304      -281.5372
  29   2.0000     -10.342752      -281.4406
  30   2.0000     -10.324406      -280.9414
  31   2.0000     -10.323355      -280.9128
  32   2.0000     -10.323291      -280.9110
  33   2.0000     -10.321242      -280.8553
  34   2.0000     -10.320890      -280.8457
  35   2.0000     -10.318567      -280.7825
  36   2.0000     -10.318036      -280.7680
  37   2.0000     -10.316634      -280.7299
  38   2.0000     -10.314088      -280.6606
  39   2.0000     -10.313818      -280.6533
  40   2.0000     -10.312849      -280.6269
  41   2.0000     -10.312032      -280.6047
  42   2.0000     -10.311653      -280.5943
  43   2.0000     -10.311443      -280.5886
  44   2.0000     -10.309289      -280.5300
  45   2.0000     -10.307608      -280.4843
  46   2.0000     -10.307147      -280.4717
  47   2.0000     -10.306271      -280.4479
  48   2.0000     -10.305757      -280.4339
  49   2.0000     -10.305410      -280.4245
  50   2.0000     -10.305179      -280.4182
  51   2.0000     -10.304638      -280.4035
  52   2.0000     -10.304237      -280.3925
  53   2.0000     -10.303502      -280.3726
  54   2.0000     -10.303337      -280.3681
  55   2.0000     -10.302402      -280.3426
  56   2.0000     -10.302036      -280.3326
  57   2.0000     -10.301560      -280.3197
  58   2.0000     -10.301460      -280.3170
  59   2.0000     -10.299212      -280.2558
  60   2.0000     -10.298318      -280.2315
  61   2.0000     -10.296797      -280.1901
  62   2.0000     -10.296749      -280.1888
  63   2.0000     -10.295973      -280.1677
  64   2.0000     -10.295474      -280.1541
  65   2.0000     -10.292708      -280.0788
  66   2.0000     -10.291866      -280.0559
  67   2.0000     -10.282984      -279.8142
  68   2.0000     -10.274299      -279.5779
  69   2.0000     -10.270102      -279.4637
  70   2.0000      -1.323852       -36.0238
  71   2.0000      -1.321979       -35.9729
  72   2.0000      -1.312370       -35.7114
  73   2.0000      -1.311345       -35.6835
  74   2.0000      -1.308956       -35.6185
  75   2.0000      -1.307128       -35.5688
  76   2.0000      -1.305540       -35.5256
  77   2.0000      -1.301514       -35.4160
  78   2.0000      -1.136776       -30.9332
  79   2.0000      -1.134859       -30.8811
  80   2.0000      -1.096509       -29.8375
  81   2.0000      -1.060328       -28.8530
  82   2.0000      -1.024465       -27.8771
  83   2.0000      -1.021838       -27.8056
  84   2.0000      -1.008321       -27.4378
  85   2.0000      -1.005907       -27.3721
  86   2.0000      -0.999532       -27.1986
  87   2.0000      -0.997376       -27.1400
  88   2.0000      -0.987370       -26.8677
  89   2.0000      -0.984309       -26.7844
  90   2.0000      -0.980805       -26.6891
  91   2.0000      -0.979780       -26.6612
  92   2.0000      -0.937044       -25.4983
  93   2.0000      -0.935075       -25.4447
  94   2.0000      -0.922272       -25.0963
  95   2.0000      -0.918499       -24.9936
  96   2.0000      -0.902929       -24.5699
  97   2.0000      -0.899503       -24.4767
  98   2.0000      -0.894520       -24.3411
  99   2.0000      -0.893740       -24.3199
 100   2.0000      -0.887235       -24.1429
 101   2.0000      -0.873792       -23.7771
 102   2.0000      -0.870236       -23.6803
 103   2.0000      -0.859738       -23.3947
 104   2.0000      -0.852272       -23.1915
 105   2.0000      -0.848357       -23.0850
 106   2.0000      -0.844099       -22.9691
 107   2.0000      -0.842167       -22.9165
 108   2.0000      -0.840801       -22.8794
 109   2.0000      -0.814417       -22.1614
 110   2.0000      -0.803543       -21.8655
 111   2.0000      -0.780421       -21.2363
 112   2.0000      -0.771259       -20.9870
 113   2.0000      -0.768741       -20.9185
 114   2.0000      -0.761736       -20.7279
 115   2.0000      -0.743143       -20.2220
 116   2.0000      -0.737095       -20.0574
 117   2.0000      -0.735067       -20.0022
 118   2.0000      -0.726919       -19.7805
 119   2.0000      -0.721345       -19.6288
 120   2.0000      -0.718953       -19.5637
 121   2.0000      -0.715997       -19.4833
 122   2.0000      -0.706444       -19.2233
 123   2.0000      -0.698288       -19.0014
 124   2.0000      -0.697146       -18.9703
 125   2.0000      -0.691327       -18.8120
 126   2.0000      -0.685504       -18.6535
 127   2.0000      -0.684900       -18.6371
 128   2.0000      -0.683658       -18.6033
 129   2.0000      -0.664319       -18.0770
 130   2.0000      -0.661536       -18.0013
 131   2.0000      -0.658277       -17.9126
 132   2.0000      -0.654566       -17.8116
 133   2.0000      -0.651501       -17.7282
 134   2.0000      -0.647463       -17.6184
 135   2.0000      -0.645453       -17.5637
 136   2.0000      -0.642923       -17.4948
 137   2.0000      -0.635339       -17.2885
 138   2.0000      -0.629459       -17.1285
 139   2.0000      -0.623823       -16.9751
 140   2.0000      -0.619124       -16.8472
 141   2.0000      -0.617427       -16.8011
 142   2.0000      -0.615107       -16.7379
 143   2.0000      -0.609940       -16.5973
 144   2.0000      -0.604309       -16.4441
 145   2.0000      -0.594358       -16.1733
 146   2.0000      -0.588347       -16.0097
 147   2.0000      -0.588046       -16.0016
 148   2.0000      -0.586422       -15.9574
 149   2.0000      -0.583268       -15.8715
 150   2.0000      -0.581985       -15.8366
 151   2.0000      -0.575224       -15.6526
 152   2.0000      -0.573474       -15.6050
 153   2.0000      -0.572485       -15.5781
 154   2.0000      -0.567731       -15.4488
 155   2.0000      -0.562383       -15.3032
 156   2.0000      -0.561259       -15.2726
 157   2.0000      -0.556683       -15.1481
 158   2.0000      -0.556649       -15.1472
 159   2.0000      -0.555631       -15.1195
 160   2.0000      -0.550773       -14.9873
 161   2.0000      -0.549912       -14.9639
 162   2.0000      -0.548069       -14.9137
 163   2.0000      -0.544691       -14.8218
 164   2.0000      -0.543803       -14.7976
 165   2.0000      -0.542334       -14.7577
 166   2.0000      -0.541308       -14.7297
 167   2.0000      -0.539994       -14.6940
 168   2.0000      -0.537735       -14.6325
 169   2.0000      -0.536542       -14.6001
 170   2.0000      -0.535121       -14.5614
 171   2.0000      -0.533345       -14.5131
 172   2.0000      -0.531650       -14.4669
 173   2.0000      -0.527719       -14.3600
 174   2.0000      -0.525707       -14.3052
 175   2.0000      -0.524455       -14.2711
 176   2.0000      -0.521489       -14.1904
 177   2.0000      -0.520090       -14.1524
 178   2.0000      -0.516646       -14.0586
 179   2.0000      -0.515290       -14.0218
 180   2.0000      -0.511355       -13.9147
 181   2.0000      -0.508406       -13.8344
 182   2.0000      -0.506194       -13.7742
 183   2.0000      -0.500842       -13.6286
 184   2.0000      -0.499289       -13.5863
 185   2.0000      -0.498098       -13.5539
 186   2.0000      -0.493703       -13.4343
 187   2.0000      -0.492077       -13.3901
 188   2.0000      -0.486586       -13.2407
 189   2.0000      -0.486043       -13.2259
 190   2.0000      -0.482537       -13.1305
 191   2.0000      -0.474780       -12.9194
 192   2.0000      -0.473974       -12.8975
 193   2.0000      -0.471920       -12.8416
 194   2.0000      -0.469390       -12.7727
 195   2.0000      -0.466792       -12.7021
 196   2.0000      -0.464067       -12.6279
 197   2.0000      -0.463266       -12.6061
 198   2.0000      -0.454989       -12.3809
 199   2.0000      -0.453939       -12.3523
 200   2.0000      -0.453069       -12.3286
 201   2.0000      -0.451491       -12.2857
 202   2.0000      -0.450593       -12.2613
 203   2.0000      -0.448064       -12.1924
 204   2.0000      -0.447905       -12.1881
 205   2.0000      -0.446255       -12.1432
 206   2.0000      -0.444087       -12.0842
 207   2.0000      -0.443830       -12.0772
 208   2.0000      -0.439881       -11.9698
 209   2.0000      -0.433774       -11.8036
 210   2.0000      -0.431975       -11.7547
 211   2.0000      -0.430302       -11.7091
 212   2.0000      -0.429354       -11.6833
 213   2.0000      -0.428100       -11.6492
 214   2.0000      -0.427917       -11.6442
 215   2.0000      -0.419790       -11.4231
 216   2.0000      -0.414816       -11.2877
 217   2.0000      -0.406693       -11.0667
 218   2.0000      -0.405311       -11.0291
 219   2.0000      -0.392124       -10.6702
 220   2.0000      -0.389984       -10.6120
 221   2.0000      -0.382869       -10.4184
 222   2.0000      -0.377234       -10.2651
 223   2.0000      -0.364172        -9.9096
 224   2.0000      -0.346965        -9.4414
 225   2.0000      -0.344795        -9.3823
 226   2.0000      -0.338939        -9.2230
 227   2.0000      -0.331447        -9.0191
 228   2.0000      -0.328228        -8.9315
 229   2.0000      -0.321308        -8.7432
 230   2.0000      -0.317145        -8.6299
 231   2.0000      -0.315989        -8.5985
 232   2.0000      -0.304170        -8.2769
 233   2.0000      -0.301032        -8.1915
 234   2.0000      -0.295199        -8.0328
 235   2.0000      -0.292450        -7.9580
 236   2.0000      -0.232842        -6.3360
 237   0.0000      -0.100476        -2.7341
 238   0.0000      -0.093387        -2.5412
 239   0.0000      -0.063796        -1.7360
 240   0.0000      -0.059969        -1.6319
 241   0.0000      -0.046044        -1.2529

MULLIKEN ATOMIC CHARGES
-----------------------
   0 C :   -0.105778
   1 C :    0.241679
   2 F :   -0.169999
   3 C :    0.237718
   4 F :   -0.171147
   5 C :   -0.102699
   6 C :    0.115789
   7 C :    0.112227
   8 C :   -0.082481
   9 C :    0.053242
  10 C :   -0.010257
  11 C :   -0.076070
  12 C :    0.148247
  13 O :   -0.138312
  14 C :   -0.077432
  15 C :    0.302255
  16 C :   -0.333545
  17 C :   -0.182786
  18 N :    0.151994
  19 C :   -0.200853
  20 N :    0.162521
  21 C :   -0.021413
  22 C :   -0.005091
  23 C :   -0.069305
  24 C :    0.215580
  25 F :   -0.209346
  26 C :    0.096193
  27 C :   -0.110354
  28 C :    0.321520
  29 F :   -0.180167
  30 C :    0.050098
  31 N :   -0.030381
  32 C :    0.108159
  33 C :   -0.165020
  34 C :    0.099381
  35 N :   -0.036629
  36 C :    0.121060
  37 C :   -0.169754
  38 C :    0.044463
  39 C :   -0.025246
  40 C :    0.055087
  41 C :   -0.081779
  42 C :    0.268134
  43 F :   -0.185849
  44 C :   -0.001667
  45 C :   -0.064279
  46 C :    0.267749
  47 F :   -0.191155
  48 C :    0.016297
  49 C :   -0.107347
  50 C :    0.131774
  51 O :   -0.138379
  52 C :    0.018074
  53 C :   -0.085235
  54 C :    0.115122
  55 C :    0.114328
  56 C :   -0.107571
  57 C :    0.243122
  58 C :    0.237597
  59 C :   -0.104963
  60 F :   -0.171633
  61 F :   -0.170529
  62 C :   -0.083869
  63 C :    0.035594
  64 C :    0.292477
  65 C :   -0.320321
  66 C :   -0.213111
  67 N :    0.175426
  68 C :   -0.178238
  69 N :    0.151769
  70 H :    0.008975
  71 H :   -0.000600
  72 H :   -0.006066
  73 H :   -0.009821
  74 H :    0.040085
  75 H :   -0.005310
  76 H :   -0.013263
  77 H :    0.131543
  78 H :   -0.027974
  79 H :    0.121829
  80 H :   -0.033151
  81 H :   -0.029981
  82 H :   -0.007017
  83 H :   -0.015939
  84 H :   -0.002528
  85 H :    0.029625
  86 H :   -0.008588
  87 H :    0.005964
  88 H :    0.000469
  89 H :   -0.002936
Sum of atomic charges:   -0.0000000

LOEWDIN ATOMIC CHARGES
----------------------
   0 C :   -0.029011
   1 C :    0.067081
   2 F :   -0.047988
   3 C :    0.068404
   4 F :   -0.048646
   5 C :   -0.032933
   6 C :   -0.007907
   7 C :   -0.006204
   8 C :    0.018386
   9 C :   -0.023310
  10 C :   -0.051577
  11 C :    0.030974
  12 C :    0.082313
  13 O :   -0.130479
  14 C :   -0.082842
  15 C :    0.074171
  16 C :   -0.132222
  17 C :   -0.017219
  18 N :   -0.049147
  19 C :   -0.022504
  20 N :   -0.045534
  21 C :    0.078625
  22 C :   -0.066150
  23 C :   -0.013626
  24 C :    0.071200
  25 F :   -0.075244
  26 C :   -0.023304
  27 C :   -0.033672
  28 C :    0.108280
  29 F :   -0.053386
  30 C :   -0.002602
  31 N :    0.077257
  32 C :   -0.015565
  33 C :   -0.083012
  34 C :   -0.002280
  35 N :    0.070677
  36 C :   -0.020789
  37 C :   -0.085827
  38 C :   -0.008996
  39 C :   -0.030327
  40 C :   -0.020021
  41 C :   -0.033522
  42 C :    0.097286
  43 F :   -0.058660
  44 C :   -0.066674
  45 C :   -0.013283
  46 C :    0.085885
  47 F :   -0.065508
  48 C :    0.073346
  49 C :   -0.083835
  50 C :    0.084927
  51 O :   -0.138308
  52 C :   -0.054863
  53 C :    0.031458
  54 C :   -0.009613
  55 C :   -0.004973
  56 C :   -0.030211
  57 C :    0.067304
  58 C :    0.066889
  59 C :   -0.032820
  60 F :   -0.049305
  61 F :   -0.048687
  62 C :    0.014259
  63 C :   -0.018253
  64 C :    0.068582
  65 C :   -0.129408
  66 C :   -0.019894
  67 N :   -0.041699
  68 C :   -0.017051
  69 N :   -0.050523
  70 H :    0.048116
  71 H :    0.044965
  72 H :    0.040040
  73 H :    0.040535
  74 H :    0.047742
  75 H :    0.044461
  76 H :    0.040905
  77 H :    0.083602
  78 H :    0.026628
  79 H :    0.089287
  80 H :    0.024366
  81 H :    0.025427
  82 H :    0.031749
  83 H :    0.037510
  84 H :    0.044607
  85 H :    0.049236
  86 H :    0.040782
  87 H :    0.047303
  88 H :    0.045011
  89 H :    0.039844

  Mayer bond orders larger than 0.100000
B(  0-C ,  1-C ) :   1.4437 B(  0-C ,  5-C ) :   0.1082 B(  0-C ,  7-C ) :   1.1862
B(  0-C , 70-H ) :   1.0064 B(  1-C ,  2-F ) :   1.1364 B(  1-C ,  3-C ) :   1.1898
B(  3-C ,  4-F ) :   1.1339 B(  3-C ,  5-C ) :   1.4444 B(  5-C ,  6-C ) :   1.1923
B(  5-C , 71-H ) :   1.0066 B(  6-C ,  7-C ) :   1.2536 B(  6-C , 11-C ) :   1.1902
B(  7-C ,  8-C ) :   1.2229 B(  8-C ,  9-C ) :   1.4439 B(  8-C , 72-H ) :   0.9891
B(  9-C , 10-C ) :   1.2195 B(  9-C , 15-C ) :   0.9960 B( 10-C , 11-C ) :   1.4758
B( 10-C , 12-C ) :   0.9419 B( 11-C , 73-H ) :   1.0157 B( 12-C , 13-O ) :   2.2324
B( 12-C , 14-C ) :   0.9293 B( 14-C , 15-C ) :   1.0530 B( 14-C , 21-C ) :   1.6842
B( 15-C , 16-C ) :   1.6534 B( 16-C , 17-C ) :   1.1416 B( 16-C , 19-C ) :   1.1398
B( 17-C , 18-N ) :   2.9650 B( 19-C , 20-N ) :   2.9845 B( 21-C , 22-C ) :   1.0597
B( 21-C , 74-H ) :   0.9457 B( 22-C , 23-C ) :   1.2737 B( 22-C , 28-C ) :   1.2967
B( 23-C , 24-C ) :   1.3972 B( 23-C , 75-H ) :   1.0008 B( 24-C , 25-F ) :   1.0731
B( 24-C , 26-C ) :   1.2637 B( 26-C , 27-C ) :   1.2938 B( 26-C , 30-C ) :   1.0491
B( 27-C , 28-C ) :   1.3911 B( 27-C , 76-H ) :   0.9956 B( 28-C , 29-F ) :   1.1237
B( 30-C , 31-N ) :   1.2143 B( 30-C , 37-C ) :   1.4119 B( 31-N , 32-C ) :   1.1826
B( 31-N , 77-H ) :   0.9194 B( 32-C , 33-C ) :   1.2579 B( 32-C , 36-C ) :   1.3066
B( 33-C , 34-C ) :   1.4076 B( 33-C , 78-H ) :   1.0320 B( 34-C , 35-N ) :   1.1674
B( 34-C , 38-C ) :   1.1151 B( 35-N , 36-C ) :   1.1693 B( 35-N , 79-H ) :   0.9362
B( 36-C , 37-C ) :   1.2580 B( 37-C , 80-H ) :   1.0233 B( 38-C , 39-C ) :   1.6608
B( 38-C , 81-H ) :   0.9559 B( 39-C , 40-C ) :   1.1090 B( 39-C , 82-H ) :   0.9847
B( 40-C , 41-C ) :   1.2818 B( 40-C , 46-C ) :   1.2731 B( 41-C , 42-C ) :   1.4053
B( 41-C , 83-H ) :   0.9902 B( 42-C , 43-F ) :   1.1017 B( 42-C , 44-C ) :   1.2858
B( 44-C , 45-C ) :   1.2626 B( 44-C , 48-C ) :   1.0612 B( 45-C , 46-C ) :   1.3967
B( 45-C , 84-H ) :   1.0016 B( 46-C , 47-F ) :   1.1015 B( 48-C , 49-C ) :   1.7054
B( 48-C , 85-H ) :   0.9378 B( 49-C , 50-C ) :   0.9344 B( 49-C , 64-C ) :   1.0207
B( 50-C , 51-O ) :   2.2708 B( 50-C , 52-C ) :   0.9213 B( 52-C , 53-C ) :   1.4700
B( 52-C , 63-C ) :   1.2203 B( 53-C , 54-C ) :   1.1962 B( 53-C , 86-H ) :   1.0163
B( 54-C , 55-C ) :   1.2568 B( 54-C , 59-C ) :   1.1909 B( 55-C , 56-C ) :   1.1895
B( 55-C , 62-C ) :   1.2148 B( 56-C , 57-C ) :   1.4417 B( 56-C , 59-C ) :   0.1089
B( 56-C , 87-H ) :   1.0069 B( 57-C , 58-C ) :   1.1912 B( 57-C , 61-F ) :   1.1347
B( 58-C , 59-C ) :   1.4451 B( 58-C , 60-F ) :   1.1334 B( 59-C , 88-H ) :   1.0066
B( 62-C , 63-C ) :   1.4558 B( 62-C , 89-H ) :   0.9925 B( 63-C , 64-C ) :   0.9997
B( 64-C , 65-C ) :   1.6651 B( 65-C , 66-C ) :   1.1643 B( 65-C , 68-C ) :   1.1328
B( 66-C , 67-N ) :   3.0085 B( 68-C , 69-N ) :   2.9825

-----------------------------------------------------------------------------
         ABSORPTION SPECTRUM VIA TRANSITION ELECTRIC DIPOLE MOMENTS
-----------------------------------------------------------------------------
State   Energy  Wavelength   fosc         T2         TX        TY        TZ
        (cm-1)    (nm)                  (au**2)     (au)      (au)      (au)
-----------------------------------------------------------------------------
   0   15732.1    635.6   1.925108498  40.28500  -0.89961   6.13764   1.34351
   1   18411.2    543.1   0.016423924   0.29368   0.16586  -0.08502  -0.50886
   2   24599.7    406.5   0.206764628   2.76708  -0.22196   1.64051   0.16292
   3   25693.6    389.2   0.280606220   3.59541  -0.23058  -1.87960  -0.09665
   4   26281.3    380.5   0.044009813   0.55129  -0.33503  -0.65985  -0.06035
   5   27854.6    359.0   0.336629670   3.97861  -0.18067  -1.85019  -0.72303
   6   28068.4    356.3   0.102463584   1.20178  -1.04730   0.32115   0.04245
   7   28234.6    354.2   0.056549366   0.65936  -0.63287   0.37979   0.33851
   8   28873.8    346.3   0.137511612   1.56787   0.07746  -1.24789   0.06813
   9   29358.8    340.6   0.025068825   0.28111  -0.41677  -0.18768   0.26868
  10   29562.2    338.3   0.057668636   0.64221  -0.68120   0.26888  -0.32540
  11   29638.9    337.4   0.034867776   0.38729  -0.42910  -0.24862   0.37597
  12   30410.5    328.8   0.011871699   0.12852   0.02716   0.26483   0.24010
  13   31032.4    322.2   0.032365842   0.34336   0.19415  -0.47558  -0.28194
  14   31628.9    316.2   0.093189270   0.96997   0.29365  -0.31431  -0.88597
  15   31987.0    312.6   0.042561033   0.43804  -0.07158   0.61205  -0.24148
  16   32297.3    309.6   0.014212138   0.14487  -0.04010   0.13687  -0.35288
  17   32661.0    306.2   0.022614849   0.22795   0.24269   0.38729  -0.13804
  18   33223.7    301.0   0.184637065   1.82956  -1.29582   0.38782   0.00201
  19   34369.9    291.0   0.641624198   6.14579   1.55014   1.57697   1.12072
  20   34501.8    289.8   0.584716470   5.57929  -2.32391   0.40296   0.12799
  21   35290.4    283.4   0.657252183   6.13127  -0.08743   2.02153   1.42725
  22   35921.9    278.4   0.271098216   2.48452  -1.07935   1.14814   0.03614
  23   36312.5    275.4   0.087327963   0.79172  -0.55880   0.58280   0.37391
  24   36875.7    271.2   0.082295472   0.73470   0.40392   0.58072   0.48406
  25   37334.8    267.8   0.043139407   0.38040  -0.28070   0.35622   0.41798
  26   37439.7    267.1   0.064359347   0.56592   0.58739  -0.19023   0.42978
  27   37728.2    265.1   0.055840056   0.48725   0.41574   0.40469   0.38812
  28   37793.9    264.6   0.025832411   0.22502   0.04340  -0.21344   0.42140
  29   38479.1    259.9   0.027754621   0.23746   0.06221   0.12956   0.46562
  30   38758.7    258.0   0.027708035   0.23535  -0.00803  -0.42467   0.23439
  31   39044.4    256.1   0.015041920   0.12683   0.14765   0.11267  -0.30387
  32   39226.4    254.9   0.172170189   1.44496  -0.06333  -1.19742  -0.08445
  33   39813.2    251.2   0.023173406   0.19162   0.40092  -0.07061   0.16093
  34   40027.1    249.8   0.007800269   0.06416  -0.04467   0.15660  -0.19400
  35   40189.8    248.8   0.126332604   1.03484   0.40158   0.91424  -0.19428

FINAL SINGLE POINT ENERGY     -3343.363514152134

DIPOLE MOMENT
-------------
                                X             Y             Z
Electronic contribution:     -6.51800       3.79330      -9.43030
Nuclear contribution   :      4.06334      -4.96517       9.23907
                        -----------------------------------------
Total Dipole Moment    :     -2.45466      -1.17187      -0.19123
                        -----------------------------------------
Magnitude (a.u.)       :      2.72676
Magnitude (Debye)      :      6.93086

Rotational constants in cm-1:     0.002627     0.000167     0.000165
Rotational constants in MHz :    78.750727     4.992498     4.933227

                             ****ORCA TERMINATED NORMALLY****
TOTAL RUN TIME: 0 days 0 hours 7 minutes 51 seconds 596 msec
