                         Program Version 4.2.0 -  RELEASE  -
|  1> # ORCA input file
|  2> # SCF done       -220.442484794194          0.000648136279
|  3> ! CAM-B3LYP def2-SVP def2/J RIJCOSX Grid4 TightSCF
|  4> %maxcore 5000
|  5> %tddft
|  6>     Mode sTDDFT
|  7>     Ethresh 5.0
|  8>     maxcore 5000
|  9> end
| 10>
| 11> %pal
| 12>   nprocs 6
| 13>   end
| 14> * xyz 0 1
| 15>    C      -10.23068         2.74957         0.74593
| 16>    C      -11.01195         3.25480         1.74697
| 17>    F      -11.47311         4.51060         1.67256
| 18>    C      -11.34321         2.46548         2.86640
| 19>    F      -12.11272         2.98674         3.83197
| 20>    C      -10.88808         1.18088         2.96947
| 21>    C      -10.08279         0.63095         1.95343
| 22>    C       -9.74614         1.42820         0.82121
| 23>    C       -8.93910         0.89754        -0.21142
| 24>    C       -8.48587        -0.39166        -0.11469
| 25>    C       -8.83292        -1.18130         1.01531
| 26>    C       -9.60673        -0.69689         2.02960
| 27>    C       -8.24802        -2.53014         0.87685
| 28>    O       -8.37938        -3.44451         1.66254
| 29>    C       -7.56071        -2.53115        -0.43523
| 30>    C       -7.65512        -1.19991        -1.00203
| 31>    C       -7.01818        -0.74131        -2.12707
| 32>    C       -6.13153        -1.49335        -2.92598
| 33>    N       -5.38462        -2.03393        -3.61103
| 34>    C       -7.13964         0.57487        -2.61916
| 35>    N       -7.20514         1.62691        -3.07391
| 36>    C       -7.08848        -3.62515        -1.11404
| 37>    C       -6.86332        -4.93448        -0.65662
| 38>    C       -6.72469        -5.46450         0.62125
| 39>    C       -6.48579        -6.83017         0.60117
| 40>    C       -6.44584        -7.36959        -0.70872
| 41>    S       -6.65762        -6.17981        -1.90345
| 42>    C       -6.25996        -8.76300        -0.61174
| 43>    C       -6.16996        -9.11811         0.74696
| 44>    C       -6.28980        -7.90830         1.55205
| 45>    C       -6.21809        -7.82105         2.91115
| 46>    C       -6.03048        -8.96252         3.71874
| 47>    N       -5.87989        -9.89294         4.37221
| 48>    C       -6.30083        -6.59569         3.60785
| 49>    N       -6.34300        -5.61419         4.19821
| 50>    C       -6.01534       -10.48553         0.94672
| 51>    C       -5.99541       -11.18909        -0.24935
| 52>    S       -6.15224       -10.12639        -1.64199
| 53>    C       -5.90615       -12.59155        -0.41650
| 54>    N       -5.97755       -13.19272        -1.65484
| 55>    C       -5.91798       -14.53920        -1.48288
| 56>    C       -5.95775       -15.75940        -2.14270
| 57>    C       -5.85599       -16.74390        -1.14700
| 58>    N       -5.74771       -16.13612         0.08725
| 59>    C       -5.79121       -14.79087        -0.08977
| 60>    C       -5.78285       -13.57248         0.57812
| 61>    C       -5.90009       -18.14284        -1.34902
| 62>    C       -5.81432       -19.09307        -0.38037
| 63>    C       -5.92824       -20.48545        -0.61087
| 64>    C       -6.18342       -21.16298        -1.79689
| 65>    C       -6.26805       -22.53686        -1.60808
| 66>    C       -6.06990       -22.92798        -0.26878
| 67>    S       -5.78052       -21.58755         0.75119
| 68>    C       -6.18888       -24.33240        -0.18303
| 69>    C       -6.47509       -24.83392        -1.47371
| 70>    C       -6.51923       -23.72707        -2.40854
| 71>    C       -6.72512       -23.79810        -3.75558
| 72>    C       -6.94400       -25.03375        -4.40023
| 73>    N       -7.12887       -26.04603        -4.90630
| 74>    C       -6.73506       -22.64950        -4.57310
| 75>    N       -6.74810       -21.70862        -5.22871
| 76>    C       -6.60183       -26.21381        -1.50312
| 77>    C       -6.40781       -26.79011        -0.25392
| 78>    S       -6.09405       -25.56900         0.98149
| 79>    C       -6.48674       -28.14302         0.12390
| 80>    C       -6.48822       -29.25748        -0.66580
| 81>    C       -7.03481       -30.52286        -0.10318
| 82>    O       -7.27245       -30.75240         1.06033
| 83>    C       -7.26836       -31.39760        -1.26996
| 84>    C       -7.88029       -32.61639        -1.32308
| 85>    C       -8.02694       -33.25643        -2.57457
| 86>    C       -7.54090       -32.61440        -3.75052
| 87>    C       -7.70123       -33.25321        -4.99637
| 88>    C       -8.31117       -34.47394        -5.07099
| 89>    C       -8.78904       -35.10918        -3.90734
| 90>    C       -8.65074       -34.51441        -2.68460
| 91>    F       -9.38404       -36.30562        -4.01020
| 92>    F       -8.46163       -35.08066        -6.25578
| 93>    C       -6.90279       -31.35560        -3.66303
| 94>    C       -6.76090       -30.76148        -2.43835
| 95>    C       -6.13488       -29.49983        -2.04609
| 96>    C       -5.18581       -28.84014        -2.78491
| 97>    C       -4.42532       -27.75974        -2.29937
| 98>    N       -3.77041       -26.89029        -1.93309
| 99>    C       -4.79179       -29.22882        -4.08233
|100>    N       -4.43107       -29.50618        -5.13566
|101>    H       -9.98537         3.36802        -0.10332
|102>    H      -11.15004         0.58909         3.83252
|103>    H       -8.70707         1.52438        -1.05709
|104>    H       -9.85181        -1.31925         2.87674
|105>    H       -6.88803        -3.49109        -2.17103
|106>    H       -6.80363        -4.86636         1.50964
|107>    H       -5.93234       -10.96300         1.90467
|108>    H       -6.07526       -12.69831        -2.52527
|109>    H       -6.05144       -15.94848        -3.19279
|110>    H       -5.66913       -16.61950         0.96434
|111>    H       -5.70345       -13.39057         1.63000
|112>    H       -6.03058       -18.44766        -2.37661
|113>    H       -5.66018       -18.80654         0.65119
|114>    H       -6.30796       -20.66969        -2.74262
|115>    H       -6.87285       -26.78220        -2.37378
|116>    H       -6.64446       -28.33769         1.18053
|117>    H       -8.25004       -33.08557        -0.42411
|118>    H       -7.33789       -32.78186        -5.89614
|119>    H       -9.02257       -35.01362        -1.80354
|120>    H       -6.55348       -30.88604        -4.56872
|121> *
|122>
|123>                          ****END OF INPUT****

CARTESIAN COORDINATES (ANGSTROEM)
---------------------------------
  C    -10.230680    2.749570    0.745930
  C    -11.011950    3.254800    1.746970
  F    -11.473110    4.510600    1.672560
  C    -11.343210    2.465480    2.866400
  F    -12.112720    2.986740    3.831970
  C    -10.888080    1.180880    2.969470
  C    -10.082790    0.630950    1.953430
  C     -9.746140    1.428200    0.821210
  C     -8.939100    0.897540   -0.211420
  C     -8.485870   -0.391660   -0.114690
  C     -8.832920   -1.181300    1.015310
  C     -9.606730   -0.696890    2.029600
  C     -8.248020   -2.530140    0.876850
  O     -8.379380   -3.444510    1.662540
  C     -7.560710   -2.531150   -0.435230
  C     -7.655120   -1.199910   -1.002030
  C     -7.018180   -0.741310   -2.127070
  C     -6.131530   -1.493350   -2.925980
  N     -5.384620   -2.033930   -3.611030
  C     -7.139640    0.574870   -2.619160
  N     -7.205140    1.626910   -3.073910
  C     -7.088480   -3.625150   -1.114040
  C     -6.863320   -4.934480   -0.656620
  C     -6.724690   -5.464500    0.621250
  C     -6.485790   -6.830170    0.601170
  C     -6.445840   -7.369590   -0.708720
  S     -6.657620   -6.179810   -1.903450
  C     -6.259960   -8.763000   -0.611740
  C     -6.169960   -9.118110    0.746960
  C     -6.289800   -7.908300    1.552050
  C     -6.218090   -7.821050    2.911150
  C     -6.030480   -8.962520    3.718740
  N     -5.879890   -9.892940    4.372210
  C     -6.300830   -6.595690    3.607850
  N     -6.343000   -5.614190    4.198210
  C     -6.015340  -10.485530    0.946720
  C     -5.995410  -11.189090   -0.249350
  S     -6.152240  -10.126390   -1.641990
  C     -5.906150  -12.591550   -0.416500
  N     -5.977550  -13.192720   -1.654840
  C     -5.917980  -14.539200   -1.482880
  C     -5.957750  -15.759400   -2.142700
  C     -5.855990  -16.743900   -1.147000
  N     -5.747710  -16.136120    0.087250
  C     -5.791210  -14.790870   -0.089770
  C     -5.782850  -13.572480    0.578120
  C     -5.900090  -18.142840   -1.349020
  C     -5.814320  -19.093070   -0.380370
  C     -5.928240  -20.485450   -0.610870
  C     -6.183420  -21.162980   -1.796890
  C     -6.268050  -22.536860   -1.608080
  C     -6.069900  -22.927980   -0.268780
  S     -5.780520  -21.587550    0.751190
  C     -6.188880  -24.332400   -0.183030
  C     -6.475090  -24.833920   -1.473710
  C     -6.519230  -23.727070   -2.408540
  C     -6.725120  -23.798100   -3.755580
  C     -6.944000  -25.033750   -4.400230
  N     -7.128870  -26.046030   -4.906300
  C     -6.735060  -22.649500   -4.573100
  N     -6.748100  -21.708620   -5.228710
  C     -6.601830  -26.213810   -1.503120
  C     -6.407810  -26.790110   -0.253920
  S     -6.094050  -25.569000    0.981490
  C     -6.486740  -28.143020    0.123900
  C     -6.488220  -29.257480   -0.665800
  C     -7.034810  -30.522860   -0.103180
  O     -7.272450  -30.752400    1.060330
  C     -7.268360  -31.397600   -1.269960
  C     -7.880290  -32.616390   -1.323080
  C     -8.026940  -33.256430   -2.574570
  C     -7.540900  -32.614400   -3.750520
  C     -7.701230  -33.253210   -4.996370
  C     -8.311170  -34.473940   -5.070990
  C     -8.789040  -35.109180   -3.907340
  C     -8.650740  -34.514410   -2.684600
  F     -9.384040  -36.305620   -4.010200
  F     -8.461630  -35.080660   -6.255780
  C     -6.902790  -31.355600   -3.663030
  C     -6.760900  -30.761480   -2.438350
  C     -6.134880  -29.499830   -2.046090
  C     -5.185810  -28.840140   -2.784910
  C     -4.425320  -27.759740   -2.299370
  N     -3.770410  -26.890290   -1.933090
  C     -4.791790  -29.228820   -4.082330
  N     -4.431070  -29.506180   -5.135660
  H     -9.985370    3.368020   -0.103320
  H    -11.150040    0.589090    3.832520
  H     -8.707070    1.524380   -1.057090
  H     -9.851810   -1.319250    2.876740
  H     -6.888030   -3.491090   -2.171030
  H     -6.803630   -4.866360    1.509640
  H     -5.932340  -10.963000    1.904670
  H     -6.075260  -12.698310   -2.525270
  H     -6.051440  -15.948480   -3.192790
  H     -5.669130  -16.619500    0.964340
  H     -5.703450  -13.390570    1.630000
  H     -6.030580  -18.447660   -2.376610
  H     -5.660180  -18.806540    0.651190
  H     -6.307960  -20.669690   -2.742620
  H     -6.872850  -26.782200   -2.373780
  H     -6.644460  -28.337690    1.180530
  H     -8.250040  -33.085570   -0.424110
  H     -7.337890  -32.781860   -5.896140
  H     -9.022570  -35.013620   -1.803540
  H     -6.553480  -30.886040   -4.568720

 Total Charge           Charge          ....    0
 Multiplicity           Mult            ....    1
 Number of Electrons    NEL             ....  602
 Basis Dimension        Dim             .... 1320

ORBITAL ENERGIES
----------------

  NO   OCC          E(Eh)            E(eV)
   0   2.0000     -89.002719     -2421.8871
   1   2.0000     -88.998085     -2421.7610
   2   2.0000     -88.997907     -2421.7562
   3   2.0000     -88.995868     -2421.7007
   4   2.0000     -24.797277      -674.7682
   5   2.0000     -24.797013      -674.7610
   6   2.0000     -24.796485      -674.7467
   7   2.0000     -24.796056      -674.7350
   8   2.0000     -19.218385      -522.9589
   9   2.0000     -19.215541      -522.8814
  10   2.0000     -14.483565      -394.1178
  11   2.0000     -14.477560      -393.9544
  12   2.0000     -14.438482      -392.8911
  13   2.0000     -14.436638      -392.8409
  14   2.0000     -14.436255      -392.8305
  15   2.0000     -14.434075      -392.7711
  16   2.0000     -14.418466      -392.3464
  17   2.0000     -14.416606      -392.2958
  18   2.0000     -14.414579      -392.2406
  19   2.0000     -14.413376      -392.2079
  20   2.0000     -10.380442      -282.4662
  21   2.0000     -10.379948      -282.4527
  22   2.0000     -10.379712      -282.4463
  23   2.0000     -10.379336      -282.4361
  24   2.0000     -10.372993      -282.2635
  25   2.0000     -10.370783      -282.2033
  26   2.0000     -10.370296      -282.1901
  27   2.0000     -10.367264      -282.1076
  28   2.0000     -10.359731      -281.9026
  29   2.0000     -10.358151      -281.8596
  30   2.0000     -10.351521      -281.6792
  31   2.0000     -10.347907      -281.5809
  32   2.0000     -10.344598      -281.4908
  33   2.0000     -10.343565      -281.4627
  34   2.0000     -10.342953      -281.4461
  35   2.0000     -10.341826      -281.4154
  36   2.0000     -10.341242      -281.3995
  37   2.0000     -10.338734      -281.3313
  38   2.0000     -10.337970      -281.3105
  39   2.0000     -10.337083      -281.2863
  40   2.0000     -10.337057      -281.2856
  41   2.0000     -10.336408      -281.2680
  42   2.0000     -10.335259      -281.2367
  43   2.0000     -10.334826      -281.2249
  44   2.0000     -10.333232      -281.1815
  45   2.0000     -10.329334      -281.0755
  46   2.0000     -10.328849      -281.0623
  47   2.0000     -10.328154      -281.0434
  48   2.0000     -10.327068      -281.0138
  49   2.0000     -10.326432      -280.9965
  50   2.0000     -10.319879      -280.8182
  51   2.0000     -10.319824      -280.8167
  52   2.0000     -10.319608      -280.8108
  53   2.0000     -10.317799      -280.7616
  54   2.0000     -10.317044      -280.7411
  55   2.0000     -10.316107      -280.7155
  56   2.0000     -10.316035      -280.7136
  57   2.0000     -10.315557      -280.7006
  58   2.0000     -10.314822      -280.6806
  59   2.0000     -10.311842      -280.5995
  60   2.0000     -10.310236      -280.5558
  61   2.0000     -10.310073      -280.5513
  62   2.0000     -10.309432      -280.5339
  63   2.0000     -10.309209      -280.5278
  64   2.0000     -10.309172      -280.5268
  65   2.0000     -10.308956      -280.5210
  66   2.0000     -10.308718      -280.5145
  67   2.0000     -10.306640      -280.4579
  68   2.0000     -10.306625      -280.4575
  69   2.0000     -10.306197      -280.4459
  70   2.0000     -10.305482      -280.4264
  71   2.0000     -10.304684      -280.4047
  72   2.0000     -10.301919      -280.3295
  73   2.0000     -10.301432      -280.3162
  74   2.0000     -10.300987      -280.3041
  75   2.0000     -10.300785      -280.2986
  76   2.0000     -10.300776      -280.2984
  77   2.0000     -10.300058      -280.2788
  78   2.0000     -10.299907      -280.2747
  79   2.0000     -10.299539      -280.2647
  80   2.0000     -10.299474      -280.2629
  81   2.0000     -10.298779      -280.2440
  82   2.0000     -10.293025      -280.0874
  83   2.0000     -10.292019      -280.0601
  84   2.0000     -10.290151      -280.0092
  85   2.0000     -10.287054      -279.9250
  86   2.0000      -8.097317      -220.3392
  87   2.0000      -8.092883      -220.2185
  88   2.0000      -8.092543      -220.2093
  89   2.0000      -8.090599      -220.1564
  90   2.0000      -6.066631      -165.0814
  91   2.0000      -6.062572      -164.9710
  92   2.0000      -6.062045      -164.9566
  93   2.0000      -6.061721      -164.9478
  94   2.0000      -6.059812      -164.8959
  95   2.0000      -6.059512      -164.8877
  96   2.0000      -6.057922      -164.8444
  97   2.0000      -6.057591      -164.8354
  98   2.0000      -6.055722      -164.7846
  99   2.0000      -6.055318      -164.7736
 100   2.0000      -6.055007      -164.7651
 101   2.0000      -6.052964      -164.7095
 102   2.0000      -1.319675       -35.9102
 103   2.0000      -1.319371       -35.9019
 104   2.0000      -1.304827       -35.5062
 105   2.0000      -1.304505       -35.4974
 106   2.0000      -1.134093       -30.8602
 107   2.0000      -1.131164       -30.7805
 108   2.0000      -1.113754       -30.3068
 109   2.0000      -1.077964       -29.3329
 110   2.0000      -1.054050       -28.6821
 111   2.0000      -1.052298       -28.6345
 112   2.0000      -1.028669       -27.9915
 113   2.0000      -1.028081       -27.9755
 114   2.0000      -1.020559       -27.7708
 115   2.0000      -1.019961       -27.7545
 116   2.0000      -1.014062       -27.5940
 117   2.0000      -1.013130       -27.5687
 118   2.0000      -1.006568       -27.3901
 119   2.0000      -1.005545       -27.3623
 120   2.0000      -1.003859       -27.3164
 121   2.0000      -1.003481       -27.3061
 122   2.0000      -0.994346       -27.0575
 123   2.0000      -0.993627       -27.0380
 124   2.0000      -0.981241       -26.7009
 125   2.0000      -0.980996       -26.6943
 126   2.0000      -0.967691       -26.3322
 127   2.0000      -0.967192       -26.3186
 128   2.0000      -0.935062       -25.4443
 129   2.0000      -0.934621       -25.4323
 130   2.0000      -0.928443       -25.2642
 131   2.0000      -0.924779       -25.1645
 132   2.0000      -0.913970       -24.8704
 133   2.0000      -0.903526       -24.5862
 134   2.0000      -0.900903       -24.5148
 135   2.0000      -0.894202       -24.3325
 136   2.0000      -0.891648       -24.2630
 137   2.0000      -0.890897       -24.2425
 138   2.0000      -0.888046       -24.1650
 139   2.0000      -0.881436       -23.9851
 140   2.0000      -0.881093       -23.9758
 141   2.0000      -0.874113       -23.7858
 142   2.0000      -0.865850       -23.5610
 143   2.0000      -0.863902       -23.5080
 144   2.0000      -0.861889       -23.4532
 145   2.0000      -0.843049       -22.9405
 146   2.0000      -0.839514       -22.8443
 147   2.0000      -0.839407       -22.8414
 148   2.0000      -0.823174       -22.3997
 149   2.0000      -0.814495       -22.1635
 150   2.0000      -0.801061       -21.7980
 151   2.0000      -0.785673       -21.3793
 152   2.0000      -0.783195       -21.3118
 153   2.0000      -0.771536       -20.9946
 154   2.0000      -0.766919       -20.8689
 155   2.0000      -0.765155       -20.8209
 156   2.0000      -0.756275       -20.5793
 157   2.0000      -0.741045       -20.1649
 158   2.0000      -0.735036       -20.0013
 159   2.0000      -0.721623       -19.6364
 160   2.0000      -0.718900       -19.5623
 161   2.0000      -0.717763       -19.5313
 162   2.0000      -0.716065       -19.4851
 163   2.0000      -0.714334       -19.4380
 164   2.0000      -0.712439       -19.3864
 165   2.0000      -0.707213       -19.2442
 166   2.0000      -0.700407       -19.0590
 167   2.0000      -0.693806       -18.8794
 168   2.0000      -0.691046       -18.8043
 169   2.0000      -0.690062       -18.7775
 170   2.0000      -0.684421       -18.6241
 171   2.0000      -0.679859       -18.4999
 172   2.0000      -0.674473       -18.3533
 173   2.0000      -0.670640       -18.2490
 174   2.0000      -0.660613       -17.9762
 175   2.0000      -0.654672       -17.8145
 176   2.0000      -0.653447       -17.7812
 177   2.0000      -0.647924       -17.6309
 178   2.0000      -0.642872       -17.4934
 179   2.0000      -0.641178       -17.4473
 180   2.0000      -0.641076       -17.4446
 181   2.0000      -0.640480       -17.4284
 182   2.0000      -0.631421       -17.1818
 183   2.0000      -0.624926       -17.0051
 184   2.0000      -0.624708       -16.9992
 185   2.0000      -0.622148       -16.9295
 186   2.0000      -0.616173       -16.7669
 187   2.0000      -0.612199       -16.6588
 188   2.0000      -0.609826       -16.5942
 189   2.0000      -0.598839       -16.2952
 190   2.0000      -0.594200       -16.1690
 191   2.0000      -0.591488       -16.0952
 192   2.0000      -0.584280       -15.8991
 193   2.0000      -0.584058       -15.8930
 194   2.0000      -0.583658       -15.8822
 195   2.0000      -0.581807       -15.8318
 196   2.0000      -0.577267       -15.7082
 197   2.0000      -0.575378       -15.6568
 198   2.0000      -0.568505       -15.4698
 199   2.0000      -0.566396       -15.4124
 200   2.0000      -0.561801       -15.2874
 201   2.0000      -0.554886       -15.0992
 202   2.0000      -0.554054       -15.0766
 203   2.0000      -0.553769       -15.0688
 204   2.0000      -0.552968       -15.0470
 205   2.0000      -0.551608       -15.0100
 206   2.0000      -0.547417       -14.8960
 207   2.0000      -0.545926       -14.8554
 208   2.0000      -0.545670       -14.8484
 209   2.0000      -0.542820       -14.7709
 210   2.0000      -0.539604       -14.6834
 211   2.0000      -0.537348       -14.6220
 212   2.0000      -0.537259       -14.6196
 213   2.0000      -0.535518       -14.5722
 214   2.0000      -0.531916       -14.4742
 215   2.0000      -0.530040       -14.4231
 216   2.0000      -0.528597       -14.3839
 217   2.0000      -0.525034       -14.2869
 218   2.0000      -0.520400       -14.1608
 219   2.0000      -0.519247       -14.1294
 220   2.0000      -0.515564       -14.0292
 221   2.0000      -0.513984       -13.9862
 222   2.0000      -0.513857       -13.9828
 223   2.0000      -0.512104       -13.9351
 224   2.0000      -0.511297       -13.9131
 225   2.0000      -0.510648       -13.8954
 226   2.0000      -0.507876       -13.8200
 227   2.0000      -0.507119       -13.7994
 228   2.0000      -0.505459       -13.7542
 229   2.0000      -0.502871       -13.6838
 230   2.0000      -0.500312       -13.6142
 231   2.0000      -0.497192       -13.5293
 232   2.0000      -0.495456       -13.4820
 233   2.0000      -0.492755       -13.4085
 234   2.0000      -0.491918       -13.3858
 235   2.0000      -0.487902       -13.2765
 236   2.0000      -0.485855       -13.2208
 237   2.0000      -0.481890       -13.1129
 238   2.0000      -0.479344       -13.0436
 239   2.0000      -0.478845       -13.0300
 240   2.0000      -0.474834       -12.9209
 241   2.0000      -0.471618       -12.8334
 242   2.0000      -0.468964       -12.7612
 243   2.0000      -0.468271       -12.7423
 244   2.0000      -0.467405       -12.7187
 245   2.0000      -0.466523       -12.6947
 246   2.0000      -0.465311       -12.6618
 247   2.0000      -0.463731       -12.6188
 248   2.0000      -0.462457       -12.5841
 249   2.0000      -0.461853       -12.5676
 250   2.0000      -0.460965       -12.5435
 251   2.0000      -0.456953       -12.4343
 252   2.0000      -0.455274       -12.3886
 253   2.0000      -0.451782       -12.2936
 254   2.0000      -0.450622       -12.2620
 255   2.0000      -0.449786       -12.2393
 256   2.0000      -0.448678       -12.2092
 257   2.0000      -0.447810       -12.1855
 258   2.0000      -0.446466       -12.1490
 259   2.0000      -0.446014       -12.1367
 260   2.0000      -0.445739       -12.1292
 261   2.0000      -0.444521       -12.0960
 262   2.0000      -0.443812       -12.0767
 263   2.0000      -0.443652       -12.0724
 264   2.0000      -0.442553       -12.0425
 265   2.0000      -0.440582       -11.9889
 266   2.0000      -0.432959       -11.7814
 267   2.0000      -0.432304       -11.7636
 268   2.0000      -0.430734       -11.7209
 269   2.0000      -0.429856       -11.6970
 270   2.0000      -0.429733       -11.6936
 271   2.0000      -0.425573       -11.5804
 272   2.0000      -0.425162       -11.5693
 273   2.0000      -0.423617       -11.5272
 274   2.0000      -0.422753       -11.5037
 275   2.0000      -0.412112       -11.2141
 276   2.0000      -0.410191       -11.1619
 277   2.0000      -0.406915       -11.0727
 278   2.0000      -0.406038       -11.0489
 279   2.0000      -0.401180       -10.9167
 280   2.0000      -0.392624       -10.6838
 281   2.0000      -0.386283       -10.5113
 282   2.0000      -0.383980       -10.4486
 283   2.0000      -0.374373       -10.1872
 284   2.0000      -0.364900        -9.9294
 285   2.0000      -0.360190        -9.8013
 286   2.0000      -0.354615        -9.6496
 287   2.0000      -0.348871        -9.4933
 288   2.0000      -0.341618        -9.2959
 289   2.0000      -0.337174        -9.1750
 290   2.0000      -0.330682        -8.9983
 291   2.0000      -0.329845        -8.9755
 292   2.0000      -0.323574        -8.8049
 293   2.0000      -0.317052        -8.6274
 294   2.0000      -0.316115        -8.6019
 295   2.0000      -0.312297        -8.4980
 296   2.0000      -0.302743        -8.2380
 297   2.0000      -0.300168        -8.1680
 298   2.0000      -0.289776        -7.8852
 299   2.0000      -0.268575        -7.3083
 300   2.0000      -0.232521        -6.3272
 301   0.0000      -0.120877        -3.2892
 302   0.0000      -0.113148        -3.0789
 303   0.0000      -0.093418        -2.5420
 304   0.0000      -0.092140        -2.5073
 305   0.0000      -0.063115        -1.7174

MULLIKEN ATOMIC CHARGES
-----------------------
   0 C :   -0.110734
   1 C :    0.242858
   2 F :   -0.171476
   3 C :    0.240457
   4 F :   -0.172579
   5 C :   -0.106328
   6 C :    0.118020
   7 C :    0.115577
   8 C :   -0.087125
   9 C :    0.051412
  10 C :   -0.003383
  11 C :   -0.083868
  12 C :    0.152080
  13 O :   -0.153362
  14 C :   -0.101272
  15 C :    0.306477
  16 C :   -0.347549
  17 C :   -0.204761
  18 N :    0.153704
  19 C :   -0.183448
  20 N :    0.146515
  21 C :    0.033464
  22 C :   -0.115510
  23 C :    0.027788
  24 C :   -0.025162
  25 C :   -0.072927
  26 S :    0.200125
  27 C :   -0.113871
  28 C :    0.043327
  29 C :    0.302748
  30 C :   -0.289244
  31 C :   -0.187473
  32 N :    0.167925
  33 C :   -0.187658
  34 N :    0.189161
  35 C :   -0.068446
  36 C :   -0.041496
  37 S :    0.164579
  38 C :    0.079683
  39 N :   -0.047979
  40 C :    0.122151
  41 C :   -0.160807
  42 C :    0.078960
  43 N :   -0.034013
  44 C :    0.119498
  45 C :   -0.162514
  46 C :    0.043414
  47 C :    0.021671
  48 C :   -0.076528
  49 C :   -0.037880
  50 C :    0.017744
  51 C :   -0.116403
  52 S :    0.187933
  53 C :   -0.066189
  54 C :   -0.012392
  55 C :    0.306472
  56 C :   -0.284040
  57 C :   -0.182641
  58 N :    0.169998
  59 C :   -0.185555
  60 N :    0.168129
  61 C :    0.003561
  62 C :   -0.114150
  63 S :    0.209608
  64 C :    0.086497
  65 C :   -0.145204
  66 C :    0.134153
  67 O :   -0.145525
  68 C :    0.022924
  69 C :   -0.086746
  70 C :    0.113487
  71 C :    0.112361
  72 C :   -0.108533
  73 C :    0.243019
  74 C :    0.239656
  75 C :   -0.105148
  76 F :   -0.172028
  77 F :   -0.171777
  78 C :   -0.079845
  79 C :    0.028120
  80 C :    0.271909
  81 C :   -0.332805
  82 C :   -0.206375
  83 N :    0.164708
  84 C :   -0.169896
  85 N :    0.161538
  86 H :    0.006527
  87 H :   -0.000089
  88 H :   -0.005944
  89 H :   -0.008679
  90 H :    0.019574
  91 H :    0.035119
  92 H :    0.006419
  93 H :    0.129743
  94 H :   -0.023894
  95 H :    0.128031
  96 H :   -0.019903
  97 H :   -0.003477
  98 H :   -0.040751
  99 H :    0.005895
 100 H :    0.025304
 101 H :    0.019943
 102 H :   -0.010617
 103 H :    0.007064
 104 H :   -0.002195
 105 H :    0.001160
Sum of atomic charges:   -0.0000000

LOEWDIN ATOMIC CHARGES
----------------------
   0 C :   -0.029564
   1 C :    0.066256
   2 F :   -0.049650
   3 C :    0.067453
   4 F :   -0.050012
   5 C :   -0.033061
   6 C :   -0.008712
   7 C :   -0.006891
   8 C :    0.016765
   9 C :   -0.023187
  10 C :   -0.051140
  11 C :    0.029807
  12 C :    0.083833
  13 O :   -0.141582
  14 C :   -0.102818
  15 C :    0.075657
  16 C :   -0.145180
  17 C :   -0.025294
  18 N :   -0.055947
  19 C :   -0.018041
  20 N :   -0.055972
  21 C :    0.044194
  22 C :   -0.181185
  23 C :    0.027567
  24 C :   -0.082241
  25 C :   -0.150812
  26 S :    0.486852
  27 C :   -0.205794
  28 C :   -0.043029
  29 C :    0.077668
  30 C :   -0.093894
  31 C :   -0.013859
  32 N :   -0.034211
  33 C :   -0.020624
  34 N :   -0.016706
  35 C :   -0.035209
  36 C :   -0.146186
  37 S :    0.453622
  38 C :   -0.019642
  39 N :    0.067661
  40 C :   -0.016707
  41 C :   -0.078122
  42 C :    0.000442
  43 N :    0.070548
  44 C :   -0.010872
  45 C :   -0.078595
  46 C :   -0.005917
  47 C :   -0.073943
  48 C :   -0.145221
  49 C :   -0.036064
  50 C :   -0.048332
  51 C :   -0.201333
  52 S :    0.473425
  53 C :   -0.150299
  54 C :   -0.073051
  55 C :    0.083424
  56 C :   -0.098550
  57 C :   -0.013144
  58 N :   -0.030946
  59 C :   -0.014786
  60 N :   -0.034008
  61 C :    0.015008
  62 C :   -0.185147
  63 S :    0.494103
  64 C :    0.044247
  65 C :   -0.098633
  66 C :    0.082375
  67 O :   -0.146539
  68 C :   -0.053883
  69 C :    0.029498
  70 C :   -0.009766
  71 C :   -0.005693
  72 C :   -0.029133
  73 C :    0.066729
  74 C :    0.066554
  75 C :   -0.033292
  76 F :   -0.050178
  77 F :   -0.049280
  78 C :    0.016342
  79 C :   -0.019775
  80 C :    0.065094
  81 C :   -0.139747
  82 C :   -0.015771
  83 N :   -0.047930
  84 C :   -0.019014
  85 N :   -0.048318
  86 H :    0.047474
  87 H :    0.044994
  88 H :    0.039817
  89 H :    0.040840
  90 H :    0.043544
  91 H :    0.045362
  92 H :    0.040619
  93 H :    0.084320
  94 H :    0.029632
  95 H :    0.089710
  96 H :    0.030629
  97 H :    0.041183
  98 H :    0.018881
  99 H :    0.038445
 100 H :    0.042912
 101 H :    0.045468
 102 H :    0.040096
 103 H :    0.047825
 104 H :    0.044300
 105 H :    0.041260

  Mayer bond orders larger than 0.100000
B(  0-C ,  1-C ) :   1.4405 B(  0-C ,  5-C ) :   0.1089 B(  0-C ,  7-C ) :   1.1882
B(  0-C , 86-H ) :   1.0070 B(  1-C ,  2-F ) :   1.1341 B(  1-C ,  3-C ) :   1.1924
B(  3-C ,  4-F ) :   1.1325 B(  3-C ,  5-C ) :   1.4407 B(  5-C ,  6-C ) :   1.1933
B(  5-C , 87-H ) :   1.0074 B(  6-C ,  7-C ) :   1.2574 B(  6-C , 11-C ) :   1.1845
B(  7-C ,  8-C ) :   1.2138 B(  8-C ,  9-C ) :   1.4515 B(  8-C , 88-H ) :   0.9901
B(  9-C , 10-C ) :   1.2204 B(  9-C , 15-C ) :   0.9825 B( 10-C , 11-C ) :   1.4743
B( 10-C , 12-C ) :   0.9432 B( 11-C , 89-H ) :   1.0167 B( 12-C , 13-O ) :   2.1907
B( 12-C , 14-C ) :   0.9526 B( 14-C , 15-C ) :   1.0860 B( 14-C , 21-C ) :   1.5617
B( 15-C , 16-C ) :   1.6248 B( 16-C , 17-C ) :   1.1397 B( 16-C , 19-C ) :   1.1464
B( 17-C , 18-N ) :   2.9900 B( 19-C , 20-N ) :   2.9638 B( 21-C , 22-C ) :   1.2283
B( 21-C , 90-H ) :   0.9230 B( 22-C , 23-C ) :   1.3919 B( 22-C , 26-S ) :   1.0584
B( 23-C , 24-C ) :   1.3431 B( 23-C , 91-H ) :   0.9735 B( 24-C , 25-C ) :   1.3575
B( 24-C , 29-C ) :   1.0033 B( 25-C , 26-S ) :   1.1674 B( 25-C , 27-C ) :   1.2294
B( 27-C , 28-C ) :   1.4218 B( 27-C , 37-S ) :   1.0898 B( 28-C , 29-C ) :   0.9854
B( 28-C , 35-C ) :   1.3103 B( 29-C , 30-C ) :   1.7184 B( 30-C , 31-C ) :   1.1362
B( 30-C , 33-C ) :   1.1322 B( 31-C , 32-N ) :   2.9841 B( 33-C , 34-N ) :   2.9954
B( 35-C , 36-C ) :   1.4462 B( 35-C , 92-H ) :   0.9927 B( 36-C , 37-S ) :   1.0976
B( 36-C , 38-C ) :   1.1136 B( 38-C , 39-N ) :   1.2031 B( 38-C , 45-C ) :   1.4030
B( 39-N , 40-C ) :   1.1616 B( 39-N , 93-H ) :   0.9297 B( 40-C , 41-C ) :   1.2565
B( 40-C , 44-C ) :   1.3030 B( 41-C , 42-C ) :   1.3416 B( 41-C , 94-H ) :   1.0430
B( 42-C , 43-N ) :   1.1938 B( 42-C , 46-C ) :   1.1801 B( 43-N , 44-C ) :   1.1708
B( 43-N , 95-H ) :   0.9318 B( 44-C , 45-C ) :   1.2684 B( 45-C , 96-H ) :   1.0302
B( 46-C , 47-C ) :   1.6136 B( 46-C , 97-H ) :   0.9585 B( 47-C , 48-C ) :   1.1509
B( 47-C , 98-H ) :   0.9576 B( 48-C , 49-C ) :   1.4309 B( 48-C , 52-S ) :   1.1193
B( 49-C , 50-C ) :   1.3224 B( 49-C , 99-H ) :   0.9889 B( 50-C , 51-C ) :   1.4220
B( 50-C , 55-C ) :   0.9938 B( 51-C , 52-S ) :   1.0983 B( 51-C , 53-C ) :   1.2196
B( 53-C , 54-C ) :   1.3882 B( 53-C , 63-S ) :   1.1611 B( 54-C , 55-C ) :   1.0068
B( 54-C , 61-C ) :   1.3727 B( 55-C , 56-C ) :   1.7132 B( 56-C , 57-C ) :   1.1324
B( 56-C , 59-C ) :   1.1340 B( 57-C , 58-N ) :   2.9822 B( 59-C , 60-N ) :   2.9864
B( 61-C , 62-C ) :   1.3796 B( 61-C ,100-H ) :   0.9767 B( 62-C , 63-S ) :   1.0738
B( 62-C , 64-C ) :   1.1672 B( 64-C , 65-C ) :   1.6344 B( 64-C ,101-H ) :   0.9283
B( 65-C , 66-C ) :   0.9507 B( 65-C , 80-C ) :   1.0483 B( 66-C , 67-O ) :   2.2660
B( 66-C , 68-C ) :   0.9158 B( 68-C , 69-C ) :   1.4726 B( 68-C , 79-C ) :   1.2224
B( 69-C , 70-C ) :   1.1918 B( 69-C ,102-H ) :   1.0171 B( 70-C , 71-C ) :   1.2600
B( 70-C , 75-C ) :   1.1916 B( 71-C , 72-C ) :   1.1897 B( 71-C , 78-C ) :   1.2106
B( 72-C , 73-C ) :   1.4395 B( 72-C , 75-C ) :   0.1092 B( 72-C ,103-H ) :   1.0081
B( 73-C , 74-C ) :   1.1927 B( 73-C , 77-F ) :   1.1330 B( 74-C , 75-C ) :   1.4429
B( 74-C , 76-F ) :   1.1335 B( 75-C ,104-H ) :   1.0075 B( 78-C , 79-C ) :   1.4603
B( 78-C ,105-H ) :   0.9953 B( 79-C , 80-C ) :   0.9910 B( 80-C , 81-C ) :   1.6440
B( 81-C , 82-C ) :   1.1729 B( 81-C , 84-C ) :   1.1286 B( 82-C , 83-N ) :   2.9941
B( 84-C , 85-N ) :   2.9917

-----------------------------------------------------------------------------
         ABSORPTION SPECTRUM VIA TRANSITION ELECTRIC DIPOLE MOMENTS
-----------------------------------------------------------------------------
State   Energy  Wavelength   fosc         T2         TX        TY        TZ
        (cm-1)    (nm)                  (au**2)     (au)      (au)      (au)
-----------------------------------------------------------------------------
   0    9731.9   1027.6   1.104579036  37.36596   0.30197  -6.09843  -0.28973
   1   11115.1    899.7   0.010246495   0.30349  -0.25070  -0.48774  -0.05238
   2   16749.0    597.0   2.043608428  40.16835   0.41530  -6.31813  -0.27761
   3   18357.2    544.7   0.090079029   1.61545  -0.37844   1.13354  -0.43281
   4   19169.9    521.7   0.021354312   0.36673   0.22828  -0.23414   0.50970
   5   20035.1    499.1   0.130633845   2.14654   0.38646  -1.41258   0.04256
   6   24060.6    415.6   0.397398224   5.43744  -0.37551  -2.25436  -0.46294
   7   25068.8    398.9   0.023974215   0.31484   0.02764   0.44555   0.33994
   8   25305.8    395.2   0.043873242   0.57076   0.23336  -0.60321   0.39044
   9   25880.3    386.4   0.018177295   0.23123   0.31233   0.21309   0.29710
  10   26026.1    384.2   0.191764315   2.42568   0.42231  -1.44628  -0.39448
  11   26488.3    377.5   0.322570014   4.00909   0.40257   1.91633  -0.41798
  12   26935.1    371.3   0.077337563   0.94525   0.51540  -0.39665  -0.72269
  13   27067.0    369.5   0.027037765   0.32886   0.03245   0.46004   0.34083
  14   27362.9    365.5   0.019754259   0.23767  -0.29453   0.37864  -0.08691
  15   27990.1    357.3   0.018126568   0.21320  -0.14916  -0.43191   0.06636
  16   28576.2    349.9   0.053063650   0.61132  -0.25342   0.73521  -0.08104
  17   28789.9    347.3   0.033921578   0.38789  -0.49648   0.05436   0.37208
  18   29081.1    343.9   0.012545852   0.14203   0.20444   0.04450  -0.31345
  19   29303.8    341.3   0.025523879   0.28675   0.31074   0.42375   0.10306
  20   30048.4    332.8   0.138711429   1.51973   0.51129   1.12173   0.00591
  21   30148.2    331.7   0.201866433   2.20434   0.95766  -1.07897   0.35079
  22   30421.9    328.7   0.179950996   1.94735  -0.32455  -0.05570  -1.35607
  23   30798.0    324.7   0.006526234   0.06976  -0.12164  -0.22947   0.04803
  24   30945.5    323.1   0.453621714   4.82582  -0.10770  -0.03752   2.19381
  25   31398.1    318.5   0.040501233   0.42466  -0.35970   0.24749  -0.48376
  26   31887.1    313.6   0.132074417   1.36358  -0.28849  -0.17492  -1.11792
  27   32123.2    311.3   0.079242559   0.81211  -0.39307   0.02344   0.81059
  28   32373.3    308.9   0.018140699   0.18448  -0.32709  -0.09774  -0.26065
  29   32532.4    307.4   0.334430156   3.38427  -0.34025  -1.75652  -0.42796
  30   32645.1    306.3   0.160768704   1.62129   0.67411  -0.62047  -0.88424
  31   33024.5    302.8   0.191593854   1.90995  -0.57925   1.13193   0.54144
  32   33182.3    301.4   0.157250236   1.56013  -0.04110  -0.45628  -1.16200
  33   33447.4    299.0   0.076378104   0.75176   0.54879  -0.44182   0.50536
  34   33823.0    295.7   0.051386629   0.50017  -0.29150  -0.63590   0.10403
  35   34038.0    293.8   0.034239083   0.33116   0.16495   0.23736  -0.49760
  36   34210.3    292.3   0.003313149   0.03188   0.12686  -0.12213   0.02955
  37   34254.6    291.9   0.256891700   2.46892   0.64549   1.37796  -0.39176
  38   34520.5    289.7   0.286972754   2.73678  -0.60614   1.03414   1.14014
  39   34730.1    287.9   0.109621012   1.03911   0.06732   1.01709  -0.01026
  40   34923.9    286.3   0.231277947   2.18015   1.03705   0.33929  -0.99477
  41   35246.1    283.7   0.081940850   0.76536   0.22168  -0.56599   0.62918
  42   35350.2    282.9   0.077227160   0.71921  -0.74428  -0.40583  -0.02373
  43   35431.2    282.2   0.196289358   1.82384  -0.53164  -0.66284  -1.04969
  44   35780.3    279.5   0.180651000   1.66216   0.38211   0.06029  -1.22984
  45   35885.2    278.7   0.238620730   2.18911   0.10504   0.80150   1.23923
  46   35933.3    278.3   0.117560206   1.07706  -0.38153  -0.76523   0.58814
  47   36240.0    275.9   0.137072986   1.24520   0.95076   0.52556  -0.25503
  48   36494.8    274.0   0.059230434   0.53430  -0.08977   0.18885   0.70041
  49   36707.4    272.4   0.000948441   0.00851  -0.01616  -0.02960  -0.08584
  50   37519.1    266.5   0.011588435   0.10168  -0.09276   0.22927   0.20128
  51   38119.2    262.3   0.009403938   0.08122   0.12385   0.24063  -0.08930
  52   38281.6    261.2   0.016902354   0.14536  -0.17671  -0.33743   0.01645
  53   38611.1    259.0   0.013688202   0.11671  -0.24705  -0.22823   0.05989
  54   38694.3    258.4   0.002386685   0.02031   0.02925   0.08433  -0.11108
  55   38804.4    257.7   0.189603378   1.60857   0.27024   0.79513  -0.95043
  56   38871.8    257.3   0.003023576   0.02561  -0.04496   0.15221   0.02043
  57   39063.5    256.0   0.048680313   0.41026  -0.05915  -0.22899   0.59525
  58   39489.7    253.2   0.006467097   0.05391  -0.05597  -0.20993   0.08192
  59   39504.1    253.1   0.009668724   0.08058   0.08412  -0.25169  -0.10077
  60   39895.1    250.7   0.022557619   0.18614  -0.19845  -0.05802   0.37868
  61   40151.5    249.1   0.142679416   1.16986   0.10233  -0.39015  -1.00358

FINAL SINGLE POINT ENERGY     -5211.979367316245

DIPOLE MOMENT
-------------
                                X             Y             Z
Electronic contribution:     -9.93182       2.00320      -1.96033
Nuclear contribution   :      8.43475      -3.08126       3.61234
                        -----------------------------------------
Total Dipole Moment    :     -1.49707      -1.07807       1.65201
                        -----------------------------------------
Magnitude (a.u.)       :      2.47641
Magnitude (Debye)      :      6.29452

Rotational constants in cm-1:     0.002251     0.000090     0.000089
Rotational constants in MHz :    67.496506     2.684545     2.658216

                             ****ORCA TERMINATED NORMALLY****
TOTAL RUN TIME: 0 days 0 hours 12 minutes 49 seconds 60 msec
