                         Program Version 4.2.0 -  RELEASE  -
|  1> # ORCA input file
|  2> # SCF done       -184.172316210884          0.000895146757
|  3> ! CAM-B3LYP def2-SVP def2/J RIJCOSX Grid4 TightSCF
|  4> %maxcore 5000
|  5> %tddft
|  6>     Mode sTDDFT
|  7>     Ethresh 5.0
|  8>     maxcore 5000
|  9> end
| 10>
| 11> %pal
| 12>   nprocs 6
| 13>   end
| 14> * xyz 0 1
| 15>    C        0.18444         0.07634         2.66057
| 16>    C       -0.03885        -0.15195         1.36771
| 17>    C        0.94768        -0.20230         0.32295
| 18>    S        0.60461        -1.17851        -1.06920
| 19>    C        2.12090        -0.83534        -1.79857
| 20>    C        2.48868        -1.46501        -3.11493
| 21>    C        3.73107        -2.29736        -2.98879
| 22>    N        4.95096        -1.83503        -3.14552
| 23>    S        6.01361        -3.04866        -2.96348
| 24>    N        4.91737        -4.21449        -2.69054
| 25>    C        3.71259        -3.69128        -2.72396
| 26>    C        2.45253        -4.46543        -2.48551
| 27>    C        2.18650        -4.50117        -0.98599
| 28>    C        1.00352        -4.67372        -0.38187
| 29>    C       -0.31274        -4.89028        -1.00773
| 30>    C       -0.53934        -5.98929        -1.83186
| 31>    C       -1.78441        -6.18939        -2.39018
| 32>    C       -2.81768        -5.28888        -2.13996
| 33>    C       -4.12966        -5.52298        -2.78090
| 34>    O       -4.37663        -6.44096        -3.52228
| 35>    O       -5.05117        -4.59867        -2.46346
| 36>    C       -2.59900        -4.20057        -1.29872
| 37>    C       -1.35800        -4.01452        -0.72546
| 38>    C        1.04862        -4.69911         1.08893
| 39>    S        0.74802        -3.31298         2.07343
| 40>    C        1.49232        -4.01225         3.50260
| 41>    C        1.81910        -3.17028         4.60316
| 42>    C        2.98682        -3.25758         5.28550
| 43>    S        4.25564        -4.39510         4.81941
| 44>    C        5.40224        -3.72683         5.95086
| 45>    C        6.67145        -4.24069         5.99047
| 46>    C        7.69381        -3.82383         6.85834
| 47>    N        8.55497        -3.53216         7.55943
| 48>    C        7.01344        -5.25995         5.07913
| 49>    N        7.23385        -6.07934         4.30604
| 50>    C        4.79957        -2.67172         6.72427
| 51>    C        5.40135        -1.92631         7.73475
| 52>    C        4.66682        -0.94835         8.37678
| 53>    C        3.34461        -0.70371         8.02195
| 54>    C        2.73674        -1.43100         7.01718
| 55>    C        3.46048        -2.42031         6.35961
| 56>    C        1.83773        -5.31782         3.21575
| 57>    N        2.32960        -6.40257         3.87477
| 58>    C        2.44018        -7.43275         2.97186
| 59>    N        2.93015        -8.68178         3.40503
| 60>    O        3.19580        -8.77976         4.59046
| 61>    O        3.04795        -9.56324         2.57945
| 62>    C        2.00332        -7.05918         1.72406
| 63>    C        1.59196        -5.70985         1.85560
| 64>    C        3.38355        -4.27234        -0.13165
| 65>    C        4.33363        -5.26624         0.07646
| 66>    C        5.41999        -5.03717         0.90236
| 67>    C        5.57270        -3.80637         1.53544
| 68>    C        6.70446        -3.48326         2.45219
| 69>    O        6.58553        -2.70185         3.36130
| 70>    O        7.87625        -4.07433         2.20591
| 71>    C        4.62005        -2.81209         1.32907
| 72>    C        3.54536        -3.04132         0.49808
| 73>    C        1.38515        -3.77805        -3.27701
| 74>    N        0.36245        -4.38890        -3.83159
| 75>    S       -0.54453        -3.30795        -4.62963
| 76>    N        0.38371        -2.01489        -4.30888
| 77>    C        1.40431        -2.38844        -3.57073
| 78>    C        2.86758         0.03470        -1.02322
| 79>    C        4.14894         0.56693        -1.30958
| 80>    C        4.72387         1.42698        -0.42632
| 81>    C        4.05124         1.81961         0.75370
| 82>    C        2.81833         1.33100         1.06180
| 83>    C        2.19602         0.40115         0.19569
| 84>    H       -0.62921         0.09323         3.36450
| 85>    H        1.17066         0.23236         3.05956
| 86>    H       -1.04827        -0.37011         1.03997
| 87>    H        2.64936        -0.67283        -3.85624
| 88>    H        2.57446        -5.49483        -2.84000
| 89>    H        0.26209        -6.68337        -2.02898
| 90>    H       -1.97730        -7.03339        -3.03387
| 91>    H       -5.88640        -4.80509        -2.91106
| 92>    H       -3.40328        -3.51054        -1.09865
| 93>    H       -1.18501        -3.17577        -0.06698
| 94>    H        1.14687        -2.35056         4.81285
| 95>    H        6.42577        -2.11182         8.01325
| 96>    H        5.12556        -0.36991         9.16360
| 97>    H        2.78666         0.06351         8.53722
| 98>    H        1.71015        -1.23831         6.74675
| 99>    H        2.62427        -6.48190         4.83512
|100>    H        1.95859        -7.68305         0.85572
|101>    H        4.21894        -6.22500        -0.40438
|102>    H        6.12194        -5.84094         1.07857
|103>    H        7.82729        -4.73555         1.50218
|104>    H        4.73920        -1.86057         1.82470
|105>    H        2.81648        -2.26300         0.34647
|106>    H        4.64580         0.28190        -2.22305
|107>    H        5.70027         1.83949        -0.63054
|108>    H        4.52828         2.53080         1.41135
|109>    H        2.29802         1.66614         1.94404
|110> *
|111>
|112>                          ****END OF INPUT****

CARTESIAN COORDINATES (ANGSTROEM)
---------------------------------
  C      0.184440    0.076340    2.660570
  C     -0.038850   -0.151950    1.367710
  C      0.947680   -0.202300    0.322950
  S      0.604610   -1.178510   -1.069200
  C      2.120900   -0.835340   -1.798570
  C      2.488680   -1.465010   -3.114930
  C      3.731070   -2.297360   -2.988790
  N      4.950960   -1.835030   -3.145520
  S      6.013610   -3.048660   -2.963480
  N      4.917370   -4.214490   -2.690540
  C      3.712590   -3.691280   -2.723960
  C      2.452530   -4.465430   -2.485510
  C      2.186500   -4.501170   -0.985990
  C      1.003520   -4.673720   -0.381870
  C     -0.312740   -4.890280   -1.007730
  C     -0.539340   -5.989290   -1.831860
  C     -1.784410   -6.189390   -2.390180
  C     -2.817680   -5.288880   -2.139960
  C     -4.129660   -5.522980   -2.780900
  O     -4.376630   -6.440960   -3.522280
  O     -5.051170   -4.598670   -2.463460
  C     -2.599000   -4.200570   -1.298720
  C     -1.358000   -4.014520   -0.725460
  C      1.048620   -4.699110    1.088930
  S      0.748020   -3.312980    2.073430
  C      1.492320   -4.012250    3.502600
  C      1.819100   -3.170280    4.603160
  C      2.986820   -3.257580    5.285500
  S      4.255640   -4.395100    4.819410
  C      5.402240   -3.726830    5.950860
  C      6.671450   -4.240690    5.990470
  C      7.693810   -3.823830    6.858340
  N      8.554970   -3.532160    7.559430
  C      7.013440   -5.259950    5.079130
  N      7.233850   -6.079340    4.306040
  C      4.799570   -2.671720    6.724270
  C      5.401350   -1.926310    7.734750
  C      4.666820   -0.948350    8.376780
  C      3.344610   -0.703710    8.021950
  C      2.736740   -1.431000    7.017180
  C      3.460480   -2.420310    6.359610
  C      1.837730   -5.317820    3.215750
  N      2.329600   -6.402570    3.874770
  C      2.440180   -7.432750    2.971860
  N      2.930150   -8.681780    3.405030
  O      3.195800   -8.779760    4.590460
  O      3.047950   -9.563240    2.579450
  C      2.003320   -7.059180    1.724060
  C      1.591960   -5.709850    1.855600
  C      3.383550   -4.272340   -0.131650
  C      4.333630   -5.266240    0.076460
  C      5.419990   -5.037170    0.902360
  C      5.572700   -3.806370    1.535440
  C      6.704460   -3.483260    2.452190
  O      6.585530   -2.701850    3.361300
  O      7.876250   -4.074330    2.205910
  C      4.620050   -2.812090    1.329070
  C      3.545360   -3.041320    0.498080
  C      1.385150   -3.778050   -3.277010
  N      0.362450   -4.388900   -3.831590
  S     -0.544530   -3.307950   -4.629630
  N      0.383710   -2.014890   -4.308880
  C      1.404310   -2.388440   -3.570730
  C      2.867580    0.034700   -1.023220
  C      4.148940    0.566930   -1.309580
  C      4.723870    1.426980   -0.426320
  C      4.051240    1.819610    0.753700
  C      2.818330    1.331000    1.061800
  C      2.196020    0.401150    0.195690
  H     -0.629210    0.093230    3.364500
  H      1.170660    0.232360    3.059560
  H     -1.048270   -0.370110    1.039970
  H      2.649360   -0.672830   -3.856240
  H      2.574460   -5.494830   -2.840000
  H      0.262090   -6.683370   -2.028980
  H     -1.977300   -7.033390   -3.033870
  H     -5.886400   -4.805090   -2.911060
  H     -3.403280   -3.510540   -1.098650
  H     -1.185010   -3.175770   -0.066980
  H      1.146870   -2.350560    4.812850
  H      6.425770   -2.111820    8.013250
  H      5.125560   -0.369910    9.163600
  H      2.786660    0.063510    8.537220
  H      1.710150   -1.238310    6.746750
  H      2.624270   -6.481900    4.835120
  H      1.958590   -7.683050    0.855720
  H      4.218940   -6.225000   -0.404380
  H      6.121940   -5.840940    1.078570
  H      7.827290   -4.735550    1.502180
  H      4.739200   -1.860570    1.824700
  H      2.816480   -2.263000    0.346470
  H      4.645800    0.281900   -2.223050
  H      5.700270    1.839490   -0.630540
  H      4.528280    2.530800    1.411350
  H      2.298020    1.666140    1.944040

 Total Charge           Charge          ....    0
 Multiplicity           Mult            ....    1
 Number of Electrons    NEL             ....  510
 Basis Dimension        Dim             .... 1116

ORBITAL ENERGIES
----------------

  NO   OCC          E(Eh)            E(eV)
   0   2.0000     -89.019661     -2422.3481
   1   2.0000     -89.019236     -2422.3366
   2   2.0000     -88.979207     -2421.2473
   3   2.0000     -88.976210     -2421.1658
   4   2.0000     -88.964922     -2420.8586
   5   2.0000     -19.263931      -524.1982
   6   2.0000     -19.253738      -523.9208
   7   2.0000     -19.246642      -523.7278
   8   2.0000     -19.245710      -523.7024
   9   2.0000     -19.203598      -522.5565
  10   2.0000     -19.192293      -522.2488
  11   2.0000     -14.656148      -398.8141
  12   2.0000     -14.477406      -393.9502
  13   2.0000     -14.448315      -393.1586
  14   2.0000     -14.447783      -393.1442
  15   2.0000     -14.447461      -393.1354
  16   2.0000     -14.446799      -393.1174
  17   2.0000     -14.404216      -391.9587
  18   2.0000     -14.402514      -391.9123
  19   2.0000     -10.404151      -283.1113
  20   2.0000     -10.395891      -282.8866
  21   2.0000     -10.364046      -282.0200
  22   2.0000     -10.348257      -281.5904
  23   2.0000     -10.338782      -281.3325
  24   2.0000     -10.338522      -281.3255
  25   2.0000     -10.338327      -281.3202
  26   2.0000     -10.337084      -281.2864
  27   2.0000     -10.331508      -281.1346
  28   2.0000     -10.329471      -281.0792
  29   2.0000     -10.324573      -280.9459
  30   2.0000     -10.323307      -280.9115
  31   2.0000     -10.321785      -280.8701
  32   2.0000     -10.321223      -280.8548
  33   2.0000     -10.315740      -280.7055
  34   2.0000     -10.315126      -280.6888
  35   2.0000     -10.311623      -280.5935
  36   2.0000     -10.309272      -280.5295
  37   2.0000     -10.308607      -280.5114
  38   2.0000     -10.308438      -280.5068
  39   2.0000     -10.306465      -280.4532
  40   2.0000     -10.306409      -280.4516
  41   2.0000     -10.305265      -280.4205
  42   2.0000     -10.301596      -280.3207
  43   2.0000     -10.299409      -280.2612
  44   2.0000     -10.297507      -280.2094
  45   2.0000     -10.294586      -280.1299
  46   2.0000     -10.293651      -280.1045
  47   2.0000     -10.293332      -280.0958
  48   2.0000     -10.292376      -280.0698
  49   2.0000     -10.291935      -280.0578
  50   2.0000     -10.290094      -280.0077
  51   2.0000     -10.288917      -279.9757
  52   2.0000     -10.288015      -279.9511
  53   2.0000     -10.287865      -279.9470
  54   2.0000     -10.286692      -279.9151
  55   2.0000     -10.286575      -279.9119
  56   2.0000     -10.285666      -279.8872
  57   2.0000     -10.285446      -279.8812
  58   2.0000     -10.284976      -279.8684
  59   2.0000     -10.283784      -279.8360
  60   2.0000     -10.283239      -279.8212
  61   2.0000     -10.282043      -279.7886
  62   2.0000     -10.278774      -279.6996
  63   2.0000     -10.277571      -279.6669
  64   2.0000     -10.276969      -279.6505
  65   2.0000     -10.276794      -279.6458
  66   2.0000     -10.275181      -279.6019
  67   2.0000     -10.273187      -279.5476
  68   2.0000     -10.272493      -279.5287
  69   2.0000      -8.112102      -220.7415
  70   2.0000      -8.111874      -220.7353
  71   2.0000      -8.072738      -219.6704
  72   2.0000      -8.069565      -219.5840
  73   2.0000      -8.059986      -219.3234
  74   2.0000      -6.083744      -165.5471
  75   2.0000      -6.083561      -165.5421
  76   2.0000      -6.076125      -165.3398
  77   2.0000      -6.075968      -165.3355
  78   2.0000      -6.073302      -165.2630
  79   2.0000      -6.072940      -165.2531
  80   2.0000      -6.041589      -164.4000
  81   2.0000      -6.038976      -164.3289
  82   2.0000      -6.037550      -164.2901
  83   2.0000      -6.036024      -164.2486
  84   2.0000      -6.034594      -164.2097
  85   2.0000      -6.031977      -164.1384
  86   2.0000      -6.029724      -164.0771
  87   2.0000      -6.025534      -163.9631
  88   2.0000      -6.021026      -163.8404
  89   2.0000      -1.327262       -36.1166
  90   2.0000      -1.190237       -32.3880
  91   2.0000      -1.177329       -32.0368
  92   2.0000      -1.147178       -31.2163
  93   2.0000      -1.134404       -30.8687
  94   2.0000      -1.129113       -30.7247
  95   2.0000      -1.104804       -30.0632
  96   2.0000      -1.093148       -29.7461
  97   2.0000      -1.089924       -29.6583
  98   2.0000      -1.017335       -27.6831
  99   2.0000      -1.009207       -27.4619
 100   2.0000      -1.004589       -27.3363
 101   2.0000      -0.994165       -27.0526
 102   2.0000      -0.990806       -26.9612
 103   2.0000      -0.983911       -26.7736
 104   2.0000      -0.982346       -26.7310
 105   2.0000      -0.975497       -26.5446
 106   2.0000      -0.967492       -26.3268
 107   2.0000      -0.960097       -26.1256
 108   2.0000      -0.946962       -25.7682
 109   2.0000      -0.934862       -25.4389
 110   2.0000      -0.931196       -25.3391
 111   2.0000      -0.919972       -25.0337
 112   2.0000      -0.910708       -24.7816
 113   2.0000      -0.899012       -24.4634
 114   2.0000      -0.887843       -24.1594
 115   2.0000      -0.881347       -23.9827
 116   2.0000      -0.871917       -23.7261
 117   2.0000      -0.867749       -23.6127
 118   2.0000      -0.861590       -23.4451
 119   2.0000      -0.854806       -23.2605
 120   2.0000      -0.848020       -23.0758
 121   2.0000      -0.845310       -23.0020
 122   2.0000      -0.844154       -22.9706
 123   2.0000      -0.842896       -22.9364
 124   2.0000      -0.835073       -22.7235
 125   2.0000      -0.832699       -22.6589
 126   2.0000      -0.814077       -22.1522
 127   2.0000      -0.795521       -21.6472
 128   2.0000      -0.782336       -21.2884
 129   2.0000      -0.774841       -21.0845
 130   2.0000      -0.763349       -20.7718
 131   2.0000      -0.753069       -20.4921
 132   2.0000      -0.731411       -19.9027
 133   2.0000      -0.727738       -19.8028
 134   2.0000      -0.723430       -19.6855
 135   2.0000      -0.712233       -19.3808
 136   2.0000      -0.709981       -19.3196
 137   2.0000      -0.709243       -19.2995
 138   2.0000      -0.705998       -19.2112
 139   2.0000      -0.701881       -19.0992
 140   2.0000      -0.697379       -18.9767
 141   2.0000      -0.694587       -18.9007
 142   2.0000      -0.692632       -18.8475
 143   2.0000      -0.683297       -18.5935
 144   2.0000      -0.677718       -18.4416
 145   2.0000      -0.677606       -18.4386
 146   2.0000      -0.676567       -18.4103
 147   2.0000      -0.665375       -18.1058
 148   2.0000      -0.659290       -17.9402
 149   2.0000      -0.650732       -17.7073
 150   2.0000      -0.644137       -17.5279
 151   2.0000      -0.641139       -17.4463
 152   2.0000      -0.638824       -17.3833
 153   2.0000      -0.634527       -17.2664
 154   2.0000      -0.631600       -17.1867
 155   2.0000      -0.625835       -17.0298
 156   2.0000      -0.622697       -16.9444
 157   2.0000      -0.618124       -16.8200
 158   2.0000      -0.602395       -16.3920
 159   2.0000      -0.598701       -16.2915
 160   2.0000      -0.592978       -16.1358
 161   2.0000      -0.585138       -15.9224
 162   2.0000      -0.580113       -15.7857
 163   2.0000      -0.575452       -15.6588
 164   2.0000      -0.573430       -15.6038
 165   2.0000      -0.570695       -15.5294
 166   2.0000      -0.567074       -15.4309
 167   2.0000      -0.564283       -15.3549
 168   2.0000      -0.559531       -15.2256
 169   2.0000      -0.556256       -15.1365
 170   2.0000      -0.554283       -15.0828
 171   2.0000      -0.551720       -15.0131
 172   2.0000      -0.549143       -14.9429
 173   2.0000      -0.547396       -14.8954
 174   2.0000      -0.544064       -14.8047
 175   2.0000      -0.541586       -14.7373
 176   2.0000      -0.540080       -14.6963
 177   2.0000      -0.538559       -14.6549
 178   2.0000      -0.535123       -14.5614
 179   2.0000      -0.533511       -14.5176
 180   2.0000      -0.532017       -14.4769
 181   2.0000      -0.530310       -14.4305
 182   2.0000      -0.528576       -14.3833
 183   2.0000      -0.526953       -14.3391
 184   2.0000      -0.525035       -14.2869
 185   2.0000      -0.521594       -14.1933
 186   2.0000      -0.517506       -14.0821
 187   2.0000      -0.515118       -14.0171
 188   2.0000      -0.513946       -13.9852
 189   2.0000      -0.510858       -13.9011
 190   2.0000      -0.507856       -13.8195
 191   2.0000      -0.502746       -13.6804
 192   2.0000      -0.501472       -13.6458
 193   2.0000      -0.499846       -13.6015
 194   2.0000      -0.491469       -13.3735
 195   2.0000      -0.487009       -13.2522
 196   2.0000      -0.485839       -13.2204
 197   2.0000      -0.481545       -13.1035
 198   2.0000      -0.478123       -13.0104
 199   2.0000      -0.474766       -12.9190
 200   2.0000      -0.467703       -12.7268
 201   2.0000      -0.465269       -12.6606
 202   2.0000      -0.464294       -12.6341
 203   2.0000      -0.462018       -12.5721
 204   2.0000      -0.457218       -12.4415
 205   2.0000      -0.452276       -12.3071
 206   2.0000      -0.449078       -12.2200
 207   2.0000      -0.447451       -12.1757
 208   2.0000      -0.445835       -12.1318
 209   2.0000      -0.444389       -12.0924
 210   2.0000      -0.439822       -11.9682
 211   2.0000      -0.439444       -11.9579
 212   2.0000      -0.437026       -11.8921
 213   2.0000      -0.434460       -11.8222
 214   2.0000      -0.433479       -11.7956
 215   2.0000      -0.431784       -11.7495
 216   2.0000      -0.430508       -11.7147
 217   2.0000      -0.427907       -11.6439
 218   2.0000      -0.422354       -11.4928
 219   2.0000      -0.420612       -11.4454
 220   2.0000      -0.418556       -11.3895
 221   2.0000      -0.414421       -11.2770
 222   2.0000      -0.410263       -11.1638
 223   2.0000      -0.409591       -11.1455
 224   2.0000      -0.408095       -11.1048
 225   2.0000      -0.401460       -10.9243
 226   2.0000      -0.400299       -10.8927
 227   2.0000      -0.399313       -10.8659
 228   2.0000      -0.396302       -10.7839
 229   2.0000      -0.392831       -10.6895
 230   2.0000      -0.387085       -10.5331
 231   2.0000      -0.385193       -10.4816
 232   2.0000      -0.382462       -10.4073
 233   2.0000      -0.380294       -10.3483
 234   2.0000      -0.378628       -10.3030
 235   2.0000      -0.375969       -10.2306
 236   2.0000      -0.374940       -10.2026
 237   2.0000      -0.372161       -10.1270
 238   2.0000      -0.363352        -9.8873
 239   2.0000      -0.355924        -9.6852
 240   2.0000      -0.351286        -9.5590
 241   2.0000      -0.347377        -9.4526
 242   2.0000      -0.344874        -9.3845
 243   2.0000      -0.340573        -9.2675
 244   2.0000      -0.336936        -9.1685
 245   2.0000      -0.331947        -9.0327
 246   2.0000      -0.328674        -8.9437
 247   2.0000      -0.325905        -8.8683
 248   2.0000      -0.322728        -8.7819
 249   2.0000      -0.317733        -8.6459
 250   2.0000      -0.313308        -8.5255
 251   2.0000      -0.312366        -8.4999
 252   2.0000      -0.296056        -8.0561
 253   2.0000      -0.259082        -7.0500
 254   2.0000      -0.252645        -6.8748
 255   0.0000      -0.075874        -2.0646
 256   0.0000      -0.062021        -1.6877
 257   0.0000      -0.051382        -1.3982
 258   0.0000      -0.038739        -1.0541
 259   0.0000      -0.029100        -0.7918

MULLIKEN ATOMIC CHARGES
-----------------------
   0 C :   -0.043536
   1 C :    0.020831
   2 C :   -0.158129
   3 S :    0.151687
   4 C :   -0.285238
   5 C :    0.389874
   6 C :   -0.053923
   7 N :   -0.279246
   8 S :    0.468686
   9 N :   -0.262271
  10 C :   -0.167302
  11 C :    0.379536
  12 C :   -0.121195
  13 C :   -0.010885
  14 C :    0.025790
  15 C :    0.089982
  16 C :   -0.005053
  17 C :   -0.042052
  18 C :    0.150102
  19 O :   -0.192523
  20 O :   -0.176886
  21 C :    0.019671
  22 C :    0.019682
  23 C :   -0.179330
  24 S :    0.151020
  25 C :   -0.224234
  26 C :    0.007404
  27 C :   -0.055615
  28 S :    0.081423
  29 C :    0.103983
  30 C :   -0.251475
  31 C :   -0.181707
  32 N :    0.152910
  33 C :   -0.189609
  34 N :    0.113165
  35 C :    0.051097
  36 C :   -0.021796
  37 C :    0.028450
  38 C :    0.048716
  39 C :   -0.059093
  40 C :    0.155528
  41 C :    0.131225
  42 N :   -0.042570
  43 C :    0.145896
  44 N :    0.285742
  45 O :   -0.257260
  46 O :   -0.237077
  47 C :   -0.095664
  48 C :    0.169066
  49 C :    0.060935
  50 C :    0.071217
  51 C :   -0.048069
  52 C :   -0.020447
  53 C :    0.181146
  54 O :   -0.206948
  55 O :   -0.140225
  56 C :    0.011404
  57 C :    0.043325
  58 C :   -0.073119
  59 N :   -0.266068
  60 S :    0.474442
  61 N :   -0.252327
  62 C :   -0.213503
  63 C :    0.119987
  64 C :   -0.028176
  65 C :    0.027906
  66 C :    0.025465
  67 C :   -0.041380
  68 C :    0.119762
  69 H :    0.024756
  70 H :    0.027780
  71 H :    0.002489
  72 H :    0.035195
  73 H :    0.028255
  74 H :   -0.025157
  75 H :    0.000434
  76 H :    0.191511
  77 H :   -0.005700
  78 H :   -0.038124
  79 H :   -0.010957
  80 H :    0.006434
  81 H :   -0.001971
  82 H :   -0.004166
  83 H :   -0.021237
  84 H :    0.145687
  85 H :   -0.008506
  86 H :   -0.023332
  87 H :   -0.011255
  88 H :    0.182610
  89 H :   -0.004723
  90 H :   -0.020823
  91 H :   -0.011616
  92 H :   -0.012427
  93 H :   -0.010263
  94 H :   -0.028024
Sum of atomic charges:    0.0000000

LOEWDIN ATOMIC CHARGES
----------------------
   0 C :   -0.062113
   1 C :   -0.042956
   2 C :   -0.197810
   3 S :    0.507876
   4 C :   -0.190419
   5 C :   -0.027446
   6 C :   -0.042568
   7 N :   -0.262099
   8 S :    0.594981
   9 N :   -0.258521
  10 C :   -0.048285
  11 C :   -0.014717
  12 C :    0.003396
  13 C :   -0.040236
  14 C :   -0.014872
  15 C :   -0.002902
  16 C :    0.018379
  17 C :   -0.079089
  18 C :    0.083956
  19 O :   -0.181130
  20 O :   -0.041820
  21 C :    0.001895
  22 C :   -0.026428
  23 C :   -0.155915
  24 S :    0.504385
  25 C :   -0.225950
  26 C :   -0.051337
  27 C :   -0.153843
  28 S :    0.443425
  29 C :   -0.053106
  30 C :   -0.161743
  31 C :   -0.019539
  32 N :   -0.056529
  33 C :   -0.025660
  34 N :   -0.067138
  35 C :   -0.045035
  36 C :    0.013511
  37 C :   -0.016059
  38 C :    0.000179
  39 C :   -0.017096
  40 C :   -0.015536
  41 C :   -0.007848
  42 N :    0.062816
  43 C :    0.004402
  44 N :    0.279720
  45 O :   -0.214126
  46 O :   -0.198676
  47 C :   -0.027372
  48 C :   -0.060040
  49 C :   -0.018574
  50 C :   -0.004658
  51 C :   -0.023141
  52 C :   -0.080926
  53 C :    0.081964
  54 O :   -0.173983
  55 O :   -0.011569
  56 C :    0.010805
  57 C :   -0.018030
  58 C :   -0.049848
  59 N :   -0.246731
  60 S :    0.601762
  61 N :   -0.264907
  62 C :   -0.069363
  63 C :   -0.051062
  64 C :   -0.016103
  65 C :   -0.023727
  66 C :   -0.020537
  67 C :   -0.021370
  68 C :   -0.043337
  69 H :    0.024882
  70 H :    0.021005
  71 H :    0.028635
  72 H :    0.062192
  73 H :    0.060507
  74 H :    0.027044
  75 H :    0.037956
  76 H :    0.101577
  77 H :    0.033612
  78 H :    0.010649
  79 H :    0.035173
  80 H :    0.041934
  81 H :    0.034959
  82 H :    0.033671
  83 H :    0.028938
  84 H :    0.079962
  85 H :    0.038915
  86 H :    0.028292
  87 H :    0.029281
  88 H :    0.094727
  89 H :    0.038079
  90 H :    0.023281
  91 H :    0.026195
  92 H :    0.030370
  93 H :    0.030679
  94 H :    0.027861

  Mayer bond orders larger than 0.100000
B(  0-C ,  1-C ) :   1.9321 B(  0-C , 69-H ) :   0.9458 B(  0-C , 70-H ) :   0.9562
B(  1-C ,  2-C ) :   1.0939 B(  1-C , 71-H ) :   0.9495 B(  2-C ,  3-S ) :   1.1506
B(  2-C ,  4-C ) :   0.1245 B(  2-C , 68-C ) :   1.3843 B(  3-S ,  4-C ) :   1.2000
B(  4-C ,  5-C ) :   1.0211 B(  4-C , 63-C ) :   1.4258 B(  5-C ,  6-C ) :   0.9959
B(  5-C , 62-C ) :   0.9568 B(  5-C , 72-H ) :   0.8292 B(  6-C ,  7-N ) :   1.6464
B(  6-C , 10-C ) :   1.2373 B(  7-N ,  8-S ) :   1.2017 B(  7-N ,  9-N ) :   0.1204
B(  8-S ,  9-N ) :   1.2116 B(  9-N , 10-C ) :   1.6832 B( 10-C , 11-C ) :   0.9746
B( 11-C , 12-C ) :   1.0125 B( 11-C , 58-C ) :   0.9888 B( 11-C , 73-H ) :   0.8016
B( 12-C , 13-C ) :   1.9211 B( 12-C , 49-C ) :   0.9619 B( 13-C , 14-C ) :   0.9537
B( 13-C , 23-C ) :   0.9617 B( 14-C , 15-C ) :   1.4082 B( 14-C , 22-C ) :   1.3773
B( 15-C , 16-C ) :   1.3534 B( 15-C , 74-H ) :   0.9944 B( 16-C , 17-C ) :   1.3948
B( 16-C , 75-H ) :   0.9982 B( 17-C , 18-C ) :   0.9254 B( 17-C , 21-C ) :   1.3492
B( 18-C , 19-O ) :   2.1620 B( 18-C , 20-O ) :   1.2759 B( 20-O , 76-H ) :   0.9412
B( 21-C , 22-C ) :   1.3786 B( 21-C , 77-H ) :   0.9931 B( 22-C , 78-H ) :   0.9830
B( 23-C , 24-S ) :   1.2030 B( 23-C , 25-C ) :   0.1068 B( 23-C , 48-C ) :   1.4205
B( 24-S , 25-C ) :   1.0982 B( 25-C , 26-C ) :   1.1020 B( 25-C , 41-C ) :   1.4090
B( 26-C , 27-C ) :   1.7212 B( 26-C , 79-H ) :   0.9460 B( 27-C , 28-S ) :   0.9931
B( 27-C , 40-C ) :   1.0508 B( 28-S , 29-C ) :   1.0889 B( 29-C , 30-C ) :   1.6425
B( 29-C , 35-C ) :   1.0795 B( 30-C , 31-C ) :   1.1670 B( 30-C , 33-C ) :   1.1375
B( 31-C , 32-N ) :   2.9724 B( 33-C , 34-N ) :   2.9807 B( 35-C , 36-C ) :   1.3488
B( 35-C , 40-C ) :   1.3232 B( 36-C , 37-C ) :   1.4081 B( 36-C , 80-H ) :   0.9825
B( 37-C , 38-C ) :   1.3478 B( 37-C , 81-H ) :   0.9882 B( 38-C , 39-C ) :   1.4051
B( 38-C , 82-H ) :   0.9876 B( 39-C , 40-C ) :   1.3574 B( 39-C , 83-H ) :   0.9904
B( 41-C , 42-N ) :   1.1715 B( 41-C , 48-C ) :   1.2198 B( 42-N , 43-C ) :   1.1659
B( 42-N , 84-H ) :   0.9027 B( 43-C , 44-N ) :   0.9187 B( 43-C , 47-C ) :   1.5347
B( 44-N , 45-O ) :   1.4846 B( 44-N , 46-O ) :   1.5449 B( 45-O , 46-O ) :   0.2738
B( 47-C , 48-C ) :   1.1173 B( 47-C , 85-H ) :   1.0294 B( 49-C , 50-C ) :   1.3992
B( 49-C , 57-C ) :   1.3691 B( 50-C , 51-C ) :   1.3969 B( 50-C , 86-H ) :   0.9852
B( 51-C , 52-C ) :   1.3279 B( 51-C , 87-H ) :   0.9889 B( 52-C , 53-C ) :   0.9021
B( 52-C , 56-C ) :   1.3881 B( 53-C , 54-O ) :   2.1106 B( 53-C , 55-O ) :   1.2475
B( 55-O , 88-H ) :   0.9501 B( 56-C , 57-C ) :   1.3684 B( 56-C , 89-H ) :   1.0014
B( 57-C , 90-H ) :   0.9884 B( 58-C , 59-N ) :   1.6585 B( 58-C , 62-C ) :   1.2204
B( 59-N , 60-S ) :   1.2111 B( 59-N , 61-N ) :   0.1183 B( 60-S , 61-N ) :   1.2114
B( 61-N , 62-C ) :   1.6912 B( 63-C , 64-C ) :   1.1905 B( 63-C , 68-C ) :   1.1964
B( 64-C , 65-C ) :   1.5720 B( 64-C , 91-H ) :   0.9804 B( 65-C , 66-C ) :   1.1899
B( 65-C , 92-H ) :   0.9856 B( 66-C , 67-C ) :   1.5667 B( 66-C , 93-H ) :   0.9856
B( 67-C , 68-C ) :   1.1917 B( 67-C , 94-H ) :   0.9946

-----------------------------------------------------------------------------
         ABSORPTION SPECTRUM VIA TRANSITION ELECTRIC DIPOLE MOMENTS
-----------------------------------------------------------------------------
State   Energy  Wavelength   fosc         T2         TX        TY        TZ
        (cm-1)    (nm)                  (au**2)     (au)      (au)      (au)
-----------------------------------------------------------------------------
   0   21213.7    471.4   0.511950197   7.94487  -1.81163  -0.35500  -2.12998
   1   23225.7    430.6   0.102264208   1.44954  -1.00616  -0.57146  -0.33259
   2   25329.8    394.8   0.013327054   0.17321  -0.00884  -0.18066   0.37483
   3   27330.7    365.9   0.166008733   1.99966  -0.60239   0.44572   1.19922
   4   28620.0    349.4   0.006298261   0.07245   0.06461  -0.09715  -0.24256
   5   30073.6    332.5   0.003607166   0.03949   0.02619  -0.13180   0.14639
   6   30128.0    331.9   0.051982880   0.56802   0.71505   0.17459   0.16202
   7   30903.0    323.6   0.072263270   0.76983  -0.52471  -0.33521   0.61818
   8   31219.4    320.3   0.227879718   2.40302   0.80486  -0.21084  -1.30796
   9   32162.6    310.9   0.055746519   0.57061   0.34871  -0.43695  -0.50802
  10   32916.8    303.8   0.091431354   0.91443   0.25808   0.89915  -0.19839
  11   33370.9    299.7   0.200826020   1.98120   1.14116  -0.79649   0.21109
  12   33868.8    295.3   0.051161220   0.49730   0.16701   0.67256   0.13063
  13   34265.4    291.8   0.029655666   0.28492  -0.33564  -0.29715  -0.28977
  14   34585.8    289.1   0.141386992   1.34582  -0.78111   0.51933  -0.68263
  15   34907.2    286.5   0.029447632   0.27772   0.29898   0.07507  -0.42744
  16   35619.8    280.7   0.009882158   0.09133  -0.06342   0.10282  -0.27702
  17   35700.8    280.1   0.016346619   0.15074   0.13670   0.33494  -0.14095
  18   36290.6    275.6   0.634168370   5.75289  -1.02278   1.94863   0.95376
  19   36417.2    274.6   0.038989721   0.35247  -0.02156   0.59330   0.00144
  20   36664.4    272.7   0.081146866   0.72862  -0.64558  -0.30919  -0.46504
  21   37210.6    268.7   0.002861299   0.02531   0.09025   0.09761  -0.08742
  22   37701.2    265.2   0.013107274   0.11445  -0.00865  -0.29605  -0.16350
  23   37804.8    264.5   0.029918151   0.26053  -0.01363   0.28816  -0.42108
  24   38042.6    262.9   0.022495893   0.19467   0.19150   0.05671   0.39343
  25   38430.7    260.2   0.233936034   2.00398   0.77376  -1.02362   0.59790
  26   38865.4    257.3   0.021677229   0.18362   0.18419  -0.36556   0.12674
  27   39199.5    255.1   0.002628279   0.02207   0.00587  -0.14495   0.03207
  28   39239.1    254.8   0.032208986   0.27023   0.13626  -0.45524   0.21075
  29   39468.0    253.4   0.002373390   0.01980   0.01030  -0.03166   0.13671
  30   39877.4    250.8   0.005382180   0.04443   0.11949   0.16725   0.04669
  31   40102.3    249.4   0.030915444   0.25379   0.45161   0.00385  -0.22322
  32   40121.8    249.2   0.006414616   0.05263   0.22831   0.02151   0.00684

FINAL SINGLE POINT ENERGY     -4797.019375094833

DIPOLE MOMENT
-------------
                                X             Y             Z
Electronic contribution:      6.74565     -21.04328     -14.08967
Nuclear contribution   :     -9.62791      23.56801      12.83731
                        -----------------------------------------
Total Dipole Moment    :     -2.88226       2.52473      -1.25236
                        -----------------------------------------
Magnitude (a.u.)       :      4.03114
Magnitude (Debye)      :     10.24633

Rotational constants in cm-1:     0.001593     0.000821     0.000753
Rotational constants in MHz :    47.754303    24.613628    22.566256

                             ****ORCA TERMINATED NORMALLY****
TOTAL RUN TIME: 0 days 0 hours 12 minutes 16 seconds 543 msec
