                         Program Version 4.2.0 -  RELEASE  -
|  1> # ORCA input file
|  2> # SCF done       -168.153585925211          0.000807549986
|  3> ! CAM-B3LYP def2-SVP def2/J RIJCOSX Grid4 TightSCF
|  4> %maxcore 5000
|  5> %tddft
|  6>     Mode sTDDFT
|  7>     Ethresh 5.0
|  8>     maxcore 5000
|  9> end
| 10>
| 11> %pal
| 12>   nprocs 6
| 13>   end
| 14> * xyz 0 1
| 15>    C        4.80298        -5.48472         1.80233
| 16>    C        4.92061        -4.78950         0.44489
| 17>    C        4.23358        -3.45731         0.46454
| 18>    C        4.83717        -2.32648         1.02722
| 19>    C        6.12523        -2.22392         1.61531
| 20>    C        6.42804        -0.98473         2.08805
| 21>    C        7.63023        -0.52569         2.74150
| 22>    C        7.82228         0.82300         2.98691
| 23>    C        8.96674         1.31696         3.60477
| 24>    C        9.98400         0.48292         4.01681
| 25>    C       11.19257         0.99749         4.66829
| 26>    C       11.68482         0.36782         5.80504
| 27>    C       12.83084         0.80554         6.44948
| 28>    O       13.37105         0.17841         7.54213
| 29>    C       12.78044        -1.01972         7.98376
| 30>    C       13.51290         1.92541         5.94814
| 31>    C       14.73415         2.44141         6.56950
| 32>    C       15.81736         2.78185         5.85617
| 33>    C       16.98624         3.35864         6.47457
| 34>    C       17.14651         3.36094         7.79989
| 35>    C       18.31706         3.95243         8.48097
| 36>    C       19.49349         3.22595         8.58501
| 37>    C       20.60288         3.76293         9.22680
| 38>    O       21.80251         3.13117         9.37480
| 39>    C       21.94193         1.83228         8.85428
| 40>    C       20.51151         5.04269         9.76660
| 41>    C       19.34522         5.77370         9.66386
| 42>    C       18.23660         5.24224         9.01665
| 43>    O       17.04316         5.89534         8.84624
| 44>    C       16.91999         7.20110         9.36210
| 45>    C       16.11928         2.67668         8.68014
| 46>    N       16.16619         3.27344        10.00036
| 47>    C       15.43141         4.27851        10.18051
| 48>    F       15.46332         4.91068        11.35334
| 49>    C       14.43790         4.72948         9.18787
| 50>    F       13.87466         5.92541         9.36646
| 51>    N       14.07263         4.01385         8.22261
| 52>    C       14.71537         2.72587         8.05816
| 53>    C       13.02237         2.55089         4.80468
| 54>    C       11.87835         2.11247         4.15705
| 55>    O       11.37784         2.68364         3.02280
| 56>    C       12.09893         3.73031         2.42155
| 57>    C        9.82859        -0.91054         3.79067
| 58>    N       10.81852        -1.75409         4.14876
| 59>    C       10.67930        -3.03649         3.94487
| 60>    C       11.81204        -3.92476         4.34457
| 61>    C        9.48559        -3.55317         3.36970
| 62>    C        9.27891        -5.01864         3.16750
| 63>    N        8.52584        -2.75022         2.99165
| 64>    C        8.65745        -1.42028         3.16299
| 65>    S        5.10786         0.14796         1.81225
| 66>    C        4.14450        -1.09151         1.05523
| 67>    C        2.87242        -0.91513         0.54143
| 68>    C        2.17521         0.41012         0.61904
| 69>    C        1.30311         0.49075         1.87278
| 70>    C        2.26371        -2.04844        -0.00719
| 71>    C        0.96420        -2.16563        -0.58807
| 72>    C        0.68868        -3.41090        -1.02222
| 73>    S        1.97732        -4.53645        -0.76396
| 74>    C        2.95440        -3.28510        -0.03065
| 75>    H        5.30598        -6.44861         1.77813
| 76>    H        3.75696        -5.64762         2.05092
| 77>    H        5.25055        -4.87377         2.58292
| 78>    H        4.46194        -5.41754        -0.32205
| 79>    H        5.97431        -4.65540         0.19330
| 80>    H        6.81739        -3.03950         1.69436
| 81>    H        7.05410         1.52045         2.68419
| 82>    H        9.05339         2.37834         3.77318
| 83>    H       11.13903        -0.48215         6.17627
| 84>    H       12.74764        -1.76786         7.18640
| 85>    H       11.76866        -0.85410         8.36777
| 86>    H       13.41639        -1.37811         8.79228
| 87>    H       15.83825         2.62628         4.78761
| 88>    H       17.73699         3.80088         5.83636
| 89>    H       19.51444         2.23661         8.15644
| 90>    H       22.96341         1.53182         9.08240
| 91>    H       21.79443         1.81498         7.76936
| 92>    H       21.24506         1.13238         9.32669
| 93>    H       21.37268         5.45381        10.26821
| 94>    H       19.31302         6.76158        10.09393
| 95>    H       17.64852         7.87891         8.90730
| 96>    H       17.03449         7.21433        10.45030
| 97>    H       15.91480         7.52859         9.10206
| 98>    H       16.42813         1.62973         8.80687
| 99>    H       14.06582         1.99442         8.55147
|100>    H       13.55562         3.41729         4.44955
|101>    H       11.54370         3.98583         1.52000
|102>    H       13.11115         3.41674         2.14586
|103>    H       12.15508         4.60946         3.07202
|104>    H       12.63328        -3.31508         4.71099
|105>    H       12.15270        -4.51252         3.49380
|106>    H       11.49714        -4.61538         5.12619
|107>    H       10.02741        -5.41503         2.48248
|108>    H        8.28919        -5.19414         2.75547
|109>    H        9.37363        -5.55015         4.11313
|110>    H        1.55819         0.56031        -0.26827
|111>    H        2.92477         1.20396         0.65256
|112>    H        0.55277        -0.29670         1.86681
|113>    H        0.79949         1.45301         1.92177
|114>    H        1.91641         0.37490         2.76302
|115>    H        0.27239        -1.34720        -0.67062
|116>    H       -0.20909        -3.76380        -1.49139
|117> *
|118>
|119>                          ****END OF INPUT****

CARTESIAN COORDINATES (ANGSTROEM)
---------------------------------
  C      4.802980   -5.484720    1.802330
  C      4.920610   -4.789500    0.444890
  C      4.233580   -3.457310    0.464540
  C      4.837170   -2.326480    1.027220
  C      6.125230   -2.223920    1.615310
  C      6.428040   -0.984730    2.088050
  C      7.630230   -0.525690    2.741500
  C      7.822280    0.823000    2.986910
  C      8.966740    1.316960    3.604770
  C      9.984000    0.482920    4.016810
  C     11.192570    0.997490    4.668290
  C     11.684820    0.367820    5.805040
  C     12.830840    0.805540    6.449480
  O     13.371050    0.178410    7.542130
  C     12.780440   -1.019720    7.983760
  C     13.512900    1.925410    5.948140
  C     14.734150    2.441410    6.569500
  C     15.817360    2.781850    5.856170
  C     16.986240    3.358640    6.474570
  C     17.146510    3.360940    7.799890
  C     18.317060    3.952430    8.480970
  C     19.493490    3.225950    8.585010
  C     20.602880    3.762930    9.226800
  O     21.802510    3.131170    9.374800
  C     21.941930    1.832280    8.854280
  C     20.511510    5.042690    9.766600
  C     19.345220    5.773700    9.663860
  C     18.236600    5.242240    9.016650
  O     17.043160    5.895340    8.846240
  C     16.919990    7.201100    9.362100
  C     16.119280    2.676680    8.680140
  N     16.166190    3.273440   10.000360
  C     15.431410    4.278510   10.180510
  F     15.463320    4.910680   11.353340
  C     14.437900    4.729480    9.187870
  F     13.874660    5.925410    9.366460
  N     14.072630    4.013850    8.222610
  C     14.715370    2.725870    8.058160
  C     13.022370    2.550890    4.804680
  C     11.878350    2.112470    4.157050
  O     11.377840    2.683640    3.022800
  C     12.098930    3.730310    2.421550
  C      9.828590   -0.910540    3.790670
  N     10.818520   -1.754090    4.148760
  C     10.679300   -3.036490    3.944870
  C     11.812040   -3.924760    4.344570
  C      9.485590   -3.553170    3.369700
  C      9.278910   -5.018640    3.167500
  N      8.525840   -2.750220    2.991650
  C      8.657450   -1.420280    3.162990
  S      5.107860    0.147960    1.812250
  C      4.144500   -1.091510    1.055230
  C      2.872420   -0.915130    0.541430
  C      2.175210    0.410120    0.619040
  C      1.303110    0.490750    1.872780
  C      2.263710   -2.048440   -0.007190
  C      0.964200   -2.165630   -0.588070
  C      0.688680   -3.410900   -1.022220
  S      1.977320   -4.536450   -0.763960
  C      2.954400   -3.285100   -0.030650
  H      5.305980   -6.448610    1.778130
  H      3.756960   -5.647620    2.050920
  H      5.250550   -4.873770    2.582920
  H      4.461940   -5.417540   -0.322050
  H      5.974310   -4.655400    0.193300
  H      6.817390   -3.039500    1.694360
  H      7.054100    1.520450    2.684190
  H      9.053390    2.378340    3.773180
  H     11.139030   -0.482150    6.176270
  H     12.747640   -1.767860    7.186400
  H     11.768660   -0.854100    8.367770
  H     13.416390   -1.378110    8.792280
  H     15.838250    2.626280    4.787610
  H     17.736990    3.800880    5.836360
  H     19.514440    2.236610    8.156440
  H     22.963410    1.531820    9.082400
  H     21.794430    1.814980    7.769360
  H     21.245060    1.132380    9.326690
  H     21.372680    5.453810   10.268210
  H     19.313020    6.761580   10.093930
  H     17.648520    7.878910    8.907300
  H     17.034490    7.214330   10.450300
  H     15.914800    7.528590    9.102060
  H     16.428130    1.629730    8.806870
  H     14.065820    1.994420    8.551470
  H     13.555620    3.417290    4.449550
  H     11.543700    3.985830    1.520000
  H     13.111150    3.416740    2.145860
  H     12.155080    4.609460    3.072020
  H     12.633280   -3.315080    4.710990
  H     12.152700   -4.512520    3.493800
  H     11.497140   -4.615380    5.126190
  H     10.027410   -5.415030    2.482480
  H      8.289190   -5.194140    2.755470
  H      9.373630   -5.550150    4.113130
  H      1.558190    0.560310   -0.268270
  H      2.924770    1.203960    0.652560
  H      0.552770   -0.296700    1.866810
  H      0.799490    1.453010    1.921770
  H      1.916410    0.374900    2.763020
  H      0.272390   -1.347200   -0.670620
  H     -0.209090   -3.763800   -1.491390

 Total Charge           Charge          ....    0
 Multiplicity           Mult            ....    1
 Number of Electrons    NEL             ....  440
 Basis Dimension        Dim             .... 1058

ORBITAL ENERGIES
----------------

  NO   OCC          E(Eh)            E(eV)
   0   2.0000     -88.932671     -2419.9810
   1   2.0000     -88.928911     -2419.8787
   2   2.0000     -24.786100      -674.4641
   3   2.0000     -24.785057      -674.4357
   4   2.0000     -19.238727      -523.5124
   5   2.0000     -19.237360      -523.4752
   6   2.0000     -19.233820      -523.3788
   7   2.0000     -19.229055      -523.2492
   8   2.0000     -14.408567      -392.0770
   9   2.0000     -14.407845      -392.0574
  10   2.0000     -14.406323      -392.0160
  11   2.0000     -14.402183      -391.9033
  12   2.0000     -10.393553      -282.8229
  13   2.0000     -10.391447      -282.7657
  14   2.0000     -10.317453      -280.7522
  15   2.0000     -10.316547      -280.7275
  16   2.0000     -10.315276      -280.6929
  17   2.0000     -10.314965      -280.6845
  18   2.0000     -10.314819      -280.6805
  19   2.0000     -10.314340      -280.6675
  20   2.0000     -10.313830      -280.6536
  21   2.0000     -10.313565      -280.6464
  22   2.0000     -10.312684      -280.6224
  23   2.0000     -10.312395      -280.6145
  24   2.0000     -10.303843      -280.3818
  25   2.0000     -10.302062      -280.3333
  26   2.0000     -10.302004      -280.3318
  27   2.0000     -10.297533      -280.2101
  28   2.0000     -10.286223      -279.9024
  29   2.0000     -10.282917      -279.8124
  30   2.0000     -10.279765      -279.7266
  31   2.0000     -10.278823      -279.7010
  32   2.0000     -10.277741      -279.6715
  33   2.0000     -10.272801      -279.5371
  34   2.0000     -10.269251      -279.4405
  35   2.0000     -10.269019      -279.4342
  36   2.0000     -10.268438      -279.4184
  37   2.0000     -10.268186      -279.4115
  38   2.0000     -10.268119      -279.4097
  39   2.0000     -10.266885      -279.3762
  40   2.0000     -10.266776      -279.3732
  41   2.0000     -10.266339      -279.3613
  42   2.0000     -10.264805      -279.3195
  43   2.0000     -10.264626      -279.3147
  44   2.0000     -10.264319      -279.3063
  45   2.0000     -10.262359      -279.2530
  46   2.0000     -10.261062      -279.2177
  47   2.0000     -10.260098      -279.1915
  48   2.0000     -10.259825      -279.1840
  49   2.0000     -10.259528      -279.1759
  50   2.0000     -10.259239      -279.1681
  51   2.0000     -10.259108      -279.1645
  52   2.0000     -10.258504      -279.1481
  53   2.0000     -10.258075      -279.1364
  54   2.0000     -10.257671      -279.1254
  55   2.0000     -10.257230      -279.1134
  56   2.0000     -10.255055      -279.0542
  57   2.0000     -10.248621      -278.8792
  58   2.0000     -10.248022      -278.8628
  59   2.0000     -10.247083      -278.8373
  60   2.0000      -8.028540      -218.4677
  61   2.0000      -8.024231      -218.3504
  62   2.0000      -5.998155      -163.2181
  63   2.0000      -5.993956      -163.1038
  64   2.0000      -5.993832      -163.1005
  65   2.0000      -5.990057      -162.9977
  66   2.0000      -5.989872      -162.9927
  67   2.0000      -5.985599      -162.8764
  68   2.0000      -1.312864       -35.7248
  69   2.0000      -1.298405       -35.3314
  70   2.0000      -1.139252       -31.0006
  71   2.0000      -1.139119       -30.9970
  72   2.0000      -1.137631       -30.9565
  73   2.0000      -1.133167       -30.8350
  74   2.0000      -1.069737       -29.1090
  75   2.0000      -1.058198       -28.7950
  76   2.0000      -0.993831       -27.0435
  77   2.0000      -0.989972       -26.9385
  78   2.0000      -0.981974       -26.7209
  79   2.0000      -0.959396       -26.1065
  80   2.0000      -0.949208       -25.8293
  81   2.0000      -0.942918       -25.6581
  82   2.0000      -0.935746       -25.4629
  83   2.0000      -0.918446       -24.9922
  84   2.0000      -0.896391       -24.3920
  85   2.0000      -0.893667       -24.3179
  86   2.0000      -0.879568       -23.9343
  87   2.0000      -0.873925       -23.7807
  88   2.0000      -0.856899       -23.3174
  89   2.0000      -0.839230       -22.8366
  90   2.0000      -0.835043       -22.7227
  91   2.0000      -0.833122       -22.6704
  92   2.0000      -0.831124       -22.6160
  93   2.0000      -0.824560       -22.4374
  94   2.0000      -0.812691       -22.1145
  95   2.0000      -0.811156       -22.0727
  96   2.0000      -0.809208       -22.0197
  97   2.0000      -0.801472       -21.8092
  98   2.0000      -0.796602       -21.6767
  99   2.0000      -0.793028       -21.5794
 100   2.0000      -0.791858       -21.5476
 101   2.0000      -0.774998       -21.0888
 102   2.0000      -0.757499       -20.6126
 103   2.0000      -0.751935       -20.4612
 104   2.0000      -0.749452       -20.3936
 105   2.0000      -0.744012       -20.2456
 106   2.0000      -0.734440       -19.9851
 107   2.0000      -0.724760       -19.7217
 108   2.0000      -0.714440       -19.4409
 109   2.0000      -0.711134       -19.3509
 110   2.0000      -0.709005       -19.2930
 111   2.0000      -0.696658       -18.9570
 112   2.0000      -0.681938       -18.5565
 113   2.0000      -0.676685       -18.4135
 114   2.0000      -0.667916       -18.1749
 115   2.0000      -0.660480       -17.9726
 116   2.0000      -0.653616       -17.7858
 117   2.0000      -0.651608       -17.7312
 118   2.0000      -0.645633       -17.5686
 119   2.0000      -0.640165       -17.4198
 120   2.0000      -0.637546       -17.3485
 121   2.0000      -0.629480       -17.1290
 122   2.0000      -0.620549       -16.8860
 123   2.0000      -0.617687       -16.8081
 124   2.0000      -0.612433       -16.6651
 125   2.0000      -0.608683       -16.5631
 126   2.0000      -0.601726       -16.3738
 127   2.0000      -0.600884       -16.3509
 128   2.0000      -0.588788       -16.0217
 129   2.0000      -0.588143       -16.0042
 130   2.0000      -0.586246       -15.9526
 131   2.0000      -0.581682       -15.8284
 132   2.0000      -0.580417       -15.7940
 133   2.0000      -0.573483       -15.6053
 134   2.0000      -0.564511       -15.3611
 135   2.0000      -0.557400       -15.1676
 136   2.0000      -0.553725       -15.0676
 137   2.0000      -0.548062       -14.9135
 138   2.0000      -0.546604       -14.8739
 139   2.0000      -0.544951       -14.8289
 140   2.0000      -0.543707       -14.7950
 141   2.0000      -0.541873       -14.7451
 142   2.0000      -0.541015       -14.7218
 143   2.0000      -0.534117       -14.5341
 144   2.0000      -0.530420       -14.4335
 145   2.0000      -0.526835       -14.3359
 146   2.0000      -0.523279       -14.2391
 147   2.0000      -0.521874       -14.2009
 148   2.0000      -0.518245       -14.1022
 149   2.0000      -0.514111       -13.9897
 150   2.0000      -0.513267       -13.9667
 151   2.0000      -0.510995       -13.9049
 152   2.0000      -0.509083       -13.8528
 153   2.0000      -0.507985       -13.8230
 154   2.0000      -0.507114       -13.7993
 155   2.0000      -0.505034       -13.7427
 156   2.0000      -0.499091       -13.5809
 157   2.0000      -0.496367       -13.5068
 158   2.0000      -0.495271       -13.4770
 159   2.0000      -0.491139       -13.3646
 160   2.0000      -0.489581       -13.3222
 161   2.0000      -0.486672       -13.2430
 162   2.0000      -0.485180       -13.2024
 163   2.0000      -0.483279       -13.1507
 164   2.0000      -0.479505       -13.0480
 165   2.0000      -0.477047       -12.9811
 166   2.0000      -0.475801       -12.9472
 167   2.0000      -0.474464       -12.9108
 168   2.0000      -0.474101       -12.9009
 169   2.0000      -0.472292       -12.8517
 170   2.0000      -0.471611       -12.8332
 171   2.0000      -0.461592       -12.5606
 172   2.0000      -0.458354       -12.4724
 173   2.0000      -0.456264       -12.4156
 174   2.0000      -0.452092       -12.3021
 175   2.0000      -0.449756       -12.2385
 176   2.0000      -0.447611       -12.1801
 177   2.0000      -0.441579       -12.0160
 178   2.0000      -0.439783       -11.9671
 179   2.0000      -0.438680       -11.9371
 180   2.0000      -0.435853       -11.8602
 181   2.0000      -0.434095       -11.8123
 182   2.0000      -0.433293       -11.7905
 183   2.0000      -0.431263       -11.7353
 184   2.0000      -0.428958       -11.6725
 185   2.0000      -0.421709       -11.4753
 186   2.0000      -0.419451       -11.4138
 187   2.0000      -0.418281       -11.3820
 188   2.0000      -0.414022       -11.2661
 189   2.0000      -0.412460       -11.2236
 190   2.0000      -0.407448       -11.0872
 191   2.0000      -0.406157       -11.0521
 192   2.0000      -0.404865       -11.0169
 193   2.0000      -0.403413       -10.9774
 194   2.0000      -0.398965       -10.8564
 195   2.0000      -0.395461       -10.7610
 196   2.0000      -0.390396       -10.6232
 197   2.0000      -0.386827       -10.5261
 198   2.0000      -0.384592       -10.4653
 199   2.0000      -0.380664       -10.3584
 200   2.0000      -0.373674       -10.1682
 201   2.0000      -0.371618       -10.1122
 202   2.0000      -0.368780       -10.0350
 203   2.0000      -0.361248        -9.8301
 204   2.0000      -0.357719        -9.7340
 205   2.0000      -0.355352        -9.6696
 206   2.0000      -0.341292        -9.2870
 207   2.0000      -0.332059        -9.0358
 208   2.0000      -0.329766        -8.9734
 209   2.0000      -0.320991        -8.7346
 210   2.0000      -0.310190        -8.4407
 211   2.0000      -0.308418        -8.3925
 212   2.0000      -0.308168        -8.3857
 213   2.0000      -0.304645        -8.2898
 214   2.0000      -0.293277        -7.9805
 215   2.0000      -0.275490        -7.4965
 216   2.0000      -0.262992        -7.1564
 217   2.0000      -0.256187        -6.9712
 218   2.0000      -0.246821        -6.7163
 219   2.0000      -0.231679        -6.3043
 220   0.0000      -0.041898        -1.1401
 221   0.0000      -0.007432        -0.2022
 222   0.0000      -0.003780        -0.1029
 223   0.0000       0.003734         0.1016
 224   0.0000       0.017663         0.4806

MULLIKEN ATOMIC CHARGES
-----------------------
   0 C :    0.028339
   1 C :    0.048974
   2 C :   -0.112919
   3 C :    0.132091
   4 C :   -0.080230
   5 C :   -0.073844
   6 C :    0.167182
   7 C :   -0.075498
   8 C :   -0.001895
   9 C :    0.065150
  10 C :    0.023635
  11 C :   -0.097927
  12 C :    0.205361
  13 O :   -0.331888
  14 C :    0.182675
  15 C :    0.058049
  16 C :    0.022293
  17 C :   -0.042601
  18 C :    0.052370
  19 C :   -0.081599
  20 C :    0.027166
  21 C :   -0.121601
  22 C :    0.250701
  23 O :   -0.316605
  24 C :    0.180869
  25 C :   -0.017925
  26 C :   -0.082720
  27 C :    0.224751
  28 O :   -0.338070
  29 C :    0.173277
  30 C :    0.102319
  31 N :   -0.088682
  32 C :    0.127507
  33 F :   -0.157399
  34 C :    0.120096
  35 F :   -0.159279
  36 N :   -0.074997
  37 C :    0.105930
  38 C :   -0.162428
  39 C :    0.219658
  40 O :   -0.316902
  41 C :    0.182913
  42 C :   -0.047533
  43 N :    0.012468
  44 C :   -0.180833
  45 C :    0.123298
  46 C :   -0.162970
  47 C :    0.125195
  48 N :   -0.000667
  49 C :   -0.053645
  50 S :    0.054877
  51 C :   -0.100559
  52 C :   -0.111547
  53 C :    0.038927
  54 C :    0.036425
  55 C :    0.086500
  56 C :   -0.006541
  57 C :   -0.047811
  58 S :    0.076155
  59 C :   -0.138742
  60 H :    0.009636
  61 H :    0.011612
  62 H :    0.018880
  63 H :    0.004362
  64 H :    0.008639
  65 H :   -0.022667
  66 H :   -0.008753
  67 H :   -0.019989
  68 H :   -0.043358
  69 H :    0.023654
  70 H :    0.023090
  71 H :    0.032586
  72 H :   -0.023671
  73 H :   -0.028269
  74 H :   -0.043717
  75 H :    0.032877
  76 H :    0.017555
  77 H :    0.019494
  78 H :   -0.022310
  79 H :   -0.031732
  80 H :    0.021635
  81 H :    0.026763
  82 H :    0.039074
  83 H :    0.018198
  84 H :    0.032978
  85 H :   -0.040762
  86 H :    0.034238
  87 H :    0.017550
  88 H :    0.025760
  89 H :    0.030668
  90 H :    0.022093
  91 H :    0.022609
  92 H :    0.025951
  93 H :    0.025957
  94 H :    0.022140
  95 H :    0.005084
  96 H :    0.007277
  97 H :    0.010672
  98 H :    0.012123
  99 H :    0.013402
 100 H :   -0.020833
 101 H :    0.020205
Sum of atomic charges:    0.0000000

LOEWDIN ATOMIC CHARGES
----------------------
   0 C :   -0.049953
   1 C :   -0.031011
   2 C :   -0.036921
   3 C :   -0.049134
   4 C :   -0.048755
   5 C :   -0.144928
   6 C :   -0.036609
   7 C :   -0.021135
   8 C :    0.000838
   9 C :   -0.013606
  10 C :   -0.031938
  11 C :   -0.037151
  12 C :    0.041232
  13 O :   -0.112344
  14 C :    0.075110
  15 C :   -0.030509
  16 C :   -0.003073
  17 C :   -0.029237
  18 C :   -0.031176
  19 C :   -0.013366
  20 C :   -0.030541
  21 C :   -0.058880
  22 C :    0.042692
  23 O :   -0.111799
  24 C :    0.074237
  25 C :   -0.037962
  26 C :   -0.055973
  27 C :    0.039762
  28 O :   -0.105328
  29 C :    0.072080
  30 C :    0.020584
  31 N :   -0.082070
  32 C :    0.048286
  33 F :   -0.041255
  34 C :    0.041269
  35 F :   -0.043318
  36 N :   -0.065686
  37 C :    0.017871
  38 C :   -0.054158
  39 C :    0.047983
  40 O :   -0.104984
  41 C :    0.075292
  42 C :   -0.005940
  43 N :   -0.039635
  44 C :   -0.009581
  45 C :   -0.054848
  46 C :   -0.004301
  47 C :   -0.053713
  48 N :   -0.036704
  49 C :   -0.004713
  50 S :    0.378347
  51 C :   -0.151283
  52 C :   -0.040834
  53 C :   -0.031885
  54 C :   -0.049053
  55 C :   -0.048507
  56 C :   -0.066327
  57 C :   -0.165513
  58 S :    0.380854
  59 C :   -0.156735
  60 H :    0.020896
  61 H :    0.025476
  62 H :    0.024475
  63 H :    0.020055
  64 H :    0.028762
  65 H :    0.021593
  66 H :    0.022058
  67 H :    0.031713
  68 H :    0.026140
  69 H :    0.015855
  70 H :    0.014864
  71 H :    0.026564
  72 H :    0.025978
  73 H :    0.028353
  74 H :    0.027121
  75 H :    0.026934
  76 H :    0.012460
  77 H :    0.013376
  78 H :    0.031680
  79 H :    0.028962
  80 H :    0.014629
  81 H :    0.014514
  82 H :    0.025623
  83 H :    0.039592
  84 H :    0.034533
  85 H :    0.028808
  86 H :    0.027689
  87 H :    0.013622
  88 H :    0.015270
  89 H :    0.036912
  90 H :    0.036567
  91 H :    0.035954
  92 H :    0.037835
  93 H :    0.037796
  94 H :    0.036328
  95 H :    0.026441
  96 H :    0.021348
  97 H :    0.022935
  98 H :    0.022242
  99 H :    0.024719
 100 H :    0.027039
 101 H :    0.022224

  Mayer bond orders larger than 0.100000
B(  0-C ,  1-C ) :   1.1093 B(  0-C , 60-H ) :   0.9668 B(  0-C , 61-H ) :   0.9624
B(  0-C , 62-H ) :   0.9693 B(  1-C ,  2-C ) :   1.0739 B(  1-C , 63-H ) :   0.9217
B(  1-C , 64-H ) :   0.9140 B(  2-C ,  3-C ) :   1.3364 B(  2-C , 59-C ) :   1.4565
B(  3-C ,  4-C ) :   1.1122 B(  3-C , 51-C ) :   1.2843 B(  4-C ,  5-C ) :   1.6280
B(  4-C , 65-H ) :   0.9743 B(  5-C ,  6-C ) :   1.0802 B(  5-C , 50-S ) :   1.0506
B(  6-C ,  7-C ) :   1.4071 B(  6-C ,  9-C ) :   0.1206 B(  6-C , 49-C ) :   1.2209
B(  7-C ,  8-C ) :   1.2534 B(  7-C , 66-H ) :   0.9897 B(  8-C ,  9-C ) :   1.4601
B(  8-C , 67-H ) :   0.9942 B(  9-C , 10-C ) :   0.9349 B(  9-C , 42-C ) :   1.2632
B( 10-C , 11-C ) :   1.3654 B( 10-C , 15-C ) :   0.1001 B( 10-C , 39-C ) :   1.3991
B( 11-C , 12-C ) :   1.2969 B( 11-C , 68-H ) :   0.9890 B( 12-C , 13-O ) :   1.1119
B( 12-C , 15-C ) :   1.3830 B( 13-O , 14-C ) :   0.9645 B( 14-C , 69-H ) :   0.9692
B( 14-C , 70-H ) :   0.9680 B( 14-C , 71-H ) :   0.9768 B( 15-C , 16-C ) :   0.9694
B( 15-C , 38-C ) :   1.3667 B( 16-C , 17-C ) :   1.8041 B( 16-C , 37-C ) :   0.9852
B( 17-C , 18-C ) :   1.0443 B( 17-C , 72-H ) :   0.9804 B( 18-C , 19-C ) :   1.8590
B( 18-C , 73-H ) :   0.9771 B( 19-C , 20-C ) :   0.9312 B( 19-C , 30-C ) :   0.9434
B( 20-C , 21-C ) :   1.3966 B( 20-C , 27-C ) :   1.4132 B( 21-C , 22-C ) :   1.2737
B( 21-C , 74-H ) :   1.0002 B( 22-C , 23-O ) :   1.1258 B( 22-C , 25-C ) :   1.3872
B( 23-O , 24-C ) :   0.9777 B( 24-C , 75-H ) :   0.9792 B( 24-C , 76-H ) :   0.9679
B( 24-C , 77-H ) :   0.9682 B( 25-C , 26-C ) :   1.3553 B( 25-C , 78-H ) :   0.9961
B( 26-C , 27-C ) :   1.3061 B( 26-C , 79-H ) :   0.9984 B( 27-C , 28-O ) :   1.1132
B( 28-O , 29-C ) :   0.9549 B( 29-C , 80-H ) :   0.9681 B( 29-C , 81-H ) :   0.9671
B( 29-C , 82-H ) :   0.9747 B( 30-C , 31-N ) :   1.0267 B( 30-C , 37-C ) :   0.9997
B( 30-C , 83-H ) :   0.8840 B( 31-N , 32-C ) :   1.9466 B( 32-C , 33-F ) :   1.1432
B( 32-C , 34-C ) :   0.9268 B( 34-C , 35-F ) :   1.1324 B( 34-C , 36-N ) :   1.9713
B( 36-N , 37-C ) :   1.0104 B( 37-C , 84-H ) :   0.8833 B( 38-C , 39-C ) :   1.2677
B( 38-C , 85-H ) :   1.0014 B( 39-C , 40-O ) :   1.1466 B( 40-O , 41-C ) :   0.9688
B( 41-C , 86-H ) :   0.9779 B( 41-C , 87-H ) :   0.9677 B( 41-C , 88-H ) :   0.9685
B( 42-C , 43-N ) :   1.4324 B( 42-C , 49-C ) :   1.2531 B( 43-N , 44-C ) :   1.7005
B( 44-C , 45-C ) :   1.0904 B( 44-C , 46-C ) :   1.1747 B( 45-C , 89-H ) :   0.9432
B( 45-C , 90-H ) :   0.9409 B( 45-C , 91-H ) :   0.9423 B( 46-C , 47-C ) :   1.0915
B( 46-C , 48-N ) :   1.6757 B( 47-C , 92-H ) :   0.9403 B( 47-C , 93-H ) :   0.9455
B( 47-C , 94-H ) :   0.9413 B( 48-N , 49-C ) :   1.4440 B( 50-S , 51-C ) :   1.0363
B( 51-C , 52-C ) :   1.4461 B( 52-C , 53-C ) :   1.0711 B( 52-C , 55-C ) :   1.3451
B( 53-C , 54-C ) :   1.1078 B( 53-C , 95-H ) :   0.9185 B( 53-C , 96-H ) :   0.9218
B( 54-C , 97-H ) :   0.9694 B( 54-C , 98-H ) :   0.9679 B( 54-C , 99-H ) :   0.9650
B( 55-C , 56-C ) :   1.1675 B( 55-C , 59-C ) :   1.2891 B( 56-C , 57-C ) :   1.6510
B( 56-C ,100-H ) :   0.9887 B( 57-C , 58-S ) :   1.1053 B( 57-C ,101-H ) :   0.9667
B( 58-S , 59-C ) :   1.0468

-----------------------------------------------------------------------------
         ABSORPTION SPECTRUM VIA TRANSITION ELECTRIC DIPOLE MOMENTS
-----------------------------------------------------------------------------
State   Energy  Wavelength   fosc         T2         TX        TY        TZ
        (cm-1)    (nm)                  (au**2)     (au)      (au)      (au)
-----------------------------------------------------------------------------
   0   24664.2    405.4   0.738192048   9.85323  -2.50162  -1.33580  -1.34564
   1   27783.6    359.9   0.041711560   0.49425  -0.68954  -0.13666  -0.01012
   2   30095.9    332.3   0.068370324   0.74789  -0.63703   0.27749  -0.51487
   3   31307.1    319.4   0.074951926   0.78816  -0.73489   0.43797  -0.23725
   4   31779.1    314.7   0.037110954   0.38445   0.45426   0.30844   0.28803
   5   33392.9    299.5   0.974678999   9.60912  -2.50091  -1.44267  -1.12838
   6   33660.4    297.1   0.037195774   0.36379  -0.56300  -0.06285   0.20705
   7   34547.1    289.5   0.010350622   0.09863   0.18781  -0.22805  -0.10655
   8   34674.7    288.4   0.291805003   2.77048   1.14420   0.69791   0.98702
   9   35202.4    284.1   0.002774612   0.02595  -0.02790  -0.15408   0.03780
  10   35991.6    277.8   0.009670878   0.08846   0.05034   0.29297  -0.00966
  11   37104.1    269.5   0.030617848   0.27166   0.40786   0.16723   0.27812
  12   37641.6    265.7   0.082323009   0.71999  -0.64132   0.49510  -0.25213
  13   38646.4    258.8   0.025040071   0.21331   0.09556  -0.42981  -0.13941
  14   39214.4    255.0   0.015248720   0.12802   0.26129   0.01839   0.24374
  15   39663.4    252.1   0.019434529   0.16131   0.20930   0.33466   0.07417
  16   39905.1    250.6   0.014847666   0.12249   0.12317   0.30919  -0.10826

FINAL SINGLE POINT ENERGY     -3366.912181307125

DIPOLE MOMENT
-------------
                                X             Y             Z
Electronic contribution:      8.21117      30.91373      19.36161
Nuclear contribution   :     -7.51451     -31.94408     -19.94122
                        -----------------------------------------
Total Dipole Moment    :      0.69666      -1.03035      -0.57961
                        -----------------------------------------
Magnitude (a.u.)       :      1.37219
Magnitude (Debye)      :      3.48782

Rotational constants in cm-1:     0.003837     0.000369     0.000351
Rotational constants in MHz :   115.034449    11.071570    10.535815

                             ****ORCA TERMINATED NORMALLY****
TOTAL RUN TIME: 0 days 0 hours 7 minutes 58 seconds 804 msec
