                         Program Version 4.2.0 -  RELEASE  -
|  1> # ORCA input file
|  2> # SCF done       -144.452349799851          0.000563182133
|  3> ! CAM-B3LYP def2-SVP def2/J RIJCOSX Grid4 TightSCF
|  4> %maxcore 5000
|  5> %tddft
|  6>     Mode sTDDFT
|  7>     Ethresh 5.0
|  8>     maxcore 5000
|  9> end
| 10>
| 11> %pal
| 12>   nprocs 6
| 13>   end
| 14> * xyz 0 1
| 15>    C        3.24241         0.73518         1.74257
| 16>    C        2.57906         0.27005         0.44769
| 17>    N        3.06231        -1.02970         0.05615
| 18>    C        2.51000        -2.21253         0.41939
| 19>    C        3.28639        -3.23325        -0.08206
| 20>    C        4.36661        -2.61990        -0.77639
| 21>    C        4.18868        -1.25811        -0.65948
| 22>    C        5.41745        -3.35494        -1.45889
| 23>    O        6.36415        -2.81111        -2.00519
| 24>    C        5.22750        -4.81732        -1.38692
| 25>    C        6.09402        -5.74760        -1.93033
| 26>    C        7.28947        -5.61097        -2.73350
| 27>    C        7.47833        -4.64512        -3.73714
| 28>    C        8.68663        -4.64044        -4.38810
| 29>    C        9.63093        -5.61891        -4.02428
| 30>    C       10.94019        -5.72435        -4.59729
| 31>    C       11.56498        -4.94331        -5.54453
| 32>    C       12.85564        -5.38587        -5.84107
| 33>    C       13.21191        -6.50788        -5.11236
| 34>    S       11.95884        -7.02446        -4.04895
| 35>    C       14.52648        -7.02344        -5.26936
| 36>    S       15.23670        -8.45035        -4.59928
| 37>    C       16.75820        -8.04569        -5.28879
| 38>    C       16.73219        -6.88535        -5.99890
| 39>    C       15.44995        -6.29533        -5.99898
| 40>    O       15.17477        -5.11160        -6.59765
| 41>    C       13.80383        -4.82491        -6.86120
| 42>    N        9.33493        -6.55142        -3.11221
| 43>    N        8.21296        -6.54483        -2.49247
| 44>    S        5.67138        -7.36493        -1.49569
| 45>    C        4.28169        -6.81689        -0.59719
| 46>    C        3.43679        -7.73795         0.08364
| 47>    C        3.59665        -9.07539         0.03255
| 48>    C        2.76728       -10.00419         0.75533
| 49>    C        2.93582       -11.39735         0.60930
| 50>    C        2.13526       -12.22764         1.35047
| 51>    C        1.20208       -11.61892         2.21162
| 52>    C        0.31759       -12.34229         3.07703
| 53>    C        0.16391       -13.69839         3.26078
| 54>    C       -0.79524       -13.99744         4.23590
| 55>    C       -1.37828       -12.86087         4.78142
| 56>    S       -0.72847       -11.41340         4.10558
| 57>    C       -2.41012       -13.02907         5.74500
| 58>    S       -3.49730       -11.85335         6.39234
| 59>    C       -4.29002       -13.07049         7.31692
| 60>    C       -3.75261       -14.30796         7.13226
| 61>    C       -2.67286       -14.29158         6.23008
| 62>    C       -1.79899       -15.44171         5.82506
| 63>    O       -1.16069       -15.26357         4.56399
| 64>    N        1.09419       -10.28655         2.27927
| 65>    N        1.83965        -9.51218         1.58346
| 66>    C        4.18153        -5.43266        -0.63133
| 67>    C        3.10887        -4.67323         0.03909
| 68>    O        2.16965        -5.17918         0.62818
| 69>    H        2.86876         1.71663         2.02036
| 70>    H        4.32063         0.79454         1.61511
| 71>    H        3.02798         0.03785         2.54873
| 72>    H        2.79316         0.97873        -0.35698
| 73>    H        1.49614         0.21067         0.58247
| 74>    H        1.60966        -2.26807         0.99825
| 75>    H        4.78760        -0.45950        -1.05025
| 76>    H        6.69856        -3.94736        -3.99007
| 77>    H        8.90174        -3.92636        -5.16729
| 78>    H       11.10903        -4.08715        -6.00809
| 79>    H       17.59150        -8.70107        -5.13372
| 80>    H       17.57872        -6.45840        -6.50277
| 81>    H       13.54903        -5.22591        -7.85885
| 82>    H       13.73648        -3.73412        -6.90357
| 83>    H        2.63105        -7.31928         0.67115
| 84>    H        4.38771        -9.50720        -0.56961
| 85>    H        3.67867       -11.78682        -0.07160
| 86>    H        2.21219       -13.30190         1.28626
| 87>    H        0.70685       -14.45337         2.72418
| 88>    H       -5.11142       -12.79457         7.94684
| 89>    H       -4.11056       -15.19475         7.62333
| 90>    H       -2.38059       -16.36303         5.73015
| 91>    H       -1.02215       -15.60173         6.59458
| 92> *
| 93>
| 94>                          ****END OF INPUT****

CARTESIAN COORDINATES (ANGSTROEM)
---------------------------------
  C      3.242410    0.735180    1.742570
  C      2.579060    0.270050    0.447690
  N      3.062310   -1.029700    0.056150
  C      2.510000   -2.212530    0.419390
  C      3.286390   -3.233250   -0.082060
  C      4.366610   -2.619900   -0.776390
  C      4.188680   -1.258110   -0.659480
  C      5.417450   -3.354940   -1.458890
  O      6.364150   -2.811110   -2.005190
  C      5.227500   -4.817320   -1.386920
  C      6.094020   -5.747600   -1.930330
  C      7.289470   -5.610970   -2.733500
  C      7.478330   -4.645120   -3.737140
  C      8.686630   -4.640440   -4.388100
  C      9.630930   -5.618910   -4.024280
  C     10.940190   -5.724350   -4.597290
  C     11.564980   -4.943310   -5.544530
  C     12.855640   -5.385870   -5.841070
  C     13.211910   -6.507880   -5.112360
  S     11.958840   -7.024460   -4.048950
  C     14.526480   -7.023440   -5.269360
  S     15.236700   -8.450350   -4.599280
  C     16.758200   -8.045690   -5.288790
  C     16.732190   -6.885350   -5.998900
  C     15.449950   -6.295330   -5.998980
  O     15.174770   -5.111600   -6.597650
  C     13.803830   -4.824910   -6.861200
  N      9.334930   -6.551420   -3.112210
  N      8.212960   -6.544830   -2.492470
  S      5.671380   -7.364930   -1.495690
  C      4.281690   -6.816890   -0.597190
  C      3.436790   -7.737950    0.083640
  C      3.596650   -9.075390    0.032550
  C      2.767280  -10.004190    0.755330
  C      2.935820  -11.397350    0.609300
  C      2.135260  -12.227640    1.350470
  C      1.202080  -11.618920    2.211620
  C      0.317590  -12.342290    3.077030
  C      0.163910  -13.698390    3.260780
  C     -0.795240  -13.997440    4.235900
  C     -1.378280  -12.860870    4.781420
  S     -0.728470  -11.413400    4.105580
  C     -2.410120  -13.029070    5.745000
  S     -3.497300  -11.853350    6.392340
  C     -4.290020  -13.070490    7.316920
  C     -3.752610  -14.307960    7.132260
  C     -2.672860  -14.291580    6.230080
  C     -1.798990  -15.441710    5.825060
  O     -1.160690  -15.263570    4.563990
  N      1.094190  -10.286550    2.279270
  N      1.839650   -9.512180    1.583460
  C      4.181530   -5.432660   -0.631330
  C      3.108870   -4.673230    0.039090
  O      2.169650   -5.179180    0.628180
  H      2.868760    1.716630    2.020360
  H      4.320630    0.794540    1.615110
  H      3.027980    0.037850    2.548730
  H      2.793160    0.978730   -0.356980
  H      1.496140    0.210670    0.582470
  H      1.609660   -2.268070    0.998250
  H      4.787600   -0.459500   -1.050250
  H      6.698560   -3.947360   -3.990070
  H      8.901740   -3.926360   -5.167290
  H     11.109030   -4.087150   -6.008090
  H     17.591500   -8.701070   -5.133720
  H     17.578720   -6.458400   -6.502770
  H     13.549030   -5.225910   -7.858850
  H     13.736480   -3.734120   -6.903570
  H      2.631050   -7.319280    0.671150
  H      4.387710   -9.507200   -0.569610
  H      3.678670  -11.786820   -0.071600
  H      2.212190  -13.301900    1.286260
  H      0.706850  -14.453370    2.724180
  H     -5.111420  -12.794570    7.946840
  H     -4.110560  -15.194750    7.623330
  H     -2.380590  -16.363030    5.730150
  H     -1.022150  -15.601730    6.594580

 Total Charge           Charge          ....    0
 Multiplicity           Mult            ....    1
 Number of Electrons    NEL             ....  410
 Basis Dimension        Dim             ....  891

ORBITAL ENERGIES
----------------

  NO   OCC          E(Eh)            E(eV)
   0   2.0000     -88.955745     -2420.6089
   1   2.0000     -88.950867     -2420.4761
   2   2.0000     -88.950123     -2420.4559
   3   2.0000     -88.949777     -2420.4465
   4   2.0000     -88.946319     -2420.3524
   5   2.0000     -19.242788      -523.6229
   6   2.0000     -19.238530      -523.5070
   7   2.0000     -19.192654      -522.2587
   8   2.0000     -19.186955      -522.1036
   9   2.0000     -14.480746      -394.0411
  10   2.0000     -14.432240      -392.7212
  11   2.0000     -14.428244      -392.6125
  12   2.0000     -14.427892      -392.6029
  13   2.0000     -14.426123      -392.5548
  14   2.0000     -10.353509      -281.7333
  15   2.0000     -10.347427      -281.5678
  16   2.0000     -10.330080      -281.0958
  17   2.0000     -10.328421      -281.0506
  18   2.0000     -10.327189      -281.0171
  19   2.0000     -10.325981      -280.9842
  20   2.0000     -10.321978      -280.8753
  21   2.0000     -10.317348      -280.7493
  22   2.0000     -10.314451      -280.6705
  23   2.0000     -10.313821      -280.6533
  24   2.0000     -10.308996      -280.5220
  25   2.0000     -10.306403      -280.4515
  26   2.0000     -10.305022      -280.4139
  27   2.0000     -10.303927      -280.3841
  28   2.0000     -10.303395      -280.3696
  29   2.0000     -10.298765      -280.2436
  30   2.0000     -10.294562      -280.1293
  31   2.0000     -10.292818      -280.0818
  32   2.0000     -10.292227      -280.0657
  33   2.0000     -10.291609      -280.0489
  34   2.0000     -10.291386      -280.0428
  35   2.0000     -10.291204      -280.0379
  36   2.0000     -10.291147      -280.0363
  37   2.0000     -10.289922      -280.0030
  38   2.0000     -10.287764      -279.9443
  39   2.0000     -10.286540      -279.9110
  40   2.0000     -10.285645      -279.8866
  41   2.0000     -10.279505      -279.7196
  42   2.0000     -10.277233      -279.6577
  43   2.0000     -10.276664      -279.6422
  44   2.0000     -10.275507      -279.6108
  45   2.0000     -10.270998      -279.4881
  46   2.0000     -10.270831      -279.4835
  47   2.0000     -10.269959      -279.4598
  48   2.0000     -10.268755      -279.4270
  49   2.0000     -10.268460      -279.4190
  50   2.0000     -10.267761      -279.4000
  51   2.0000     -10.267190      -279.3844
  52   2.0000     -10.260952      -279.2147
  53   2.0000     -10.259632      -279.1788
  54   2.0000      -8.050909      -219.0764
  55   2.0000      -8.046428      -218.9544
  56   2.0000      -8.045834      -218.9383
  57   2.0000      -8.044474      -218.9013
  58   2.0000      -8.040656      -218.7974
  59   2.0000      -6.019990      -163.8123
  60   2.0000      -6.015861      -163.6999
  61   2.0000      -6.015820      -163.6988
  62   2.0000      -6.015191      -163.6817
  63   2.0000      -6.013829      -163.6446
  64   2.0000      -6.013414      -163.6333
  65   2.0000      -6.011627      -163.5847
  66   2.0000      -6.010845      -163.5634
  67   2.0000      -6.010043      -163.5416
  68   2.0000      -6.009569      -163.5287
  69   2.0000      -6.008416      -163.4973
  70   2.0000      -6.008056      -163.4875
  71   2.0000      -6.006628      -163.4487
  72   2.0000      -6.005923      -163.4295
  73   2.0000      -6.002701      -163.3418
  74   2.0000      -1.148588       -31.2547
  75   2.0000      -1.144237       -31.1363
  76   2.0000      -1.115639       -30.3581
  77   2.0000      -1.111737       -30.2519
  78   2.0000      -1.111012       -30.2322
  79   2.0000      -1.104592       -30.0575
  80   2.0000      -1.098977       -29.9047
  81   2.0000      -0.990250       -26.9461
  82   2.0000      -0.985040       -26.8043
  83   2.0000      -0.982914       -26.7464
  84   2.0000      -0.969269       -26.3751
  85   2.0000      -0.968610       -26.3572
  86   2.0000      -0.931911       -25.3586
  87   2.0000      -0.930148       -25.3106
  88   2.0000      -0.922152       -25.0930
  89   2.0000      -0.910580       -24.7781
  90   2.0000      -0.909184       -24.7402
  91   2.0000      -0.879250       -23.9256
  92   2.0000      -0.867841       -23.6152
  93   2.0000      -0.859415       -23.3859
  94   2.0000      -0.854655       -23.2563
  95   2.0000      -0.848952       -23.1012
  96   2.0000      -0.842352       -22.9216
  97   2.0000      -0.832693       -22.6587
  98   2.0000      -0.827969       -22.5302
  99   2.0000      -0.825460       -22.4619
 100   2.0000      -0.823130       -22.3985
 101   2.0000      -0.810617       -22.0580
 102   2.0000      -0.795372       -21.6432
 103   2.0000      -0.791705       -21.5434
 104   2.0000      -0.769183       -20.9305
 105   2.0000      -0.762822       -20.7575
 106   2.0000      -0.758938       -20.6518
 107   2.0000      -0.744534       -20.2598
 108   2.0000      -0.741411       -20.1748
 109   2.0000      -0.729338       -19.8463
 110   2.0000      -0.723349       -19.6833
 111   2.0000      -0.717296       -19.5186
 112   2.0000      -0.695082       -18.9141
 113   2.0000      -0.681777       -18.5521
 114   2.0000      -0.678703       -18.4685
 115   2.0000      -0.676321       -18.4036
 116   2.0000      -0.664075       -18.0704
 117   2.0000      -0.655904       -17.8481
 118   2.0000      -0.654143       -17.8001
 119   2.0000      -0.642659       -17.4876
 120   2.0000      -0.630192       -17.1484
 121   2.0000      -0.627090       -17.0640
 122   2.0000      -0.624009       -16.9802
 123   2.0000      -0.621469       -16.9110
 124   2.0000      -0.617541       -16.8042
 125   2.0000      -0.612465       -16.6660
 126   2.0000      -0.605142       -16.4668
 127   2.0000      -0.598205       -16.2780
 128   2.0000      -0.584215       -15.8973
 129   2.0000      -0.575349       -15.6560
 130   2.0000      -0.570853       -15.5337
 131   2.0000      -0.569085       -15.4856
 132   2.0000      -0.564116       -15.3504
 133   2.0000      -0.559429       -15.2228
 134   2.0000      -0.552633       -15.0379
 135   2.0000      -0.551579       -15.0092
 136   2.0000      -0.547723       -14.9043
 137   2.0000      -0.544170       -14.8076
 138   2.0000      -0.540200       -14.6996
 139   2.0000      -0.531123       -14.4526
 140   2.0000      -0.530760       -14.4427
 141   2.0000      -0.527964       -14.3666
 142   2.0000      -0.523299       -14.2397
 143   2.0000      -0.522834       -14.2270
 144   2.0000      -0.520569       -14.1654
 145   2.0000      -0.516883       -14.0651
 146   2.0000      -0.513615       -13.9762
 147   2.0000      -0.513087       -13.9618
 148   2.0000      -0.510827       -13.9003
 149   2.0000      -0.508159       -13.8277
 150   2.0000      -0.504932       -13.7399
 151   2.0000      -0.498747       -13.5716
 152   2.0000      -0.497391       -13.5347
 153   2.0000      -0.494970       -13.4688
 154   2.0000      -0.481821       -13.1110
 155   2.0000      -0.477539       -12.9945
 156   2.0000      -0.474760       -12.9189
 157   2.0000      -0.474379       -12.9085
 158   2.0000      -0.471094       -12.8191
 159   2.0000      -0.470412       -12.8005
 160   2.0000      -0.469138       -12.7659
 161   2.0000      -0.468217       -12.7408
 162   2.0000      -0.466790       -12.7020
 163   2.0000      -0.465144       -12.6572
 164   2.0000      -0.463370       -12.6089
 165   2.0000      -0.461273       -12.5519
 166   2.0000      -0.459949       -12.5158
 167   2.0000      -0.452864       -12.3231
 168   2.0000      -0.450283       -12.2528
 169   2.0000      -0.445871       -12.1328
 170   2.0000      -0.443724       -12.0743
 171   2.0000      -0.442461       -12.0400
 172   2.0000      -0.435931       -11.8623
 173   2.0000      -0.427277       -11.6268
 174   2.0000      -0.426289       -11.5999
 175   2.0000      -0.424119       -11.5409
 176   2.0000      -0.422032       -11.4841
 177   2.0000      -0.416277       -11.3275
 178   2.0000      -0.414776       -11.2866
 179   2.0000      -0.405772       -11.0416
 180   2.0000      -0.398967       -10.8565
 181   2.0000      -0.397100       -10.8056
 182   2.0000      -0.391414       -10.6509
 183   2.0000      -0.383735       -10.4420
 184   2.0000      -0.380636       -10.3576
 185   2.0000      -0.379177       -10.3179
 186   2.0000      -0.375065       -10.2060
 187   2.0000      -0.373445       -10.1620
 188   2.0000      -0.353321        -9.6143
 189   2.0000      -0.332449        -9.0464
 190   2.0000      -0.328168        -8.9299
 191   2.0000      -0.322462        -8.7746
 192   2.0000      -0.317312        -8.6345
 193   2.0000      -0.314769        -8.5653
 194   2.0000      -0.314367        -8.5544
 195   2.0000      -0.312695        -8.5089
 196   2.0000      -0.309379        -8.4186
 197   2.0000      -0.296927        -8.0798
 198   2.0000      -0.295960        -8.0535
 199   2.0000      -0.295242        -8.0339
 200   2.0000      -0.288221        -7.8429
 201   2.0000      -0.283755        -7.7214
 202   2.0000      -0.267270        -7.2728
 203   2.0000      -0.237294        -6.4571
 204   2.0000      -0.229834        -6.2541
 205   0.0000      -0.058934        -1.6037
 206   0.0000      -0.049125        -1.3367
 207   0.0000      -0.021507        -0.5852
 208   0.0000      -0.014902        -0.4055
 209   0.0000       0.001166         0.0317

MULLIKEN ATOMIC CHARGES
-----------------------
   0 C :    0.004014
   1 C :    0.087109
   2 N :   -0.134647
   3 C :    0.008702
   4 C :   -0.017826
   5 C :   -0.017355
   6 C :    0.009538
   7 C :    0.119079
   8 O :   -0.179232
   9 C :    0.041504
  10 C :   -0.124135
  11 C :   -0.025719
  12 C :    0.102091
  13 C :   -0.032198
  14 C :    0.060813
  15 C :   -0.059871
  16 C :   -0.030168
  17 C :   -0.147467
  18 C :   -0.039871
  19 S :    0.197381
  20 C :   -0.200801
  21 S :    0.142183
  22 C :   -0.066273
  23 C :    0.015010
  24 C :    0.176186
  25 O :   -0.307634
  26 C :    0.354399
  27 N :   -0.090512
  28 N :   -0.072480
  29 S :    0.188975
  30 C :   -0.121685
  31 C :    0.028022
  32 C :   -0.011652
  33 C :    0.026953
  34 C :    0.020642
  35 C :   -0.001246
  36 C :    0.044598
  37 C :   -0.044788
  38 C :   -0.055554
  39 C :    0.187056
  40 C :   -0.162704
  41 S :    0.197461
  42 C :   -0.084112
  43 S :    0.141831
  44 C :   -0.076238
  45 C :    0.024873
  46 C :   -0.146725
  47 C :    0.355830
  48 O :   -0.310142
  49 N :   -0.077387
  50 N :   -0.053493
  51 C :   -0.000908
  52 C :    0.131848
  53 O :   -0.160992
  54 H :    0.028417
  55 H :    0.030558
  56 H :    0.031941
  57 H :    0.032752
  58 H :    0.033991
  59 H :    0.005818
  60 H :    0.001737
  61 H :   -0.003174
  62 H :   -0.013768
  63 H :   -0.030440
  64 H :    0.030044
  65 H :   -0.014818
  66 H :    0.019632
  67 H :    0.017084
  68 H :    0.042740
  69 H :   -0.015812
  70 H :   -0.008783
  71 H :   -0.010398
  72 H :   -0.027304
  73 H :    0.024406
  74 H :   -0.021738
  75 H :    0.016113
  76 H :    0.018719
Sum of atomic charges:    0.0000000

LOEWDIN ATOMIC CHARGES
----------------------
   0 C :   -0.057425
   1 C :    0.043314
   2 N :    0.088349
   3 C :    0.028671
   4 C :   -0.099920
   5 C :   -0.103730
   6 C :    0.027658
   7 C :    0.079930
   8 O :   -0.171712
   9 C :   -0.091253
  10 C :   -0.136505
  11 C :   -0.042608
  12 C :    0.026749
  13 C :   -0.013719
  14 C :   -0.018828
  15 C :   -0.188980
  16 C :   -0.045876
  17 C :   -0.093369
  18 C :   -0.181081
  19 S :    0.481062
  20 C :   -0.254912
  21 S :    0.435035
  22 C :   -0.172479
  23 C :   -0.075986
  24 C :    0.027432
  25 O :   -0.102531
  26 C :    0.104856
  27 N :   -0.068659
  28 N :   -0.048218
  29 S :    0.500354
  30 C :   -0.132417
  31 C :   -0.003112
  32 C :   -0.038865
  33 C :   -0.020222
  34 C :   -0.004814
  35 C :   -0.008126
  36 C :   -0.027168
  37 C :   -0.178837
  38 C :   -0.066135
  39 C :    0.021073
  40 C :   -0.240647
  41 S :    0.478400
  42 C :   -0.194598
  43 S :    0.439846
  44 C :   -0.185057
  45 C :   -0.062649
  46 C :   -0.088550
  47 C :    0.104937
  48 O :   -0.107814
  49 N :   -0.055686
  50 N :   -0.029896
  51 C :   -0.087553
  52 C :    0.078287
  53 O :   -0.157890
  54 H :    0.032243
  55 H :    0.030354
  56 H :    0.031411
  57 H :    0.032781
  58 H :    0.033805
  59 H :    0.029300
  60 H :    0.027486
  61 H :    0.038208
  62 H :    0.033908
  63 H :    0.026909
  64 H :    0.024963
  65 H :    0.034700
  66 H :    0.019681
  67 H :    0.030061
  68 H :    0.044936
  69 H :    0.018637
  70 H :    0.035730
  71 H :    0.034856
  72 H :    0.031066
  73 H :    0.022493
  74 H :    0.028960
  75 H :    0.030014
  76 H :    0.019370

  Mayer bond orders larger than 0.100000
B(  0-C ,  1-C ) :   1.1118 B(  0-C , 54-H ) :   0.9679 B(  0-C , 55-H ) :   0.9673
B(  0-C , 56-H ) :   0.9673 B(  1-C ,  2-N ) :   0.9532 B(  1-C , 57-H ) :   0.9513
B(  1-C , 58-H ) :   0.9510 B(  2-N ,  3-C ) :   1.2292 B(  2-N ,  6-C ) :   1.2355
B(  3-C ,  4-C ) :   1.4350 B(  3-C , 59-H ) :   0.9923 B(  4-C ,  5-C ) :   1.2902
B(  4-C , 52-C ) :   0.9857 B(  5-C ,  6-C ) :   1.4214 B(  5-C ,  7-C ) :   0.9909
B(  6-C , 60-H ) :   0.9930 B(  7-C ,  8-O ) :   2.2138 B(  7-C ,  9-C ) :   0.9353
B(  9-C , 10-C ) :   1.5493 B(  9-C , 51-C ) :   1.1746 B( 10-C , 11-C ) :   1.0187
B( 10-C , 29-S ) :   1.1752 B( 11-C , 12-C ) :   1.3062 B( 11-C , 28-N ) :   1.5498
B( 12-C , 13-C ) :   1.4453 B( 12-C , 61-H ) :   0.9700 B( 13-C , 14-C ) :   1.2899
B( 13-C , 62-H ) :   0.9873 B( 14-C , 15-C ) :   1.0725 B( 14-C , 27-N ) :   1.5440
B( 15-C , 16-C ) :   1.5109 B( 15-C , 18-C ) :   0.1072 B( 15-C , 19-S ) :   1.1129
B( 16-C , 17-C ) :   1.2831 B( 16-C , 63-H ) :   0.9929 B( 17-C , 18-C ) :   1.5527
B( 17-C , 26-C ) :   1.0261 B( 18-C , 19-S ) :   1.1171 B( 18-C , 20-C ) :   1.1442
B( 20-C , 21-S ) :   1.0873 B( 20-C , 24-C ) :   1.4777 B( 21-S , 22-C ) :   1.1690
B( 22-C , 23-C ) :   1.5394 B( 22-C , 64-H ) :   0.9702 B( 23-C , 24-C ) :   1.2664
B( 23-C , 65-H ) :   1.0029 B( 24-C , 25-O ) :   1.1471 B( 25-O , 26-C ) :   0.9557
B( 26-C , 66-H ) :   0.9322 B( 26-C , 67-H ) :   0.9374 B( 27-N , 28-N ) :   1.3601
B( 29-S , 30-C ) :   1.1132 B( 30-C , 31-C ) :   1.1220 B( 30-C , 51-C ) :   1.5032
B( 31-C , 32-C ) :   1.6636 B( 31-C , 68-H ) :   0.9636 B( 32-C , 33-C ) :   1.0891
B( 32-C , 69-H ) :   0.9712 B( 33-C , 34-C ) :   1.2606 B( 33-C , 50-N ) :   1.5281
B( 34-C , 35-C ) :   1.4309 B( 34-C , 70-H ) :   0.9891 B( 35-C , 36-C ) :   1.3010
B( 35-C , 71-H ) :   0.9845 B( 36-C , 37-C ) :   1.0766 B( 36-C , 49-N ) :   1.5338
B( 37-C , 38-C ) :   1.4787 B( 37-C , 40-C ) :   0.1143 B( 37-C , 41-S ) :   1.1237
B( 38-C , 39-C ) :   1.2678 B( 38-C , 72-H ) :   1.0023 B( 39-C , 40-C ) :   1.4844
B( 39-C , 48-O ) :   1.1464 B( 40-C , 41-S ) :   1.0726 B( 40-C , 42-C ) :   1.1365
B( 42-C , 43-S ) :   1.1270 B( 42-C , 46-C ) :   1.5707 B( 43-S , 44-C ) :   1.1587
B( 44-C , 45-C ) :   1.5595 B( 44-C , 73-H ) :   0.9717 B( 45-C , 46-C ) :   1.2713
B( 45-C , 74-H ) :   1.0005 B( 46-C , 47-C ) :   1.0277 B( 47-C , 48-O ) :   0.9578
B( 47-C , 75-H ) :   0.9365 B( 47-C , 76-H ) :   0.9312 B( 49-N , 50-N ) :   1.3597
B( 51-C , 52-C ) :   0.9428 B( 52-C , 53-O ) :   2.2107

-----------------------------------------------------------------------------
         ABSORPTION SPECTRUM VIA TRANSITION ELECTRIC DIPOLE MOMENTS
-----------------------------------------------------------------------------
State   Energy  Wavelength   fosc         T2         TX        TY        TZ
        (cm-1)    (nm)                  (au**2)     (au)      (au)      (au)
-----------------------------------------------------------------------------
   0   22464.8    445.1   1.973504639  28.92091   3.93105   2.24568  -2.90254
   1   24594.6    406.6   0.522420889   6.99287   2.08724  -1.59011  -0.32843
   2   25245.4    396.1   0.007051687   0.09196  -0.13722  -0.26105   0.07058
   3   26583.2    376.2   0.005314275   0.06581  -0.00513  -0.24770  -0.06659
   4   27537.4    363.1   0.068688670   0.82118   0.12393  -0.79663  -0.41377
   5   29008.4    344.7   0.104381969   1.18461  -0.82593   0.67401   0.21944
   6   29214.7    342.3   0.007786152   0.08774  -0.19352  -0.04615  -0.21945
   7   29745.9    336.2   0.030378404   0.33621  -0.31753   0.47286   0.10859
   8   30664.0    326.1   0.077251267   0.82938  -0.44212   0.43851   0.66454
   9   30766.2    325.0   0.038463147   0.41157  -0.32008   0.51910  -0.19912
  10   30849.2    324.2   0.024291400   0.25923   0.07031  -0.37764  -0.33418
  11   31388.6    318.6   0.311645103   3.26861   1.05711   1.29550  -0.68760
  12   32298.5    309.6   0.064820037   0.66070  -0.76835   0.25304   0.07942
  13   33292.8    300.4   0.129366003   1.27922   0.77573  -0.33039  -0.75386
  14   33777.1    296.1   0.024746713   0.24120  -0.29928   0.32660   0.21204
  15   34556.4    289.4   0.114914240   1.09476  -0.88397   0.54678   0.11998
  16   34832.5    287.1   0.028615941   0.27046   0.30750  -0.40226  -0.11870
  17   35797.0    279.4   0.006746342   0.06204  -0.22510   0.06818   0.08200
  18   35995.7    277.8   0.062448792   0.57115  -0.32643   0.65579   0.18582
  19   36645.5    272.9   0.012534090   0.11260   0.23570  -0.23552  -0.03969
  20   36772.9    271.9   0.028402592   0.25428   0.00764  -0.50097   0.05700
  21   36980.5    270.4   0.056140842   0.49978  -0.00024   0.70153   0.08742
  22   37239.6    268.5   0.045497179   0.40221   0.28312   0.44571  -0.35128
  23   37874.6    264.0   0.013456233   0.11696   0.17263  -0.11308  -0.27272
  24   37932.9    263.6   0.008499771   0.07377  -0.13143   0.12767   0.20049
  25   38395.9    260.4   0.025611105   0.21959  -0.38898   0.25477   0.05814
  26   38521.4    259.6   0.019099956   0.16323   0.20519  -0.34774  -0.01449
  27   38718.9    258.3   0.000737303   0.00627  -0.05192   0.05907  -0.00916
  28   39028.9    256.2   0.163090882   1.37569   0.99702  -0.61125  -0.08949
  29   39585.4    252.6   0.066537551   0.55336   0.35275  -0.60758  -0.24448
  30   39756.2    251.5   0.033752292   0.27950   0.21621  -0.47030  -0.10756
  31   40015.9    249.9   0.086114255   0.70846   0.02739   0.82924   0.14168

FINAL SINGLE POINT ENERGY     -4100.411653602035

DIPOLE MOMENT
-------------
                                X             Y             Z
Electronic contribution:      9.18701     -23.69420      -5.00294
Nuclear contribution   :     -9.58738      25.04170       4.46037
                        -----------------------------------------
Total Dipole Moment    :     -0.40037       1.34750      -0.54257
                        -----------------------------------------
Magnitude (a.u.)       :      1.50680
Magnitude (Debye)      :      3.82998

Rotational constants in cm-1:     0.001849     0.000375     0.000316
Rotational constants in MHz :    55.445214    11.228223     9.475754

                             ****ORCA TERMINATED NORMALLY****
TOTAL RUN TIME: 0 days 0 hours 5 minutes 20 seconds 137 msec
