                         Program Version 4.2.0 -  RELEASE  -
|  1> # ORCA input file
|  2> # SCF done       -195.359855312736          0.000770375433
|  3> ! CAM-B3LYP def2-SVP def2/J RIJCOSX Grid4 TightSCF
|  4> %maxcore 5000
|  5> %tddft
|  6>     Mode sTDDFT
|  7>     Ethresh 5.0
|  8>     maxcore 5000
|  9> end
| 10>
| 11> %pal
| 12>   nprocs 6
| 13>   end
| 14> * xyz 0 1
| 15>    C        0.08203        -0.15757        -5.74524
| 16>    N        0.98110        -0.15889        -4.60273
| 17>    C        1.28105        -1.36021        -3.99179
| 18>    O        0.80428        -2.40422        -4.39114
| 19>    C        2.19848        -1.28314        -2.84643
| 20>    C        2.49763        -2.48569        -2.25691
| 21>    C        3.30642        -2.84360        -1.16881
| 22>    S        4.22038        -1.75014        -0.16890
| 23>    C        4.81335        -3.05802         0.78483
| 24>    C        5.71196        -2.76575         1.88424
| 25>    C        5.66696        -3.46515         3.09350
| 26>    C        6.51254        -3.12698         4.12777
| 27>    C        7.42923        -2.08599         3.99576
| 28>    C        8.30842        -1.68841         5.11399
| 29>    O        8.96771        -0.67388         5.11540
| 30>    C        8.36291        -2.61668         6.28513
| 31>    C        7.65249        -2.48786         7.43319
| 32>    S        8.09729        -3.66526         8.61106
| 33>    C        9.28750        -4.31165         7.56618
| 34>    C        9.32810        -3.66841         6.36047
| 35>    C       10.18773        -4.02131         5.21694
| 36>    O        9.76621        -3.93287         4.07489
| 37>    C       11.55726        -4.48423         5.51366
| 38>    C       12.24544        -4.06218         6.64964
| 39>    C       13.54816        -4.47440         6.85805
| 40>    C       14.17187        -5.31037         5.94553
| 41>    C       13.49649        -5.72488         4.80789
| 42>    C       12.19970        -5.30557         4.58712
| 43>    C        7.48642        -1.38090         2.78000
| 44>    C        8.45893        -0.30120         2.58773
| 45>    S        8.03533         1.34235         2.83725
| 46>    C        9.65552         1.87888         2.41903
| 47>    C        9.85431         3.27098         2.55223
| 48>    C       10.67858         4.18592         1.95033
| 49>    C       10.62824         5.53714         2.53382
| 50>    O        9.92245         5.82907         3.47774
| 51>    N       11.46756         6.47378         1.96115
| 52>    C       11.50813         7.81408         2.52251
| 53>    C       12.28696         6.25492         0.87379
| 54>    O       13.01155         7.11928         0.44045
| 55>    N       12.22141         5.00537         0.29233
| 56>    C       13.01935         4.82446        -0.90955
| 57>    C       11.44379         3.94972         0.73687
| 58>    O       11.39929         2.91359         0.09489
| 59>    C       10.46704         0.78440         2.13953
| 60>    C        9.77337        -0.43967         2.21870
| 61>    C       10.42646        -1.75808         1.96041
| 62>    C       11.89942        -1.69239         2.38080
| 63>    C       12.01481        -1.53440         3.81139
| 64>    N       12.13219        -1.43209         4.94344
| 65>    C       12.59199        -0.52139         1.65023
| 66>    C       12.55280        -0.78960         0.22840
| 67>    N       12.52776        -1.02616        -0.88895
| 68>    C       11.94456         0.84144         1.95066
| 69>    C        6.62950        -1.72184         1.74911
| 70>    C        4.33809        -4.28855         0.35327
| 71>    C        3.48850        -4.16943        -0.74820
| 72>    C        2.87690        -5.34593        -1.44537
| 73>    C        3.08329        -6.65212        -0.66188
| 74>    C        2.14234        -6.73039         0.43327
| 75>    N        1.40892        -6.78834         1.30722
| 76>    C        4.52145        -6.72970        -0.10277
| 77>    C        5.46903        -6.58882        -1.18545
| 78>    N        6.21220        -6.46786        -2.04429
| 79>    C        4.72908        -5.61446         0.93237
| 80>    C        2.72672        -0.00465        -2.41347
| 81>    O        3.48866         0.12812        -1.46564
| 82>    N        2.32520         1.09705        -3.13607
| 83>    C        2.82136         2.40966        -2.75485
| 84>    C        1.46691         1.07405        -4.22102
| 85>    O        1.15951         2.08602        -4.80232
| 86>    H       -0.23106        -1.18377        -5.92015
| 87>    H        0.59876         0.23716        -6.61935
| 88>    H       -0.77984         0.47398        -5.53326
| 89>    H        2.00130        -3.31884        -2.74688
| 90>    H        4.93822        -4.24608         3.23752
| 91>    H        6.45625        -3.66728         5.06078
| 92>    H        6.88849        -1.77097         7.65922
| 93>    H        9.87335        -5.15387         7.87793
| 94>    H       11.77616        -3.38225         7.34285
| 95>    H       14.08313        -4.13727         7.73308
| 96>    H       15.18879        -5.63177         6.11557
| 97>    H       13.98524        -6.36940         4.09227
| 98>    H       11.65826        -5.61181         3.70363
| 99>    H        9.18782         3.73279         3.27929
|100>    H       10.81810         7.84102         3.36208
|101>    H       11.21463         8.53954         1.76457
|102>    H       12.52092         8.04293         2.85243
|103>    H       12.84644         5.65848        -1.58751
|104>    H       12.72043         3.88655        -1.37146
|105>    H       14.07835         4.79642        -0.65196
|106>    H       10.37699        -1.99504         0.89232
|107>    H        9.91602        -2.55201         2.50768
|108>    H       12.39797        -2.63487         2.11832
|109>    H       13.64942        -0.48065         1.94246
|110>    H       12.16394         1.51803         1.11851
|111>    H       12.39188         1.26989         2.85302
|112>    H        6.67696        -1.17518         0.81905
|113>    H        3.33985        -5.45230        -2.43206
|114>    H        1.80614        -5.18501        -1.59699
|115>    H        2.89352        -7.50472        -1.32555
|116>    H        4.68636        -7.70644         0.36839
|117>    H        5.77190        -5.58650         1.25782
|118>    H        4.10655        -5.84200         1.80373
|119>    H        3.52467         2.27709        -1.93686
|120>    H        1.99003         3.04048        -2.44129
|121>    H        3.31059         2.87582        -3.60901
|122> *
|123>
|124>                          ****END OF INPUT****

CARTESIAN COORDINATES (ANGSTROEM)
---------------------------------
  C      0.082030   -0.157570   -5.745240
  N      0.981100   -0.158890   -4.602730
  C      1.281050   -1.360210   -3.991790
  O      0.804280   -2.404220   -4.391140
  C      2.198480   -1.283140   -2.846430
  C      2.497630   -2.485690   -2.256910
  C      3.306420   -2.843600   -1.168810
  S      4.220380   -1.750140   -0.168900
  C      4.813350   -3.058020    0.784830
  C      5.711960   -2.765750    1.884240
  C      5.666960   -3.465150    3.093500
  C      6.512540   -3.126980    4.127770
  C      7.429230   -2.085990    3.995760
  C      8.308420   -1.688410    5.113990
  O      8.967710   -0.673880    5.115400
  C      8.362910   -2.616680    6.285130
  C      7.652490   -2.487860    7.433190
  S      8.097290   -3.665260    8.611060
  C      9.287500   -4.311650    7.566180
  C      9.328100   -3.668410    6.360470
  C     10.187730   -4.021310    5.216940
  O      9.766210   -3.932870    4.074890
  C     11.557260   -4.484230    5.513660
  C     12.245440   -4.062180    6.649640
  C     13.548160   -4.474400    6.858050
  C     14.171870   -5.310370    5.945530
  C     13.496490   -5.724880    4.807890
  C     12.199700   -5.305570    4.587120
  C      7.486420   -1.380900    2.780000
  C      8.458930   -0.301200    2.587730
  S      8.035330    1.342350    2.837250
  C      9.655520    1.878880    2.419030
  C      9.854310    3.270980    2.552230
  C     10.678580    4.185920    1.950330
  C     10.628240    5.537140    2.533820
  O      9.922450    5.829070    3.477740
  N     11.467560    6.473780    1.961150
  C     11.508130    7.814080    2.522510
  C     12.286960    6.254920    0.873790
  O     13.011550    7.119280    0.440450
  N     12.221410    5.005370    0.292330
  C     13.019350    4.824460   -0.909550
  C     11.443790    3.949720    0.736870
  O     11.399290    2.913590    0.094890
  C     10.467040    0.784400    2.139530
  C      9.773370   -0.439670    2.218700
  C     10.426460   -1.758080    1.960410
  C     11.899420   -1.692390    2.380800
  C     12.014810   -1.534400    3.811390
  N     12.132190   -1.432090    4.943440
  C     12.591990   -0.521390    1.650230
  C     12.552800   -0.789600    0.228400
  N     12.527760   -1.026160   -0.888950
  C     11.944560    0.841440    1.950660
  C      6.629500   -1.721840    1.749110
  C      4.338090   -4.288550    0.353270
  C      3.488500   -4.169430   -0.748200
  C      2.876900   -5.345930   -1.445370
  C      3.083290   -6.652120   -0.661880
  C      2.142340   -6.730390    0.433270
  N      1.408920   -6.788340    1.307220
  C      4.521450   -6.729700   -0.102770
  C      5.469030   -6.588820   -1.185450
  N      6.212200   -6.467860   -2.044290
  C      4.729080   -5.614460    0.932370
  C      2.726720   -0.004650   -2.413470
  O      3.488660    0.128120   -1.465640
  N      2.325200    1.097050   -3.136070
  C      2.821360    2.409660   -2.754850
  C      1.466910    1.074050   -4.221020
  O      1.159510    2.086020   -4.802320
  H     -0.231060   -1.183770   -5.920150
  H      0.598760    0.237160   -6.619350
  H     -0.779840    0.473980   -5.533260
  H      2.001300   -3.318840   -2.746880
  H      4.938220   -4.246080    3.237520
  H      6.456250   -3.667280    5.060780
  H      6.888490   -1.770970    7.659220
  H      9.873350   -5.153870    7.877930
  H     11.776160   -3.382250    7.342850
  H     14.083130   -4.137270    7.733080
  H     15.188790   -5.631770    6.115570
  H     13.985240   -6.369400    4.092270
  H     11.658260   -5.611810    3.703630
  H      9.187820    3.732790    3.279290
  H     10.818100    7.841020    3.362080
  H     11.214630    8.539540    1.764570
  H     12.520920    8.042930    2.852430
  H     12.846440    5.658480   -1.587510
  H     12.720430    3.886550   -1.371460
  H     14.078350    4.796420   -0.651960
  H     10.376990   -1.995040    0.892320
  H      9.916020   -2.552010    2.507680
  H     12.397970   -2.634870    2.118320
  H     13.649420   -0.480650    1.942460
  H     12.163940    1.518030    1.118510
  H     12.391880    1.269890    2.853020
  H      6.676960   -1.175180    0.819050
  H      3.339850   -5.452300   -2.432060
  H      1.806140   -5.185010   -1.596990
  H      2.893520   -7.504720   -1.325550
  H      4.686360   -7.706440    0.368390
  H      5.771900   -5.586500    1.257820
  H      4.106550   -5.842000    1.803730
  H      3.524670    2.277090   -1.936860
  H      1.990030    3.040480   -2.441290
  H      3.310590    2.875820   -3.609010

 Total Charge           Charge          ....    0
 Multiplicity           Mult            ....    1
 Number of Electrons    NEL             ....  516
 Basis Dimension        Dim             .... 1186

ORBITAL ENERGIES
----------------

  NO   OCC          E(Eh)            E(eV)
   0   2.0000     -88.976258     -2421.1671
   1   2.0000     -88.968766     -2420.9632
   2   2.0000     -88.955402     -2420.5995
   3   2.0000     -19.219598      -522.9918
   4   2.0000     -19.217865      -522.9447
   5   2.0000     -19.207931      -522.6744
   6   2.0000     -19.198586      -522.4201
   7   2.0000     -19.197838      -522.3997
   8   2.0000     -19.195980      -522.3492
   9   2.0000     -19.191280      -522.2213
  10   2.0000     -19.190033      -522.1873
  11   2.0000     -14.465607      -393.6292
  12   2.0000     -14.463951      -393.5841
  13   2.0000     -14.456962      -393.3939
  14   2.0000     -14.456344      -393.3771
  15   2.0000     -14.422601      -392.4589
  16   2.0000     -14.419555      -392.3760
  17   2.0000     -14.403338      -391.9348
  18   2.0000     -14.400664      -391.8620
  19   2.0000     -10.416132      -283.4374
  20   2.0000     -10.408779      -283.2373
  21   2.0000     -10.397020      -282.9173
  22   2.0000     -10.390980      -282.7529
  23   2.0000     -10.387008      -282.6449
  24   2.0000     -10.383211      -282.5415
  25   2.0000     -10.372552      -282.2515
  26   2.0000     -10.371794      -282.2309
  27   2.0000     -10.349140      -281.6144
  28   2.0000     -10.347601      -281.5725
  29   2.0000     -10.327052      -281.0134
  30   2.0000     -10.325416      -280.9688
  31   2.0000     -10.322513      -280.8899
  32   2.0000     -10.321032      -280.8496
  33   2.0000     -10.317897      -280.7642
  34   2.0000     -10.317762      -280.7606
  35   2.0000     -10.314812      -280.6803
  36   2.0000     -10.314231      -280.6645
  37   2.0000     -10.313629      -280.6481
  38   2.0000     -10.311958      -280.6026
  39   2.0000     -10.311445      -280.5887
  40   2.0000     -10.309548      -280.5371
  41   2.0000     -10.308816      -280.5172
  42   2.0000     -10.308663      -280.5130
  43   2.0000     -10.308240      -280.5015
  44   2.0000     -10.306581      -280.4563
  45   2.0000     -10.302614      -280.3484
  46   2.0000     -10.302165      -280.3362
  47   2.0000     -10.299418      -280.2614
  48   2.0000     -10.297639      -280.2130
  49   2.0000     -10.296743      -280.1886
  50   2.0000     -10.295869      -280.1648
  51   2.0000     -10.295163      -280.1456
  52   2.0000     -10.295144      -280.1451
  53   2.0000     -10.294903      -280.1386
  54   2.0000     -10.294479      -280.1270
  55   2.0000     -10.294210      -280.1197
  56   2.0000     -10.294040      -280.1151
  57   2.0000     -10.293020      -280.0873
  58   2.0000     -10.291792      -280.0539
  59   2.0000     -10.290324      -280.0140
  60   2.0000     -10.289983      -280.0047
  61   2.0000     -10.286848      -279.9194
  62   2.0000     -10.283017      -279.8151
  63   2.0000     -10.282505      -279.8012
  64   2.0000     -10.282130      -279.7910
  65   2.0000     -10.281794      -279.7818
  66   2.0000     -10.280053      -279.7345
  67   2.0000     -10.279287      -279.7136
  68   2.0000     -10.279023      -279.7064
  69   2.0000     -10.277613      -279.6681
  70   2.0000     -10.277441      -279.6634
  71   2.0000      -8.072483      -219.6634
  72   2.0000      -8.061694      -219.3698
  73   2.0000      -8.051209      -219.0845
  74   2.0000      -6.041706      -164.4032
  75   2.0000      -6.037212      -164.2809
  76   2.0000      -6.034979      -164.2201
  77   2.0000      -6.030964      -164.1109
  78   2.0000      -6.026421      -163.9873
  79   2.0000      -6.024268      -163.9287
  80   2.0000      -6.020422      -163.8240
  81   2.0000      -6.016372      -163.7138
  82   2.0000      -6.013292      -163.6300
  83   2.0000      -1.173621       -31.9358
  84   2.0000      -1.165343       -31.7106
  85   2.0000      -1.142176       -31.0802
  86   2.0000      -1.138869       -30.9902
  87   2.0000      -1.134115       -30.8608
  88   2.0000      -1.133025       -30.8312
  89   2.0000      -1.131656       -30.7939
  90   2.0000      -1.126290       -30.6479
  91   2.0000      -1.046020       -28.4637
  92   2.0000      -1.037389       -28.2288
  93   2.0000      -1.027249       -27.9529
  94   2.0000      -1.022846       -27.8331
  95   2.0000      -1.014340       -27.6016
  96   2.0000      -1.007957       -27.4279
  97   2.0000      -1.006551       -27.3896
  98   2.0000      -1.004246       -27.3269
  99   2.0000      -1.000811       -27.2334
 100   2.0000      -0.991661       -26.9845
 101   2.0000      -0.987228       -26.8639
 102   2.0000      -0.975075       -26.5331
 103   2.0000      -0.961568       -26.1656
 104   2.0000      -0.959210       -26.1014
 105   2.0000      -0.942944       -25.6588
 106   2.0000      -0.927349       -25.2344
 107   2.0000      -0.913145       -24.8480
 108   2.0000      -0.899121       -24.4663
 109   2.0000      -0.885327       -24.0910
 110   2.0000      -0.882974       -24.0269
 111   2.0000      -0.874793       -23.8043
 112   2.0000      -0.866280       -23.5727
 113   2.0000      -0.862783       -23.4775
 114   2.0000      -0.854957       -23.2646
 115   2.0000      -0.851313       -23.1654
 116   2.0000      -0.843620       -22.9561
 117   2.0000      -0.841337       -22.8939
 118   2.0000      -0.833553       -22.6821
 119   2.0000      -0.830553       -22.6005
 120   2.0000      -0.813728       -22.1427
 121   2.0000      -0.803399       -21.8616
 122   2.0000      -0.792521       -21.5656
 123   2.0000      -0.784032       -21.3346
 124   2.0000      -0.783028       -21.3073
 125   2.0000      -0.774066       -21.0634
 126   2.0000      -0.769170       -20.9302
 127   2.0000      -0.760598       -20.6969
 128   2.0000      -0.748556       -20.3692
 129   2.0000      -0.742381       -20.2012
 130   2.0000      -0.740988       -20.1633
 131   2.0000      -0.737783       -20.0761
 132   2.0000      -0.724744       -19.7213
 133   2.0000      -0.717905       -19.5352
 134   2.0000      -0.710100       -19.3228
 135   2.0000      -0.705069       -19.1859
 136   2.0000      -0.700484       -19.0611
 137   2.0000      -0.697766       -18.9872
 138   2.0000      -0.685267       -18.6471
 139   2.0000      -0.684371       -18.6227
 140   2.0000      -0.672405       -18.2971
 141   2.0000      -0.668069       -18.1791
 142   2.0000      -0.662796       -18.0356
 143   2.0000      -0.657875       -17.9017
 144   2.0000      -0.648346       -17.6424
 145   2.0000      -0.635330       -17.2882
 146   2.0000      -0.631976       -17.1970
 147   2.0000      -0.627669       -17.0798
 148   2.0000      -0.623390       -16.9633
 149   2.0000      -0.614141       -16.7116
 150   2.0000      -0.610268       -16.6062
 151   2.0000      -0.598451       -16.2847
 152   2.0000      -0.595540       -16.2055
 153   2.0000      -0.592104       -16.1120
 154   2.0000      -0.589774       -16.0486
 155   2.0000      -0.587527       -15.9874
 156   2.0000      -0.584697       -15.9104
 157   2.0000      -0.581632       -15.8270
 158   2.0000      -0.575454       -15.6589
 159   2.0000      -0.570284       -15.5182
 160   2.0000      -0.567157       -15.4331
 161   2.0000      -0.558343       -15.1933
 162   2.0000      -0.558123       -15.1873
 163   2.0000      -0.550769       -14.9872
 164   2.0000      -0.549633       -14.9563
 165   2.0000      -0.546901       -14.8819
 166   2.0000      -0.543927       -14.8010
 167   2.0000      -0.543285       -14.7835
 168   2.0000      -0.540856       -14.7174
 169   2.0000      -0.540739       -14.7142
 170   2.0000      -0.536179       -14.5902
 171   2.0000      -0.534956       -14.5569
 172   2.0000      -0.532063       -14.4782
 173   2.0000      -0.531585       -14.4652
 174   2.0000      -0.530194       -14.4273
 175   2.0000      -0.527791       -14.3619
 176   2.0000      -0.527103       -14.3432
 177   2.0000      -0.524455       -14.2711
 178   2.0000      -0.521991       -14.2041
 179   2.0000      -0.520366       -14.1599
 180   2.0000      -0.519686       -14.1414
 181   2.0000      -0.518388       -14.1061
 182   2.0000      -0.517331       -14.0773
 183   2.0000      -0.514338       -13.9959
 184   2.0000      -0.511821       -13.9274
 185   2.0000      -0.510730       -13.8977
 186   2.0000      -0.510160       -13.8821
 187   2.0000      -0.507711       -13.8155
 188   2.0000      -0.503019       -13.6878
 189   2.0000      -0.500778       -13.6269
 190   2.0000      -0.499629       -13.5956
 191   2.0000      -0.496349       -13.5063
 192   2.0000      -0.493897       -13.4396
 193   2.0000      -0.486928       -13.2500
 194   2.0000      -0.485462       -13.2101
 195   2.0000      -0.481400       -13.0996
 196   2.0000      -0.479560       -13.0495
 197   2.0000      -0.476480       -12.9657
 198   2.0000      -0.474242       -12.9048
 199   2.0000      -0.472102       -12.8465
 200   2.0000      -0.470285       -12.7971
 201   2.0000      -0.469864       -12.7857
 202   2.0000      -0.467389       -12.7183
 203   2.0000      -0.466554       -12.6956
 204   2.0000      -0.465671       -12.6715
 205   2.0000      -0.462584       -12.5875
 206   2.0000      -0.461860       -12.5678
 207   2.0000      -0.460804       -12.5391
 208   2.0000      -0.460013       -12.5176
 209   2.0000      -0.458238       -12.4693
 210   2.0000      -0.455785       -12.4025
 211   2.0000      -0.454625       -12.3710
 212   2.0000      -0.452353       -12.3092
 213   2.0000      -0.450042       -12.2463
 214   2.0000      -0.447202       -12.1690
 215   2.0000      -0.445658       -12.1270
 216   2.0000      -0.444882       -12.1058
 217   2.0000      -0.441211       -12.0060
 218   2.0000      -0.438909       -11.9433
 219   2.0000      -0.437172       -11.8960
 220   2.0000      -0.436734       -11.8841
 221   2.0000      -0.430568       -11.7164
 222   2.0000      -0.428463       -11.6591
 223   2.0000      -0.425886       -11.5890
 224   2.0000      -0.425003       -11.5649
 225   2.0000      -0.424483       -11.5508
 226   2.0000      -0.418803       -11.3962
 227   2.0000      -0.414813       -11.2876
 228   2.0000      -0.412190       -11.2163
 229   2.0000      -0.410742       -11.1769
 230   2.0000      -0.405198       -11.0260
 231   2.0000      -0.399964       -10.8836
 232   2.0000      -0.393795       -10.7157
 233   2.0000      -0.390809       -10.6345
 234   2.0000      -0.385289       -10.4842
 235   2.0000      -0.376573       -10.2471
 236   2.0000      -0.372572       -10.1382
 237   2.0000      -0.369806       -10.0629
 238   2.0000      -0.363088        -9.8801
 239   2.0000      -0.358813        -9.7638
 240   2.0000      -0.356730        -9.7071
 241   2.0000      -0.354196        -9.6382
 242   2.0000      -0.345873        -9.4117
 243   2.0000      -0.344325        -9.3696
 244   2.0000      -0.342563        -9.3216
 245   2.0000      -0.340737        -9.2719
 246   2.0000      -0.338245        -9.2041
 247   2.0000      -0.333159        -9.0657
 248   2.0000      -0.331862        -9.0304
 249   2.0000      -0.331622        -9.0239
 250   2.0000      -0.330548        -8.9947
 251   2.0000      -0.327112        -8.9012
 252   2.0000      -0.325661        -8.8617
 253   2.0000      -0.324532        -8.8310
 254   2.0000      -0.323940        -8.8149
 255   2.0000      -0.308700        -8.4002
 256   2.0000      -0.284010        -7.7283
 257   2.0000      -0.277198        -7.5429
 258   0.0000      -0.080721        -2.1965
 259   0.0000      -0.060092        -1.6352
 260   0.0000      -0.042402        -1.1538
 261   0.0000      -0.032359        -0.8805
 262   0.0000      -0.002284        -0.0622

MULLIKEN ATOMIC CHARGES
-----------------------
   0 C :    0.142961
   1 N :   -0.280502
   2 C :    0.195193
   3 O :   -0.215242
   4 C :   -0.172782
   5 C :   -0.016834
   6 C :   -0.071356
   7 S :    0.226756
   8 C :   -0.110394
   9 C :    0.083143
  10 C :   -0.000546
  11 C :    0.007257
  12 C :    0.089944
  13 C :    0.090252
  14 O :   -0.136550
  15 C :   -0.008405
  16 C :   -0.116543
  17 S :    0.138765
  18 C :   -0.133987
  19 C :    0.047498
  20 C :    0.173451
  21 O :   -0.210979
  22 C :   -0.017620
  23 C :    0.039553
  24 C :    0.014779
  25 C :    0.039155
  26 C :    0.018537
  27 C :   -0.004694
  28 C :   -0.022425
  29 C :   -0.164894
  30 S :    0.168882
  31 C :   -0.123598
  32 C :    0.039376
  33 C :   -0.160014
  34 C :    0.190456
  35 O :   -0.214488
  36 N :   -0.280193
  37 C :    0.142922
  38 C :    0.219799
  39 O :   -0.226039
  40 N :   -0.281559
  41 C :    0.136726
  42 C :    0.188994
  43 O :   -0.224510
  44 C :    0.021346
  45 C :   -0.041777
  46 C :    0.186057
  47 C :   -0.118658
  48 C :   -0.199170
  49 N :    0.125729
  50 C :   -0.076822
  51 C :   -0.254669
  52 N :    0.139025
  53 C :    0.124960
  54 C :   -0.043313
  55 C :   -0.050616
  56 C :   -0.058073
  57 C :    0.122786
  58 C :   -0.059979
  59 C :   -0.250159
  60 N :    0.145354
  61 C :   -0.077577
  62 C :   -0.243400
  63 N :    0.152368
  64 C :    0.135903
  65 C :    0.229235
  66 O :   -0.245738
  67 N :   -0.284434
  68 C :    0.140861
  69 C :    0.220676
  70 O :   -0.220327
  71 H :    0.055346
  72 H :    0.038778
  73 H :    0.038384
  74 H :    0.024726
  75 H :   -0.022524
  76 H :   -0.001369
  77 H :    0.031777
  78 H :    0.040900
  79 H :    0.010625
  80 H :   -0.009270
  81 H :   -0.006342
  82 H :   -0.008521
  83 H :   -0.008403
  84 H :    0.045901
  85 H :    0.055810
  86 H :    0.035974
  87 H :    0.036683
  88 H :    0.040627
  89 H :    0.059440
  90 H :    0.036224
  91 H :    0.044637
  92 H :    0.045709
  93 H :    0.051006
  94 H :    0.048535
  95 H :    0.071711
  96 H :    0.039786
  97 H :   -0.002527
  98 H :    0.064219
  99 H :    0.062831
 100 H :    0.057020
 101 H :    0.053252
 102 H :    0.048787
 103 H :    0.060806
 104 H :    0.058152
 105 H :    0.039078
 106 H :    0.042398
Sum of atomic charges:   -0.0000000

LOEWDIN ATOMIC CHARGES
----------------------
   0 C :    0.042514
   1 N :   -0.037377
   2 C :    0.085742
   3 O :   -0.198718
   4 C :   -0.153215
   5 C :    0.078970
   6 C :   -0.197503
   7 S :    0.546989
   8 C :   -0.152659
   9 C :   -0.026978
  10 C :   -0.013026
  11 C :    0.010632
  12 C :   -0.048278
  13 C :    0.089097
  14 O :   -0.104644
  15 C :   -0.069422
  16 C :   -0.174207
  17 S :    0.465087
  18 C :   -0.160801
  19 C :   -0.090316
  20 C :    0.107999
  21 O :   -0.157812
  22 C :   -0.069892
  23 C :    0.013105
  24 C :   -0.021794
  25 C :   -0.002750
  26 C :   -0.026430
  27 C :    0.005616
  28 C :   -0.013423
  29 C :   -0.141337
  30 S :    0.469821
  31 C :   -0.181694
  32 C :    0.075516
  33 C :   -0.153133
  34 C :    0.085818
  35 O :   -0.194384
  36 N :   -0.039295
  37 C :    0.041651
  38 C :    0.093361
  39 O :   -0.195269
  40 N :   -0.039463
  41 C :    0.040351
  42 C :    0.088565
  43 O :   -0.186676
  44 C :   -0.000830
  45 C :   -0.064445
  46 C :   -0.009604
  47 C :   -0.035387
  48 C :   -0.022299
  49 N :   -0.062602
  50 C :   -0.034948
  51 C :   -0.034063
  52 N :   -0.058126
  53 C :   -0.016791
  54 C :   -0.003687
  55 C :   -0.070130
  56 C :   -0.020680
  57 C :   -0.010097
  58 C :   -0.032983
  59 C :   -0.036333
  60 N :   -0.051764
  61 C :   -0.033576
  62 C :   -0.037506
  63 N :   -0.047092
  64 C :   -0.009445
  65 C :    0.090999
  66 O :   -0.212519
  67 N :   -0.035447
  68 C :    0.042174
  69 C :    0.095636
  70 O :   -0.189426
  71 H :    0.034307
  72 H :    0.031571
  73 H :    0.031384
  74 H :    0.048632
  75 H :    0.031975
  76 H :    0.036078
  77 H :    0.029194
  78 H :    0.030327
  79 H :    0.035233
  80 H :    0.031388
  81 H :    0.031052
  82 H :    0.030503
  83 H :    0.031414
  84 H :    0.047385
  85 H :    0.034088
  86 H :    0.030410
  87 H :    0.030450
  88 H :    0.032053
  89 H :    0.034726
  90 H :    0.029645
  91 H :    0.044688
  92 H :    0.036974
  93 H :    0.060062
  94 H :    0.060511
  95 H :    0.045782
  96 H :    0.045732
  97 H :    0.031757
  98 H :    0.051621
  99 H :    0.050084
 100 H :    0.063816
 101 H :    0.061320
 102 H :    0.045264
 103 H :    0.041952
 104 H :    0.034599
 105 H :    0.031707
 106 H :    0.032947

  Mayer bond orders larger than 0.100000
B(  0-C ,  1-N ) :   0.9342 B(  0-C , 71-H ) :   0.9552 B(  0-C , 72-H ) :   0.9764
B(  0-C , 73-H ) :   0.9755 B(  1-N ,  2-C ) :   1.0785 B(  1-N , 69-C ) :   1.0655
B(  2-C ,  3-O ) :   2.0958 B(  2-C ,  4-C ) :   0.9447 B(  4-C ,  5-C ) :   1.6377
B(  4-C , 65-C ) :   0.9922 B(  5-C ,  6-C ) :   1.2009 B(  5-C , 74-H ) :   0.9325
B(  6-C ,  7-S ) :   1.1029 B(  6-C ,  8-C ) :   0.1039 B(  6-C , 56-C ) :   1.3943
B(  7-S ,  8-C ) :   1.1731 B(  8-C ,  9-C ) :   1.0152 B(  8-C , 55-C ) :   1.4657
B(  9-C , 10-C ) :   1.3571 B(  9-C , 54-C ) :   1.3080 B( 10-C , 11-C ) :   1.3825
B( 10-C , 75-H ) :   0.9920 B( 11-C , 12-C ) :   1.3475 B( 11-C , 76-H ) :   0.9728
B( 12-C , 13-C ) :   0.9237 B( 12-C , 28-C ) :   1.3997 B( 13-C , 14-O ) :   2.1988
B( 13-C , 15-C ) :   0.8874 B( 15-C , 16-C ) :   1.6011 B( 15-C , 19-C ) :   1.2972
B( 16-C , 17-S ) :   1.1583 B( 16-C , 77-H ) :   0.9721 B( 17-S , 18-C ) :   1.2066
B( 18-C , 19-C ) :   1.5278 B( 18-C , 78-H ) :   0.9640 B( 19-C , 20-C ) :   0.9336
B( 20-C , 21-O ) :   2.0631 B( 20-C , 22-C ) :   0.9608 B( 22-C , 23-C ) :   1.3755
B( 22-C , 27-C ) :   1.3684 B( 23-C , 24-C ) :   1.3911 B( 23-C , 79-H ) :   0.9838
B( 24-C , 25-C ) :   1.3899 B( 24-C , 80-H ) :   0.9905 B( 25-C , 26-C ) :   1.3720
B( 25-C , 81-H ) :   0.9925 B( 26-C , 27-C ) :   1.3784 B( 26-C , 82-H ) :   0.9939
B( 27-C , 83-H ) :   1.0001 B( 28-C , 29-C ) :   0.9284 B( 28-C , 54-C ) :   1.4188
B( 29-C , 30-S ) :   1.1872 B( 29-C , 31-C ) :   0.1142 B( 29-C , 45-C ) :   1.5767
B( 30-S , 31-C ) :   1.0973 B( 31-C , 32-C ) :   1.1196 B( 31-C , 44-C ) :   1.4806
B( 32-C , 33-C ) :   1.6840 B( 32-C , 84-H ) :   0.9240 B( 33-C , 34-C ) :   0.9433
B( 33-C , 42-C ) :   0.9769 B( 34-C , 35-O ) :   2.1099 B( 34-C , 36-N ) :   1.0744
B( 36-N , 37-C ) :   0.9358 B( 36-N , 38-C ) :   1.0645 B( 37-C , 85-H ) :   0.9549
B( 37-C , 86-H ) :   0.9766 B( 37-C , 87-H ) :   0.9757 B( 38-C , 39-O ) :   2.0879
B( 38-C , 40-N ) :   1.0608 B( 40-N , 41-C ) :   0.9343 B( 40-N , 42-C ) :   1.0800
B( 41-C , 88-H ) :   0.9720 B( 41-C , 89-H ) :   0.9555 B( 41-C , 90-H ) :   0.9798
B( 42-C , 43-O ) :   2.0258 B( 44-C , 45-C ) :   1.2997 B( 44-C , 53-C ) :   1.0602
B( 45-C , 46-C ) :   1.0342 B( 46-C , 47-C ) :   1.0463 B( 46-C , 91-H ) :   0.8984
B( 46-C , 92-H ) :   0.8924 B( 47-C , 48-C ) :   1.1128 B( 47-C , 50-C ) :   1.0871
B( 47-C , 93-H ) :   0.8703 B( 48-C , 49-N ) :   3.0462 B( 50-C , 51-C ) :   1.1088
B( 50-C , 53-C ) :   1.0570 B( 50-C , 94-H ) :   0.8589 B( 51-C , 52-N ) :   3.1057
B( 53-C , 95-H ) :   0.8633 B( 53-C , 96-H ) :   0.9003 B( 54-C , 97-H ) :   0.9972
B( 55-C , 56-C ) :   1.3812 B( 55-C , 64-C ) :   1.0284 B( 56-C , 57-C ) :   1.0430
B( 57-C , 58-C ) :   1.0575 B( 57-C , 98-H ) :   0.8996 B( 57-C , 99-H ) :   0.9080
B( 58-C , 59-C ) :   1.1084 B( 58-C , 61-C ) :   1.0778 B( 58-C ,100-H ) :   0.8537
B( 59-C , 60-N ) :   3.0986 B( 61-C , 62-C ) :   1.1057 B( 61-C , 64-C ) :   1.0579
B( 61-C ,101-H ) :   0.8571 B( 62-C , 63-N ) :   3.1102 B( 64-C ,102-H ) :   0.9154
B( 64-C ,103-H ) :   0.8992 B( 65-C , 66-O ) :   1.9811 B( 65-C , 67-N ) :   1.1048
B( 67-N , 68-C ) :   0.9319 B( 67-N , 69-C ) :   1.0543 B( 68-C ,104-H ) :   0.9551
B( 68-C ,105-H ) :   0.9773 B( 68-C ,106-H ) :   0.9743 B( 69-C , 70-O ) :   2.0932

-----------------------------------------------------------------------------
         ABSORPTION SPECTRUM VIA TRANSITION ELECTRIC DIPOLE MOMENTS
-----------------------------------------------------------------------------
State   Energy  Wavelength   fosc         T2         TX        TY        TZ
        (cm-1)    (nm)                  (au**2)     (au)      (au)      (au)
-----------------------------------------------------------------------------
   0   26644.3    375.3   0.389232598   4.80929   1.57962   0.10354   1.51768
   1   26964.1    370.9   0.681873791   8.32517  -1.99719   0.14553  -2.07731
   2   28825.2    346.9   1.011029547  11.54694  -0.42367  -3.01785   1.50333
   3   30719.0    325.5   0.001946181   0.02086  -0.11783   0.07884   0.02751
   4   32113.6    311.4   0.010689002   0.10958   0.12338   0.28587  -0.11241
   5   33204.7    301.2   0.001470515   0.01458   0.06371   0.06782  -0.07694
   6   33857.1    295.4   0.055750296   0.54209   0.58332  -0.44281  -0.07587
   7   34184.6    292.5   0.010965394   0.10560  -0.31108   0.06520   0.06768
   8   34392.3    290.8   0.027436814   0.26263  -0.07035   0.50372   0.06287
   9   35331.2    283.0   0.016114937   0.15016   0.09072   0.37645  -0.01460
  10   35721.7    279.9   0.007177076   0.06614   0.09952   0.22475  -0.07567
  11   36241.3    275.9   0.007579494   0.06885  -0.13432  -0.19514  -0.11283
  12   36503.3    273.9   0.008113903   0.07318  -0.23317  -0.13110  -0.04026
  13   36962.4    270.5   0.018990939   0.16915  -0.04432  -0.27753  -0.30026
  14   37245.3    268.5   0.004605313   0.04071  -0.08484  -0.17561  -0.05167
  15   37571.4    266.2   0.173160999   1.51729   0.65924   0.80067   0.66455
  16   38385.8    260.5   0.030002447   0.25731  -0.16442  -0.30134   0.37346
  17   38998.0    256.4   0.008311614   0.07016   0.19151   0.17850   0.04031
  18   39103.5    255.7   0.016881161   0.14212   0.11858  -0.12357  -0.33584
  19   40048.8    249.7   0.079377242   0.65250  -0.47200  -0.53766  -0.37502
  20   40117.2    249.3   0.031330019   0.25710   0.02508   0.26754  -0.42999

FINAL SINGLE POINT ENERGY     -4233.551098834534

DIPOLE MOMENT
-------------
                                X             Y             Z
Electronic contribution:    -12.04904      -4.39345      15.74764
Nuclear contribution   :     12.04615       1.69613     -13.51912
                        -----------------------------------------
Total Dipole Moment    :     -0.00289      -2.69732       2.22852
                        -----------------------------------------
Magnitude (a.u.)       :      3.49883
Magnitude (Debye)      :      8.89332

Rotational constants in cm-1:     0.000931     0.000641     0.000438
Rotational constants in MHz :    27.921685    19.224548    13.135445

                             ****ORCA TERMINATED NORMALLY****
TOTAL RUN TIME: 0 days 0 hours 10 minutes 40 seconds 740 msec
