                         Program Version 4.2.0 -  RELEASE  -
|  1> # ORCA input file
|  2> # SCF done       -171.383532768802          0.000699212699
|  3> ! CAM-B3LYP def2-SVP def2/J RIJCOSX Grid4 TightSCF
|  4> %maxcore 5000
|  5> %tddft
|  6>     Mode sTDDFT
|  7>     Ethresh 5.0
|  8>     maxcore 5000
|  9> end
| 10>
| 11> %pal
| 12>   nprocs 6
| 13>   end
| 14> * xyz 0 1
| 15>    C        4.34064        -4.17998        -2.97728
| 16>    N        5.00522        -3.21017        -2.14872
| 17>    C        6.04981        -2.39346        -2.59559
| 18>    O        6.46187        -2.38264        -3.72566
| 19>    C        6.46515        -1.53400        -1.43987
| 20>    C        7.53795        -0.57714        -1.54748
| 21>    C        7.56490         0.76668        -1.40528
| 22>    C        8.91760         1.25132        -1.66122
| 23>    C        8.92613         2.60280        -1.57779
| 24>    C       10.01210         3.54498        -1.71256
| 25>    S       10.03498         4.70147        -2.99822
| 26>    C       11.58566         5.30824        -2.48348
| 27>    C       12.21553         6.37474        -3.20740
| 28>    C       12.22223         6.67229        -4.53705
| 29>    C       12.97008         7.90520        -4.74333
| 30>    C       12.99828         8.20877        -6.06020
| 31>    C       13.60349         9.30506        -6.77377
| 32>    C       14.89240         9.70002        -6.87262
| 33>    C       14.97247        10.87287        -7.74706
| 34>    C       16.25928        11.24623        -7.86451
| 35>    C       17.05610        10.28807        -7.07346
| 36>    O       18.25050        10.22620        -6.91740
| 37>    N       16.15453         9.38052        -6.48051
| 38>    C       16.57621         8.19813        -5.77979
| 39>    N       13.71324        11.17905        -8.15892
| 40>    C       13.32640        12.25491        -9.03143
| 41>    C       12.80982        10.25830        -7.61446
| 42>    O       11.61955        10.30389        -7.78076
| 43>    C       12.24573         7.11524        -6.74667
| 44>    O       12.07667         6.94429        -7.92695
| 45>    N       11.81148         6.22533        -5.75742
| 46>    C       11.10620         5.01443        -6.07902
| 47>    N       13.38503         8.37053        -3.52875
| 48>    C       13.96421         9.65707        -3.24778
| 49>    C       12.94397         7.49679        -2.53615
| 50>    O       13.12747         7.68556        -1.35762
| 51>    C       12.01918         4.65818        -1.34896
| 52>    C       11.11976         3.66122        -0.91039
| 53>    C       11.31716         2.83706         0.32748
| 54>    C       12.54746         3.29362         1.12826
| 55>    C       12.22027         4.43549         1.95394
| 56>    N       11.95372         5.32442         2.61962
| 57>    C       13.70566         3.65317         0.17069
| 58>    C       13.94469         2.53116        -0.70572
| 59>    N       14.08399         1.63918        -1.40730
| 60>    C       13.33022         4.88500        -0.66550
| 61>    C        7.51656         3.01339        -1.30762
| 62>    O        7.06247         4.12512        -1.20812
| 63>    N        6.76067         1.84303        -1.16958
| 64>    C        5.32670         1.84247        -1.05419
| 65>    N        9.71011         0.18185        -1.95219
| 66>    C       11.05028         0.20286        -2.48090
| 67>    C        8.92866        -0.98149        -1.92871
| 68>    O        9.35742        -2.08522        -2.14118
| 69>    C        5.66704        -1.88213        -0.40642
| 70>    C        4.75101        -2.94102        -0.84015
| 71>    C        3.97664        -3.30436         0.19752
| 72>    C        4.40029        -2.48877         1.35293
| 73>    O        3.99816        -2.49920         2.48964
| 74>    N        5.42643        -1.63054         0.90725
| 75>    C        6.19480        -0.79605         1.78985
| 76>    H        4.79181        -4.12606        -3.96730
| 77>    H        3.27449        -3.95755        -3.04843
| 78>    H        4.47194        -5.18470        -2.57182
| 79>    H       16.70140        12.05037        -8.41701
| 80>    H       17.66258         8.24036        -5.70372
| 81>    H       16.28415         7.30051        -6.32952
| 82>    H       16.14284         8.15532        -4.77951
| 83>    H       13.60621        13.21775        -8.60025
| 84>    H       12.24432        12.20717        -9.14706
| 85>    H       13.80197        12.14669       -10.00782
| 86>    H       11.09743         4.93099        -7.16559
| 87>    H       10.07908         5.05029        -5.71208
| 88>    H       11.61273         4.15068        -5.64744
| 89>    H       14.93621         9.76570        -3.73062
| 90>    H       14.08312         9.72871        -2.16700
| 91>    H       13.30591        10.45583        -3.59543
| 92>    H       11.44266         1.78504         0.05643
| 93>    H       10.42164         2.90428         0.95321
| 94>    H       12.86000         2.48492         1.80166
| 95>    H       14.61826         3.85646         0.74249
| 96>    H       14.10812         5.09027        -1.40500
| 97>    H       13.26266         5.75879        -0.01199
| 98>    H        5.00836         2.88228        -0.98471
| 99>    H        5.00457         1.30371        -0.16195
|100>    H        4.87143         1.37861        -1.93165
|101>    H       11.10579         0.86083        -3.34941
|102>    H       11.29328        -0.81600        -2.77976
|103>    H       11.77739         0.53766        -1.74068
|104>    H        3.20133        -4.04073         0.26114
|105>    H        5.76491        -0.89983         2.78596
|106>    H        6.15070         0.25028         1.48302
|107>    H        7.23912        -1.11535         1.80801
|108> *
|109>
|110>                          ****END OF INPUT****

CARTESIAN COORDINATES (ANGSTROEM)
---------------------------------
  C      4.340640   -4.179980   -2.977280
  N      5.005220   -3.210170   -2.148720
  C      6.049810   -2.393460   -2.595590
  O      6.461870   -2.382640   -3.725660
  C      6.465150   -1.534000   -1.439870
  C      7.537950   -0.577140   -1.547480
  C      7.564900    0.766680   -1.405280
  C      8.917600    1.251320   -1.661220
  C      8.926130    2.602800   -1.577790
  C     10.012100    3.544980   -1.712560
  S     10.034980    4.701470   -2.998220
  C     11.585660    5.308240   -2.483480
  C     12.215530    6.374740   -3.207400
  C     12.222230    6.672290   -4.537050
  C     12.970080    7.905200   -4.743330
  C     12.998280    8.208770   -6.060200
  C     13.603490    9.305060   -6.773770
  C     14.892400    9.700020   -6.872620
  C     14.972470   10.872870   -7.747060
  C     16.259280   11.246230   -7.864510
  C     17.056100   10.288070   -7.073460
  O     18.250500   10.226200   -6.917400
  N     16.154530    9.380520   -6.480510
  C     16.576210    8.198130   -5.779790
  N     13.713240   11.179050   -8.158920
  C     13.326400   12.254910   -9.031430
  C     12.809820   10.258300   -7.614460
  O     11.619550   10.303890   -7.780760
  C     12.245730    7.115240   -6.746670
  O     12.076670    6.944290   -7.926950
  N     11.811480    6.225330   -5.757420
  C     11.106200    5.014430   -6.079020
  N     13.385030    8.370530   -3.528750
  C     13.964210    9.657070   -3.247780
  C     12.943970    7.496790   -2.536150
  O     13.127470    7.685560   -1.357620
  C     12.019180    4.658180   -1.348960
  C     11.119760    3.661220   -0.910390
  C     11.317160    2.837060    0.327480
  C     12.547460    3.293620    1.128260
  C     12.220270    4.435490    1.953940
  N     11.953720    5.324420    2.619620
  C     13.705660    3.653170    0.170690
  C     13.944690    2.531160   -0.705720
  N     14.083990    1.639180   -1.407300
  C     13.330220    4.885000   -0.665500
  C      7.516560    3.013390   -1.307620
  O      7.062470    4.125120   -1.208120
  N      6.760670    1.843030   -1.169580
  C      5.326700    1.842470   -1.054190
  N      9.710110    0.181850   -1.952190
  C     11.050280    0.202860   -2.480900
  C      8.928660   -0.981490   -1.928710
  O      9.357420   -2.085220   -2.141180
  C      5.667040   -1.882130   -0.406420
  C      4.751010   -2.941020   -0.840150
  C      3.976640   -3.304360    0.197520
  C      4.400290   -2.488770    1.352930
  O      3.998160   -2.499200    2.489640
  N      5.426430   -1.630540    0.907250
  C      6.194800   -0.796050    1.789850
  H      4.791810   -4.126060   -3.967300
  H      3.274490   -3.957550   -3.048430
  H      4.471940   -5.184700   -2.571820
  H     16.701400   12.050370   -8.417010
  H     17.662580    8.240360   -5.703720
  H     16.284150    7.300510   -6.329520
  H     16.142840    8.155320   -4.779510
  H     13.606210   13.217750   -8.600250
  H     12.244320   12.207170   -9.147060
  H     13.801970   12.146690  -10.007820
  H     11.097430    4.930990   -7.165590
  H     10.079080    5.050290   -5.712080
  H     11.612730    4.150680   -5.647440
  H     14.936210    9.765700   -3.730620
  H     14.083120    9.728710   -2.167000
  H     13.305910   10.455830   -3.595430
  H     11.442660    1.785040    0.056430
  H     10.421640    2.904280    0.953210
  H     12.860000    2.484920    1.801660
  H     14.618260    3.856460    0.742490
  H     14.108120    5.090270   -1.405000
  H     13.262660    5.758790   -0.011990
  H      5.008360    2.882280   -0.984710
  H      5.004570    1.303710   -0.161950
  H      4.871430    1.378610   -1.931650
  H     11.105790    0.860830   -3.349410
  H     11.293280   -0.816000   -2.779760
  H     11.777390    0.537660   -1.740680
  H      3.201330   -4.040730    0.261140
  H      5.764910   -0.899830    2.785960
  H      6.150700    0.250280    1.483020
  H      7.239120   -1.115350    1.808010

 Total Charge           Charge          ....    0
 Multiplicity           Mult            ....    1
 Number of Electrons    NEL             ....  434
 Basis Dimension        Dim             .... 1018

ORBITAL ENERGIES
----------------

  NO   OCC          E(Eh)            E(eV)
   0   2.0000     -88.962256     -2420.7861
   1   2.0000     -19.215350      -522.8763
   2   2.0000     -19.210760      -522.7514
   3   2.0000     -19.210593      -522.7468
   4   2.0000     -19.209645      -522.7210
   5   2.0000     -19.209076      -522.7055
   6   2.0000     -19.208381      -522.6866
   7   2.0000     -19.207195      -522.6543
   8   2.0000     -19.206390      -522.6324
   9   2.0000     -14.469045      -393.7227
  10   2.0000     -14.466922      -393.6650
  11   2.0000     -14.466615      -393.6566
  12   2.0000     -14.464009      -393.5857
  13   2.0000     -14.463948      -393.5840
  14   2.0000     -14.463605      -393.5747
  15   2.0000     -14.463092      -393.5607
  16   2.0000     -14.462974      -393.5575
  17   2.0000     -14.419213      -392.3667
  18   2.0000     -14.411402      -392.1542
  19   2.0000     -10.396614      -282.9062
  20   2.0000     -10.391165      -282.7580
  21   2.0000     -10.390176      -282.7311
  22   2.0000     -10.389708      -282.7183
  23   2.0000     -10.388981      -282.6986
  24   2.0000     -10.388893      -282.6962
  25   2.0000     -10.388756      -282.6924
  26   2.0000     -10.388041      -282.6730
  27   2.0000     -10.346418      -281.5403
  28   2.0000     -10.345400      -281.5127
  29   2.0000     -10.344270      -281.4819
  30   2.0000     -10.343574      -281.4630
  31   2.0000     -10.342947      -281.4459
  32   2.0000     -10.342616      -281.4369
  33   2.0000     -10.342098      -281.4228
  34   2.0000     -10.341872      -281.4166
  35   2.0000     -10.340576      -281.3814
  36   2.0000     -10.338328      -281.3202
  37   2.0000     -10.318480      -280.7801
  38   2.0000     -10.317550      -280.7548
  39   2.0000     -10.315984      -280.7122
  40   2.0000     -10.315360      -280.6952
  41   2.0000     -10.314696      -280.6771
  42   2.0000     -10.313800      -280.6528
  43   2.0000     -10.313430      -280.6427
  44   2.0000     -10.310399      -280.5602
  45   2.0000     -10.309894      -280.5465
  46   2.0000     -10.309024      -280.5228
  47   2.0000     -10.308217      -280.5008
  48   2.0000     -10.304585      -280.4020
  49   2.0000     -10.304258      -280.3931
  50   2.0000     -10.302731      -280.3516
  51   2.0000     -10.301698      -280.3235
  52   2.0000     -10.300456      -280.2897
  53   2.0000     -10.299251      -280.2569
  54   2.0000     -10.299109      -280.2530
  55   2.0000     -10.298149      -280.2269
  56   2.0000     -10.291660      -280.0503
  57   2.0000     -10.288563      -279.9660
  58   2.0000     -10.287391      -279.9341
  59   2.0000     -10.285249      -279.8759
  60   2.0000     -10.284633      -279.8591
  61   2.0000      -8.057244      -219.2488
  62   2.0000      -6.026458      -163.9883
  63   2.0000      -6.022380      -163.8773
  64   2.0000      -6.019520      -163.7995
  65   2.0000      -1.157453       -31.4959
  66   2.0000      -1.153909       -31.3995
  67   2.0000      -1.151868       -31.3439
  68   2.0000      -1.150630       -31.3102
  69   2.0000      -1.147943       -31.2371
  70   2.0000      -1.145758       -31.1777
  71   2.0000      -1.143663       -31.1207
  72   2.0000      -1.142890       -31.0996
  73   2.0000      -1.090850       -29.6835
  74   2.0000      -1.088671       -29.6242
  75   2.0000      -1.086870       -29.5752
  76   2.0000      -1.086069       -29.5534
  77   2.0000      -1.058053       -28.7911
  78   2.0000      -1.055509       -28.7219
  79   2.0000      -1.054420       -28.6922
  80   2.0000      -1.053790       -28.6751
  81   2.0000      -1.019550       -27.7434
  82   2.0000      -1.000356       -27.2211
  83   2.0000      -0.994644       -27.0656
  84   2.0000      -0.955204       -25.9924
  85   2.0000      -0.936956       -25.4959
  86   2.0000      -0.935095       -25.4452
  87   2.0000      -0.931656       -25.3516
  88   2.0000      -0.919608       -25.0238
  89   2.0000      -0.916376       -24.9358
  90   2.0000      -0.913106       -24.8469
  91   2.0000      -0.895134       -24.3578
  92   2.0000      -0.888281       -24.1713
  93   2.0000      -0.880342       -23.9553
  94   2.0000      -0.855407       -23.2768
  95   2.0000      -0.839530       -22.8448
  96   2.0000      -0.822459       -22.3802
  97   2.0000      -0.820062       -22.3150
  98   2.0000      -0.814119       -22.1533
  99   2.0000      -0.808213       -21.9926
 100   2.0000      -0.801898       -21.8208
 101   2.0000      -0.789842       -21.4927
 102   2.0000      -0.778489       -21.1838
 103   2.0000      -0.776281       -21.1237
 104   2.0000      -0.768974       -20.9248
 105   2.0000      -0.767510       -20.8850
 106   2.0000      -0.756755       -20.5924
 107   2.0000      -0.751122       -20.4391
 108   2.0000      -0.749020       -20.3819
 109   2.0000      -0.738108       -20.0850
 110   2.0000      -0.714861       -19.4524
 111   2.0000      -0.706045       -19.2125
 112   2.0000      -0.701643       -19.0927
 113   2.0000      -0.690844       -18.7988
 114   2.0000      -0.688755       -18.7420
 115   2.0000      -0.681208       -18.5366
 116   2.0000      -0.669753       -18.2249
 117   2.0000      -0.660170       -17.9641
 118   2.0000      -0.643993       -17.5239
 119   2.0000      -0.637772       -17.3547
 120   2.0000      -0.632262       -17.2047
 121   2.0000      -0.631729       -17.1902
 122   2.0000      -0.623585       -16.9686
 123   2.0000      -0.621736       -16.9183
 124   2.0000      -0.620332       -16.8801
 125   2.0000      -0.606625       -16.5071
 126   2.0000      -0.605419       -16.4743
 127   2.0000      -0.603337       -16.4176
 128   2.0000      -0.602088       -16.3836
 129   2.0000      -0.596566       -16.2334
 130   2.0000      -0.595506       -16.2045
 131   2.0000      -0.590858       -16.0781
 132   2.0000      -0.588430       -16.0120
 133   2.0000      -0.586549       -15.9608
 134   2.0000      -0.585414       -15.9299
 135   2.0000      -0.584639       -15.9088
 136   2.0000      -0.579378       -15.7657
 137   2.0000      -0.574673       -15.6376
 138   2.0000      -0.568419       -15.4675
 139   2.0000      -0.561931       -15.2909
 140   2.0000      -0.560158       -15.2427
 141   2.0000      -0.555830       -15.1249
 142   2.0000      -0.554347       -15.0846
 143   2.0000      -0.550090       -14.9687
 144   2.0000      -0.543078       -14.7779
 145   2.0000      -0.541213       -14.7272
 146   2.0000      -0.539492       -14.6803
 147   2.0000      -0.538144       -14.6436
 148   2.0000      -0.537510       -14.6264
 149   2.0000      -0.530442       -14.4341
 150   2.0000      -0.526076       -14.3152
 151   2.0000      -0.522531       -14.2188
 152   2.0000      -0.521791       -14.1987
 153   2.0000      -0.520167       -14.1545
 154   2.0000      -0.519111       -14.1257
 155   2.0000      -0.514090       -13.9891
 156   2.0000      -0.511652       -13.9228
 157   2.0000      -0.511080       -13.9072
 158   2.0000      -0.509375       -13.8608
 159   2.0000      -0.507345       -13.8056
 160   2.0000      -0.506828       -13.7915
 161   2.0000      -0.502313       -13.6686
 162   2.0000      -0.500532       -13.6202
 163   2.0000      -0.498806       -13.5732
 164   2.0000      -0.497277       -13.5316
 165   2.0000      -0.496493       -13.5103
 166   2.0000      -0.494977       -13.4690
 167   2.0000      -0.492249       -13.3948
 168   2.0000      -0.489491       -13.3197
 169   2.0000      -0.487598       -13.2682
 170   2.0000      -0.485729       -13.2174
 171   2.0000      -0.484908       -13.1950
 172   2.0000      -0.484453       -13.1826
 173   2.0000      -0.483498       -13.1567
 174   2.0000      -0.481207       -13.0943
 175   2.0000      -0.480604       -13.0779
 176   2.0000      -0.477182       -12.9848
 177   2.0000      -0.473018       -12.8715
 178   2.0000      -0.468624       -12.7519
 179   2.0000      -0.458917       -12.4878
 180   2.0000      -0.456780       -12.4296
 181   2.0000      -0.454625       -12.3710
 182   2.0000      -0.449886       -12.2420
 183   2.0000      -0.448931       -12.2160
 184   2.0000      -0.446066       -12.1381
 185   2.0000      -0.440665       -11.9911
 186   2.0000      -0.438990       -11.9455
 187   2.0000      -0.437835       -11.9141
 188   2.0000      -0.437120       -11.8946
 189   2.0000      -0.436866       -11.8877
 190   2.0000      -0.431159       -11.7324
 191   2.0000      -0.425918       -11.5898
 192   2.0000      -0.414641       -11.2830
 193   2.0000      -0.404283       -11.0011
 194   2.0000      -0.401189       -10.9169
 195   2.0000      -0.399242       -10.8639
 196   2.0000      -0.397546       -10.8178
 197   2.0000      -0.393132       -10.6977
 198   2.0000      -0.391165       -10.6441
 199   2.0000      -0.369876       -10.0648
 200   2.0000      -0.368266       -10.0210
 201   2.0000      -0.365565        -9.9475
 202   2.0000      -0.364813        -9.9271
 203   2.0000      -0.354275        -9.6403
 204   2.0000      -0.351765        -9.5720
 205   2.0000      -0.348656        -9.4874
 206   2.0000      -0.347769        -9.4633
 207   2.0000      -0.342728        -9.3261
 208   2.0000      -0.328590        -8.9414
 209   2.0000      -0.326546        -8.8858
 210   2.0000      -0.317444        -8.6381
 211   2.0000      -0.308682        -8.3997
 212   2.0000      -0.308085        -8.3834
 213   2.0000      -0.304920        -8.2973
 214   2.0000      -0.287981        -7.8364
 215   2.0000      -0.286627        -7.7995
 216   2.0000      -0.270571        -7.3626
 217   0.0000      -0.073551        -2.0014
 218   0.0000      -0.066825        -1.8184
 219   0.0000      -0.052601        -1.4313
 220   0.0000      -0.049269        -1.3407
 221   0.0000       0.004358         0.1186

MULLIKEN ATOMIC CHARGES
-----------------------
   0 C :    0.125670
   1 N :   -0.247428
   2 C :    0.165182
   3 O :   -0.146899
   4 C :   -0.209226
   5 C :   -0.202019
   6 C :    0.173901
   7 C :    0.220026
   8 C :   -0.258645
   9 C :   -0.180876
  10 S :    0.164123
  11 C :   -0.161332
  12 C :   -0.178784
  13 C :    0.165437
  14 C :    0.170151
  15 C :   -0.199334
  16 C :   -0.220071
  17 C :    0.170976
  18 C :    0.271838
  19 C :   -0.265504
  20 C :    0.196128
  21 O :   -0.174610
  22 N :   -0.246507
  23 C :    0.126549
  24 N :   -0.246657
  25 C :    0.127093
  26 C :    0.169065
  27 O :   -0.144563
  28 C :    0.165979
  29 O :   -0.144456
  30 N :   -0.242770
  31 C :    0.120132
  32 N :   -0.233449
  33 C :    0.125960
  34 C :    0.162076
  35 O :   -0.169925
  36 C :   -0.079505
  37 C :   -0.034157
  38 C :    0.162442
  39 C :   -0.072894
  40 C :   -0.252010
  41 N :    0.154430
  42 C :   -0.069173
  43 C :   -0.222223
  44 N :    0.116750
  45 C :    0.174076
  46 C :    0.160641
  47 O :   -0.148834
  48 N :   -0.242381
  49 C :    0.125224
  50 N :   -0.242938
  51 C :    0.128408
  52 C :    0.160496
  53 O :   -0.141071
  54 C :    0.167696
  55 C :    0.272068
  56 C :   -0.264663
  57 C :    0.196798
  58 O :   -0.174519
  59 N :   -0.247747
  60 C :    0.124312
  61 H :    0.059012
  62 H :    0.034845
  63 H :    0.037291
  64 H :   -0.013853
  65 H :    0.058577
  66 H :    0.038878
  67 H :    0.026153
  68 H :    0.034046
  69 H :    0.059708
  70 H :    0.037104
  71 H :    0.057819
  72 H :    0.048317
  73 H :    0.038509
  74 H :    0.031422
  75 H :    0.060747
  76 H :    0.042580
  77 H :    0.028585
  78 H :    0.045001
  79 H :    0.052241
  80 H :    0.049827
  81 H :    0.023895
  82 H :    0.078112
  83 H :    0.059956
  84 H :    0.030462
  85 H :    0.040249
  86 H :    0.035080
  87 H :    0.056360
  88 H :    0.039161
  89 H :   -0.012854
  90 H :    0.058311
  91 H :    0.028219
  92 H :    0.037784
Sum of atomic charges:    0.0000000

LOEWDIN ATOMIC CHARGES
----------------------
   0 C :    0.037818
   1 N :   -0.027614
   2 C :    0.100546
   3 O :   -0.153174
   4 C :   -0.114769
   5 C :   -0.107157
   6 C :    0.054034
   7 C :    0.063878
   8 C :   -0.141829
   9 C :   -0.177070
  10 S :    0.475859
  11 C :   -0.173336
  12 C :   -0.131611
  13 C :    0.056056
  14 C :    0.053829
  15 C :   -0.103270
  16 C :   -0.114432
  17 C :    0.056831
  18 C :    0.058071
  19 C :   -0.111826
  20 C :    0.092790
  21 O :   -0.162613
  22 N :   -0.032762
  23 C :    0.034132
  24 N :   -0.027766
  25 C :    0.037960
  26 C :    0.100860
  27 O :   -0.151760
  28 C :    0.100807
  29 O :   -0.149612
  30 N :   -0.022330
  31 C :    0.026933
  32 N :   -0.024955
  33 C :    0.036121
  34 C :    0.100375
  35 O :   -0.159862
  36 C :   -0.052412
  37 C :   -0.058523
  38 C :   -0.006311
  39 C :   -0.033768
  40 C :   -0.038108
  41 N :   -0.047658
  42 C :   -0.036470
  43 C :   -0.023072
  44 N :   -0.064531
  45 C :   -0.007321
  46 C :    0.091529
  47 O :   -0.158274
  48 N :   -0.029187
  49 C :    0.035948
  50 N :   -0.025539
  51 C :    0.036575
  52 C :    0.100100
  53 O :   -0.147267
  54 C :    0.056531
  55 C :    0.058122
  56 C :   -0.112145
  57 C :    0.092851
  58 O :   -0.162487
  59 N :   -0.032560
  60 C :    0.034248
  61 H :    0.042081
  62 H :    0.028007
  63 H :    0.029149
  64 H :    0.035585
  65 H :    0.041870
  66 H :    0.029487
  67 H :    0.022345
  68 H :    0.027918
  69 H :    0.042280
  70 H :    0.029161
  71 H :    0.040777
  72 H :    0.019560
  73 H :    0.027043
  74 H :    0.024176
  75 H :    0.042492
  76 H :    0.031568
  77 H :    0.036896
  78 H :    0.047397
  79 H :    0.060997
  80 H :    0.060754
  81 H :    0.038738
  82 H :    0.049554
  83 H :    0.042469
  84 H :    0.024275
  85 H :    0.030026
  86 H :    0.029798
  87 H :    0.042373
  88 H :    0.024489
  89 H :    0.035666
  90 H :    0.041899
  91 H :    0.022705
  92 H :    0.029044

  Mayer bond orders larger than 0.100000
B(  0-C ,  1-N ) :   0.9558 B(  0-C , 61-H ) :   0.9608 B(  0-C , 62-H ) :   0.9761
B(  0-C , 63-H ) :   0.9761 B(  1-N ,  2-C ) :   1.0248 B(  1-N , 55-C ) :   1.1402
B(  2-C ,  3-O ) :   2.2206 B(  2-C ,  4-C ) :   0.9208 B(  4-C ,  5-C ) :   0.9428
B(  4-C , 54-C ) :   1.7069 B(  5-C ,  6-C ) :   1.6945 B(  5-C , 52-C ) :   0.9204
B(  6-C ,  7-C ) :   1.0359 B(  6-C , 48-N ) :   1.1623 B(  7-C ,  8-C ) :   1.6346
B(  7-C , 50-N ) :   1.1764 B(  8-C ,  9-C ) :   0.9810 B(  8-C , 46-C ) :   0.9314
B(  9-C , 10-S ) :   1.1485 B(  9-C , 11-C ) :   0.1259 B(  9-C , 37-C ) :   1.6101
B( 10-S , 11-C ) :   1.1374 B( 11-C , 12-C ) :   1.0545 B( 11-C , 36-C ) :   1.5782
B( 12-C , 13-C ) :   1.5836 B( 12-C , 34-C ) :   0.9311 B( 13-C , 14-C ) :   1.0397
B( 13-C , 30-N ) :   1.1744 B( 14-C , 15-C ) :   1.7002 B( 14-C , 32-N ) :   1.1539
B( 15-C , 16-C ) :   0.9466 B( 15-C , 28-C ) :   0.9242 B( 16-C , 17-C ) :   1.7081
B( 16-C , 26-C ) :   0.9213 B( 17-C , 18-C ) :   1.0245 B( 17-C , 22-N ) :   1.1707
B( 18-C , 19-C ) :   1.5226 B( 18-C , 24-N ) :   1.1427 B( 19-C , 20-C ) :   0.9568
B( 19-C , 64-H ) :   1.0668 B( 20-C , 21-O ) :   2.1538 B( 20-C , 22-N ) :   0.9894
B( 22-N , 23-C ) :   0.9576 B( 23-C , 65-H ) :   0.9571 B( 23-C , 66-H ) :   0.9749
B( 23-C , 67-H ) :   0.9717 B( 24-N , 25-C ) :   0.9551 B( 24-N , 26-C ) :   1.0210
B( 25-C , 68-H ) :   0.9762 B( 25-C , 69-H ) :   0.9607 B( 25-C , 70-H ) :   0.9758
B( 26-C , 27-O ) :   2.2255 B( 28-C , 29-O ) :   2.2169 B( 28-C , 30-N ) :   1.0146
B( 30-N , 31-C ) :   0.9487 B( 31-C , 71-H ) :   0.9530 B( 31-C , 72-H ) :   0.9682
B( 31-C , 73-H ) :   0.9751 B( 32-N , 33-C ) :   0.9542 B( 32-N , 34-C ) :   1.0319
B( 33-C , 74-H ) :   0.9710 B( 33-C , 75-H ) :   0.9573 B( 33-C , 76-H ) :   0.9745
B( 34-C , 35-O ) :   2.1384 B( 36-C , 37-C ) :   1.2726 B( 36-C , 45-C ) :   1.0441
B( 37-C , 38-C ) :   1.0449 B( 38-C , 39-C ) :   1.0633 B( 38-C , 77-H ) :   0.8970
B( 38-C , 78-H ) :   0.9071 B( 39-C , 40-C ) :   1.1191 B( 39-C , 42-C ) :   1.0783
B( 39-C , 79-H ) :   0.8584 B( 40-C , 41-N ) :   3.1025 B( 42-C , 43-C ) :   1.0986
B( 42-C , 45-C ) :   1.0490 B( 42-C , 80-H ) :   0.8485 B( 43-C , 44-N ) :   3.0476
B( 45-C , 81-H ) :   0.9141 B( 45-C , 82-H ) :   0.8838 B( 46-C , 47-O ) :   2.2253
B( 46-C , 48-N ) :   1.0054 B( 48-N , 49-C ) :   0.9560 B( 49-C , 83-H ) :   0.9573
B( 49-C , 84-H ) :   0.9725 B( 49-C , 85-H ) :   0.9741 B( 50-N , 51-C ) :   0.9397
B( 50-N , 52-C ) :   1.0128 B( 51-C , 86-H ) :   0.9716 B( 51-C , 87-H ) :   0.9532
B( 51-C , 88-H ) :   0.9666 B( 52-C , 53-O ) :   2.2238 B( 54-C , 55-C ) :   1.0219
B( 54-C , 59-N ) :   1.1711 B( 55-C , 56-C ) :   1.5246 B( 56-C , 57-C ) :   0.9551
B( 56-C , 89-H ) :   1.0672 B( 57-C , 58-O ) :   2.1541 B( 57-C , 59-N ) :   0.9918
B( 59-N , 60-C ) :   0.9590 B( 60-C , 90-H ) :   0.9574 B( 60-C , 91-H ) :   0.9720
B( 60-C , 92-H ) :   0.9746

-----------------------------------------------------------------------------
         ABSORPTION SPECTRUM VIA TRANSITION ELECTRIC DIPOLE MOMENTS
-----------------------------------------------------------------------------
State   Energy  Wavelength   fosc         T2         TX        TY        TZ
        (cm-1)    (nm)                  (au**2)     (au)      (au)      (au)
-----------------------------------------------------------------------------
   0   23750.8    421.0   0.129369406   1.79320  -0.38444  -0.91206   0.90197
   1   25543.0    391.5   0.008745587   0.11272   0.17816   0.24452  -0.14556
   2   26288.4    380.4   0.489164947   6.12585  -1.20136  -1.56721   1.49212
   3   27078.0    369.3   0.056913181   0.69195   0.26350   0.73837   0.27807
   4   28807.6    347.1   0.096777492   1.10597   0.37304   0.81480  -0.55037
   5   28971.2    345.2   0.050943332   0.57889  -0.12976  -0.00858   0.74965
   6   31769.8    314.8   0.035774788   0.37071   0.05717   0.60499   0.03779
   7   32340.3    309.2   0.011334680   0.11538   0.12809   0.19949  -0.24327
   8   32512.1    307.6   0.142772405   1.44569   0.78312   0.54397  -0.73247
   9   33767.5    296.1   0.164079397   1.59967  -0.38900  -1.04110   0.60371
  10   34308.5    291.5   0.000842273   0.00808   0.06081   0.00795  -0.06573
  11   34389.0    290.8   0.082723012   0.79192  -0.79592  -0.21440   0.33537
  12   34452.5    290.3   0.015246539   0.14569   0.29092   0.24708   0.00282
  13   34923.2    286.3   0.059574505   0.56159   0.06081   0.01569   0.74676
  14   35641.7    280.6   0.015735358   0.14534  -0.08495   0.33797   0.15460
  15   35769.9    279.6   0.042735405   0.39332  -0.23876  -0.26495   0.51586
  16   35961.2    278.1   0.023830634   0.21816   0.21137   0.31157  -0.27642
  17   36194.8    276.3   0.011235440   0.10219  -0.20235   0.06799   0.23796
  18   36811.0    271.7   0.144144644   1.28913   0.60161   0.85914  -0.43482
  19   37240.6    268.5   0.046258449   0.40893   0.59905  -0.10496  -0.19762
  20   37856.9    264.2   0.020342752   0.17690   0.30169   0.19530   0.21851
  21   37890.0    263.9   0.014593273   0.12680  -0.00043   0.12699  -0.33267
  22   38342.8    260.8   0.113922589   0.97814   0.30018   0.12335   0.93425
  23   39530.8    253.0   0.141634848   1.17953   0.11273   1.03111  -0.32192

FINAL SINGLE POINT ENERGY     -3163.822949312283

DIPOLE MOMENT
-------------
                                X             Y             Z
Electronic contribution:     -2.13739       2.14941      -0.79117
Nuclear contribution   :      2.10101      -2.13697       0.30772
                        -----------------------------------------
Total Dipole Moment    :     -0.03637       0.01244      -0.48346
                        -----------------------------------------
Magnitude (a.u.)       :      0.48498
Magnitude (Debye)      :      1.23273

Rotational constants in cm-1:     0.003020     0.000512     0.000480
Rotational constants in MHz :    90.523117    15.341525    14.394337

                             ****ORCA TERMINATED NORMALLY****
TOTAL RUN TIME: 0 days 0 hours 7 minutes 2 seconds 179 msec
