                         Program Version 4.2.0 -  RELEASE  -
|  1> # ORCA input file
|  2> # SCF done       -147.977252266270          0.000709340433
|  3> ! CAM-B3LYP def2-SVP def2/J RIJCOSX Grid4 TightSCF
|  4> %maxcore 5000
|  5> %tddft
|  6>     Mode sTDDFT
|  7>     Ethresh 5.0
|  8>     maxcore 5000
|  9> end
| 10>
| 11> %pal
| 12>   nprocs 6
| 13>   end
| 14> * xyz 0 1
| 15>    C        4.64538        -3.51661        -4.02150
| 16>    C        4.23012        -2.36895        -3.10815
| 17>    N        3.83276        -1.20681        -3.87427
| 18>    C        2.54166        -1.00987        -4.34688
| 19>    O        1.61223        -1.74905        -4.14540
| 20>    C        2.59107         0.26314        -5.10451
| 21>    C        1.61265         0.94654        -5.79828
| 22>    C        1.97353         2.12657        -6.43180
| 23>    C        3.27722         2.63631        -6.37341
| 24>    C        3.56958         3.87068        -7.07003
| 25>    C        4.69209         4.60074        -6.95856
| 26>    C        4.90616         5.80713        -7.71628
| 27>    N        6.06001         6.47172        -7.52364
| 28>    C        6.27844         7.51369        -8.27754
| 29>    C        5.36772         7.88015        -9.29727
| 30>    C        5.65020         8.90741       -10.26105
| 31>    C        4.74126         9.28324       -11.20651
| 32>    C        5.17798        10.29342       -12.13290
| 33>    C        6.44158        10.74931       -11.95961
| 34>    C        7.06305        11.74413       -12.81041
| 35>    C        8.12976        11.42937       -13.67105
| 36>    C        8.65060        10.06861       -13.83167
| 37>    O        8.27667         9.06896       -13.28616
| 38>    S        9.99283        10.09348       -15.02500
| 39>    C        9.84061        11.86510       -15.31787
| 40>    O       10.53398        12.46758       -16.07940
| 41>    C        8.74863        12.38708       -14.47747
| 42>    C        8.34600        13.71833       -14.48367
| 43>    C        7.29434        14.03502       -13.64425
| 44>    C        6.62282        15.33523       -13.42377
| 45>    O        6.84227        16.40332       -13.93066
| 46>    N        5.62604        15.09031       -12.46895
| 47>    C        4.79024        16.12478       -12.05707
| 48>    C        3.78871        16.01873       -11.17438
| 49>    C        2.94554        17.11312       -10.80182
| 50>    C        2.96507        18.42195       -11.22370
| 51>    C        1.95528        19.18025       -10.62247
| 52>    S        1.47767        20.85057       -10.75042
| 53>    C        0.19742        20.56779        -9.60633
| 54>    C       -0.79986        21.38539        -9.04158
| 55>    C       -1.57999        20.68326        -8.17950
| 56>    S       -1.13100        19.01808        -8.02850
| 57>    C        0.15335        19.24937        -9.15731
| 58>    C        1.15571        18.45587        -9.73587
| 59>    S        1.66130        16.81267        -9.64352
| 60>    C        5.60789        13.75733       -12.04895
| 61>    O        4.87761        13.28714       -11.21372
| 62>    C        6.67093        13.08325       -12.83060
| 63>   Si        7.21177         9.91579       -10.46119
| 64>    N        4.20109         7.22491        -9.34143
| 65>    N        3.96447         6.23794        -8.55974
| 66>    C        4.26018         1.92787        -5.66055
| 67>    C        3.89956         0.75443        -5.04358
| 68>    C        4.71132        -0.20182        -4.24695
| 69>    O        5.87848        -0.15536        -3.95378
| 70>    H        4.94180        -4.37362        -3.42350
| 71>    H        5.48513        -3.21630        -4.64407
| 72>    H        3.81495        -3.80611        -4.66139
| 73>    H        5.06432        -2.06804        -2.47001
| 74>    H        3.37716        -2.66369        -2.49221
| 75>    H        0.60370         0.56783        -5.84648
| 76>    H        1.22782         2.67835        -6.98519
| 77>    H        2.79949         4.23874        -7.73568
| 78>    H        5.50512         4.33497        -6.30006
| 79>    H        7.17663         8.08883        -8.09250
| 80>    H        3.75582         8.84989       -11.27562
| 81>    H        4.53019        10.62191       -12.93176
| 82>    H        8.82653        14.45104       -15.11157
| 83>    H        5.03770        17.05416       -12.55058
| 84>    H        3.57559        15.07068       -10.70419
| 85>    H        3.66923        18.81777       -11.93065
| 86>    H       -0.92673        22.42829        -9.26463
| 87>    H       -2.41231        21.04171        -7.60740
| 88>    H        7.38163        10.90032        -9.38690
| 89>    H        8.43847         9.16395       -10.68292
| 90>    H        5.27855         2.27688        -5.60720
| 91> *
| 92>
| 93>                          ****END OF INPUT****

CARTESIAN COORDINATES (ANGSTROEM)
---------------------------------
  C      4.645380   -3.516610   -4.021500
  C      4.230120   -2.368950   -3.108150
  N      3.832760   -1.206810   -3.874270
  C      2.541660   -1.009870   -4.346880
  O      1.612230   -1.749050   -4.145400
  C      2.591070    0.263140   -5.104510
  C      1.612650    0.946540   -5.798280
  C      1.973530    2.126570   -6.431800
  C      3.277220    2.636310   -6.373410
  C      3.569580    3.870680   -7.070030
  C      4.692090    4.600740   -6.958560
  C      4.906160    5.807130   -7.716280
  N      6.060010    6.471720   -7.523640
  C      6.278440    7.513690   -8.277540
  C      5.367720    7.880150   -9.297270
  C      5.650200    8.907410  -10.261050
  C      4.741260    9.283240  -11.206510
  C      5.177980   10.293420  -12.132900
  C      6.441580   10.749310  -11.959610
  C      7.063050   11.744130  -12.810410
  C      8.129760   11.429370  -13.671050
  C      8.650600   10.068610  -13.831670
  O      8.276670    9.068960  -13.286160
  S      9.992830   10.093480  -15.025000
  C      9.840610   11.865100  -15.317870
  O     10.533980   12.467580  -16.079400
  C      8.748630   12.387080  -14.477470
  C      8.346000   13.718330  -14.483670
  C      7.294340   14.035020  -13.644250
  C      6.622820   15.335230  -13.423770
  O      6.842270   16.403320  -13.930660
  N      5.626040   15.090310  -12.468950
  C      4.790240   16.124780  -12.057070
  C      3.788710   16.018730  -11.174380
  C      2.945540   17.113120  -10.801820
  C      2.965070   18.421950  -11.223700
  C      1.955280   19.180250  -10.622470
  S      1.477670   20.850570  -10.750420
  C      0.197420   20.567790   -9.606330
  C     -0.799860   21.385390   -9.041580
  C     -1.579990   20.683260   -8.179500
  S     -1.131000   19.018080   -8.028500
  C      0.153350   19.249370   -9.157310
  C      1.155710   18.455870   -9.735870
  S      1.661300   16.812670   -9.643520
  C      5.607890   13.757330  -12.048950
  O      4.877610   13.287140  -11.213720
  C      6.670930   13.083250  -12.830600
  Si     7.211770    9.915790  -10.461190
  N      4.201090    7.224910   -9.341430
  N      3.964470    6.237940   -8.559740
  C      4.260180    1.927870   -5.660550
  C      3.899560    0.754430   -5.043580
  C      4.711320   -0.201820   -4.246950
  O      5.878480   -0.155360   -3.953780
  H      4.941800   -4.373620   -3.423500
  H      5.485130   -3.216300   -4.644070
  H      3.814950   -3.806110   -4.661390
  H      5.064320   -2.068040   -2.470010
  H      3.377160   -2.663690   -2.492210
  H      0.603700    0.567830   -5.846480
  H      1.227820    2.678350   -6.985190
  H      2.799490    4.238740   -7.735680
  H      5.505120    4.334970   -6.300060
  H      7.176630    8.088830   -8.092500
  H      3.755820    8.849890  -11.275620
  H      4.530190   10.621910  -12.931760
  H      8.826530   14.451040  -15.111570
  H      5.037700   17.054160  -12.550580
  H      3.575590   15.070680  -10.704190
  H      3.669230   18.817770  -11.930650
  H     -0.926730   22.428290   -9.264630
  H     -2.412310   21.041710   -7.607400
  H      7.381630   10.900320   -9.386900
  H      8.438470    9.163950  -10.682920
  H      5.278550    2.276880   -5.607200

 Total Charge           Charge          ....    0
 Multiplicity           Mult            ....    1
 Number of Electrons    NEL             ....  416
 Basis Dimension        Dim             ....  895

ORBITAL ENERGIES
----------------

  NO   OCC          E(Eh)            E(eV)
   0   2.0000     -88.959243     -2420.7041
   1   2.0000     -88.957268     -2420.6503
   2   2.0000     -88.955776     -2420.6097
   3   2.0000     -88.952134     -2420.5106
   4   2.0000     -66.207406     -1801.5951
   5   2.0000     -19.252930      -523.8988
   6   2.0000     -19.252744      -523.8938
   7   2.0000     -19.241112      -523.5773
   8   2.0000     -19.238322      -523.5013
   9   2.0000     -19.206720      -522.6414
  10   2.0000     -19.206363      -522.6317
  11   2.0000     -14.490263      -394.3001
  12   2.0000     -14.451271      -393.2391
  13   2.0000     -14.447719      -393.1424
  14   2.0000     -14.443878      -393.0379
  15   2.0000     -14.428888      -392.6300
  16   2.0000     -10.419642      -283.5329
  17   2.0000     -10.419290      -283.5233
  18   2.0000     -10.413932      -283.3775
  19   2.0000     -10.413712      -283.3715
  20   2.0000     -10.386283      -282.6251
  21   2.0000     -10.386112      -282.6205
  22   2.0000     -10.346140      -281.5328
  23   2.0000     -10.342965      -281.4464
  24   2.0000     -10.335322      -281.2384
  25   2.0000     -10.332443      -281.1601
  26   2.0000     -10.332267      -281.1553
  27   2.0000     -10.331961      -281.1469
  28   2.0000     -10.330406      -281.1046
  29   2.0000     -10.329461      -281.0789
  30   2.0000     -10.324693      -280.9492
  31   2.0000     -10.321249      -280.8555
  32   2.0000     -10.304423      -280.3976
  33   2.0000     -10.301179      -280.3093
  34   2.0000     -10.300993      -280.3043
  35   2.0000     -10.299379      -280.2603
  36   2.0000     -10.298677      -280.2412
  37   2.0000     -10.297255      -280.2026
  38   2.0000     -10.295770      -280.1621
  39   2.0000     -10.295412      -280.1524
  40   2.0000     -10.294111      -280.1170
  41   2.0000     -10.293279      -280.0944
  42   2.0000     -10.292967      -280.0859
  43   2.0000     -10.291890      -280.0566
  44   2.0000     -10.290900      -280.0296
  45   2.0000     -10.290460      -280.0176
  46   2.0000     -10.290300      -280.0133
  47   2.0000     -10.286945      -279.9220
  48   2.0000     -10.285811      -279.8911
  49   2.0000     -10.283864      -279.8382
  50   2.0000     -10.280766      -279.7539
  51   2.0000     -10.279698      -279.7248
  52   2.0000     -10.278747      -279.6989
  53   2.0000     -10.273549      -279.5575
  54   2.0000     -10.254932      -279.0509
  55   2.0000      -8.058314      -219.2779
  56   2.0000      -8.052566      -219.1215
  57   2.0000      -8.051247      -219.0856
  58   2.0000      -8.047422      -218.9815
  59   2.0000      -6.027192      -164.0082
  60   2.0000      -6.023930      -163.9195
  61   2.0000      -6.022061      -163.8686
  62   2.0000      -6.020859      -163.8359
  63   2.0000      -6.019355      -163.7950
  64   2.0000      -6.018045      -163.7593
  65   2.0000      -6.017142      -163.7347
  66   2.0000      -6.016527      -163.7180
  67   2.0000      -6.014194      -163.6545
  68   2.0000      -6.013336      -163.6312
  69   2.0000      -6.012972      -163.6213
  70   2.0000      -6.008391      -163.4966
  71   2.0000      -5.377223      -146.3217
  72   2.0000      -3.740354      -101.7802
  73   2.0000      -3.738873      -101.7399
  74   2.0000      -3.738310      -101.7246
  75   2.0000      -1.186048       -32.2740
  76   2.0000      -1.176252       -32.0075
  77   2.0000      -1.172233       -31.8981
  78   2.0000      -1.161872       -31.6162
  79   2.0000      -1.152522       -31.3617
  80   2.0000      -1.144291       -31.1377
  81   2.0000      -1.129030       -30.7225
  82   2.0000      -1.079180       -29.3660
  83   2.0000      -1.043331       -28.3905
  84   2.0000      -1.027348       -27.9556
  85   2.0000      -1.021201       -27.7883
  86   2.0000      -1.012162       -27.5423
  87   2.0000      -0.974289       -26.5117
  88   2.0000      -0.972888       -26.4736
  89   2.0000      -0.962257       -26.1843
  90   2.0000      -0.956341       -26.0234
  91   2.0000      -0.937134       -25.5007
  92   2.0000      -0.921582       -25.0775
  93   2.0000      -0.911789       -24.8111
  94   2.0000      -0.902639       -24.5620
  95   2.0000      -0.900156       -24.4945
  96   2.0000      -0.874627       -23.7998
  97   2.0000      -0.869585       -23.6626
  98   2.0000      -0.853070       -23.2132
  99   2.0000      -0.845040       -22.9947
 100   2.0000      -0.835154       -22.7257
 101   2.0000      -0.828383       -22.5414
 102   2.0000      -0.814976       -22.1766
 103   2.0000      -0.803344       -21.8601
 104   2.0000      -0.800281       -21.7768
 105   2.0000      -0.783058       -21.3081
 106   2.0000      -0.781402       -21.2630
 107   2.0000      -0.778097       -21.1731
 108   2.0000      -0.759172       -20.6581
 109   2.0000      -0.756026       -20.5725
 110   2.0000      -0.751493       -20.4492
 111   2.0000      -0.746145       -20.3036
 112   2.0000      -0.728041       -19.8110
 113   2.0000      -0.710457       -19.3325
 114   2.0000      -0.704579       -19.1726
 115   2.0000      -0.697293       -18.9743
 116   2.0000      -0.695577       -18.9276
 117   2.0000      -0.686834       -18.6897
 118   2.0000      -0.669416       -18.2157
 119   2.0000      -0.660870       -17.9832
 120   2.0000      -0.650503       -17.7011
 121   2.0000      -0.649219       -17.6662
 122   2.0000      -0.637295       -17.3417
 123   2.0000      -0.634146       -17.2560
 124   2.0000      -0.631801       -17.1922
 125   2.0000      -0.626940       -17.0599
 126   2.0000      -0.622709       -16.9448
 127   2.0000      -0.617767       -16.8103
 128   2.0000      -0.603357       -16.4182
 129   2.0000      -0.601045       -16.3553
 130   2.0000      -0.595192       -16.1960
 131   2.0000      -0.593391       -16.1470
 132   2.0000      -0.592617       -16.1259
 133   2.0000      -0.586264       -15.9531
 134   2.0000      -0.580058       -15.7842
 135   2.0000      -0.573994       -15.6192
 136   2.0000      -0.573015       -15.5925
 137   2.0000      -0.562142       -15.2967
 138   2.0000      -0.561358       -15.2753
 139   2.0000      -0.558836       -15.2067
 140   2.0000      -0.556689       -15.1483
 141   2.0000      -0.554158       -15.0794
 142   2.0000      -0.549758       -14.9597
 143   2.0000      -0.547487       -14.8979
 144   2.0000      -0.543963       -14.8020
 145   2.0000      -0.541485       -14.7346
 146   2.0000      -0.534317       -14.5395
 147   2.0000      -0.531137       -14.4530
 148   2.0000      -0.529508       -14.4086
 149   2.0000      -0.526248       -14.3199
 150   2.0000      -0.521166       -14.1816
 151   2.0000      -0.518267       -14.1028
 152   2.0000      -0.516972       -14.0675
 153   2.0000      -0.510864       -13.9013
 154   2.0000      -0.510192       -13.8830
 155   2.0000      -0.508547       -13.8383
 156   2.0000      -0.505131       -13.7453
 157   2.0000      -0.503018       -13.6878
 158   2.0000      -0.502516       -13.6741
 159   2.0000      -0.498779       -13.5725
 160   2.0000      -0.492448       -13.4002
 161   2.0000      -0.483482       -13.1562
 162   2.0000      -0.481486       -13.1019
 163   2.0000      -0.479083       -13.0365
 164   2.0000      -0.478146       -13.0110
 165   2.0000      -0.475392       -12.9361
 166   2.0000      -0.473935       -12.8964
 167   2.0000      -0.466214       -12.6863
 168   2.0000      -0.462468       -12.5844
 169   2.0000      -0.461216       -12.5503
 170   2.0000      -0.457796       -12.4573
 171   2.0000      -0.450944       -12.2708
 172   2.0000      -0.448820       -12.2130
 173   2.0000      -0.447648       -12.1811
 174   2.0000      -0.441134       -12.0039
 175   2.0000      -0.440552       -11.9880
 176   2.0000      -0.432170       -11.7599
 177   2.0000      -0.430643       -11.7184
 178   2.0000      -0.425435       -11.5767
 179   2.0000      -0.424491       -11.5510
 180   2.0000      -0.421935       -11.4814
 181   2.0000      -0.417064       -11.3489
 182   2.0000      -0.414420       -11.2769
 183   2.0000      -0.407761       -11.0957
 184   2.0000      -0.405760       -11.0413
 185   2.0000      -0.401745       -10.9320
 186   2.0000      -0.396805       -10.7976
 187   2.0000      -0.388535       -10.5726
 188   2.0000      -0.386446       -10.5157
 189   2.0000      -0.381141       -10.3714
 190   2.0000      -0.380277       -10.3479
 191   2.0000      -0.374356       -10.1867
 192   2.0000      -0.367685       -10.0052
 193   2.0000      -0.367256        -9.9935
 194   2.0000      -0.360214        -9.8019
 195   2.0000      -0.358266        -9.7489
 196   2.0000      -0.354633        -9.6501
 197   2.0000      -0.351854        -9.5744
 198   2.0000      -0.344854        -9.3839
 199   2.0000      -0.338246        -9.2041
 200   2.0000      -0.335485        -9.1290
 201   2.0000      -0.327934        -8.9235
 202   2.0000      -0.317904        -8.6506
 203   2.0000      -0.310802        -8.4574
 204   2.0000      -0.293035        -7.9739
 205   2.0000      -0.279008        -7.5922
 206   2.0000      -0.273366        -7.4387
 207   2.0000      -0.247907        -6.7459
 208   0.0000      -0.102763        -2.7963
 209   0.0000      -0.075840        -2.0637
 210   0.0000      -0.058195        -1.5836
 211   0.0000      -0.042464        -1.1555
 212   0.0000      -0.029421        -0.8006

MULLIKEN ATOMIC CHARGES
-----------------------
   0 C :   -0.009369
   1 C :    0.134932
   2 N :   -0.301991
   3 C :    0.185379
   4 O :   -0.159635
   5 C :   -0.002944
   6 C :   -0.025510
   7 C :   -0.008604
   8 C :    0.123366
   9 C :    0.011779
  10 C :    0.048183
  11 C :   -0.066094
  12 N :   -0.018838
  13 C :   -0.000376
  14 C :    0.021482
  15 C :   -0.162441
  16 C :    0.006484
  17 C :    0.070485
  18 C :   -0.233404
  19 C :    0.029010
  20 C :    0.043179
  21 C :    0.038453
  22 O :   -0.123572
  23 S :    0.015561
  24 C :    0.043918
  25 O :   -0.112921
  26 C :    0.060541
  27 C :   -0.074489
  28 C :    0.025887
  29 C :    0.188964
  30 O :   -0.133350
  31 N :   -0.229547
  32 C :    0.064112
  33 C :    0.051636
  34 C :   -0.089787
  35 C :   -0.024697
  36 C :   -0.043822
  37 S :    0.141984
  38 C :   -0.055237
  39 C :    0.019532
  40 C :   -0.078895
  41 S :    0.138918
  42 C :   -0.101102
  43 C :   -0.076268
  44 S :    0.146802
  45 C :    0.204871
  46 O :   -0.138017
  47 C :   -0.022152
  48 Si:    0.522201
  49 N :   -0.044874
  50 N :   -0.052457
  51 C :   -0.072345
  52 C :    0.011145
  53 C :    0.188382
  54 O :   -0.158340
  55 H :    0.021077
  56 H :    0.025673
  57 H :    0.027727
  58 H :    0.031281
  59 H :    0.029777
  60 H :   -0.001311
  61 H :   -0.006619
  62 H :    0.010861
  63 H :   -0.005725
  64 H :    0.014558
  65 H :    0.010224
  66 H :   -0.008426
  67 H :    0.020410
  68 H :    0.026879
  69 H :    0.015983
  70 H :   -0.018064
  71 H :   -0.010169
  72 H :    0.028678
  73 H :   -0.065301
  74 H :   -0.056726
  75 H :   -0.006894
Sum of atomic charges:    0.0000000

LOEWDIN ATOMIC CHARGES
----------------------
   0 C :   -0.059849
   1 C :    0.044524
   2 N :   -0.036805
   3 C :    0.087694
   4 O :   -0.159395
   5 C :   -0.050896
   6 C :    0.011245
   7 C :    0.002514
   8 C :   -0.013702
   9 C :    0.019968
  10 C :   -0.033454
  11 C :    0.000183
  12 N :   -0.055637
  13 C :    0.028662
  14 C :   -0.041337
  15 C :   -0.185689
  16 C :    0.029272
  17 C :    0.009059
  18 C :   -0.164668
  19 C :    0.030667
  20 C :   -0.062018
  21 C :   -0.042704
  22 O :   -0.108867
  23 S :    0.301488
  24 C :   -0.043347
  25 O :   -0.105957
  26 C :   -0.051794
  27 C :    0.038534
  28 C :   -0.028651
  29 C :    0.096850
  30 O :   -0.131105
  31 N :   -0.011378
  32 C :    0.021128
  33 C :   -0.054943
  34 C :   -0.164455
  35 C :   -0.067387
  36 C :   -0.192844
  37 S :    0.398469
  38 C :   -0.198557
  39 C :   -0.072862
  40 C :   -0.176304
  41 S :    0.423048
  42 C :   -0.223789
  43 C :   -0.220184
  44 S :    0.428402
  45 C :    0.099994
  46 O :   -0.128479
  47 C :   -0.034483
  48 Si:    0.554881
  49 N :   -0.019494
  50 N :   -0.050484
  51 C :    0.022311
  52 C :   -0.048813
  53 C :    0.088056
  54 O :   -0.159023
  55 H :    0.029744
  56 H :    0.027814
  57 H :    0.028258
  58 H :    0.032020
  59 H :    0.031700
  60 H :    0.040561
  61 H :    0.034200
  62 H :    0.036250
  63 H :    0.034245
  64 H :    0.025776
  65 H :    0.034652
  66 H :    0.027646
  67 H :    0.052533
  68 H :    0.031864
  69 H :    0.033879
  70 H :    0.031672
  71 H :    0.033773
  72 H :    0.023971
  73 H :   -0.085278
  74 H :   -0.080737
  75 H :    0.037863

  Mayer bond orders larger than 0.100000
B(  0-C ,  1-C ) :   1.1231 B(  0-C , 55-H ) :   0.9703 B(  0-C , 56-H ) :   0.9697
B(  0-C , 57-H ) :   0.9700 B(  1-C ,  2-N ) :   0.9193 B(  1-C , 58-H ) :   0.9425
B(  1-C , 59-H ) :   0.9431 B(  2-N ,  3-C ) :   1.0601 B(  2-N , 53-C ) :   1.0679
B(  3-C ,  4-O ) :   2.2247 B(  3-C ,  5-C ) :   0.8863 B(  5-C ,  6-C ) :   1.4011
B(  5-C , 52-C ) :   1.3557 B(  6-C ,  7-C ) :   1.3408 B(  6-C , 60-H ) :   1.0073
B(  7-C ,  8-C ) :   1.3584 B(  7-C , 61-H ) :   0.9994 B(  8-C ,  9-C ) :   1.0313
B(  8-C , 51-C ) :   1.2902 B(  9-C , 10-C ) :   1.7166 B(  9-C , 62-H ) :   0.9801
B( 10-C , 11-C ) :   1.0603 B( 10-C , 63-H ) :   0.9600 B( 11-C , 12-N ) :   1.4760
B( 11-C , 50-N ) :   1.5190 B( 12-N , 13-C ) :   1.6266 B( 13-C , 14-C ) :   1.2576
B( 13-C , 64-H ) :   0.9711 B( 14-C , 15-C ) :   1.0591 B( 14-C , 49-N ) :   1.5264
B( 15-C , 16-C ) :   1.7295 B( 15-C , 48-Si) :   0.9219 B( 16-C , 17-C ) :   1.0593
B( 16-C , 65-H ) :   0.9991 B( 17-C , 18-C ) :   1.7889 B( 17-C , 66-H ) :   0.9944
B( 18-C , 19-C ) :   1.0125 B( 18-C , 48-Si) :   0.8651 B( 19-C , 20-C ) :   1.3834
B( 19-C , 47-C ) :   1.4195 B( 20-C , 21-C ) :   0.8598 B( 20-C , 26-C ) :   1.3350
B( 21-C , 22-O ) :   2.1489 B( 21-C , 23-S ) :   1.0313 B( 22-O , 23-S ) :   0.1068
B( 23-S , 24-C ) :   1.0207 B( 23-S , 25-O ) :   0.1077 B( 24-C , 25-O ) :   2.2305
B( 24-C , 26-C ) :   0.8361 B( 26-C , 27-C ) :   1.3249 B( 27-C , 28-C ) :   1.3375
B( 27-C , 67-H ) :   1.0283 B( 28-C , 29-C ) :   0.8693 B( 28-C , 47-C ) :   1.3684
B( 29-C , 30-O ) :   2.2330 B( 29-C , 31-N ) :   1.0323 B( 31-N , 32-C ) :   1.0063
B( 31-N , 45-C ) :   1.0404 B( 32-C , 33-C ) :   1.7516 B( 32-C , 68-H ) :   0.9686
B( 33-C , 34-C ) :   1.0865 B( 33-C , 69-H ) :   0.9534 B( 34-C , 35-C ) :   1.5417
B( 34-C , 44-S ) :   1.1002 B( 35-C , 36-C ) :   1.2641 B( 35-C , 70-H ) :   0.9949
B( 36-C , 37-S ) :   1.0516 B( 36-C , 43-C ) :   1.4799 B( 37-S , 38-C ) :   1.0522
B( 38-C , 39-C ) :   1.2583 B( 38-C , 42-C ) :   1.4835 B( 39-C , 40-C ) :   1.5955
B( 39-C , 71-H ) :   1.0004 B( 40-C , 41-S ) :   1.1402 B( 40-C , 72-H ) :   0.9686
B( 41-S , 42-C ) :   1.0807 B( 42-C , 43-C ) :   1.2975 B( 43-C , 44-S ) :   1.0749
B( 45-C , 46-O ) :   2.1691 B( 45-C , 47-C ) :   0.8913 B( 48-Si, 73-H ) :   0.9527
B( 48-Si, 74-H ) :   0.9571 B( 49-N , 50-N ) :   1.3529 B( 51-C , 52-C ) :   1.4170
B( 51-C , 75-H ) :   1.0058 B( 52-C , 53-C ) :   0.8742 B( 53-C , 54-O ) :   2.2251

-----------------------------------------------------------------------------
         ABSORPTION SPECTRUM VIA TRANSITION ELECTRIC DIPOLE MOMENTS
-----------------------------------------------------------------------------
State   Energy  Wavelength   fosc         T2         TX        TY        TZ
        (cm-1)    (nm)                  (au**2)     (au)      (au)      (au)
-----------------------------------------------------------------------------
   0   17282.8    578.6   0.002683204   0.05111   0.05918   0.18300  -0.11883
   1   19986.2    500.3   0.006954992   0.11456  -0.25727   0.00718   0.21982
   2   22673.7    441.0   0.011910043   0.17293  -0.02812  -0.41183   0.05033
   3   25392.4    393.8   0.724902582   9.39834  -1.01741   2.88765  -0.15717
   4   25991.3    384.7   0.021037090   0.26646   0.23264  -0.13278  -0.44126
   5   26568.7    376.4   0.896287814  11.10587  -1.56916  -1.97977   2.17350
   6   27581.5    362.6   0.000009539   0.00011   0.00538  -0.00900  -0.00199
   7   28675.0    348.7   0.009093419   0.10440   0.17886   0.10602  -0.24732
   8   28844.2    346.7   0.012990274   0.14826  -0.25288  -0.05618   0.28488
   9   29371.5    340.5   0.447134016   5.01173   1.67836  -0.91328  -1.16652
  10   30483.8    328.0   0.523607685   5.65474  -0.44747  -2.06582   1.08945
  11   31834.5    314.1   0.006168846   0.06379   0.12902   0.16031  -0.14645
  12   32007.9    312.4   0.032089996   0.33006   0.36702  -0.42887  -0.10689
  13   32551.8    307.2   0.159935059   1.61750   0.83567  -0.82010  -0.49658
  14   33077.0    302.3   0.001476419   0.01469  -0.03203   0.11635  -0.01150
  15   33474.5    298.7   0.148536984   1.46082   0.84864  -0.60196  -0.61504
  16   33848.3    295.4   0.028488678   0.27708  -0.12976   0.45023  -0.23988
  17   34087.9    293.4   0.099587867   0.96179   0.47625  -0.85063  -0.10684
  18   34211.8    292.3   0.143759067   1.38336  -0.92204   0.33883   0.64683
  19   34611.0    288.9   0.098603228   0.93789  -0.80588   0.23712   0.48190
  20   34711.9    288.1   0.001272849   0.01207  -0.06236  -0.01591  -0.08905
  21   35469.3    281.9   0.030901441   0.28681  -0.13439   0.10236  -0.50821
  22   35767.5    279.6   0.020094941   0.18496  -0.05546   0.42632  -0.01150
  23   35988.5    277.9   0.012205548   0.11165  -0.08140   0.32269  -0.02998
  24   36685.8    272.6   0.001921701   0.01725   0.13085   0.00256  -0.01082
  25   36746.9    272.1   0.003122824   0.02798  -0.09561   0.13055   0.04234
  26   37124.5    269.4   0.063900187   0.56665  -0.36695  -0.48227   0.44656
  27   37177.6    269.0   0.003186736   0.02822   0.09321   0.13808  -0.02159
  28   37972.4    263.3   0.018793001   0.16293  -0.26683  -0.03155  -0.30122
  29   38180.7    261.9   0.000079517   0.00069   0.01588   0.01560  -0.01379
  30   39110.8    255.7   0.001069553   0.00900   0.01274   0.07873  -0.05141
  31   40086.9    249.5   0.076932663   0.63181  -0.21783  -0.73690   0.20330

FINAL SINGLE POINT ENERGY     -4102.875102238354

DIPOLE MOMENT
-------------
                                X             Y             Z
Electronic contribution:      7.51806      62.80783     -33.69715
Nuclear contribution   :     -7.69032     -61.43825      33.26682
                        -----------------------------------------
Total Dipole Moment    :     -0.17227       1.36958      -0.43033
                        -----------------------------------------
Magnitude (a.u.)       :      1.44589
Magnitude (Debye)      :      3.67517

Rotational constants in cm-1:     0.001341     0.000371     0.000295
Rotational constants in MHz :    40.206389    11.127434     8.841633

                             ****ORCA TERMINATED NORMALLY****
TOTAL RUN TIME: 0 days 0 hours 5 minutes 11 seconds 475 msec
