                         Program Version 4.2.0 -  RELEASE  -
|  1> # ORCA input file
|  2> # SCF done       -179.511392101400          0.000324740612
|  3> ! CAM-B3LYP def2-SVP def2/J RIJCOSX Grid4 TightSCF
|  4> %maxcore 5000
|  5> %tddft
|  6>     Mode sTDDFT
|  7>     Ethresh 5.0
|  8>     maxcore 5000
|  9> end
| 10>
| 11> %pal
| 12>   nprocs 6
| 13>   end
| 14> * xyz 0 1
| 15>    C        2.47848         1.72890        -3.52767
| 16>    C        2.17409         2.13222        -2.29871
| 17>    C        1.12189         1.45789        -1.54340
| 18>    S       -0.48557         1.41708        -2.22211
| 19>    C       -1.14890         0.68050        -0.80837
| 20>    C       -2.45648         0.29782        -0.43185
| 21>    S       -3.96909         0.28899        -1.27472
| 22>    C       -4.85629        -0.27741         0.14483
| 23>    C       -6.25311        -0.48147         0.00099
| 24>    C       -6.82573        -0.16197        -1.25138
| 25>    C       -8.22109        -0.31775        -1.58031
| 26>    C       -9.15656        -0.83380        -0.65738
| 27>    C      -10.51091        -1.01552        -1.05385
| 28>    C      -11.11383        -0.44364        -2.17065
| 29>    C      -12.43128        -0.84473        -2.33611
| 30>    C      -12.86416        -1.74289        -1.34604
| 31>    S      -11.63783        -2.07732        -0.20807
| 32>    C      -14.21752        -2.07849        -1.60661
| 33>    S      -15.45736        -3.04905        -0.94422
| 34>    C      -16.53623        -2.54411        -2.20481
| 35>    C      -15.97633        -1.67551        -3.09089
| 36>    C      -14.63666        -1.39578        -2.75959
| 37>    C      -13.53527        -0.60029        -3.25902
| 38>    C      -13.51730         0.20727        -4.35984
| 39>    C      -12.36923         0.92861        -4.74792
| 40>    N      -11.44188         1.51881        -5.07561
| 41>    C      -14.64754         0.37276        -5.18677
| 42>    N      -15.56473         0.51185        -5.86109
| 43>    C       -8.61377        -1.14529         0.62339
| 44>    C       -9.32408        -1.60923         1.71341
| 45>    S       -8.34750        -1.86128         3.08044
| 46>    C       -6.95469        -1.35772         2.25807
| 47>    C       -7.19948        -0.98109         0.95572
| 48>    N       -8.46192         0.04438        -2.84519
| 49>    S       -7.11514         0.54038        -3.54247
| 50>    N       -6.13347         0.31571        -2.28781
| 51>    C       -3.97016        -0.40684         1.23521
| 52>    N       -4.24744        -0.76481         2.49403
| 53>    C       -3.31096        -0.66207         3.40228
| 54>    C       -1.97306        -0.25664         3.13504
| 55>    N       -1.61517        -0.14888         1.81338
| 56>    C       -2.62444        -0.08979         0.88243
| 57>    C       -1.07257         0.12432         4.18799
| 58>    O        0.00549         0.68862         3.95156
| 59>    C       -1.50404        -0.21902         5.53954
| 60>    C       -2.71456        -0.72087         5.81998
| 61>    C       -3.72934        -0.96401         4.79926
| 62>    O       -4.85145        -1.36248         5.05278
| 63>    C       -0.14760         0.43694         0.11297
| 64>    N       -0.34417        -0.12916         1.34425
| 65>    C        0.77317        -0.55630         2.02304
| 66>    C        2.03980        -0.06915         1.57180
| 67>    N        2.22877         0.61895         0.48526
| 68>    C        1.15422         0.84409        -0.30425
| 69>    C        3.25885        -0.34877         2.39307
| 70>    O        4.33089         0.15439         2.12845
| 71>    C        3.06249        -1.25884         3.52118
| 72>    C        1.87609        -1.79858         3.82701
| 73>    C        0.65716        -1.53249         3.06564
| 74>    O       -0.42090        -2.09707         3.30681
| 75>    C        2.80368         3.36458        -1.67927
| 76>    C        3.71186         3.01490        -0.47766
| 77>    C        3.26164         3.59777         0.87247
| 78>    C        1.78249         3.51634         1.01800
| 79>    C        1.03772         3.09701         2.06839
| 80>    S       -0.65508         3.20350         1.74076
| 81>    C       -0.34512         3.82363         0.15522
| 82>    C        0.98398         3.93151        -0.08782
| 83>    C        1.68961         4.37224        -1.32192
| 84>    H        2.01157         0.86725        -3.97442
| 85>    H        3.22413         2.23178        -4.11802
| 86>    H      -10.59148         0.23848        -2.81383
| 87>    H      -17.53533        -2.93155        -2.20664
| 88>    H      -16.49993        -1.26118        -3.93297
| 89>    H      -10.37481        -1.78536         1.79958
| 90>    H       -6.01863        -1.34040         2.77952
| 91>    H       -0.77800        -0.02593         6.31682
| 92>    H       -3.00206        -0.96338         6.83305
| 93>    H        3.94460        -1.46714         4.10993
| 94>    H        1.75798        -2.47465         4.66224
| 95>    H        3.41714         3.82024        -2.46219
| 96>    H        4.72377         3.36794        -0.67914
| 97>    H        3.75690         1.93249        -0.37179
| 98>    H        3.55177         4.65220         0.93064
| 99>    H        3.76266         3.06121         1.67738
|100>    H        1.34989         2.70721         3.01639
|101>    H       -1.17011         4.06384        -0.48615
|102>    H        2.15225         5.34612        -1.13815
|103>    H        0.99689         4.47867        -2.15939
|104> *
|105>
|106>                          ****END OF INPUT****

CARTESIAN COORDINATES (ANGSTROEM)
---------------------------------
  C      2.478480    1.728900   -3.527670
  C      2.174090    2.132220   -2.298710
  C      1.121890    1.457890   -1.543400
  S     -0.485570    1.417080   -2.222110
  C     -1.148900    0.680500   -0.808370
  C     -2.456480    0.297820   -0.431850
  S     -3.969090    0.288990   -1.274720
  C     -4.856290   -0.277410    0.144830
  C     -6.253110   -0.481470    0.000990
  C     -6.825730   -0.161970   -1.251380
  C     -8.221090   -0.317750   -1.580310
  C     -9.156560   -0.833800   -0.657380
  C    -10.510910   -1.015520   -1.053850
  C    -11.113830   -0.443640   -2.170650
  C    -12.431280   -0.844730   -2.336110
  C    -12.864160   -1.742890   -1.346040
  S    -11.637830   -2.077320   -0.208070
  C    -14.217520   -2.078490   -1.606610
  S    -15.457360   -3.049050   -0.944220
  C    -16.536230   -2.544110   -2.204810
  C    -15.976330   -1.675510   -3.090890
  C    -14.636660   -1.395780   -2.759590
  C    -13.535270   -0.600290   -3.259020
  C    -13.517300    0.207270   -4.359840
  C    -12.369230    0.928610   -4.747920
  N    -11.441880    1.518810   -5.075610
  C    -14.647540    0.372760   -5.186770
  N    -15.564730    0.511850   -5.861090
  C     -8.613770   -1.145290    0.623390
  C     -9.324080   -1.609230    1.713410
  S     -8.347500   -1.861280    3.080440
  C     -6.954690   -1.357720    2.258070
  C     -7.199480   -0.981090    0.955720
  N     -8.461920    0.044380   -2.845190
  S     -7.115140    0.540380   -3.542470
  N     -6.133470    0.315710   -2.287810
  C     -3.970160   -0.406840    1.235210
  N     -4.247440   -0.764810    2.494030
  C     -3.310960   -0.662070    3.402280
  C     -1.973060   -0.256640    3.135040
  N     -1.615170   -0.148880    1.813380
  C     -2.624440   -0.089790    0.882430
  C     -1.072570    0.124320    4.187990
  O      0.005490    0.688620    3.951560
  C     -1.504040   -0.219020    5.539540
  C     -2.714560   -0.720870    5.819980
  C     -3.729340   -0.964010    4.799260
  O     -4.851450   -1.362480    5.052780
  C     -0.147600    0.436940    0.112970
  N     -0.344170   -0.129160    1.344250
  C      0.773170   -0.556300    2.023040
  C      2.039800   -0.069150    1.571800
  N      2.228770    0.618950    0.485260
  C      1.154220    0.844090   -0.304250
  C      3.258850   -0.348770    2.393070
  O      4.330890    0.154390    2.128450
  C      3.062490   -1.258840    3.521180
  C      1.876090   -1.798580    3.827010
  C      0.657160   -1.532490    3.065640
  O     -0.420900   -2.097070    3.306810
  C      2.803680    3.364580   -1.679270
  C      3.711860    3.014900   -0.477660
  C      3.261640    3.597770    0.872470
  C      1.782490    3.516340    1.018000
  C      1.037720    3.097010    2.068390
  S     -0.655080    3.203500    1.740760
  C     -0.345120    3.823630    0.155220
  C      0.983980    3.931510   -0.087820
  C      1.689610    4.372240   -1.321920
  H      2.011570    0.867250   -3.974420
  H      3.224130    2.231780   -4.118020
  H    -10.591480    0.238480   -2.813830
  H    -17.535330   -2.931550   -2.206640
  H    -16.499930   -1.261180   -3.932970
  H    -10.374810   -1.785360    1.799580
  H     -6.018630   -1.340400    2.779520
  H     -0.778000   -0.025930    6.316820
  H     -3.002060   -0.963380    6.833050
  H      3.944600   -1.467140    4.109930
  H      1.757980   -2.474650    4.662240
  H      3.417140    3.820240   -2.462190
  H      4.723770    3.367940   -0.679140
  H      3.756900    1.932490   -0.371790
  H      3.551770    4.652200    0.930640
  H      3.762660    3.061210    1.677380
  H      1.349890    2.707210    3.016390
  H     -1.170110    4.063840   -0.486150
  H      2.152250    5.346120   -1.138150
  H      0.996890    4.478670   -2.159390

 Total Charge           Charge          ....    0
 Multiplicity           Mult            ....    1
 Number of Electrons    NEL             ....  520
 Basis Dimension        Dim             .... 1094

ORBITAL ENERGIES
----------------

  NO   OCC          E(Eh)            E(eV)
   0   2.0000     -89.038342     -2422.8565
   1   2.0000     -88.984852     -2421.4009
   2   2.0000     -88.984347     -2421.3872
   3   2.0000     -88.983949     -2421.3763
   4   2.0000     -88.975883     -2421.1569
   5   2.0000     -88.971893     -2421.0483
   6   2.0000     -88.939104     -2420.1561
   7   2.0000     -19.214427      -522.8511
   8   2.0000     -19.212679      -522.8036
   9   2.0000     -19.204103      -522.5702
  10   2.0000     -19.200505      -522.4723
  11   2.0000     -14.569669      -396.4609
  12   2.0000     -14.568765      -396.4363
  13   2.0000     -14.444164      -393.0457
  14   2.0000     -14.443588      -393.0300
  15   2.0000     -14.431442      -392.6995
  16   2.0000     -14.425403      -392.5352
  17   2.0000     -14.424527      -392.5113
  18   2.0000     -14.424028      -392.4978
  19   2.0000     -10.363871      -282.0153
  20   2.0000     -10.361971      -281.9636
  21   2.0000     -10.357588      -281.8443
  22   2.0000     -10.355349      -281.7834
  23   2.0000     -10.352466      -281.7049
  24   2.0000     -10.351757      -281.6856
  25   2.0000     -10.350816      -281.6600
  26   2.0000     -10.345487      -281.5150
  27   2.0000     -10.337527      -281.2984
  28   2.0000     -10.336705      -281.2760
  29   2.0000     -10.335724      -281.2493
  30   2.0000     -10.335584      -281.2455
  31   2.0000     -10.334630      -281.2196
  32   2.0000     -10.334201      -281.2079
  33   2.0000     -10.329758      -281.0870
  34   2.0000     -10.328191      -281.0444
  35   2.0000     -10.327372      -281.0221
  36   2.0000     -10.326939      -281.0103
  37   2.0000     -10.326663      -281.0028
  38   2.0000     -10.326607      -281.0013
  39   2.0000     -10.325092      -280.9600
  40   2.0000     -10.324663      -280.9484
  41   2.0000     -10.323703      -280.9222
  42   2.0000     -10.319142      -280.7981
  43   2.0000     -10.318024      -280.7677
  44   2.0000     -10.309751      -280.5426
  45   2.0000     -10.308575      -280.5106
  46   2.0000     -10.308181      -280.4999
  47   2.0000     -10.297289      -280.2035
  48   2.0000     -10.296729      -280.1882
  49   2.0000     -10.295471      -280.1540
  50   2.0000     -10.295456      -280.1536
  51   2.0000     -10.295028      -280.1419
  52   2.0000     -10.294251      -280.1208
  53   2.0000     -10.294183      -280.1190
  54   2.0000     -10.292090      -280.0620
  55   2.0000     -10.289070      -279.9798
  56   2.0000     -10.287853      -279.9467
  57   2.0000     -10.286402      -279.9072
  58   2.0000     -10.285112      -279.8721
  59   2.0000     -10.277630      -279.6685
  60   2.0000     -10.275444      -279.6090
  61   2.0000     -10.273434      -279.5543
  62   2.0000     -10.270053      -279.4624
  63   2.0000     -10.267672      -279.3976
  64   2.0000     -10.267551      -279.3943
  65   2.0000     -10.260036      -279.1898
  66   2.0000     -10.255167      -279.0573
  67   2.0000     -10.252658      -278.9890
  68   2.0000     -10.243535      -278.7408
  69   2.0000      -8.129086      -221.2037
  70   2.0000      -8.079043      -219.8419
  71   2.0000      -8.079002      -219.8408
  72   2.0000      -8.078299      -219.8217
  73   2.0000      -8.068294      -219.5495
  74   2.0000      -8.067407      -219.5253
  75   2.0000      -8.033914      -218.6139
  76   2.0000      -6.100239      -165.9960
  77   2.0000      -6.092456      -165.7842
  78   2.0000      -6.091841      -165.7674
  79   2.0000      -6.048475      -164.5874
  80   2.0000      -6.048287      -164.5822
  81   2.0000      -6.047573      -164.5628
  82   2.0000      -6.044220      -164.4716
  83   2.0000      -6.043865      -164.4619
  84   2.0000      -6.043326      -164.4473
  85   2.0000      -6.041619      -164.4008
  86   2.0000      -6.041032      -164.3848
  87   2.0000      -6.040782      -164.3780
  88   2.0000      -6.038353      -164.3119
  89   2.0000      -6.035890      -164.2449
  90   2.0000      -6.033280      -164.1739
  91   2.0000      -6.031573      -164.1275
  92   2.0000      -6.031401      -164.1228
  93   2.0000      -6.029863      -164.0809
  94   2.0000      -6.003307      -163.3583
  95   2.0000      -5.998899      -163.2384
  96   2.0000      -5.996346      -163.1689
  97   2.0000      -1.225790       -33.3555
  98   2.0000      -1.133788       -30.8519
  99   2.0000      -1.129159       -30.7260
 100   2.0000      -1.127862       -30.6907
 101   2.0000      -1.123741       -30.5786
 102   2.0000      -1.106068       -30.0976
 103   2.0000      -1.091146       -29.6916
 104   2.0000      -1.059878       -28.8408
 105   2.0000      -1.037375       -28.2284
 106   2.0000      -1.016190       -27.6519
 107   2.0000      -1.015804       -27.6414
 108   2.0000      -1.010704       -27.5027
 109   2.0000      -1.001944       -27.2643
 110   2.0000      -1.000885       -27.2355
 111   2.0000      -0.998132       -27.1606
 112   2.0000      -0.985343       -26.8126
 113   2.0000      -0.980062       -26.6689
 114   2.0000      -0.968410       -26.3518
 115   2.0000      -0.952098       -25.9079
 116   2.0000      -0.941648       -25.6236
 117   2.0000      -0.931854       -25.3570
 118   2.0000      -0.929082       -25.2816
 119   2.0000      -0.924447       -25.1555
 120   2.0000      -0.909105       -24.7380
 121   2.0000      -0.898726       -24.4556
 122   2.0000      -0.881537       -23.9878
 123   2.0000      -0.875746       -23.8303
 124   2.0000      -0.863161       -23.4878
 125   2.0000      -0.860082       -23.4040
 126   2.0000      -0.857677       -23.3386
 127   2.0000      -0.852796       -23.2058
 128   2.0000      -0.846800       -23.0426
 129   2.0000      -0.844997       -22.9935
 130   2.0000      -0.836159       -22.7530
 131   2.0000      -0.820467       -22.3260
 132   2.0000      -0.805018       -21.9057
 133   2.0000      -0.802477       -21.8365
 134   2.0000      -0.799592       -21.7580
 135   2.0000      -0.787413       -21.4266
 136   2.0000      -0.777957       -21.1693
 137   2.0000      -0.770851       -20.9759
 138   2.0000      -0.770010       -20.9530
 139   2.0000      -0.768593       -20.9145
 140   2.0000      -0.766711       -20.8633
 141   2.0000      -0.758840       -20.6491
 142   2.0000      -0.754011       -20.5177
 143   2.0000      -0.729433       -19.8489
 144   2.0000      -0.721279       -19.6270
 145   2.0000      -0.713640       -19.4191
 146   2.0000      -0.699677       -19.0392
 147   2.0000      -0.697253       -18.9732
 148   2.0000      -0.690757       -18.7964
 149   2.0000      -0.685592       -18.6559
 150   2.0000      -0.676341       -18.4042
 151   2.0000      -0.671310       -18.2673
 152   2.0000      -0.669555       -18.2195
 153   2.0000      -0.662656       -18.0318
 154   2.0000      -0.655722       -17.8431
 155   2.0000      -0.648880       -17.6569
 156   2.0000      -0.646022       -17.5792
 157   2.0000      -0.641908       -17.4672
 158   2.0000      -0.635960       -17.3053
 159   2.0000      -0.630347       -17.1526
 160   2.0000      -0.624417       -16.9913
 161   2.0000      -0.621976       -16.9248
 162   2.0000      -0.616378       -16.7725
 163   2.0000      -0.611707       -16.6454
 164   2.0000      -0.606116       -16.4932
 165   2.0000      -0.601797       -16.3757
 166   2.0000      -0.600399       -16.3377
 167   2.0000      -0.594244       -16.1702
 168   2.0000      -0.591015       -16.0823
 169   2.0000      -0.586090       -15.9483
 170   2.0000      -0.576344       -15.6831
 171   2.0000      -0.573159       -15.5965
 172   2.0000      -0.572419       -15.5763
 173   2.0000      -0.566063       -15.4034
 174   2.0000      -0.562900       -15.3173
 175   2.0000      -0.558881       -15.2079
 176   2.0000      -0.558352       -15.1935
 177   2.0000      -0.553465       -15.0605
 178   2.0000      -0.550225       -14.9724
 179   2.0000      -0.547945       -14.9104
 180   2.0000      -0.544803       -14.8248
 181   2.0000      -0.539982       -14.6936
 182   2.0000      -0.538685       -14.6584
 183   2.0000      -0.528634       -14.3849
 184   2.0000      -0.522743       -14.2246
 185   2.0000      -0.521809       -14.1991
 186   2.0000      -0.519394       -14.1334
 187   2.0000      -0.513367       -13.9694
 188   2.0000      -0.512336       -13.9414
 189   2.0000      -0.509731       -13.8705
 190   2.0000      -0.505764       -13.7625
 191   2.0000      -0.500096       -13.6083
 192   2.0000      -0.499198       -13.5839
 193   2.0000      -0.496373       -13.5070
 194   2.0000      -0.494164       -13.4469
 195   2.0000      -0.493443       -13.4273
 196   2.0000      -0.490968       -13.3599
 197   2.0000      -0.490533       -13.3481
 198   2.0000      -0.489047       -13.3076
 199   2.0000      -0.488315       -13.2877
 200   2.0000      -0.484074       -13.1723
 201   2.0000      -0.482194       -13.1212
 202   2.0000      -0.481234       -13.0950
 203   2.0000      -0.480704       -13.0806
 204   2.0000      -0.477390       -12.9904
 205   2.0000      -0.475535       -12.9400
 206   2.0000      -0.473881       -12.8950
 207   2.0000      -0.469952       -12.7880
 208   2.0000      -0.464921       -12.6511
 209   2.0000      -0.463650       -12.6165
 210   2.0000      -0.460708       -12.5365
 211   2.0000      -0.456213       -12.4142
 212   2.0000      -0.454501       -12.3676
 213   2.0000      -0.453809       -12.3488
 214   2.0000      -0.452441       -12.3116
 215   2.0000      -0.450186       -12.2502
 216   2.0000      -0.447231       -12.1698
 217   2.0000      -0.446526       -12.1506
 218   2.0000      -0.444233       -12.0882
 219   2.0000      -0.443971       -12.0811
 220   2.0000      -0.434674       -11.8281
 221   2.0000      -0.433133       -11.7862
 222   2.0000      -0.432569       -11.7708
 223   2.0000      -0.432409       -11.7665
 224   2.0000      -0.426699       -11.6111
 225   2.0000      -0.424486       -11.5509
 226   2.0000      -0.422492       -11.4966
 227   2.0000      -0.419406       -11.4126
 228   2.0000      -0.417558       -11.3623
 229   2.0000      -0.412555       -11.2262
 230   2.0000      -0.401319       -10.9204
 231   2.0000      -0.399282       -10.8650
 232   2.0000      -0.398031       -10.8310
 233   2.0000      -0.394451       -10.7336
 234   2.0000      -0.386681       -10.5221
 235   2.0000      -0.382602       -10.4111
 236   2.0000      -0.374500       -10.1907
 237   2.0000      -0.368524       -10.0281
 238   2.0000      -0.363500        -9.8913
 239   2.0000      -0.360040        -9.7972
 240   2.0000      -0.358004        -9.7418
 241   2.0000      -0.354516        -9.6469
 242   2.0000      -0.351822        -9.5736
 243   2.0000      -0.350056        -9.5255
 244   2.0000      -0.344839        -9.3835
 245   2.0000      -0.342231        -9.3126
 246   2.0000      -0.340805        -9.2738
 247   2.0000      -0.338709        -9.2167
 248   2.0000      -0.336046        -9.1443
 249   2.0000      -0.334457        -9.1010
 250   2.0000      -0.331321        -9.0157
 251   2.0000      -0.327227        -8.9043
 252   2.0000      -0.316912        -8.6236
 253   2.0000      -0.315163        -8.5760
 254   2.0000      -0.295855        -8.0506
 255   2.0000      -0.285346        -7.7647
 256   2.0000      -0.285111        -7.7583
 257   2.0000      -0.269904        -7.3445
 258   2.0000      -0.245016        -6.6672
 259   2.0000      -0.214789        -5.8447
 260   0.0000      -0.117089        -3.1862
 261   0.0000      -0.093182        -2.5356
 262   0.0000      -0.081572        -2.2197
 263   0.0000      -0.074605        -2.0301
 264   0.0000      -0.062909        -1.7118

MULLIKEN ATOMIC CHARGES
-----------------------
   0 C :   -0.015559
   1 C :   -0.085862
   2 C :   -0.226199
   3 S :    0.211901
   4 C :   -0.132084
   5 C :   -0.109156
   6 S :    0.206812
   7 C :   -0.247290
   8 C :    0.189330
   9 C :   -0.016584
  10 C :   -0.011330
  11 C :    0.179968
  12 C :   -0.179172
  13 C :   -0.035135
  14 C :    0.025999
  15 C :   -0.089482
  16 S :    0.160268
  17 C :   -0.115260
  18 S :    0.178266
  19 C :   -0.082252
  20 C :    0.037202
  21 C :   -0.033422
  22 C :    0.305457
  23 C :   -0.301534
  24 C :   -0.181506
  25 N :    0.166335
  26 C :   -0.193281
  27 N :    0.169242
  28 C :    0.045282
  29 C :   -0.210744
  30 S :    0.213693
  31 C :   -0.169343
  32 C :    0.023300
  33 N :   -0.300297
  34 S :    0.561617
  35 N :   -0.390017
  36 C :    0.091759
  37 N :    0.027432
  38 C :   -0.120305
  39 C :    0.071736
  40 N :    0.015591
  41 C :    0.094979
  42 C :    0.083161
  43 O :   -0.223770
  44 C :    0.021669
  45 C :   -0.017317
  46 C :    0.151197
  47 O :   -0.139895
  48 C :    0.090833
  49 N :    0.012549
  50 C :    0.068012
  51 C :   -0.140535
  52 N :    0.053223
  53 C :    0.162399
  54 C :    0.142853
  55 O :   -0.125197
  56 C :   -0.016731
  57 C :    0.016749
  58 C :    0.077114
  59 O :   -0.218917
  60 C :   -0.070068
  61 C :    0.071243
  62 C :    0.198269
  63 C :   -0.045085
  64 C :   -0.172289
  65 S :    0.055464
  66 C :   -0.177769
  67 C :   -0.037470
  68 C :    0.255255
  69 H :    0.014966
  70 H :    0.017447
  71 H :    0.021224
  72 H :    0.035163
  73 H :    0.011668
  74 H :    0.027122
  75 H :    0.034405
  76 H :    0.006355
  77 H :    0.001496
  78 H :    0.001641
  79 H :    0.006091
  80 H :   -0.024124
  81 H :   -0.011015
  82 H :    0.036889
  83 H :   -0.001776
  84 H :    0.001648
  85 H :    0.022515
  86 H :    0.004018
  87 H :    0.004430
  88 H :   -0.015467
Sum of atomic charges:   -0.0000000

LOEWDIN ATOMIC CHARGES
----------------------
   0 C :   -0.041706
   1 C :   -0.033566
   2 C :   -0.149033
   3 S :    0.490180
   4 C :   -0.207137
   5 C :   -0.213683
   6 S :    0.505672
   7 C :   -0.152864
   8 C :   -0.046996
   9 C :   -0.049229
  10 C :   -0.043796
  11 C :   -0.035228
  12 C :   -0.160071
  13 C :   -0.011793
  14 C :   -0.070982
  15 C :   -0.186341
  16 S :    0.486961
  17 C :   -0.180725
  18 S :    0.473576
  19 C :   -0.178241
  20 C :   -0.034140
  21 C :   -0.077150
  22 C :    0.083917
  23 C :   -0.105438
  24 C :   -0.015503
  25 N :   -0.037008
  26 C :   -0.016794
  27 N :   -0.036748
  28 C :   -0.048219
  29 C :   -0.240340
  30 S :    0.552395
  31 C :   -0.188299
  32 C :   -0.044746
  33 N :   -0.274911
  34 S :    0.676252
  35 N :   -0.326691
  36 C :   -0.043248
  37 N :   -0.010523
  38 C :   -0.013585
  39 C :   -0.050047
  40 N :    0.174208
  41 C :   -0.005470
  42 C :    0.013871
  43 O :   -0.195194
  44 C :    0.012066
  45 C :   -0.036097
  46 C :    0.066211
  47 O :   -0.126789
  48 C :   -0.000028
  49 N :    0.175312
  50 C :   -0.057828
  51 C :   -0.012189
  52 N :   -0.010058
  53 C :   -0.045121
  54 C :    0.065972
  55 O :   -0.112726
  56 C :   -0.037154
  57 C :    0.010718
  58 C :    0.011922
  59 O :   -0.195563
  60 C :   -0.014326
  61 C :   -0.027289
  62 C :   -0.019808
  63 C :   -0.066775
  64 C :   -0.192283
  65 S :    0.407330
  66 C :   -0.206874
  67 C :   -0.071105
  68 C :   -0.014073
  69 H :    0.020621
  70 H :    0.023904
  71 H :    0.036597
  72 H :    0.027186
  73 H :    0.042503
  74 H :    0.001569
  75 H :    0.012268
  76 H :    0.042669
  77 H :    0.040260
  78 H :    0.040043
  79 H :    0.042310
  80 H :    0.027218
  81 H :    0.023456
  82 H :    0.026410
  83 H :    0.028961
  84 H :    0.034646
  85 H :    0.020436
  86 H :    0.013567
  87 H :    0.035238
  88 H :    0.025107

  Mayer bond orders larger than 0.100000
B(  0-C ,  1-C ) :   1.9886 B(  0-C , 69-H ) :   0.9524 B(  0-C , 70-H ) :   0.9421
B(  1-C ,  2-C ) :   0.9912 B(  1-C , 60-C ) :   1.0054 B(  2-C ,  3-S ) :   1.1551
B(  2-C ,  4-C ) :   0.1031 B(  2-C , 53-C ) :   1.4318 B(  3-S ,  4-C ) :   1.0911
B(  4-C ,  5-C ) :   1.1767 B(  4-C , 48-C ) :   1.4654 B(  5-C ,  6-S ) :   1.0239
B(  5-C ,  7-C ) :   0.1019 B(  5-C , 41-C ) :   1.4780 B(  6-S ,  7-C ) :   1.1289
B(  7-C ,  8-C ) :   1.2523 B(  7-C , 36-C ) :   1.3205 B(  8-C ,  9-C ) :   1.2324
B(  8-C , 11-C ) :   0.1022 B(  8-C , 32-C ) :   1.1743 B(  9-C , 10-C ) :   1.1179
B(  9-C , 35-N ) :   1.3923 B( 10-C , 11-C ) :   1.2714 B( 10-C , 33-N ) :   1.4623
B( 11-C , 12-C ) :   1.1497 B( 11-C , 28-C ) :   1.2140 B( 12-C , 13-C ) :   1.4260
B( 12-C , 16-S ) :   1.0894 B( 13-C , 14-C ) :   1.2892 B( 13-C , 71-H ) :   0.9804
B( 14-C , 15-C ) :   1.4200 B( 14-C , 22-C ) :   0.9859 B( 15-C , 16-S ) :   1.1234
B( 15-C , 17-C ) :   1.1950 B( 17-C , 18-S ) :   1.1336 B( 17-C , 21-C ) :   1.4407
B( 18-S , 19-C ) :   1.1451 B( 19-C , 20-C ) :   1.5492 B( 19-C , 72-H ) :   0.9641
B( 20-C , 21-C ) :   1.2750 B( 20-C , 73-H ) :   0.9963 B( 21-C , 22-C ) :   1.0220
B( 22-C , 23-C ) :   1.7051 B( 23-C , 24-C ) :   1.1373 B( 23-C , 26-C ) :   1.1311
B( 24-C , 25-N ) :   2.9833 B( 26-C , 27-N ) :   3.0019 B( 28-C , 29-C ) :   1.3948
B( 28-C , 32-C ) :   1.1233 B( 29-C , 30-S ) :   1.2411 B( 29-C , 31-C ) :   0.1015
B( 29-C , 74-H ) :   0.9423 B( 30-S , 31-C ) :   1.2561 B( 31-C , 32-C ) :   1.4359
B( 31-C , 75-H ) :   0.9135 B( 33-N , 34-S ) :   1.2977 B( 33-N , 35-N ) :   0.1568
B( 34-S , 35-N ) :   1.2495 B( 36-C , 37-N ) :   1.3723 B( 36-C , 41-C ) :   1.2433
B( 37-N , 38-C ) :   1.6987 B( 38-C , 39-C ) :   1.1279 B( 38-C , 46-C ) :   0.9166
B( 39-C , 40-N ) :   1.1238 B( 39-C , 42-C ) :   1.0796 B( 39-C , 59-O ) :   0.1391
B( 40-N , 41-C ) :   1.0907 B( 40-N , 49-N ) :   1.0578 B( 42-C , 43-O ) :   1.9045
B( 42-C , 44-C ) :   1.0476 B( 43-O , 50-C ) :   0.1369 B( 44-C , 45-C ) :   1.6701
B( 44-C , 76-H ) :   0.9929 B( 45-C , 46-C ) :   1.0639 B( 45-C , 77-H ) :   0.9981
B( 46-C , 47-O ) :   2.1450 B( 48-C , 49-N ) :   1.0981 B( 48-C , 53-C ) :   1.2269
B( 49-N , 50-C ) :   1.1244 B( 50-C , 51-C ) :   1.1040 B( 50-C , 58-C ) :   1.0866
B( 51-C , 52-N ) :   1.7761 B( 51-C , 54-C ) :   0.8972 B( 52-N , 53-C ) :   1.2952
B( 54-C , 55-O ) :   2.1917 B( 54-C , 56-C ) :   1.0476 B( 56-C , 57-C ) :   1.6703
B( 56-C , 78-H ) :   0.9951 B( 57-C , 58-C ) :   1.0473 B( 57-C , 79-H ) :   0.9919
B( 58-C , 59-O ) :   1.9471 B( 60-C , 61-C ) :   1.0296 B( 60-C , 68-C ) :   1.0771
B( 60-C , 80-H ) :   0.8902 B( 61-C , 62-C ) :   1.1089 B( 61-C , 81-H ) :   0.9181
B( 61-C , 82-H ) :   0.9140 B( 62-C , 63-C ) :   1.0845 B( 62-C , 83-H ) :   0.8932
B( 62-C , 84-H ) :   0.9099 B( 63-C , 64-C ) :   1.5637 B( 63-C , 67-C ) :   1.2575
B( 64-C , 65-S ) :   1.1521 B( 64-C , 85-H ) :   0.9705 B( 65-S , 66-C ) :   1.1395
B( 66-C , 67-C ) :   1.5649 B( 66-C , 86-H ) :   0.9670 B( 67-C , 68-C ) :   1.0668
B( 68-C , 87-H ) :   0.8751 B( 68-C , 88-H ) :   0.9173

-----------------------------------------------------------------------------
         ABSORPTION SPECTRUM VIA TRANSITION ELECTRIC DIPOLE MOMENTS
-----------------------------------------------------------------------------
State   Energy  Wavelength   fosc         T2         TX        TY        TZ
        (cm-1)    (nm)                  (au**2)     (au)      (au)      (au)
-----------------------------------------------------------------------------
   0    6413.4   1559.2   0.451068824  23.15411  -4.56979  -0.49162  -1.42458
   1   10987.1    910.2   0.000457485   0.01371  -0.09175  -0.07168   0.01231
   2   12546.7    797.0   0.004967109   0.13033   0.24096   0.19993  -0.17972
   3   13311.5    751.2   0.025905724   0.64068  -0.39599   0.20226  -0.66556
   4   14706.5    680.0   0.047499200   1.06329   0.44551  -0.04839   0.92869
   5   15565.6    642.4   0.066323973   1.40275  -0.55226  -0.41181   0.96341
   6   17818.7    561.2   0.014843507   0.27424   0.16086   0.34383  -0.36076
   7   18561.5    538.7   0.095230184   1.68903  -0.61676   0.01499   1.14386
   8   19228.0    520.1   0.036220165   0.62014   0.67373   0.14263   0.38195
   9   19462.1    513.8   0.086153144   1.45732  -1.17149   0.19083   0.22030
  10   20708.8    482.9   0.146917520   2.33558  -1.37479   0.53199  -0.40314
  11   22610.1    442.3   0.238699571   3.47556   1.74294   0.23779   0.61740
  12   23283.3    429.5   0.305615074   4.32121   1.98659   0.60969   0.05441
  13   23481.8    425.9   0.101298746   1.42020   1.17258  -0.20634   0.05174
  14   23923.6    418.0   0.020881755   0.28735   0.51204  -0.05192  -0.14989
  15   24036.9    416.0   0.080701893   1.10530   0.92488  -0.09097  -0.49156
  16   24905.0    401.5   0.008242783   0.10896  -0.18836  -0.09722   0.25304
  17   25053.5    399.1   0.005947186   0.07815  -0.10271  -0.01743  -0.25941
  18   25281.3    395.5   0.042093596   0.54814   0.68300  -0.01165  -0.28552
  19   25587.1    390.8   0.001690363   0.02175  -0.10819   0.10016   0.00333
  20   26118.4    382.9   0.003369710   0.04247  -0.04073  -0.08259   0.18438
  21   26387.8    379.0   0.018578346   0.23178  -0.00994   0.16936  -0.45055
  22   27105.9    368.9   0.010998596   0.13358  -0.29429   0.06784  -0.20585
  23   27272.5    366.7   0.082121570   0.99131   0.93010   0.31179  -0.17034
  24   27780.1    360.0   0.072564887   0.85994  -0.91527  -0.02718  -0.14656
  25   28093.6    356.0   0.016242839   0.19034   0.13311   0.39558  -0.12703
  26   28244.7    354.0   0.016789038   0.19569   0.10360  -0.08244   0.42209
  27   28671.6    348.8   0.097708814   1.12191  -0.63740   0.23996  -0.81120
  28   29007.6    344.7   0.019565532   0.22205   0.02029   0.26011  -0.39241
  29   29037.5    344.4   0.059194142   0.67111  -0.04698  -0.34126   0.74327
  30   29104.1    343.6   0.024411306   0.27613  -0.36418   0.19781  -0.32306
  31   29321.6    341.0   0.006950367   0.07804   0.16282   0.10724   0.20006
  32   30027.8    333.0   0.028164934   0.30879   0.05241  -0.28095   0.47656
  33   30352.9    329.5   0.178100990   1.93171   0.42141   0.38777  -1.26640
  34   31102.7    321.5   0.087716923   0.92845  -0.17599  -0.33449   0.88634
  35   31491.3    317.5   0.004463863   0.04667  -0.10252   0.07596  -0.17432
  36   31549.1    317.0   0.051146284   0.53371   0.06759  -0.29146   0.66648
  37   31886.3    313.6   0.032286475   0.33334   0.16902   0.38795  -0.39277
  38   32047.0    312.0   0.048366425   0.49686  -0.43337  -0.36054   0.42316
  39   32195.4    310.6   0.372621605   3.81022  -0.22515  -1.17963   1.53883
  40   32369.9    308.9   0.013925321   0.14163  -0.33275  -0.16657   0.05620
  41   32614.6    306.6   0.007515698   0.07586   0.23437  -0.10419  -0.10040
  42   32719.8    305.6   0.009701372   0.09761   0.30493   0.06548   0.01843
  43   33060.1    302.5   0.208425112   2.07549  -1.03639   0.42831  -0.90440
  44   33421.1    299.2   0.199045765   1.96069   1.22082   0.68533  -0.02468
  45   33766.4    296.2   0.012619159   0.12303   0.29899   0.01419  -0.18286
  46   34173.7    292.6   0.025771191   0.24827   0.09018  -0.20247   0.44625
  47   34393.4    290.8   0.001527741   0.01462  -0.02875   0.05751  -0.10242
  48   34838.6    287.0   0.083253059   0.78671   0.21663   0.04951  -0.85868
  49   34987.5    285.8   0.052229334   0.49145   0.12476   0.30582  -0.61835
  50   35062.2    285.2   0.072911327   0.68459  -0.60433   0.24820  -0.50771
  51   35133.3    284.6   0.003986526   0.03736   0.12220   0.07734  -0.12822
  52   35157.6    284.4   0.022040944   0.20639  -0.44984   0.00686  -0.06312
  53   35395.1    282.5   0.011632609   0.10820  -0.31751   0.07988  -0.03160
  54   35659.4    280.4   0.024980604   0.23062  -0.40793  -0.23505  -0.09471
  55   35805.6    279.3   0.012846251   0.11811  -0.32117  -0.09224  -0.08037
  56   35901.5    278.5   0.025197362   0.23106  -0.15619   0.11814  -0.43898
  57   35998.8    277.8   0.023403085   0.21402  -0.15053   0.06934  -0.43192
  58   36111.0    276.9   0.027354641   0.24938   0.23944   0.14255  -0.41440
  59   36136.8    276.7   0.141792985   1.29176   0.61003   0.43616  -0.85404
  60   36379.7    274.9   0.045246569   0.40945   0.61730   0.06683  -0.15468
  61   36617.0    273.1   0.060936950   0.54786   0.22755   0.17732  -0.68165
  62   36817.4    271.6   0.006812530   0.06092  -0.21484   0.12131   0.00637
  63   37186.6    268.9   0.035239100   0.31197  -0.17676  -0.32355   0.41957
  64   37272.3    268.3   0.011560408   0.10211  -0.17539  -0.23998   0.11728
  65   37403.9    267.4   0.079272230   0.69772   0.29413   0.37146  -0.68792
  66   37523.8    266.5   0.090484467   0.79386   0.43068  -0.19889   0.75420
  67   37764.4    264.8   0.029214647   0.25468  -0.16804   0.00014  -0.47586
  68   37991.4    263.2   0.007527425   0.06523  -0.17620  -0.12417   0.13698
  69   38232.6    261.6   0.060714450   0.52280   0.60523   0.11484   0.37856
  70   38308.8    261.0   0.102383189   0.87984   0.05952   0.34714  -0.86936
  71   38399.7    260.4   0.008781473   0.07529   0.10787   0.14268  -0.20807
  72   38674.1    258.6   0.033453654   0.28477   0.43577  -0.17364   0.25441
  73   38865.4    257.3   0.048676553   0.41232   0.50640   0.04512  -0.39222
  74   39032.4    256.2   0.025653758   0.21637   0.45783  -0.07671  -0.02971
  75   39122.5    255.6   0.002124790   0.01788  -0.01080   0.04573  -0.12519
  76   39290.3    254.5   0.010894219   0.09128  -0.04638   0.02376   0.29760
  77   39503.5    253.1   0.004364092   0.03637   0.17022   0.08584  -0.00500
  78   39681.2    252.0   0.135487630   1.12406  -0.36534   0.37188  -0.92320
  79   39803.6    251.2   0.002514990   0.02080   0.08034   0.10984  -0.04777
  80   40055.9    249.7   0.001238082   0.01018   0.02313  -0.05671   0.08015
  81   40071.7    249.6   0.007782199   0.06394   0.04193   0.00257   0.24934
  82   40225.6    248.6   0.030978386   0.25353  -0.06271   0.24314  -0.43644

FINAL SINGLE POINT ENERGY     -5439.218270381859

DIPOLE MOMENT
-------------
                                X             Y             Z
Electronic contribution:    -61.06227     -22.36550      -6.27597
Nuclear contribution   :     60.67235      21.63553       6.56099
                        -----------------------------------------
Total Dipole Moment    :     -0.38993      -0.72997       0.28502
                        -----------------------------------------
Magnitude (a.u.)       :      0.87529
Magnitude (Debye)      :      2.22481

Rotational constants in cm-1:     0.002204     0.000413     0.000363
Rotational constants in MHz :    66.071017    12.385807    10.876273

                             ****ORCA TERMINATED NORMALLY****
TOTAL RUN TIME: 0 days 0 hours 10 minutes 40 seconds 707 msec
