                         Program Version 4.2.0 -  RELEASE  -
|  1> # ORCA input file
|  2> # SCF done       -180.837018207128          0.000735096865
|  3> ! CAM-B3LYP def2-SVP def2/J RIJCOSX Grid4 TightSCF
|  4> %maxcore 5000
|  5> %tddft
|  6>     Mode sTDDFT
|  7>     Ethresh 5.0
|  8>     maxcore 5000
|  9> end
| 10>
| 11> %pal
| 12>   nprocs 6
| 13>   end
| 14> * xyz 0 1
| 15>    C       16.64912        -7.04606        -5.91058
| 16>    S       18.32787        -6.74715        -6.00104
| 17>    C       18.12159        -5.04552        -6.00284
| 18>    C       16.79551        -4.70769        -5.93888
| 19>    C       15.94270        -5.86997        -5.87471
| 20>    N       14.60258        -5.73085        -5.74875
| 21>    C       14.11806        -4.52307        -5.70374
| 22>    C       14.96516        -3.34490        -5.90010
| 23>    N       14.43822        -2.10672        -6.03155
| 24>    C       15.26002        -0.95532        -6.30858
| 25>    N       16.26713        -3.46331        -5.98887
| 26>    N       12.73866        -4.42941        -5.51639
| 27>    C       11.91892        -5.53741        -5.96453
| 28>    C       12.16973        -3.40630        -4.85362
| 29>    C       10.83135        -3.17776        -4.71378
| 30>    C       10.39745        -2.01080        -4.05170
| 31>    N       11.26352        -1.10164        -3.59390
| 32>    C       10.52100        -0.10334        -3.09861
| 33>    C        9.08279        -0.36902        -3.25182
| 34>    C        8.29649         0.75109        -2.71790
| 35>    O        7.08614         0.88888        -2.71003
| 36>    C        9.33046         1.66797        -2.22013
| 37>    C       10.67060         1.12078        -2.47928
| 38>    N       11.62910         1.96200        -2.02982
| 39>    C       10.97360         2.97839        -1.50846
| 40>    C        9.54157         2.85919        -1.59149
| 41>    C        8.98654        -1.60429        -3.84822
| 42>    C        7.84509        -2.36664        -4.21162
| 43>    C        6.58267        -1.88210        -4.10503
| 44>    C        5.40001        -2.58181        -4.44827
| 45>    N        4.18605        -1.92873        -4.44061
| 46>    C        3.21849        -2.80302        -4.81579
| 47>    C        1.86205        -2.93573        -5.06905
| 48>    C        1.66343        -4.27786        -5.44112
| 49>    N        2.87803        -4.93974        -5.41459
| 50>    C        3.84378        -4.06184        -5.04933
| 51>    C        5.20735        -3.91896        -4.82715
| 52>    C        0.48242        -4.95081        -5.80734
| 53>    C       -0.73518        -4.36721        -6.00058
| 54>    C       -1.86618        -5.13052        -6.36411
| 55>    N       -1.85997        -6.46214        -6.25484
| 56>    C       -3.10623        -6.86480        -6.54109
| 57>    C       -3.97587        -5.72679        -6.86047
| 58>    C       -5.33350        -6.18140        -7.17790
| 59>    O       -6.30263        -5.51788        -7.49430
| 60>    C       -5.22527        -7.64340        -7.02159
| 61>    C       -3.85626        -8.02008        -6.63719
| 62>    N       -3.74250        -9.36335        -6.51662
| 63>    C       -4.93789        -9.83357        -6.80295
| 64>    C       -5.90571        -8.81859        -7.13253
| 65>    C       -3.18493        -4.60497        -6.79959
| 66>    C       -3.57575        -3.28544        -7.14975
| 67>    C       -2.75615        -2.27143        -7.52191
| 68>    C       -3.22584        -1.00849        -7.95493
| 69>    S       -2.09431         0.25685        -8.34888
| 70>    C       -3.32886         1.36046        -8.78267
| 71>    C       -4.57383         0.79963        -8.64703
| 72>    C       -4.52702        -0.54798        -8.15752
| 73>    N       -5.66243        -1.23050        -7.90886
| 74>    C       -6.80471        -0.63038        -8.13707
| 75>    C       -6.84171         0.68027        -8.78841
| 76>    N       -8.01851         1.20297        -9.23142
| 77>    C       -8.02162         2.38076       -10.06499
| 78>    N       -5.75247         1.36943        -9.00343
| 79>    N       -7.94872        -1.31555        -7.81407
| 80>    C       -7.88557        -2.75650        -7.67933
| 81>    C       -9.07978        -0.66916        -7.35047
| 82>    C      -10.23247        -1.25514        -7.03833
| 83>    H       16.27315        -8.04775        -5.87393
| 84>    H       18.97096        -4.39681        -6.05564
| 85>    H       13.45004        -2.00398        -6.19504
| 86>    H       16.25654        -1.15048        -5.92041
| 87>    H       14.82910        -0.08631        -5.81376
| 88>    H       15.33359        -0.76109        -7.38232
| 89>    H       12.57951        -6.33473        -6.29523
| 90>    H       11.27780        -5.22104        -6.78988
| 91>    H       11.29942        -5.90249        -5.14564
| 92>    H       12.83087        -2.70687        -4.36120
| 93>    H       10.08887        -3.83889        -5.12917
| 94>    H       11.51212         3.80207        -1.07254
| 95>    H        8.83081         3.57430        -1.22643
| 96>    H        8.00774        -3.36501        -4.59202
| 97>    H        6.44791        -0.87177        -3.73963
| 98>    H        4.07247        -0.95940        -4.19559
| 99>    H        1.09879        -2.18862        -4.99236
|100>    H        2.99543        -5.91144        -5.64554
|101>    H        5.97060        -4.66603        -4.90670
|102>    H        0.54561        -6.01754        -5.97855
|103>    H       -0.85725        -3.30403        -5.86962
|104>    H       -5.12304       -10.89368        -6.77508
|105>    H       -6.92980        -8.99300        -7.39900
|106>    H       -4.64227        -3.11597        -7.19793
|107>    H       -1.68315        -2.40368        -7.55511
|108>    H       -3.08002         2.34801        -9.11310
|109>    H       -8.77552         0.55249        -9.37969
|110>    H       -7.80735         2.14475       -11.11217
|111>    H       -7.24935         3.05364        -9.69979
|112>    H       -8.99741         2.85935        -9.99610
|113>    H       -6.91000        -3.11037        -7.99551
|114>    H       -8.64917        -3.21700        -8.30678
|115>    H       -8.04790        -3.05934        -6.64471
|116>    H       -8.95801         0.39455        -7.19969
|117>    H      -10.40984        -2.30875        -7.14332
|118>    H      -11.04448        -0.66613        -6.65424
|119> *
|120>
|121>                          ****END OF INPUT****

CARTESIAN COORDINATES (ANGSTROEM)
---------------------------------
  C     16.649120   -7.046060   -5.910580
  S     18.327870   -6.747150   -6.001040
  C     18.121590   -5.045520   -6.002840
  C     16.795510   -4.707690   -5.938880
  C     15.942700   -5.869970   -5.874710
  N     14.602580   -5.730850   -5.748750
  C     14.118060   -4.523070   -5.703740
  C     14.965160   -3.344900   -5.900100
  N     14.438220   -2.106720   -6.031550
  C     15.260020   -0.955320   -6.308580
  N     16.267130   -3.463310   -5.988870
  N     12.738660   -4.429410   -5.516390
  C     11.918920   -5.537410   -5.964530
  C     12.169730   -3.406300   -4.853620
  C     10.831350   -3.177760   -4.713780
  C     10.397450   -2.010800   -4.051700
  N     11.263520   -1.101640   -3.593900
  C     10.521000   -0.103340   -3.098610
  C      9.082790   -0.369020   -3.251820
  C      8.296490    0.751090   -2.717900
  O      7.086140    0.888880   -2.710030
  C      9.330460    1.667970   -2.220130
  C     10.670600    1.120780   -2.479280
  N     11.629100    1.962000   -2.029820
  C     10.973600    2.978390   -1.508460
  C      9.541570    2.859190   -1.591490
  C      8.986540   -1.604290   -3.848220
  C      7.845090   -2.366640   -4.211620
  C      6.582670   -1.882100   -4.105030
  C      5.400010   -2.581810   -4.448270
  N      4.186050   -1.928730   -4.440610
  C      3.218490   -2.803020   -4.815790
  C      1.862050   -2.935730   -5.069050
  C      1.663430   -4.277860   -5.441120
  N      2.878030   -4.939740   -5.414590
  C      3.843780   -4.061840   -5.049330
  C      5.207350   -3.918960   -4.827150
  C      0.482420   -4.950810   -5.807340
  C     -0.735180   -4.367210   -6.000580
  C     -1.866180   -5.130520   -6.364110
  N     -1.859970   -6.462140   -6.254840
  C     -3.106230   -6.864800   -6.541090
  C     -3.975870   -5.726790   -6.860470
  C     -5.333500   -6.181400   -7.177900
  O     -6.302630   -5.517880   -7.494300
  C     -5.225270   -7.643400   -7.021590
  C     -3.856260   -8.020080   -6.637190
  N     -3.742500   -9.363350   -6.516620
  C     -4.937890   -9.833570   -6.802950
  C     -5.905710   -8.818590   -7.132530
  C     -3.184930   -4.604970   -6.799590
  C     -3.575750   -3.285440   -7.149750
  C     -2.756150   -2.271430   -7.521910
  C     -3.225840   -1.008490   -7.954930
  S     -2.094310    0.256850   -8.348880
  C     -3.328860    1.360460   -8.782670
  C     -4.573830    0.799630   -8.647030
  C     -4.527020   -0.547980   -8.157520
  N     -5.662430   -1.230500   -7.908860
  C     -6.804710   -0.630380   -8.137070
  C     -6.841710    0.680270   -8.788410
  N     -8.018510    1.202970   -9.231420
  C     -8.021620    2.380760  -10.064990
  N     -5.752470    1.369430   -9.003430
  N     -7.948720   -1.315550   -7.814070
  C     -7.885570   -2.756500   -7.679330
  C     -9.079780   -0.669160   -7.350470
  C    -10.232470   -1.255140   -7.038330
  H     16.273150   -8.047750   -5.873930
  H     18.970960   -4.396810   -6.055640
  H     13.450040   -2.003980   -6.195040
  H     16.256540   -1.150480   -5.920410
  H     14.829100   -0.086310   -5.813760
  H     15.333590   -0.761090   -7.382320
  H     12.579510   -6.334730   -6.295230
  H     11.277800   -5.221040   -6.789880
  H     11.299420   -5.902490   -5.145640
  H     12.830870   -2.706870   -4.361200
  H     10.088870   -3.838890   -5.129170
  H     11.512120    3.802070   -1.072540
  H      8.830810    3.574300   -1.226430
  H      8.007740   -3.365010   -4.592020
  H      6.447910   -0.871770   -3.739630
  H      4.072470   -0.959400   -4.195590
  H      1.098790   -2.188620   -4.992360
  H      2.995430   -5.911440   -5.645540
  H      5.970600   -4.666030   -4.906700
  H      0.545610   -6.017540   -5.978550
  H     -0.857250   -3.304030   -5.869620
  H     -5.123040  -10.893680   -6.775080
  H     -6.929800   -8.993000   -7.399000
  H     -4.642270   -3.115970   -7.197930
  H     -1.683150   -2.403680   -7.555110
  H     -3.080020    2.348010   -9.113100
  H     -8.775520    0.552490   -9.379690
  H     -7.807350    2.144750  -11.112170
  H     -7.249350    3.053640   -9.699790
  H     -8.997410    2.859350   -9.996100
  H     -6.910000   -3.110370   -7.995510
  H     -8.649170   -3.217000   -8.306780
  H     -8.047900   -3.059340   -6.644710
  H     -8.958010    0.394550   -7.199690
  H    -10.409840   -2.308750   -7.143320
  H    -11.044480   -0.666130   -6.654240

 Total Charge           Charge          ....    0
 Multiplicity           Mult            ....    1
 Number of Electrons    NEL             ....  482
 Basis Dimension        Dim             .... 1140

ORBITAL ENERGIES
----------------

  NO   OCC          E(Eh)            E(eV)
   0   2.0000     -88.965533     -2420.8752
   1   2.0000     -88.950320     -2420.4613
   2   2.0000     -19.201166      -522.4903
   3   2.0000     -19.185700      -522.0694
   4   2.0000     -14.490698      -394.3120
   5   2.0000     -14.467911      -393.6919
   6   2.0000     -14.465737      -393.6327
   7   2.0000     -14.441994      -392.9866
   8   2.0000     -14.440888      -392.9565
   9   2.0000     -14.429507      -392.6468
  10   2.0000     -14.427289      -392.5865
  11   2.0000     -14.402342      -391.9077
  12   2.0000     -14.399553      -391.8318
  13   2.0000     -14.394650      -391.6983
  14   2.0000     -14.391266      -391.6062
  15   2.0000     -14.387349      -391.4997
  16   2.0000     -14.382578      -391.3698
  17   2.0000     -14.376736      -391.2109
  18   2.0000     -10.373819      -282.2860
  19   2.0000     -10.366624      -282.0902
  20   2.0000     -10.360832      -281.9326
  21   2.0000     -10.352068      -281.6941
  22   2.0000     -10.349197      -281.6160
  23   2.0000     -10.346843      -281.5519
  24   2.0000     -10.345876      -281.5256
  25   2.0000     -10.337762      -281.3048
  26   2.0000     -10.321456      -280.8611
  27   2.0000     -10.321385      -280.8592
  28   2.0000     -10.319018      -280.7948
  29   2.0000     -10.317395      -280.7506
  30   2.0000     -10.314502      -280.6719
  31   2.0000     -10.308229      -280.5012
  32   2.0000     -10.307389      -280.4783
  33   2.0000     -10.305226      -280.4195
  34   2.0000     -10.305169      -280.4179
  35   2.0000     -10.303380      -280.3692
  36   2.0000     -10.301971      -280.3309
  37   2.0000     -10.299597      -280.2663
  38   2.0000     -10.299533      -280.2645
  39   2.0000     -10.298095      -280.2254
  40   2.0000     -10.297251      -280.2024
  41   2.0000     -10.296015      -280.1688
  42   2.0000     -10.294287      -280.1218
  43   2.0000     -10.292255      -280.0665
  44   2.0000     -10.291319      -280.0410
  45   2.0000     -10.290425      -280.0167
  46   2.0000     -10.290147      -280.0091
  47   2.0000     -10.289282      -279.9856
  48   2.0000     -10.285957      -279.8951
  49   2.0000     -10.285400      -279.8800
  50   2.0000     -10.285074      -279.8711
  51   2.0000     -10.284557      -279.8570
  52   2.0000     -10.284012      -279.8422
  53   2.0000     -10.281856      -279.7835
  54   2.0000     -10.279233      -279.7121
  55   2.0000     -10.278231      -279.6849
  56   2.0000     -10.278101      -279.6813
  57   2.0000     -10.275888      -279.6211
  58   2.0000     -10.274108      -279.5727
  59   2.0000     -10.273846      -279.5656
  60   2.0000     -10.272997      -279.5425
  61   2.0000     -10.270860      -279.4843
  62   2.0000     -10.269997      -279.4608
  63   2.0000     -10.261440      -279.2280
  64   2.0000     -10.260097      -279.1914
  65   2.0000     -10.258533      -279.1489
  66   2.0000     -10.258507      -279.1482
  67   2.0000     -10.246419      -278.8192
  68   2.0000      -8.061051      -219.3523
  69   2.0000      -8.045770      -218.9365
  70   2.0000      -6.029964      -164.0837
  71   2.0000      -6.025672      -163.9669
  72   2.0000      -6.024187      -163.9265
  73   2.0000      -6.014805      -163.6712
  74   2.0000      -6.010782      -163.5617
  75   2.0000      -6.008411      -163.4972
  76   2.0000      -1.120229       -30.4830
  77   2.0000      -1.113762       -30.3070
  78   2.0000      -1.100234       -29.9389
  79   2.0000      -1.097993       -29.8779
  80   2.0000      -1.091130       -29.6912
  81   2.0000      -1.071875       -29.1672
  82   2.0000      -1.064541       -28.9676
  83   2.0000      -1.063317       -28.9343
  84   2.0000      -1.051001       -28.5992
  85   2.0000      -1.044236       -28.4151
  86   2.0000      -1.041201       -28.3325
  87   2.0000      -1.039407       -28.2837
  88   2.0000      -1.029474       -28.0134
  89   2.0000      -1.020334       -27.7647
  90   2.0000      -0.985321       -26.8119
  91   2.0000      -0.964960       -26.2579
  92   2.0000      -0.964860       -26.2552
  93   2.0000      -0.954474       -25.9726
  94   2.0000      -0.926404       -25.2087
  95   2.0000      -0.917460       -24.9654
  96   2.0000      -0.916650       -24.9433
  97   2.0000      -0.899236       -24.4695
  98   2.0000      -0.891894       -24.2697
  99   2.0000      -0.890018       -24.2186
 100   2.0000      -0.877445       -23.8765
 101   2.0000      -0.871335       -23.7102
 102   2.0000      -0.855899       -23.2902
 103   2.0000      -0.850486       -23.1429
 104   2.0000      -0.846541       -23.0356
 105   2.0000      -0.841335       -22.8939
 106   2.0000      -0.840565       -22.8729
 107   2.0000      -0.829067       -22.5601
 108   2.0000      -0.825776       -22.4705
 109   2.0000      -0.821027       -22.3413
 110   2.0000      -0.818269       -22.2662
 111   2.0000      -0.799665       -21.7600
 112   2.0000      -0.788878       -21.4665
 113   2.0000      -0.788117       -21.4458
 114   2.0000      -0.783848       -21.3296
 115   2.0000      -0.772752       -21.0276
 116   2.0000      -0.768190       -20.9035
 117   2.0000      -0.765104       -20.8195
 118   2.0000      -0.738598       -20.0983
 119   2.0000      -0.732307       -19.9271
 120   2.0000      -0.724628       -19.7181
 121   2.0000      -0.719174       -19.5697
 122   2.0000      -0.711477       -19.3603
 123   2.0000      -0.709734       -19.3128
 124   2.0000      -0.704282       -19.1645
 125   2.0000      -0.701434       -19.0870
 126   2.0000      -0.696460       -18.9516
 127   2.0000      -0.692037       -18.8313
 128   2.0000      -0.686987       -18.6939
 129   2.0000      -0.676364       -18.4048
 130   2.0000      -0.673702       -18.3324
 131   2.0000      -0.667550       -18.1650
 132   2.0000      -0.658694       -17.9240
 133   2.0000      -0.656858       -17.8740
 134   2.0000      -0.648719       -17.6525
 135   2.0000      -0.642399       -17.4806
 136   2.0000      -0.635592       -17.2954
 137   2.0000      -0.631535       -17.1849
 138   2.0000      -0.625466       -17.0198
 139   2.0000      -0.621461       -16.9108
 140   2.0000      -0.618359       -16.8264
 141   2.0000      -0.614862       -16.7312
 142   2.0000      -0.609186       -16.5768
 143   2.0000      -0.606445       -16.5022
 144   2.0000      -0.600335       -16.3360
 145   2.0000      -0.597397       -16.2560
 146   2.0000      -0.595960       -16.2169
 147   2.0000      -0.593539       -16.1510
 148   2.0000      -0.592593       -16.1253
 149   2.0000      -0.573405       -15.6031
 150   2.0000      -0.570783       -15.5318
 151   2.0000      -0.570194       -15.5158
 152   2.0000      -0.560401       -15.2493
 153   2.0000      -0.555189       -15.1075
 154   2.0000      -0.552706       -15.0399
 155   2.0000      -0.551229       -14.9997
 156   2.0000      -0.549730       -14.9589
 157   2.0000      -0.544883       -14.8270
 158   2.0000      -0.541835       -14.7441
 159   2.0000      -0.540915       -14.7190
 160   2.0000      -0.538192       -14.6449
 161   2.0000      -0.536885       -14.6094
 162   2.0000      -0.533160       -14.5080
 163   2.0000      -0.530237       -14.4285
 164   2.0000      -0.527183       -14.3454
 165   2.0000      -0.525576       -14.3017
 166   2.0000      -0.525105       -14.2888
 167   2.0000      -0.522156       -14.2086
 168   2.0000      -0.520904       -14.1745
 169   2.0000      -0.519039       -14.1238
 170   2.0000      -0.516514       -14.0551
 171   2.0000      -0.514866       -14.0102
 172   2.0000      -0.511946       -13.9308
 173   2.0000      -0.506877       -13.7928
 174   2.0000      -0.504768       -13.7354
 175   2.0000      -0.502369       -13.6702
 176   2.0000      -0.498755       -13.5718
 177   2.0000      -0.498069       -13.5532
 178   2.0000      -0.497419       -13.5354
 179   2.0000      -0.496317       -13.5055
 180   2.0000      -0.486915       -13.2496
 181   2.0000      -0.485886       -13.2216
 182   2.0000      -0.485273       -13.2050
 183   2.0000      -0.481836       -13.1114
 184   2.0000      -0.480566       -13.0769
 185   2.0000      -0.479016       -13.0347
 186   2.0000      -0.478511       -13.0210
 187   2.0000      -0.472564       -12.8591
 188   2.0000      -0.467425       -12.7193
 189   2.0000      -0.464436       -12.6380
 190   2.0000      -0.463585       -12.6148
 191   2.0000      -0.463095       -12.6015
 192   2.0000      -0.459697       -12.5090
 193   2.0000      -0.458911       -12.4876
 194   2.0000      -0.458369       -12.4729
 195   2.0000      -0.454272       -12.3614
 196   2.0000      -0.451911       -12.2971
 197   2.0000      -0.448025       -12.1914
 198   2.0000      -0.446862       -12.1597
 199   2.0000      -0.445974       -12.1356
 200   2.0000      -0.442136       -12.0311
 201   2.0000      -0.441313       -12.0087
 202   2.0000      -0.441069       -12.0021
 203   2.0000      -0.438726       -11.9383
 204   2.0000      -0.434675       -11.8281
 205   2.0000      -0.430002       -11.7010
 206   2.0000      -0.429254       -11.6806
 207   2.0000      -0.419767       -11.4224
 208   2.0000      -0.419386       -11.4121
 209   2.0000      -0.414215       -11.2714
 210   2.0000      -0.403927       -10.9914
 211   2.0000      -0.393154       -10.6983
 212   2.0000      -0.388664       -10.5761
 213   2.0000      -0.386671       -10.5219
 214   2.0000      -0.382721       -10.4144
 215   2.0000      -0.366490        -9.9727
 216   2.0000      -0.365584        -9.9481
 217   2.0000      -0.357184        -9.7195
 218   2.0000      -0.356733        -9.7072
 219   2.0000      -0.350800        -9.5457
 220   2.0000      -0.350410        -9.5351
 221   2.0000      -0.338645        -9.2150
 222   2.0000      -0.335221        -9.1218
 223   2.0000      -0.330062        -8.9814
 224   2.0000      -0.326957        -8.8970
 225   2.0000      -0.321950        -8.7607
 226   2.0000      -0.319976        -8.7070
 227   2.0000      -0.318726        -8.6730
 228   2.0000      -0.313588        -8.5332
 229   2.0000      -0.310254        -8.4424
 230   2.0000      -0.304899        -8.2967
 231   2.0000      -0.303916        -8.2700
 232   2.0000      -0.302999        -8.2450
 233   2.0000      -0.298795        -8.1306
 234   2.0000      -0.291792        -7.9401
 235   2.0000      -0.283582        -7.7167
 236   2.0000      -0.270843        -7.3700
 237   2.0000      -0.264312        -7.1923
 238   2.0000      -0.252261        -6.8644
 239   2.0000      -0.233568        -6.3557
 240   2.0000      -0.226608        -6.1663
 241   0.0000      -0.105049        -2.8585
 242   0.0000      -0.091220        -2.4822
 243   0.0000      -0.051002        -1.3878
 244   0.0000      -0.042126        -1.1463
 245   0.0000      -0.036607        -0.9961

MULLIKEN ATOMIC CHARGES
-----------------------
   0 C :   -0.155327
   1 S :    0.143341
   2 C :   -0.174771
   3 C :    0.078438
   4 C :    0.043502
   5 N :   -0.009088
   6 C :    0.033427
   7 C :   -0.044610
   8 N :   -0.146507
   9 C :    0.113263
  10 N :   -0.048989
  11 N :   -0.192659
  12 C :    0.132361
  13 C :    0.119109
  14 C :   -0.127597
  15 C :    0.067754
  16 N :   -0.082033
  17 C :    0.069379
  18 C :   -0.175435
  19 C :    0.216748
  20 O :   -0.171955
  21 C :   -0.014031
  22 C :   -0.055692
  23 N :   -0.066919
  24 C :    0.076397
  25 C :   -0.099796
  26 C :    0.064708
  27 C :   -0.055482
  28 C :    0.028568
  29 C :    0.105466
  30 N :   -0.029621
  31 C :    0.124218
  32 C :   -0.152299
  33 C :    0.108127
  34 N :   -0.030933
  35 C :    0.125870
  36 C :   -0.172503
  37 C :    0.046891
  38 C :   -0.078707
  39 C :    0.035934
  40 N :   -0.066463
  41 C :    0.070832
  42 C :   -0.138565
  43 C :    0.201806
  44 O :   -0.157440
  45 C :   -0.044598
  46 C :   -0.052097
  47 N :   -0.066432
  48 C :    0.073668
  49 C :   -0.097757
  50 C :    0.067605
  51 C :   -0.052429
  52 C :    0.028272
  53 C :   -0.183249
  54 S :    0.126215
  55 C :   -0.167004
  56 C :    0.077548
  57 C :    0.047572
  58 N :   -0.034368
  59 C :    0.051478
  60 C :   -0.058313
  61 N :   -0.163542
  62 C :    0.119893
  63 N :   -0.050231
  64 N :   -0.225746
  65 C :    0.126901
  66 C :    0.050507
  67 C :   -0.076556
  68 H :    0.012333
  69 H :    0.011884
  70 H :    0.129101
  71 H :    0.051768
  72 H :    0.036364
  73 H :    0.024125
  74 H :    0.065139
  75 H :    0.033462
  76 H :    0.037390
  77 H :    0.060020
  78 H :   -0.020999
  79 H :   -0.003710
  80 H :   -0.017051
  81 H :   -0.036596
  82 H :   -0.011056
  83 H :    0.136344
  84 H :   -0.019017
  85 H :    0.127000
  86 H :   -0.032837
  87 H :    0.005897
  88 H :   -0.009341
  89 H :   -0.006830
  90 H :   -0.021547
  91 H :    0.014227
  92 H :   -0.029653
  93 H :    0.004368
  94 H :    0.133374
  95 H :    0.020585
  96 H :    0.046468
  97 H :    0.016967
  98 H :    0.068892
  99 H :    0.023383
 100 H :    0.029472
 101 H :    0.026659
 102 H :    0.020532
 103 H :    0.016828
Sum of atomic charges:   -0.0000000

LOEWDIN ATOMIC CHARGES
----------------------
   0 C :   -0.202729
   1 S :    0.485328
   2 C :   -0.218769
   3 C :   -0.050814
   4 C :   -0.071076
   5 N :   -0.056779
   6 C :    0.022873
   7 C :    0.026736
   8 N :   -0.009334
   9 C :    0.027837
  10 N :   -0.109457
  11 N :    0.023018
  12 C :    0.036586
  13 C :    0.092695
  14 C :   -0.132242
  15 C :    0.081082
  16 N :   -0.142151
  17 C :    0.052537
  18 C :   -0.055249
  19 C :    0.069460
  20 O :   -0.166814
  21 C :   -0.049532
  22 C :   -0.007255
  23 N :   -0.104125
  24 C :    0.049987
  25 C :   -0.048371
  26 C :   -0.026708
  27 C :   -0.039537
  28 C :    0.002574
  29 C :    0.011993
  30 N :    0.077552
  31 C :   -0.015171
  32 C :   -0.064611
  33 C :   -0.010312
  34 N :    0.075368
  35 C :   -0.003771
  36 C :   -0.093813
  37 C :    0.043023
  38 C :   -0.065909
  39 C :    0.073223
  40 N :   -0.127930
  41 C :    0.048870
  42 C :   -0.056021
  43 C :    0.068511
  44 O :   -0.163646
  45 C :   -0.050435
  46 C :   -0.004425
  47 N :   -0.106509
  48 C :    0.047856
  49 C :   -0.052973
  50 C :   -0.022367
  51 C :   -0.026485
  52 C :   -0.032304
  53 C :   -0.198133
  54 S :    0.452616
  55 C :   -0.208201
  56 C :   -0.054897
  57 C :   -0.048904
  58 N :   -0.079001
  59 C :    0.035982
  60 C :    0.025187
  61 N :   -0.021206
  62 C :    0.023864
  63 N :   -0.109852
  64 N :   -0.014522
  65 C :    0.038478
  66 C :    0.012856
  67 C :   -0.119047
  68 H :    0.025371
  69 H :    0.024839
  70 H :    0.076954
  71 H :    0.035362
  72 H :    0.030100
  73 H :    0.020499
  74 H :    0.038260
  75 H :    0.028194
  76 H :    0.031506
  77 H :    0.041250
  78 H :    0.025189
  79 H :    0.018121
  80 H :    0.029544
  81 H :    0.022344
  82 H :    0.032569
  83 H :    0.097788
  84 H :    0.029717
  85 H :    0.093564
  86 H :    0.023856
  87 H :    0.040640
  88 H :    0.028208
  89 H :    0.016479
  90 H :    0.027576
  91 H :    0.039172
  92 H :    0.022083
  93 H :    0.023104
  94 H :    0.077743
  95 H :    0.018745
  96 H :    0.033482
  97 H :    0.022365
  98 H :    0.033001
  99 H :    0.024442
 100 H :    0.027474
 101 H :    0.027166
 102 H :    0.022173
 103 H :    0.026415

  Mayer bond orders larger than 0.100000
B(  0-C ,  1-S ) :   1.2201 B(  0-C ,  2-C ) :   0.1087 B(  0-C ,  4-C ) :   1.4104
B(  0-C , 68-H ) :   0.9783 B(  1-S ,  2-C ) :   1.1816 B(  2-C ,  3-C ) :   1.4345
B(  2-C , 69-H ) :   0.9757 B(  3-C ,  4-C ) :   1.1950 B(  3-C , 10-N ) :   1.3245
B(  4-C ,  5-N ) :   1.3013 B(  5-N ,  6-C ) :   1.7685 B(  6-C ,  7-C ) :   1.0452
B(  6-C , 11-N ) :   1.0276 B(  7-C ,  8-N ) :   1.2807 B(  7-C , 10-N ) :   1.6771
B(  8-N ,  9-C ) :   0.9848 B(  8-N , 70-H ) :   0.9138 B(  9-C , 71-H ) :   0.9599
B(  9-C , 72-H ) :   0.9748 B(  9-C , 73-H ) :   0.9762 B( 11-N , 12-C ) :   0.9592
B( 11-N , 13-C ) :   1.2347 B( 12-C , 74-H ) :   0.9476 B( 12-C , 75-H ) :   0.9670
B( 12-C , 76-H ) :   0.9673 B( 13-C , 14-C ) :   1.5136 B( 13-C , 77-H ) :   0.9389
B( 14-C , 15-C ) :   1.2230 B( 14-C , 78-H ) :   0.9567 B( 15-C , 16-N ) :   1.5106
B( 15-C , 17-C ) :   0.1079 B( 15-C , 26-C ) :   0.9944 B( 16-N , 17-C ) :   1.4092
B( 17-C , 18-C ) :   1.0531 B( 17-C , 22-C ) :   1.3629 B( 18-C , 19-C ) :   0.9065
B( 18-C , 26-C ) :   1.5346 B( 19-C , 20-O ) :   2.1412 B( 19-C , 21-C ) :   0.9493
B( 20-O , 82-H ) :   0.1201 B( 21-C , 22-C ) :   1.0955 B( 21-C , 25-C ) :   1.5536
B( 22-C , 23-N ) :   1.3419 B( 23-N , 24-C ) :   1.6234 B( 24-C , 25-C ) :   1.1128
B( 24-C , 79-H ) :   0.9898 B( 25-C , 80-H ) :   1.0112 B( 26-C , 27-C ) :   1.1369
B( 27-C , 28-C ) :   1.6511 B( 27-C , 81-H ) :   0.9665 B( 28-C , 29-C ) :   1.1005
B( 28-C , 82-H ) :   0.9384 B( 29-C , 30-N ) :   1.1903 B( 29-C , 36-C ) :   1.3857
B( 30-N , 31-C ) :   1.1639 B( 30-N , 83-H ) :   0.9319 B( 31-C , 32-C ) :   1.2958
B( 31-C , 35-C ) :   1.2742 B( 32-C , 33-C ) :   1.3492 B( 32-C , 84-H ) :   1.0332
B( 33-C , 34-N ) :   1.1557 B( 33-C , 37-C ) :   1.1339 B( 34-N , 35-C ) :   1.1852
B( 34-N , 85-H ) :   0.9360 B( 35-C , 36-C ) :   1.2656 B( 36-C , 86-H ) :   1.0339
B( 37-C , 38-C ) :   1.5648 B( 37-C , 87-H ) :   0.9744 B( 38-C , 39-C ) :   1.1932
B( 38-C , 88-H ) :   0.9642 B( 39-C , 40-N ) :   1.5381 B( 39-C , 41-C ) :   0.1046
B( 39-C , 50-C ) :   0.9761 B( 40-N , 41-C ) :   1.3958 B( 41-C , 42-C ) :   1.0480
B( 41-C , 46-C ) :   1.3647 B( 42-C , 43-C ) :   0.9038 B( 42-C , 50-C ) :   1.5468
B( 43-C , 44-O ) :   2.2217 B( 43-C , 45-C ) :   0.9196 B( 45-C , 46-C ) :   1.0819
B( 45-C , 49-C ) :   1.5687 B( 46-C , 47-N ) :   1.3418 B( 47-N , 48-C ) :   1.6261
B( 48-C , 49-C ) :   1.1124 B( 48-C , 89-H ) :   0.9899 B( 49-C , 90-H ) :   1.0086
B( 50-C , 51-C ) :   1.1285 B( 51-C , 52-C ) :   1.6419 B( 51-C , 91-H ) :   0.9590
B( 52-C , 53-C ) :   1.1620 B( 52-C , 92-H ) :   0.9478 B( 53-C , 54-S ) :   1.1491
B( 53-C , 55-C ) :   0.1094 B( 53-C , 57-C ) :   1.3484 B( 54-S , 55-C ) :   1.1621
B( 55-C , 56-C ) :   1.4335 B( 55-C , 93-H ) :   0.9751 B( 56-C , 57-C ) :   1.2074
B( 56-C , 63-N ) :   1.3145 B( 57-C , 58-N ) :   1.3432 B( 58-N , 59-C ) :   1.7024
B( 59-C , 60-C ) :   1.0396 B( 59-C , 64-N ) :   1.1315 B( 60-C , 61-N ) :   1.2527
B( 60-C , 63-N ) :   1.6921 B( 61-N , 62-C ) :   1.0011 B( 61-N , 94-H ) :   0.9098
B( 62-C , 95-H ) :   0.9746 B( 62-C , 96-H ) :   0.9623 B( 62-C , 97-H ) :   0.9747
B( 64-N , 65-C ) :   0.9525 B( 64-N , 66-C ) :   1.0695 B( 65-C , 98-H ) :   0.9544
B( 65-C , 99-H ) :   0.9630 B( 65-C ,100-H ) :   0.9722 B( 66-C , 67-C ) :   1.9120
B( 66-C ,101-H ) :   0.9557 B( 67-C ,102-H ) :   0.9587 B( 67-C ,103-H ) :   0.9476

-----------------------------------------------------------------------------
         ABSORPTION SPECTRUM VIA TRANSITION ELECTRIC DIPOLE MOMENTS
-----------------------------------------------------------------------------
State   Energy  Wavelength   fosc         T2         TX        TY        TZ
        (cm-1)    (nm)                  (au**2)     (au)      (au)      (au)
-----------------------------------------------------------------------------
   0   13206.7    757.2   1.104089668  27.52231   4.74125   1.78191   1.36663
   1   13689.3    730.5   0.207484669   4.98978  -1.05939  -1.96531  -0.07097
   2   16378.2    610.6   0.646723701  12.99954  -3.21889  -1.47039  -0.69008
   3   19859.7    503.5   0.720587213  11.94507   1.55776  -2.72201  -1.45228
   4   20968.4    476.9   0.091353314   1.43428  -0.89327   0.79048  -0.10722
   5   21256.4    470.4   0.057908189   0.89686  -0.29669  -0.89835   0.04254
   6   22211.5    450.2   0.163280158   2.42009  -0.19474   1.41205   0.62313
   7   22365.7    447.1   0.005441589   0.08010  -0.20895  -0.07460  -0.17570
   8   23206.4    430.9   0.001055115   0.01497  -0.06476   0.08828  -0.05460
   9   23460.1    426.3   0.498508003   6.99549   1.84195  -1.74735   0.74126
  10   24010.0    416.5   0.289382217   3.96784   1.13992   1.63002  -0.10698
  11   24674.2    405.3   0.085413440   1.13962  -0.45670  -0.88871  -0.37582
  12   25083.7    398.7   0.083127247   1.09101   0.05561  -0.99211  -0.32192
  13   25918.6    385.8   0.001518518   0.01929   0.11536   0.05667  -0.05262
  14   26206.2    381.6   0.060054371   0.75443   0.84810   0.16327   0.09213
  15   26526.2    377.0   0.043184939   0.53596   0.65061   0.25497  -0.21832
  16   26804.4    373.1   0.076046955   0.93401   0.22910   0.93400   0.09570
  17   26947.6    371.1   0.000378851   0.00463   0.03847   0.01101  -0.05502
  18   27079.4    369.3   0.057628666   0.70061  -0.29204   0.73846   0.26457
  19   27405.9    364.9   0.022597876   0.27146   0.46991   0.15893   0.15930
  20   27883.5    358.6   0.297438094   3.51176   0.99644  -1.43498  -0.67802
  21   28028.2    356.8   0.050394833   0.59192  -0.66895   0.36222   0.11504
  22   28638.7    349.2   0.021858400   0.25127  -0.38755  -0.22193  -0.22764
  23   28893.1    346.1   0.160442256   1.82810   1.17196   0.66001  -0.13778
  24   28992.6    344.9   0.013862205   0.15741  -0.35136  -0.15651  -0.09725
  25   29377.8    340.4   0.222384222   2.49207   1.53806   0.35233  -0.04797
  26   29463.4    339.4   0.059735838   0.66746   0.76820  -0.09557  -0.26115
  27   30014.1    333.2   0.171410862   1.88013   0.93554   1.00087  -0.05626
  28   30257.9    330.5   0.044814304   0.48759  -0.03584   0.63881  -0.27968
  29   30544.0    327.4   0.011022434   0.11880   0.31981   0.12839   0.00634
  30   30634.0    326.4   0.058701265   0.63084   0.69477   0.30909   0.22933
  31   31244.8    320.1   0.001674799   0.01765  -0.13237  -0.00811  -0.00766
  32   31618.7    316.3   0.022386019   0.23308  -0.13822   0.44974   0.10820
  33   31629.6    316.2   0.148234132   1.54287   1.14136  -0.46743  -0.14727
  34   32123.2    311.3   0.001360737   0.01395  -0.09444   0.07069  -0.00541
  35   32314.6    309.5   0.060806404   0.61948   0.64439  -0.45096  -0.02946
  36   32623.8    306.5   0.054892423   0.55393   0.05834   0.71132   0.21108
  37   33048.5    302.6   0.070882647   0.70610  -0.42501   0.68868  -0.22623
  38   33282.7    300.5   0.051850255   0.51287   0.55806   0.39043   0.22137
  39   33502.3    298.5   0.001735323   0.01705  -0.12035   0.02596   0.04353
  40   33937.2    294.7   0.046401930   0.45013   0.47211   0.41760   0.22989
  41   34437.0    290.4   0.128981934   1.23305  -0.94030   0.55055   0.21397
  42   34706.9    288.1   0.082932342   0.78665  -0.66744   0.57952  -0.07300
  43   35016.5    285.6   0.069587371   0.65423  -0.07296   0.79772  -0.11203
  44   35077.8    285.1   0.033481121   0.31423   0.39828   0.38672  -0.07776
  45   35277.1    283.5   0.051221500   0.47801  -0.67284  -0.11678   0.10797
  46   35380.0    282.6   0.035349312   0.32893  -0.09169  -0.46950  -0.31637
  47   36089.7    277.1   0.003817093   0.03482   0.04021  -0.11946   0.13759
  48   36787.4    271.8   0.104413633   0.93440   0.36319   0.87456  -0.19399
  49   37139.2    269.3   0.013747486   0.12186   0.12128  -0.21667  -0.24537
  50   37226.6    268.6   0.062650924   0.55405   0.32305   0.66149  -0.11011
  51   37420.1    267.2   0.001390137   0.01223  -0.03551  -0.10449  -0.00714
  52   37447.0    267.0   0.003262916   0.02869  -0.16083  -0.00795   0.05250
  53   37627.5    265.8   0.019385720   0.16961  -0.39313   0.11652   0.03854
  54   37802.1    264.5   0.011580639   0.10085  -0.05623   0.26412   0.16712
  55   38260.2    261.4   0.046180161   0.39736   0.30802   0.44834  -0.31856
  56   38532.0    259.5   0.022057448   0.18846  -0.05963   0.25100   0.34914
  57   38558.7    259.3   0.076199520   0.65059  -0.77195  -0.21331  -0.09578
  58   39034.0    256.2   0.001756151   0.01481   0.07089   0.06379   0.07561
  59   39065.4    256.0   0.094917333   0.79989  -0.63261  -0.58472  -0.24040
  60   39555.9    252.8   0.013311790   0.11079  -0.18346  -0.27234  -0.05440
  61   39727.7    251.7   0.012147020   0.10066   0.04501  -0.22650  -0.21756
  62   39870.2    250.8   0.000145474   0.00120   0.00122  -0.01177  -0.03257
  63   40029.2    249.8   0.238231526   1.95928   0.28621  -1.35785  -0.18337

FINAL SINGLE POINT ENERGY     -3636.351924888164

DIPOLE MOMENT
-------------
                                X             Y             Z
Electronic contribution:     35.76816     -13.00421      12.33466
Nuclear contribution   :    -34.02681      13.41222     -13.72391
                        -----------------------------------------
Total Dipole Moment    :      1.74135       0.40801      -1.38925
                        -----------------------------------------
Magnitude (a.u.)       :      2.26468
Magnitude (Debye)      :      5.75636

Rotational constants in cm-1:     0.001517     0.000230     0.000210
Rotational constants in MHz :    45.469057     6.904382     6.282845

                             ****ORCA TERMINATED NORMALLY****
TOTAL RUN TIME: 0 days 0 hours 11 minutes 27 seconds 583 msec
