                         Program Version 4.2.0 -  RELEASE  -
|  1> # ORCA input file
|  2> # SCF done       -129.386114465204          0.000680968715
|  3> ! CAM-B3LYP def2-SVP def2/J RIJCOSX Grid4 TightSCF
|  4> %maxcore 5000
|  5> %tddft
|  6>     Mode sTDDFT
|  7>     Ethresh 5.0
|  8>     maxcore 5000
|  9> end
| 10>
| 11> %pal
| 12>   nprocs 6
| 13>   end
| 14> * xyz 0 1
| 15>    C       -4.75038         5.41140         0.25708
| 16>    C       -4.10794         5.81918        -0.84767
| 17>    C       -2.71643         5.41057        -0.77980
| 18>    C       -2.47121         4.73408         0.37876
| 19>    C       -3.78050         4.70960         1.14004
| 20>    O       -4.01623         4.26339         2.23460
| 21>    C       -1.17661         4.22782         0.70292
| 22>    N       -0.16759         4.63026        -0.06471
| 23>    C        0.93471         4.02492         0.40828
| 24>    C        0.62391         3.17173         1.55745
| 25>    C        1.84295         2.51291         2.04526
| 26>    O        1.97182         1.73623         2.97265
| 27>    C        2.88001         3.01990         1.12932
| 28>    C        2.28438         3.93998         0.14379
| 29>    N        3.22608         4.40151        -0.71299
| 30>    C        4.34566         3.83555        -0.32712
| 31>    C        4.20093         2.95866         0.81614
| 32>    C       -0.73640         3.28366         1.76331
| 33>    C       -1.55613         2.63837         2.72210
| 34>    C       -1.05568         1.78300         3.65348
| 35>    C       -1.83041         1.11604         4.62943
| 36>    N       -1.23610         0.23049         5.50193
| 37>    C       -2.19089        -0.27925         6.32075
| 38>    C       -2.41797        -1.15753         7.36366
| 39>    C       -3.80315        -1.09822         7.63110
| 40>    N       -4.39263        -0.19486         6.76579
| 41>    C       -3.43696         0.31700         5.95250
| 42>    C       -3.20998         1.18681         4.89775
| 43>    C       -4.56574        -1.80627         8.57302
| 44>    C       -4.07690        -2.73606         9.44929
| 45>    C       -4.92170        -3.42701        10.33671
| 46>    N       -6.24081        -3.20930        10.38156
| 47>    C       -6.72012        -4.04372        11.30941
| 48>    C       -5.65424        -4.86116        11.91236
| 49>    C       -6.21497        -5.77253        12.92306
| 50>    O       -5.63305        -6.58805        13.61126
| 51>    C       -7.64913        -5.45291        12.88798
| 52>    C       -7.91948        -4.39879        11.89623
| 53>    N       -9.23672        -4.10071        11.85903
| 54>    C       -9.79204        -4.89251        12.75328
| 55>    C       -8.86127        -5.75919        13.42995
| 56>    C       -4.48772        -4.47250        11.29821
| 57>    C       -3.14928        -4.91055        11.47295
| 58>    C       -2.78793        -5.88250        12.35060
| 59>    C       -1.45577        -6.33032        12.53417
| 60>    C       -1.02367        -7.28925        13.39358
| 61>    C        0.41725        -7.44872        13.27824
| 62>    C        0.90329        -6.60421        12.35421
| 63>    C       -0.22624        -5.82297        11.79680
| 64>    O       -0.17381        -4.97274        10.94155
| 65>    H       -5.77871         5.55424         0.52891
| 66>    H       -4.52402         6.36349        -1.67649
| 67>    H       -1.98281         5.60395        -1.54038
| 68>    H        5.26493         4.03971        -0.84806
| 69>    H        4.99132         2.40263         1.28053
| 70>    H       -2.61215         2.84863         2.70537
| 71>    H        0.00724         1.57690         3.66609
| 72>    H       -0.25325         0.01363         5.50049
| 73>    H       -1.70791        -1.77094         7.87947
| 74>    H       -5.37472         0.02246         6.75781
| 75>    H       -3.91549         1.80400         4.38021
| 76>    H       -5.63090        -1.61713         8.60743
| 77>    H       -3.02279        -2.96586         9.46418
| 78>    H      -10.85412        -4.85425        12.92368
| 79>    H       -9.10940        -6.47532        14.18835
| 80>    H       -2.38809        -4.43837        10.86990
| 81>    H       -3.54478        -6.36142        12.96057
| 82>    H       -1.63763        -7.85629        14.06925
| 83>    H        0.97995        -8.15409        13.86436
| 84>    H        1.91952        -6.47652        12.03418
| 85> *
| 86>
| 87>                          ****END OF INPUT****

CARTESIAN COORDINATES (ANGSTROEM)
---------------------------------
  C     -4.750380    5.411400    0.257080
  C     -4.107940    5.819180   -0.847670
  C     -2.716430    5.410570   -0.779800
  C     -2.471210    4.734080    0.378760
  C     -3.780500    4.709600    1.140040
  O     -4.016230    4.263390    2.234600
  C     -1.176610    4.227820    0.702920
  N     -0.167590    4.630260   -0.064710
  C      0.934710    4.024920    0.408280
  C      0.623910    3.171730    1.557450
  C      1.842950    2.512910    2.045260
  O      1.971820    1.736230    2.972650
  C      2.880010    3.019900    1.129320
  C      2.284380    3.939980    0.143790
  N      3.226080    4.401510   -0.712990
  C      4.345660    3.835550   -0.327120
  C      4.200930    2.958660    0.816140
  C     -0.736400    3.283660    1.763310
  C     -1.556130    2.638370    2.722100
  C     -1.055680    1.783000    3.653480
  C     -1.830410    1.116040    4.629430
  N     -1.236100    0.230490    5.501930
  C     -2.190890   -0.279250    6.320750
  C     -2.417970   -1.157530    7.363660
  C     -3.803150   -1.098220    7.631100
  N     -4.392630   -0.194860    6.765790
  C     -3.436960    0.317000    5.952500
  C     -3.209980    1.186810    4.897750
  C     -4.565740   -1.806270    8.573020
  C     -4.076900   -2.736060    9.449290
  C     -4.921700   -3.427010   10.336710
  N     -6.240810   -3.209300   10.381560
  C     -6.720120   -4.043720   11.309410
  C     -5.654240   -4.861160   11.912360
  C     -6.214970   -5.772530   12.923060
  O     -5.633050   -6.588050   13.611260
  C     -7.649130   -5.452910   12.887980
  C     -7.919480   -4.398790   11.896230
  N     -9.236720   -4.100710   11.859030
  C     -9.792040   -4.892510   12.753280
  C     -8.861270   -5.759190   13.429950
  C     -4.487720   -4.472500   11.298210
  C     -3.149280   -4.910550   11.472950
  C     -2.787930   -5.882500   12.350600
  C     -1.455770   -6.330320   12.534170
  C     -1.023670   -7.289250   13.393580
  C      0.417250   -7.448720   13.278240
  C      0.903290   -6.604210   12.354210
  C     -0.226240   -5.822970   11.796800
  O     -0.173810   -4.972740   10.941550
  H     -5.778710    5.554240    0.528910
  H     -4.524020    6.363490   -1.676490
  H     -1.982810    5.603950   -1.540380
  H      5.264930    4.039710   -0.848060
  H      4.991320    2.402630    1.280530
  H     -2.612150    2.848630    2.705370
  H      0.007240    1.576900    3.666090
  H     -0.253250    0.013630    5.500490
  H     -1.707910   -1.770940    7.879470
  H     -5.374720    0.022460    6.757810
  H     -3.915490    1.804000    4.380210
  H     -5.630900   -1.617130    8.607430
  H     -3.022790   -2.965860    9.464180
  H    -10.854120   -4.854250   12.923680
  H     -9.109400   -6.475320   14.188350
  H     -2.388090   -4.438370   10.869900
  H     -3.544780   -6.361420   12.960570
  H     -1.637630   -7.856290   14.069250
  H      0.979950   -8.154090   13.864360
  H      1.919520   -6.476520   12.034180

 Total Charge           Charge          ....    0
 Multiplicity           Mult            ....    1
 Number of Electrons    NEL             ....  334
 Basis Dimension        Dim             ....  800

ORBITAL ENERGIES
----------------

  NO   OCC          E(Eh)            E(eV)
   0   2.0000     -19.256838      -524.0052
   1   2.0000     -19.224511      -523.1256
   2   2.0000     -19.210496      -522.7442
   3   2.0000     -19.188347      -522.1415
   4   2.0000     -14.467483      -393.6802
   5   2.0000     -14.465204      -393.6182
   6   2.0000     -14.410454      -392.1284
   7   2.0000     -14.402353      -391.9079
   8   2.0000     -14.380859      -391.3231
   9   2.0000     -14.376344      -391.2002
  10   2.0000     -10.396178      -282.8944
  11   2.0000     -10.370158      -282.1863
  12   2.0000     -10.361003      -281.9372
  13   2.0000     -10.351575      -281.6807
  14   2.0000     -10.348082      -281.5856
  15   2.0000     -10.330512      -281.1075
  16   2.0000     -10.325130      -280.9611
  17   2.0000     -10.320293      -280.8294
  18   2.0000     -10.319321      -280.8030
  19   2.0000     -10.318992      -280.7940
  20   2.0000     -10.318315      -280.7756
  21   2.0000     -10.316895      -280.7370
  22   2.0000     -10.314715      -280.6777
  23   2.0000     -10.308803      -280.5168
  24   2.0000     -10.307898      -280.4922
  25   2.0000     -10.306973      -280.4670
  26   2.0000     -10.306384      -280.4510
  27   2.0000     -10.305755      -280.4339
  28   2.0000     -10.305403      -280.4243
  29   2.0000     -10.297407      -280.2067
  30   2.0000     -10.291669      -280.0505
  31   2.0000     -10.291243      -280.0389
  32   2.0000     -10.288789      -279.9722
  33   2.0000     -10.287058      -279.9251
  34   2.0000     -10.284464      -279.8545
  35   2.0000     -10.282862      -279.8109
  36   2.0000     -10.282470      -279.8002
  37   2.0000     -10.282431      -279.7992
  38   2.0000     -10.281186      -279.7653
  39   2.0000     -10.279563      -279.7211
  40   2.0000     -10.275441      -279.6090
  41   2.0000     -10.274723      -279.5894
  42   2.0000     -10.272041      -279.5164
  43   2.0000     -10.271653      -279.5059
  44   2.0000     -10.267734      -279.3993
  45   2.0000     -10.267553      -279.3943
  46   2.0000     -10.266792      -279.3736
  47   2.0000     -10.266452      -279.3644
  48   2.0000     -10.259658      -279.1795
  49   2.0000     -10.258512      -279.1483
  50   2.0000      -1.167559       -31.7709
  51   2.0000      -1.133596       -30.8467
  52   2.0000      -1.123755       -30.5789
  53   2.0000      -1.101862       -29.9832
  54   2.0000      -1.099755       -29.9259
  55   2.0000      -1.077768       -29.3276
  56   2.0000      -1.062892       -28.9228
  57   2.0000      -1.056772       -28.7562
  58   2.0000      -1.050671       -28.5902
  59   2.0000      -1.029059       -28.0021
  60   2.0000      -0.992103       -26.9965
  61   2.0000      -0.959207       -26.1013
  62   2.0000      -0.933344       -25.3976
  63   2.0000      -0.916890       -24.9499
  64   2.0000      -0.915557       -24.9136
  65   2.0000      -0.900376       -24.5005
  66   2.0000      -0.893083       -24.3020
  67   2.0000      -0.879725       -23.9385
  68   2.0000      -0.871786       -23.7225
  69   2.0000      -0.869044       -23.6479
  70   2.0000      -0.849616       -23.1192
  71   2.0000      -0.845166       -22.9981
  72   2.0000      -0.840701       -22.8766
  73   2.0000      -0.828905       -22.5556
  74   2.0000      -0.800092       -21.7716
  75   2.0000      -0.790016       -21.4974
  76   2.0000      -0.786536       -21.4027
  77   2.0000      -0.773709       -21.0537
  78   2.0000      -0.760316       -20.6893
  79   2.0000      -0.752884       -20.4870
  80   2.0000      -0.743761       -20.2388
  81   2.0000      -0.731082       -19.8938
  82   2.0000      -0.719577       -19.5807
  83   2.0000      -0.708606       -19.2822
  84   2.0000      -0.702540       -19.1171
  85   2.0000      -0.691876       -18.8269
  86   2.0000      -0.687707       -18.7135
  87   2.0000      -0.684289       -18.6204
  88   2.0000      -0.674707       -18.3597
  89   2.0000      -0.659639       -17.9497
  90   2.0000      -0.649233       -17.6665
  91   2.0000      -0.642976       -17.4963
  92   2.0000      -0.636738       -17.3265
  93   2.0000      -0.629991       -17.1429
  94   2.0000      -0.624475       -16.9928
  95   2.0000      -0.617228       -16.7956
  96   2.0000      -0.611236       -16.6326
  97   2.0000      -0.605106       -16.4658
  98   2.0000      -0.602537       -16.3959
  99   2.0000      -0.596240       -16.2245
 100   2.0000      -0.585320       -15.9274
 101   2.0000      -0.582636       -15.8543
 102   2.0000      -0.574671       -15.6376
 103   2.0000      -0.572920       -15.5899
 104   2.0000      -0.571698       -15.5567
 105   2.0000      -0.556642       -15.1470
 106   2.0000      -0.549570       -14.9546
 107   2.0000      -0.548991       -14.9388
 108   2.0000      -0.547315       -14.8932
 109   2.0000      -0.544022       -14.8036
 110   2.0000      -0.542030       -14.7494
 111   2.0000      -0.534391       -14.5415
 112   2.0000      -0.532700       -14.4955
 113   2.0000      -0.529686       -14.4135
 114   2.0000      -0.524928       -14.2840
 115   2.0000      -0.522676       -14.2227
 116   2.0000      -0.520565       -14.1653
 117   2.0000      -0.519019       -14.1232
 118   2.0000      -0.515357       -14.0236
 119   2.0000      -0.510939       -13.9034
 120   2.0000      -0.505950       -13.7676
 121   2.0000      -0.503019       -13.6878
 122   2.0000      -0.501730       -13.6528
 123   2.0000      -0.499396       -13.5893
 124   2.0000      -0.495849       -13.4927
 125   2.0000      -0.492089       -13.3904
 126   2.0000      -0.489040       -13.3075
 127   2.0000      -0.485605       -13.2140
 128   2.0000      -0.483317       -13.1517
 129   2.0000      -0.481770       -13.1096
 130   2.0000      -0.472654       -12.8616
 131   2.0000      -0.471823       -12.8389
 132   2.0000      -0.471138       -12.8203
 133   2.0000      -0.465766       -12.6741
 134   2.0000      -0.464184       -12.6311
 135   2.0000      -0.460759       -12.5379
 136   2.0000      -0.458232       -12.4691
 137   2.0000      -0.451779       -12.2935
 138   2.0000      -0.448491       -12.2041
 139   2.0000      -0.448134       -12.1943
 140   2.0000      -0.441587       -12.0162
 141   2.0000      -0.433443       -11.7946
 142   2.0000      -0.432266       -11.7626
 143   2.0000      -0.429943       -11.6993
 144   2.0000      -0.413322       -11.2471
 145   2.0000      -0.404773       -11.0144
 146   2.0000      -0.393196       -10.6994
 147   2.0000      -0.382658       -10.4127
 148   2.0000      -0.367369        -9.9966
 149   2.0000      -0.362878        -9.8744
 150   2.0000      -0.361950        -9.8491
 151   2.0000      -0.357760        -9.7351
 152   2.0000      -0.351324        -9.5600
 153   2.0000      -0.336290        -9.1509
 154   2.0000      -0.332165        -9.0387
 155   2.0000      -0.330247        -8.9865
 156   2.0000      -0.328666        -8.9435
 157   2.0000      -0.325738        -8.8638
 158   2.0000      -0.325362        -8.8536
 159   2.0000      -0.319607        -8.6970
 160   2.0000      -0.305178        -8.3043
 161   2.0000      -0.304437        -8.2842
 162   2.0000      -0.300863        -8.1869
 163   2.0000      -0.297860        -8.1052
 164   2.0000      -0.281827        -7.6689
 165   2.0000      -0.251504        -6.8438
 166   2.0000      -0.225633        -6.1398
 167   0.0000      -0.124381        -3.3846
 168   0.0000      -0.100748        -2.7415
 169   0.0000      -0.084079        -2.2879
 170   0.0000      -0.070150        -1.9089
 171   0.0000      -0.047721        -1.2986

MULLIKEN ATOMIC CHARGES
-----------------------
   0 C :   -0.008931
   1 C :    0.070667
   2 C :    0.030895
   3 C :   -0.095093
   4 C :    0.159996
   5 O :   -0.110985
   6 C :    0.062502
   7 N :   -0.053574
   8 C :    0.074424
   9 C :   -0.181813
  10 C :    0.221634
  11 O :   -0.161472
  12 C :   -0.006950
  13 C :   -0.041786
  14 N :   -0.059246
  15 C :    0.085700
  16 C :   -0.097393
  17 C :    0.056721
  18 C :   -0.060364
  19 C :    0.025990
  20 C :    0.101877
  21 N :   -0.028480
  22 C :    0.128976
  23 C :   -0.150981
  24 C :    0.106067
  25 N :   -0.029533
  26 C :    0.135208
  27 C :   -0.174501
  28 C :    0.051351
  29 C :   -0.083166
  30 C :    0.056201
  31 N :   -0.061446
  32 C :    0.065647
  33 C :   -0.167331
  34 C :    0.211566
  35 O :   -0.158946
  36 C :   -0.017105
  37 C :   -0.058335
  38 N :   -0.063487
  39 C :    0.073997
  40 C :   -0.105155
  41 C :    0.069694
  42 C :   -0.056022
  43 C :    0.012070
  44 C :   -0.004311
  45 C :   -0.024545
  46 C :    0.065829
  47 C :   -0.029232
  48 C :    0.145827
  49 O :   -0.134841
  50 H :    0.009491
  51 H :    0.018227
  52 H :    0.033639
  53 H :    0.006008
  54 H :   -0.008379
  55 H :   -0.019694
  56 H :   -0.016526
  57 H :    0.136978
  58 H :   -0.012370
  59 H :    0.129143
  60 H :   -0.015961
  61 H :    0.005948
  62 H :   -0.009668
  63 H :   -0.006344
  64 H :   -0.020258
  65 H :   -0.012668
  66 H :   -0.005495
  67 H :    0.005654
  68 H :    0.003820
  69 H :   -0.009359
Sum of atomic charges:    0.0000000

LOEWDIN ATOMIC CHARGES
----------------------
   0 C :   -0.025870
   1 C :    0.015660
   2 C :    0.089911
   3 C :   -0.094455
   4 C :    0.103485
   5 O :   -0.081914
   6 C :    0.079446
   7 N :   -0.104141
   8 C :    0.046484
   9 C :   -0.066949
  10 C :    0.071762
  11 O :   -0.156651
  12 C :   -0.041418
  13 C :    0.015109
  14 N :   -0.098592
  15 C :    0.067329
  16 C :   -0.036707
  17 C :   -0.018404
  18 C :   -0.037469
  19 C :    0.002040
  20 C :    0.016854
  21 N :    0.076680
  22 C :   -0.012848
  23 C :   -0.058688
  24 C :   -0.009448
  25 N :    0.076282
  26 C :    0.000771
  27 C :   -0.086141
  28 C :    0.047567
  29 C :   -0.065683
  30 C :    0.070274
  31 N :   -0.131101
  32 C :    0.048482
  33 C :   -0.046893
  34 C :    0.066686
  35 O :   -0.159147
  36 C :   -0.050621
  37 C :   -0.005023
  38 N :   -0.105793
  39 C :    0.047798
  40 C :   -0.052407
  41 C :   -0.025839
  42 C :   -0.027367
  43 C :    0.009737
  44 C :   -0.058120
  45 C :   -0.000058
  46 C :    0.024007
  47 C :   -0.065656
  48 C :    0.101818
  49 O :   -0.105187
  50 H :    0.037229
  51 H :    0.037643
  52 H :    0.043791
  53 H :    0.022107
  54 H :    0.032975
  55 H :    0.022897
  56 H :    0.029000
  57 H :    0.098058
  58 H :    0.032216
  59 H :    0.094902
  60 H :    0.030699
  61 H :    0.041493
  62 H :    0.030844
  63 H :    0.016605
  64 H :    0.028081
  65 H :    0.025378
  66 H :    0.034200
  67 H :    0.032214
  68 H :    0.031159
  69 H :    0.028917

  Mayer bond orders larger than 0.100000
B(  0-C ,  1-C ) :   1.7164 B(  0-C ,  4-C ) :   0.9887 B(  0-C , 50-H ) :   1.0116
B(  1-C ,  2-C ) :   0.9964 B(  1-C , 51-H ) :   1.0029 B(  2-C ,  3-C ) :   1.6860
B(  2-C , 52-H ) :   1.0005 B(  3-C ,  4-C ) :   0.9001 B(  3-C ,  6-C ) :   1.0633
B(  4-C ,  5-O ) :   2.1646 B(  6-C ,  7-N ) :   1.6393 B(  6-C ,  8-C ) :   0.1172
B(  6-C , 17-C ) :   1.0197 B(  7-N ,  8-C ) :   1.3488 B(  8-C ,  9-C ) :   1.0678
B(  8-C , 13-C ) :   1.4041 B(  9-C , 10-C ) :   0.9104 B(  9-C , 17-C ) :   1.4980
B( 10-C , 11-O ) :   2.1452 B( 10-C , 12-C ) :   0.9396 B( 11-O , 56-H ) :   0.1221
B( 12-C , 13-C ) :   1.0737 B( 12-C , 16-C ) :   1.5971 B( 13-C , 14-N ) :   1.3168
B( 14-N , 15-C ) :   1.6532 B( 15-C , 16-C ) :   1.0722 B( 15-C , 53-H ) :   0.9896
B( 16-C , 54-H ) :   1.0115 B( 17-C , 18-C ) :   1.1620 B( 18-C , 19-C ) :   1.6130
B( 18-C , 55-H ) :   0.9586 B( 19-C , 20-C ) :   1.1101 B( 19-C , 56-H ) :   0.9392
B( 20-C , 21-N ) :   1.1868 B( 20-C , 27-C ) :   1.3792 B( 21-N , 22-C ) :   1.1643
B( 21-N , 57-H ) :   0.9317 B( 22-C , 23-C ) :   1.3069 B( 22-C , 26-C ) :   1.2578
B( 23-C , 24-C ) :   1.3310 B( 23-C , 58-H ) :   1.0335 B( 24-C , 25-N ) :   1.1508
B( 24-C , 28-C ) :   1.1516 B( 25-N , 26-C ) :   1.1895 B( 25-N , 59-H ) :   0.9356
B( 26-C , 27-C ) :   1.2622 B( 27-C , 60-H ) :   1.0373 B( 28-C , 29-C ) :   1.5312
B( 28-C , 61-H ) :   0.9759 B( 29-C , 30-C ) :   1.2276 B( 29-C , 62-H ) :   0.9638
B( 30-C , 31-N ) :   1.5102 B( 30-C , 32-C ) :   0.1094 B( 30-C , 41-C ) :   0.9858
B( 31-N , 32-C ) :   1.4207 B( 32-C , 33-C ) :   1.0550 B( 32-C , 37-C ) :   1.3473
B( 33-C , 34-C ) :   0.8958 B( 33-C , 41-C ) :   1.5457 B( 34-C , 35-O ) :   2.1666
B( 34-C , 36-C ) :   0.9454 B( 35-O , 66-H ) :   0.1075 B( 36-C , 37-C ) :   1.0962
B( 36-C , 40-C ) :   1.5488 B( 37-C , 38-N ) :   1.3506 B( 38-N , 39-C ) :   1.6171
B( 39-C , 40-C ) :   1.1147 B( 39-C , 63-H ) :   0.9897 B( 40-C , 64-H ) :   1.0115
B( 41-C , 42-C ) :   1.1097 B( 42-C , 43-C ) :   1.6297 B( 42-C , 65-H ) :   0.9622
B( 43-C , 44-C ) :   1.1366 B( 43-C , 66-H ) :   0.9622 B( 44-C , 45-C ) :   1.6549
B( 44-C , 48-C ) :   0.8895 B( 45-C , 46-C ) :   1.0140 B( 45-C , 67-H ) :   1.0088
B( 46-C , 47-C ) :   1.7157 B( 46-C , 68-H ) :   1.0014 B( 47-C , 48-C ) :   0.9961
B( 47-C , 69-H ) :   1.0141 B( 48-C , 49-O ) :   2.1577

-----------------------------------------------------------------------------
         ABSORPTION SPECTRUM VIA TRANSITION ELECTRIC DIPOLE MOMENTS
-----------------------------------------------------------------------------
State   Energy  Wavelength   fosc         T2         TX        TY        TZ
        (cm-1)    (nm)                  (au**2)     (au)      (au)      (au)
-----------------------------------------------------------------------------
   0    8500.1   1176.5   0.177943108   6.89183   1.58680   1.17915  -1.72729
   1   13657.5    732.2   1.535583558  37.01498   2.79999   3.30288  -4.27388
   2   16318.3    612.8   0.107134121   2.16137  -1.41584  -0.04174   0.39373
   3   17231.7    580.3   0.151908209   2.90220  -1.39517  -0.54778   0.80972
   4   19271.9    518.9   0.175731765   3.00194   1.04285  -1.04588   0.90584
   5   20002.3    499.9   0.022994971   0.37847   0.59400  -0.15799   0.02590
   6   20964.8    477.0   0.345591132   5.42684   1.90415   0.66753  -1.16424
   7   21059.9    474.8   0.101150372   1.58120   1.05451  -0.52088   0.44486
   8   21522.6    464.6   0.083723599   1.28064   1.05105  -0.39694   0.13559
   9   21845.3    457.8   0.194303512   2.92818   1.69284  -0.18478  -0.16831
  10   22034.8    453.8   0.000160665   0.00240  -0.01178   0.02919   0.03754
  11   23742.9    421.2   0.028653477   0.39730   0.50173   0.12357  -0.36096
  12   24144.0    414.2   0.004233742   0.05773   0.11993   0.13074  -0.16202
  13   24357.9    410.5   0.020234030   0.27348   0.29847  -0.30463   0.30264
  14   24389.5    410.0   0.018164871   0.24519   0.27641   0.24334  -0.33102
  15   24660.6    405.5   0.000093905   0.00125   0.02151   0.02540   0.01208
  16   24680.8    405.2   0.007447276   0.09934  -0.18626  -0.10995   0.22925
  17   25027.7    399.6   0.000580546   0.00764  -0.07100   0.04032  -0.03115
  18   25799.1    387.6   0.000014110   0.00018  -0.00103  -0.01142   0.00697
  19   26089.4    383.3   0.003144463   0.03968   0.11492  -0.00652  -0.16257
  20   26748.8    373.8   0.161906867   1.99267  -1.36675   0.00179   0.35308
  21   27029.4    370.0   0.003081180   0.03753   0.05855  -0.15145  -0.10565
  22   27645.8    361.7   0.031490403   0.37499   0.01877  -0.40965   0.45478
  23   27688.4    361.2   0.002343554   0.02786   0.05058   0.04893   0.15137
  24   28276.8    353.6   0.133111390   1.54975  -1.14183   0.43377  -0.24047
  25   28933.5    345.6   0.165836673   1.88693   1.15751  -0.62725   0.39198
  26   29513.1    338.8   0.052197085   0.58225  -0.75251   0.07829   0.09926
  27   29912.7    334.3   0.014651645   0.16125   0.16786   0.23150  -0.28193
  28   30356.6    329.4   0.000031898   0.00035   0.01228   0.00228   0.01378
  29   30736.3    325.3   0.068692270   0.73575   0.74359   0.19617  -0.37993
  30   30779.5    324.9   0.000163515   0.00175  -0.00484   0.03838  -0.01588
  31   31215.0    320.4   0.196705838   2.07458  -0.45127  -0.85705   1.06602
  32   31804.1    314.4   0.002651274   0.02744  -0.04078  -0.09983   0.12576
  33   32697.1    305.8   0.032803145   0.33028   0.55691  -0.04690  -0.13392
  34   33044.0    302.6   0.002680718   0.02671   0.14847  -0.05584   0.03933
  35   33061.3    302.5   0.016991166   0.16919  -0.37682   0.14173  -0.08431
  36   33157.6    301.6   0.182493204   1.81192  -1.30663   0.29896  -0.12356
  37   33884.2    295.1   0.013886582   0.13492   0.36298  -0.04501  -0.03379
  38   33937.2    294.7   0.011813214   0.11460   0.04066  -0.25704   0.21650
  39   34111.5    293.2   0.002462112   0.02376  -0.14501   0.05229  -0.00080
  40   34366.7    291.0   0.063972606   0.61282   0.76533  -0.16104  -0.03408
  41   34624.2    288.8   0.000535092   0.00509   0.06497  -0.02246   0.01904
  42   34748.3    287.8   0.427215138   4.04751   1.82037  -0.73510   0.43977
  43   35460.6    282.0   0.003029671   0.02813   0.12602   0.10137  -0.04437
  44   35819.5    279.2   0.011362437   0.10443  -0.04189   0.21434  -0.23819
  45   36280.0    275.6   0.009176931   0.08327  -0.28525  -0.03666   0.02365
  46   36526.8    273.8   0.000046813   0.00042   0.00528   0.01426   0.01381
  47   36606.2    273.2   0.010763843   0.09680   0.29753   0.02582  -0.08725
  48   36830.6    271.5   0.005041060   0.04506  -0.15814   0.09976  -0.10049
  49   37006.3    270.2   0.011200312   0.09964  -0.07371  -0.18465   0.24517
  50   37209.3    268.7   0.045256273   0.40041  -0.61832   0.08803   0.10168
  51   37246.6    268.5   0.007612650   0.06729   0.25613  -0.02147  -0.03496
  52   37273.6    268.3   0.000559710   0.00494  -0.06716  -0.01497  -0.01447
  53   37409.2    267.3   0.003924760   0.03454   0.15683  -0.09786   0.01912
  54   37839.9    264.3   0.000287169   0.00250   0.04768  -0.01491  -0.00161
  55   38086.3    262.6   0.103165149   0.89174  -0.92919   0.16612   0.02754
  56   38274.8    261.3   0.058409082   0.50239  -0.41634  -0.30481   0.48595
  57   38694.3    258.4   0.000048547   0.00041  -0.01049   0.01661   0.00521
  58   38820.4    257.6   0.014221271   0.12060   0.31140   0.07855  -0.13215
  59   38932.1    256.9   0.000662806   0.00560   0.00505   0.05030   0.05522
  60   39156.1    255.4   0.012344031   0.10378   0.31688  -0.05802   0.00164
  61   39456.7    253.4   0.243357353   2.03048  -1.30279   0.49736  -0.29302
  62   39581.9    252.6   0.000532200   0.00443   0.04381  -0.04961  -0.00674
  63   40183.9    248.9   0.000041743   0.00034  -0.00319  -0.01044  -0.01493

FINAL SINGLE POINT ENERGY     -2162.743425728200

DIPOLE MOMENT
-------------
                                X             Y             Z
Electronic contribution:     -0.20701       8.08325      -7.91686
Nuclear contribution   :      1.11709      -6.45712       5.42192
                        -----------------------------------------
Total Dipole Moment    :      0.91008       1.62613      -2.49494
                        -----------------------------------------
Magnitude (a.u.)       :      3.11405
Magnitude (Debye)      :      7.91528

Rotational constants in cm-1:     0.003139     0.000540     0.000461
Rotational constants in MHz :    94.095674    16.190222    13.826874

                             ****ORCA TERMINATED NORMALLY****
TOTAL RUN TIME: 0 days 0 hours 4 minutes 34 seconds 664 msec
