                         Program Version 4.2.0 -  RELEASE  -
|  1> # ORCA input file
|  2> # SCF done       -208.483733995100          0.000743375798
|  3> ! CAM-B3LYP def2-SVP def2/J RIJCOSX Grid4 TightSCF
|  4> %maxcore 5000
|  5> %tddft
|  6>     Mode sTDDFT
|  7>     Ethresh 5.0
|  8>     maxcore 5000
|  9> end
| 10>
| 11> %pal
| 12>   nprocs 6
| 13>   end
| 14> * xyz 0 1
| 15>    C       -1.62824         0.67510         2.00452
| 16>    C       -2.76596         0.76309         2.76100
| 17>    C       -3.50401        -0.35295         3.21192
| 18>    N       -4.14871        -1.21395         3.61205
| 19>    C       -3.36339         1.96206         3.20524
| 20>    N       -3.90845         2.89143         3.60161
| 21>    C       -1.02779        -0.55793         1.51252
| 22>    C        0.13479        -0.23298         0.75536
| 23>    C        0.89808        -1.19184         0.15240
| 24>    C        0.52260        -2.54744         0.27541
| 25>    C       -0.63408        -2.88330         1.03795
| 26>    C       -1.40126        -1.86899         1.65485
| 27>    C       -0.99698        -4.24030         1.15821
| 28>    C       -0.25700        -5.21884         0.55187
| 29>    C        0.87907        -4.88656        -0.20152
| 30>    C        1.26092        -3.57923        -0.33678
| 31>    C        0.32658         1.22020         0.74775
| 32>    O        1.28093         1.82805         0.30803
| 33>    C       -0.83338         1.78581         1.50089
| 34>    C       -1.01302         3.10722         1.76384
| 35>    C       -0.30860         4.15670         1.10763
| 36>    S        0.12822         5.61607         1.92568
| 37>    C        0.99085         6.21623         0.54330
| 38>    C        0.85829         5.34889        -0.53241
| 39>    C        0.10811         4.20604        -0.21784
| 40>    O       -0.31159         3.26077        -1.09348
| 41>    C        0.17952         3.06681        -2.32144
| 42>    O       -0.22747         2.15532        -2.98388
| 43>    C        1.19805         4.02495        -2.92587
| 44>    O        1.74586         3.79096        -3.96214
| 45>    S        1.47413         5.61060        -2.15594
| 46>    C        1.62667         7.48962         0.68964
| 47>    N        2.83671         7.90210         0.19225
| 48>    C        3.86715         7.10615        -0.43234
| 49>    C        4.29148         5.92087         0.42729
| 50>    C        3.11843         9.23569         0.57741
| 51>    O        4.14727         9.80883         0.28098
| 52>    C        1.96837         9.64634         1.34309
| 53>    C        1.08763         8.53906         1.41973
| 54>    C       -0.09019         8.94483         2.15912
| 55>    O       -1.09246         8.34333         2.47710
| 56>    N        0.15694        10.29277         2.47694
| 57>    C       -0.77592        11.05614         3.27337
| 58>    C       -0.33702        11.15158         4.73185
| 59>    C        1.37791        10.71960         2.01083
| 60>    C        1.87332        12.03026         2.21510
| 61>    C        3.10073        12.42191         1.77939
| 62>    C        3.66100        13.70646         1.98706
| 63>    S        5.25887        14.05612         1.42376
| 64>    C        5.24443        15.66288         2.10214
| 65>    C        4.00726        15.92121         2.69383
| 66>    C        3.13170        14.82988         2.62963
| 67>    O        1.87851        14.78971         3.15383
| 68>    C        1.20530        15.83243         3.67000
| 69>    O        0.12254        15.63538         4.14484
| 70>    C        1.78267        17.23736         3.63854
| 71>    O        1.10795        18.18948         3.91531
| 72>    S        3.50637        17.48362         3.29289
| 73>    C        6.39263        16.46862         1.92243
| 74>    C        6.85877        17.45621         2.74143
| 75>    C        7.98321        18.33623         2.46661
| 76>    C        8.56426        18.54786         1.24482
| 77>    C        9.64121        19.43345         1.02654
| 78>    N       10.52216        20.12972         0.78972
| 79>    C        8.14992        17.94094         0.04001
| 80>    N        7.85403        17.49704        -0.97654
| 81>    C        8.32350        19.02001         3.70733
| 82>    C        7.40497        18.61142         4.71776
| 83>    C        6.45767        17.64356         4.15444
| 84>    O        5.56944        17.05525         4.74291
| 85>    C        7.46971        19.09620         5.99259
| 86>    C        8.47397        20.03353         6.32171
| 87>    C        9.40024        20.44386         5.31910
| 88>    C        9.30986        19.92187         4.00797
| 89>    C       10.40012        21.37689         5.66044
| 90>    C       10.48148        21.88301         6.92955
| 91>    C        9.56856        21.47914         7.91506
| 92>    C        8.58568        20.57405         7.61758
| 93>    H        1.77118        -0.91681        -0.42034
| 94>    H       -2.27020        -2.15758         2.22445
| 95>    H       -1.87341        -4.49140         1.73733
| 96>    H       -0.54409        -6.25509         0.64837
| 97>    H        1.44985        -5.67156        -0.67438
| 98>    H        2.13386        -3.31692        -0.91613
| 99>    H       -1.70592         3.41982         2.53384
|100>    H        4.70992         7.79099        -0.56800
|101>    H        3.53880         6.76734        -1.41754
|102>    H        4.58986         6.25937         1.41695
|103>    H        5.13779         5.42469        -0.03875
|104>    H        3.48730         5.19713         0.53519
|105>    H       -1.72916        10.52421         3.21153
|106>    H       -0.89869        12.05224         2.84058
|107>    H       -0.27002        10.15765         5.16758
|108>    H       -1.06454        11.73091         5.29269
|109>    H        0.63277        11.63620         4.81812
|110>    H        1.24169        12.72241         2.74753
|111>    H        3.72469        11.71826         1.24251
|112>    H        6.98475        16.20378         1.05456
|113>    H        6.76024        18.77186         6.73925
|114>    H       10.02894        20.24823         3.27346
|115>    H       11.10006        21.68624         4.89828
|116>    H       11.25013        22.59828         7.18065
|117>    H        9.64749        21.88842         8.91098
|118>    H        7.87970        20.25939         8.37204
|119> *
|120>
|121>                          ****END OF INPUT****

CARTESIAN COORDINATES (ANGSTROEM)
---------------------------------
  C     -1.628240    0.675100    2.004520
  C     -2.765960    0.763090    2.761000
  C     -3.504010   -0.352950    3.211920
  N     -4.148710   -1.213950    3.612050
  C     -3.363390    1.962060    3.205240
  N     -3.908450    2.891430    3.601610
  C     -1.027790   -0.557930    1.512520
  C      0.134790   -0.232980    0.755360
  C      0.898080   -1.191840    0.152400
  C      0.522600   -2.547440    0.275410
  C     -0.634080   -2.883300    1.037950
  C     -1.401260   -1.868990    1.654850
  C     -0.996980   -4.240300    1.158210
  C     -0.257000   -5.218840    0.551870
  C      0.879070   -4.886560   -0.201520
  C      1.260920   -3.579230   -0.336780
  C      0.326580    1.220200    0.747750
  O      1.280930    1.828050    0.308030
  C     -0.833380    1.785810    1.500890
  C     -1.013020    3.107220    1.763840
  C     -0.308600    4.156700    1.107630
  S      0.128220    5.616070    1.925680
  C      0.990850    6.216230    0.543300
  C      0.858290    5.348890   -0.532410
  C      0.108110    4.206040   -0.217840
  O     -0.311590    3.260770   -1.093480
  C      0.179520    3.066810   -2.321440
  O     -0.227470    2.155320   -2.983880
  C      1.198050    4.024950   -2.925870
  O      1.745860    3.790960   -3.962140
  S      1.474130    5.610600   -2.155940
  C      1.626670    7.489620    0.689640
  N      2.836710    7.902100    0.192250
  C      3.867150    7.106150   -0.432340
  C      4.291480    5.920870    0.427290
  C      3.118430    9.235690    0.577410
  O      4.147270    9.808830    0.280980
  C      1.968370    9.646340    1.343090
  C      1.087630    8.539060    1.419730
  C     -0.090190    8.944830    2.159120
  O     -1.092460    8.343330    2.477100
  N      0.156940   10.292770    2.476940
  C     -0.775920   11.056140    3.273370
  C     -0.337020   11.151580    4.731850
  C      1.377910   10.719600    2.010830
  C      1.873320   12.030260    2.215100
  C      3.100730   12.421910    1.779390
  C      3.661000   13.706460    1.987060
  S      5.258870   14.056120    1.423760
  C      5.244430   15.662880    2.102140
  C      4.007260   15.921210    2.693830
  C      3.131700   14.829880    2.629630
  O      1.878510   14.789710    3.153830
  C      1.205300   15.832430    3.670000
  O      0.122540   15.635380    4.144840
  C      1.782670   17.237360    3.638540
  O      1.107950   18.189480    3.915310
  S      3.506370   17.483620    3.292890
  C      6.392630   16.468620    1.922430
  C      6.858770   17.456210    2.741430
  C      7.983210   18.336230    2.466610
  C      8.564260   18.547860    1.244820
  C      9.641210   19.433450    1.026540
  N     10.522160   20.129720    0.789720
  C      8.149920   17.940940    0.040010
  N      7.854030   17.497040   -0.976540
  C      8.323500   19.020010    3.707330
  C      7.404970   18.611420    4.717760
  C      6.457670   17.643560    4.154440
  O      5.569440   17.055250    4.742910
  C      7.469710   19.096200    5.992590
  C      8.473970   20.033530    6.321710
  C      9.400240   20.443860    5.319100
  C      9.309860   19.921870    4.007970
  C     10.400120   21.376890    5.660440
  C     10.481480   21.883010    6.929550
  C      9.568560   21.479140    7.915060
  C      8.585680   20.574050    7.617580
  H      1.771180   -0.916810   -0.420340
  H     -2.270200   -2.157580    2.224450
  H     -1.873410   -4.491400    1.737330
  H     -0.544090   -6.255090    0.648370
  H      1.449850   -5.671560   -0.674380
  H      2.133860   -3.316920   -0.916130
  H     -1.705920    3.419820    2.533840
  H      4.709920    7.790990   -0.568000
  H      3.538800    6.767340   -1.417540
  H      4.589860    6.259370    1.416950
  H      5.137790    5.424690   -0.038750
  H      3.487300    5.197130    0.535190
  H     -1.729160   10.524210    3.211530
  H     -0.898690   12.052240    2.840580
  H     -0.270020   10.157650    5.167580
  H     -1.064540   11.730910    5.292690
  H      0.632770   11.636200    4.818120
  H      1.241690   12.722410    2.747530
  H      3.724690   11.718260    1.242510
  H      6.984750   16.203780    1.054560
  H      6.760240   18.771860    6.739250
  H     10.028940   20.248230    3.273460
  H     11.100060   21.686240    4.898280
  H     11.250130   22.598280    7.180650
  H      9.647490   21.888420    8.910980
  H      7.879700   20.259390    8.372040

 Total Charge           Charge          ....    0
 Multiplicity           Mult            ....    1
 Number of Electrons    NEL             ....  560
 Basis Dimension        Dim             .... 1238

ORBITAL ENERGIES
----------------

  NO   OCC          E(Eh)            E(eV)
   0   2.0000     -88.994539     -2421.6645
   1   2.0000     -88.990273     -2421.5484
   2   2.0000     -88.985939     -2421.4305
   3   2.0000     -88.983818     -2421.3728
   4   2.0000     -19.326629      -525.9043
   5   2.0000     -19.315791      -525.6094
   6   2.0000     -19.255864      -523.9787
   7   2.0000     -19.252690      -523.8923
   8   2.0000     -19.246610      -523.7269
   9   2.0000     -19.237964      -523.4916
  10   2.0000     -19.230415      -523.2862
  11   2.0000     -19.222565      -523.0726
  12   2.0000     -19.204697      -522.5864
  13   2.0000     -19.200904      -522.4832
  14   2.0000     -14.469294      -393.7295
  15   2.0000     -14.464514      -393.5994
  16   2.0000     -14.425418      -392.5356
  17   2.0000     -14.424054      -392.4985
  18   2.0000     -14.420403      -392.3991
  19   2.0000     -14.418585      -392.3496
  20   2.0000     -10.448491      -284.3179
  21   2.0000     -10.441382      -284.1245
  22   2.0000     -10.420396      -283.5534
  23   2.0000     -10.419380      -283.5257
  24   2.0000     -10.386944      -282.6431
  25   2.0000     -10.386826      -282.6399
  26   2.0000     -10.386272      -282.6248
  27   2.0000     -10.382237      -282.5150
  28   2.0000     -10.377679      -282.3910
  29   2.0000     -10.373633      -282.2809
  30   2.0000     -10.360130      -281.9135
  31   2.0000     -10.354496      -281.7602
  32   2.0000     -10.353780      -281.7407
  33   2.0000     -10.353739      -281.7396
  34   2.0000     -10.350759      -281.6585
  35   2.0000     -10.349310      -281.6190
  36   2.0000     -10.347792      -281.5777
  37   2.0000     -10.346690      -281.5477
  38   2.0000     -10.346450      -281.5412
  39   2.0000     -10.346004      -281.5291
  40   2.0000     -10.345253      -281.5086
  41   2.0000     -10.339023      -281.3391
  42   2.0000     -10.332606      -281.1645
  43   2.0000     -10.330856      -281.1169
  44   2.0000     -10.327571      -281.0275
  45   2.0000     -10.326193      -280.9900
  46   2.0000     -10.322411      -280.8871
  47   2.0000     -10.320995      -280.8486
  48   2.0000     -10.316724      -280.7323
  49   2.0000     -10.316225      -280.7188
  50   2.0000     -10.313278      -280.6386
  51   2.0000     -10.311421      -280.5880
  52   2.0000     -10.310277      -280.5569
  53   2.0000     -10.309932      -280.5475
  54   2.0000     -10.306610      -280.4571
  55   2.0000     -10.306216      -280.4464
  56   2.0000     -10.305349      -280.4228
  57   2.0000     -10.305273      -280.4207
  58   2.0000     -10.304973      -280.4126
  59   2.0000     -10.304863      -280.4096
  60   2.0000     -10.300277      -280.2848
  61   2.0000     -10.300069      -280.2791
  62   2.0000     -10.299717      -280.2695
  63   2.0000     -10.299554      -280.2651
  64   2.0000     -10.297765      -280.2164
  65   2.0000     -10.293216      -280.0926
  66   2.0000     -10.292719      -280.0791
  67   2.0000     -10.292485      -280.0727
  68   2.0000     -10.292024      -280.0602
  69   2.0000     -10.291689      -280.0511
  70   2.0000     -10.288576      -279.9664
  71   2.0000     -10.288056      -279.9522
  72   2.0000     -10.287857      -279.9468
  73   2.0000     -10.287379      -279.9338
  74   2.0000     -10.277588      -279.6674
  75   2.0000     -10.274440      -279.5817
  76   2.0000     -10.268990      -279.4334
  77   2.0000     -10.266468      -279.3648
  78   2.0000      -8.090061      -220.1417
  79   2.0000      -8.085126      -220.0075
  80   2.0000      -8.081607      -219.9117
  81   2.0000      -8.080112      -219.8710
  82   2.0000      -6.059347      -164.8832
  83   2.0000      -6.055329      -164.7739
  84   2.0000      -6.054462      -164.7503
  85   2.0000      -6.051915      -164.6810
  86   2.0000      -6.051292      -164.6640
  87   2.0000      -6.050277      -164.6364
  88   2.0000      -6.049849      -164.6248
  89   2.0000      -6.047043      -164.5484
  90   2.0000      -6.046817      -164.5423
  91   2.0000      -6.045663      -164.5109
  92   2.0000      -6.042710      -164.4305
  93   2.0000      -6.040836      -164.3795
  94   2.0000      -1.254347       -34.1325
  95   2.0000      -1.247198       -33.9380
  96   2.0000      -1.179783       -32.1035
  97   2.0000      -1.177750       -32.0482
  98   2.0000      -1.148345       -31.2480
  99   2.0000      -1.146513       -31.1982
 100   2.0000      -1.145175       -31.1618
 101   2.0000      -1.143189       -31.1077
 102   2.0000      -1.139196       -30.9991
 103   2.0000      -1.135973       -30.9114
 104   2.0000      -1.077763       -29.3274
 105   2.0000      -1.069050       -29.0903
 106   2.0000      -1.032630       -28.0993
 107   2.0000      -1.027154       -27.9503
 108   2.0000      -1.025235       -27.8981
 109   2.0000      -1.021338       -27.7920
 110   2.0000      -1.007607       -27.4184
 111   2.0000      -1.002971       -27.2922
 112   2.0000      -1.002023       -27.2664
 113   2.0000      -0.997644       -27.1473
 114   2.0000      -0.980363       -26.6770
 115   2.0000      -0.974919       -26.5289
 116   2.0000      -0.954264       -25.9669
 117   2.0000      -0.946531       -25.7564
 118   2.0000      -0.940090       -25.5812
 119   2.0000      -0.935150       -25.4467
 120   2.0000      -0.927145       -25.2289
 121   2.0000      -0.925562       -25.1858
 122   2.0000      -0.914613       -24.8879
 123   2.0000      -0.910362       -24.7722
 124   2.0000      -0.894980       -24.3536
 125   2.0000      -0.891760       -24.2660
 126   2.0000      -0.888422       -24.1752
 127   2.0000      -0.883723       -24.0473
 128   2.0000      -0.878579       -23.9074
 129   2.0000      -0.871710       -23.7204
 130   2.0000      -0.871673       -23.7194
 131   2.0000      -0.853131       -23.2149
 132   2.0000      -0.848167       -23.0798
 133   2.0000      -0.836111       -22.7518
 134   2.0000      -0.831060       -22.6143
 135   2.0000      -0.828605       -22.5475
 136   2.0000      -0.819413       -22.2974
 137   2.0000      -0.811907       -22.0931
 138   2.0000      -0.793899       -21.6031
 139   2.0000      -0.788320       -21.4513
 140   2.0000      -0.783061       -21.3082
 141   2.0000      -0.776320       -21.1248
 142   2.0000      -0.771462       -20.9925
 143   2.0000      -0.768409       -20.9095
 144   2.0000      -0.765891       -20.8410
 145   2.0000      -0.756062       -20.5735
 146   2.0000      -0.744881       -20.2692
 147   2.0000      -0.732563       -19.9341
 148   2.0000      -0.721032       -19.6203
 149   2.0000      -0.715566       -19.4715
 150   2.0000      -0.712040       -19.3756
 151   2.0000      -0.708231       -19.2720
 152   2.0000      -0.706771       -19.2322
 153   2.0000      -0.705147       -19.1880
 154   2.0000      -0.699120       -19.0240
 155   2.0000      -0.694224       -18.8908
 156   2.0000      -0.691198       -18.8084
 157   2.0000      -0.684443       -18.6246
 158   2.0000      -0.679177       -18.4814
 159   2.0000      -0.677542       -18.4368
 160   2.0000      -0.658917       -17.9300
 161   2.0000      -0.657712       -17.8973
 162   2.0000      -0.654930       -17.8215
 163   2.0000      -0.641923       -17.4676
 164   2.0000      -0.639308       -17.3965
 165   2.0000      -0.632650       -17.2153
 166   2.0000      -0.629235       -17.1224
 167   2.0000      -0.621973       -16.9248
 168   2.0000      -0.614634       -16.7250
 169   2.0000      -0.611273       -16.6336
 170   2.0000      -0.609948       -16.5975
 171   2.0000      -0.609372       -16.5818
 172   2.0000      -0.606096       -16.4927
 173   2.0000      -0.604180       -16.4406
 174   2.0000      -0.602253       -16.3881
 175   2.0000      -0.596427       -16.2296
 176   2.0000      -0.590527       -16.0691
 177   2.0000      -0.584547       -15.9063
 178   2.0000      -0.574789       -15.6408
 179   2.0000      -0.573801       -15.6139
 180   2.0000      -0.564669       -15.3654
 181   2.0000      -0.563829       -15.3426
 182   2.0000      -0.562353       -15.3024
 183   2.0000      -0.559655       -15.2290
 184   2.0000      -0.558374       -15.1941
 185   2.0000      -0.557186       -15.1618
 186   2.0000      -0.554566       -15.0905
 187   2.0000      -0.551581       -15.0093
 188   2.0000      -0.549538       -14.9537
 189   2.0000      -0.547006       -14.8848
 190   2.0000      -0.546322       -14.8662
 191   2.0000      -0.543667       -14.7939
 192   2.0000      -0.543524       -14.7900
 193   2.0000      -0.540861       -14.7176
 194   2.0000      -0.539306       -14.6753
 195   2.0000      -0.535017       -14.5585
 196   2.0000      -0.533955       -14.5296
 197   2.0000      -0.531949       -14.4751
 198   2.0000      -0.530443       -14.4341
 199   2.0000      -0.528876       -14.3914
 200   2.0000      -0.525990       -14.3129
 201   2.0000      -0.524068       -14.2606
 202   2.0000      -0.523181       -14.2365
 203   2.0000      -0.521343       -14.1865
 204   2.0000      -0.520692       -14.1688
 205   2.0000      -0.517735       -14.0883
 206   2.0000      -0.516239       -14.0476
 207   2.0000      -0.515702       -14.0330
 208   2.0000      -0.512538       -13.9469
 209   2.0000      -0.511025       -13.9057
 210   2.0000      -0.509184       -13.8556
 211   2.0000      -0.508649       -13.8410
 212   2.0000      -0.504064       -13.7163
 213   2.0000      -0.502713       -13.6795
 214   2.0000      -0.498792       -13.5728
 215   2.0000      -0.498432       -13.5630
 216   2.0000      -0.495333       -13.4787
 217   2.0000      -0.495037       -13.4706
 218   2.0000      -0.487125       -13.2553
 219   2.0000      -0.483933       -13.1685
 220   2.0000      -0.482259       -13.1229
 221   2.0000      -0.478297       -13.0151
 222   2.0000      -0.474817       -12.9204
 223   2.0000      -0.473293       -12.8789
 224   2.0000      -0.471314       -12.8251
 225   2.0000      -0.468093       -12.7375
 226   2.0000      -0.463273       -12.6063
 227   2.0000      -0.461375       -12.5547
 228   2.0000      -0.457665       -12.4537
 229   2.0000      -0.457341       -12.4449
 230   2.0000      -0.454830       -12.3766
 231   2.0000      -0.454681       -12.3725
 232   2.0000      -0.452694       -12.3184
 233   2.0000      -0.452445       -12.3117
 234   2.0000      -0.449592       -12.2340
 235   2.0000      -0.448286       -12.1985
 236   2.0000      -0.447587       -12.1795
 237   2.0000      -0.445951       -12.1349
 238   2.0000      -0.444677       -12.1003
 239   2.0000      -0.442166       -12.0320
 240   2.0000      -0.441906       -12.0249
 241   2.0000      -0.440613       -11.9897
 242   2.0000      -0.437027       -11.8921
 243   2.0000      -0.435913       -11.8618
 244   2.0000      -0.435077       -11.8390
 245   2.0000      -0.433070       -11.7844
 246   2.0000      -0.430969       -11.7273
 247   2.0000      -0.429873       -11.6974
 248   2.0000      -0.428753       -11.6669
 249   2.0000      -0.423987       -11.5373
 250   2.0000      -0.422773       -11.5042
 251   2.0000      -0.420156       -11.4330
 252   2.0000      -0.416967       -11.3462
 253   2.0000      -0.411745       -11.2042
 254   2.0000      -0.410610       -11.1733
 255   2.0000      -0.409058       -11.1310
 256   2.0000      -0.406485       -11.0610
 257   2.0000      -0.404058       -10.9950
 258   2.0000      -0.398024       -10.8308
 259   2.0000      -0.385260       -10.4835
 260   2.0000      -0.381811       -10.3896
 261   2.0000      -0.379669       -10.3313
 262   2.0000      -0.363925        -9.9029
 263   2.0000      -0.362673        -9.8688
 264   2.0000      -0.359427        -9.7805
 265   2.0000      -0.356893        -9.7116
 266   2.0000      -0.353929        -9.6309
 267   2.0000      -0.349041        -9.4979
 268   2.0000      -0.347010        -9.4426
 269   2.0000      -0.343760        -9.3542
 270   2.0000      -0.328967        -8.9517
 271   2.0000      -0.328119        -8.9286
 272   2.0000      -0.320571        -8.7232
 273   2.0000      -0.315975        -8.5981
 274   2.0000      -0.315184        -8.5766
 275   2.0000      -0.309684        -8.4269
 276   2.0000      -0.306139        -8.3305
 277   2.0000      -0.296879        -8.0785
 278   2.0000      -0.293978        -7.9995
 279   2.0000      -0.250848        -6.8259
 280   0.0000      -0.121208        -3.2982
 281   0.0000      -0.102128        -2.7790
 282   0.0000      -0.080468        -2.1896
 283   0.0000      -0.069395        -1.8883
 284   0.0000      -0.061021        -1.6605

MULLIKEN ATOMIC CHARGES
-----------------------
   0 C :    0.310630
   1 C :   -0.342790
   2 C :   -0.182802
   3 N :    0.152662
   4 C :   -0.193764
   5 N :    0.163569
   6 C :    0.053750
   7 C :   -0.000074
   8 C :   -0.069893
   9 C :    0.095578
  10 C :    0.096922
  11 C :   -0.082572
  12 C :   -0.017382
  13 C :    0.036223
  14 C :    0.038147
  15 C :   -0.014760
  16 C :    0.157154
  17 O :   -0.168521
  18 C :   -0.068984
  19 C :    0.017163
  20 C :   -0.147955
  21 S :    0.269473
  22 C :   -0.279820
  23 C :    0.011622
  24 C :    0.202687
  25 O :   -0.191511
  26 C :    0.220734
  27 O :   -0.116423
  28 C :   -0.001177
  29 O :   -0.108453
  30 S :    0.123318
  31 C :    0.120678
  32 N :   -0.254853
  33 C :    0.087098
  34 C :   -0.007511
  35 C :    0.168024
  36 O :   -0.205807
  37 C :   -0.077417
  38 C :   -0.063992
  39 C :    0.145783
  40 O :   -0.182728
  41 N :   -0.262622
  42 C :    0.093882
  43 C :    0.006898
  44 C :    0.150668
  45 C :   -0.032189
  46 C :    0.066949
  47 C :   -0.124214
  48 S :    0.215754
  49 C :   -0.176269
  50 C :    0.022730
  51 C :    0.161599
  52 O :   -0.217867
  53 C :    0.220469
  54 O :   -0.118134
  55 C :    0.000270
  56 O :   -0.120396
  57 S :    0.172374
  58 C :    0.010419
  59 C :   -0.087596
  60 C :    0.300323
  61 C :   -0.331495
  62 C :   -0.181721
  63 N :    0.154430
  64 C :   -0.208470
  65 N :    0.171198
  66 C :    0.049221
  67 C :   -0.003243
  68 C :    0.140487
  69 O :   -0.158492
  70 C :   -0.076339
  71 C :    0.096907
  72 C :    0.096576
  73 C :   -0.081434
  74 C :   -0.018498
  75 C :    0.036719
  76 C :    0.039529
  77 C :   -0.016504
  78 H :   -0.012163
  79 H :   -0.008583
  80 H :   -0.007697
  81 H :   -0.003337
  82 H :   -0.003341
  83 H :   -0.015983
  84 H :    0.033601
  85 H :    0.048728
  86 H :    0.038546
  87 H :    0.022766
  88 H :    0.029845
  89 H :    0.035784
  90 H :    0.047157
  91 H :    0.034251
  92 H :    0.027353
  93 H :    0.034000
  94 H :    0.013996
  95 H :    0.006197
  96 H :    0.007233
  97 H :    0.034208
  98 H :   -0.011721
  99 H :   -0.007164
 100 H :   -0.007276
 101 H :   -0.001906
 102 H :   -0.003036
 103 H :   -0.015402
Sum of atomic charges:   -0.0000000

LOEWDIN ATOMIC CHARGES
----------------------
   0 C :    0.074217
   1 C :   -0.130889
   2 C :   -0.016676
   3 N :   -0.048060
   4 C :   -0.022545
   5 N :   -0.043365
   6 C :   -0.025141
   7 C :   -0.054409
   8 C :    0.037503
   9 C :   -0.007026
  10 C :   -0.004738
  11 C :    0.021210
  12 C :   -0.004732
  13 C :   -0.011495
  14 C :   -0.010287
  15 C :   -0.007873
  16 C :    0.088263
  17 O :   -0.153749
  18 C :   -0.072611
  19 C :    0.046097
  20 C :   -0.197196
  21 S :    0.546315
  22 C :   -0.185873
  23 C :   -0.215861
  24 C :    0.021342
  25 O :   -0.000186
  26 C :    0.049484
  27 O :   -0.091571
  28 C :   -0.095953
  29 O :   -0.084759
  30 S :    0.401003
  31 C :    0.036274
  32 N :    0.001204
  33 C :    0.026202
  34 C :   -0.061312
  35 C :    0.082360
  36 O :   -0.194753
  37 C :   -0.124437
  38 C :   -0.119379
  39 C :    0.074375
  40 O :   -0.188060
  41 N :    0.000637
  42 C :    0.037415
  43 C :   -0.058987
  44 C :    0.084864
  45 C :   -0.030955
  46 C :    0.005641
  47 C :   -0.172425
  48 S :    0.502816
  49 C :   -0.190042
  50 C :   -0.188962
  51 C :    0.002378
  52 O :   -0.015834
  53 C :    0.052308
  54 O :   -0.093403
  55 C :   -0.110011
  56 O :   -0.096431
  57 S :    0.451659
  58 C :    0.034978
  59 C :   -0.086863
  60 C :    0.073700
  61 C :   -0.130900
  62 C :   -0.017199
  63 N :   -0.045670
  64 C :   -0.025423
  65 N :   -0.043781
  66 C :   -0.026926
  67 C :   -0.055364
  68 C :    0.069325
  69 O :   -0.156910
  70 C :    0.034093
  71 C :   -0.007390
  72 C :   -0.005672
  73 C :    0.022017
  74 C :   -0.004496
  75 C :   -0.010944
  76 C :   -0.009475
  77 C :   -0.008577
  78 H :    0.039764
  79 H :    0.039225
  80 H :    0.035236
  81 H :    0.033804
  82 H :    0.033545
  83 H :    0.032656
  84 H :    0.048426
  85 H :    0.038048
  86 H :    0.005334
  87 H :    0.029125
  88 H :    0.035231
  89 H :    0.025065
  90 H :    0.039737
  91 H :    0.027661
  92 H :    0.031015
  93 H :    0.035759
  94 H :    0.022022
  95 H :    0.032747
  96 H :    0.039298
  97 H :    0.048239
  98 H :    0.039821
  99 H :    0.039596
 100 H :    0.035504
 101 H :    0.034379
 102 H :    0.033913
 103 H :    0.032743

  Mayer bond orders larger than 0.100000
B(  0-C ,  1-C ) :   1.6464 B(  0-C ,  6-C ) :   0.9966 B(  0-C , 18-C ) :   1.0619
B(  1-C ,  2-C ) :   1.1453 B(  1-C ,  4-C ) :   1.1388 B(  2-C ,  3-N ) :   2.9637
B(  4-C ,  5-N ) :   2.9742 B(  6-C ,  7-C ) :   1.2107 B(  6-C , 11-C ) :   1.4447
B(  7-C ,  8-C ) :   1.4667 B(  7-C , 16-C ) :   0.9522 B(  8-C ,  9-C ) :   1.1849
B(  8-C , 78-H ) :   1.0150 B(  9-C , 10-C ) :   1.2520 B(  9-C , 15-C ) :   1.2431
B( 10-C , 11-C ) :   1.2095 B( 10-C , 12-C ) :   1.2404 B( 11-C , 79-H ) :   0.9893
B( 12-C , 13-C ) :   1.4883 B( 12-C , 80-H ) :   0.9974 B( 13-C , 14-C ) :   1.2587
B( 13-C , 81-H ) :   0.9891 B( 14-C , 15-C ) :   1.4898 B( 14-C , 82-H ) :   0.9891
B( 15-C , 83-H ) :   0.9976 B( 16-C , 17-O ) :   2.1928 B( 16-C , 18-C ) :   0.9358
B( 18-C , 19-C ) :   1.6650 B( 19-C , 20-C ) :   1.1051 B( 19-C , 84-H ) :   0.9282
B( 20-C , 21-S ) :   1.1261 B( 20-C , 22-C ) :   0.1294 B( 20-C , 24-C ) :   1.4923
B( 21-S , 22-C ) :   1.2071 B( 22-C , 23-C ) :   1.4999 B( 22-C , 31-C ) :   1.0757
B( 23-C , 24-C ) :   1.2798 B( 23-C , 30-S ) :   0.9677 B( 24-C , 25-O ) :   1.0819
B( 25-O , 26-C ) :   1.0788 B( 26-C , 27-O ) :   2.2350 B( 26-C , 28-C ) :   0.7985
B( 28-C , 29-O ) :   2.1862 B( 28-C , 30-S ) :   1.0231 B( 29-O , 30-S ) :   0.1326
B( 31-C , 32-N ) :   1.2137 B( 31-C , 38-C ) :   1.4093 B( 32-N , 33-C ) :   0.9365
B( 32-N , 35-C ) :   1.0391 B( 33-C , 34-C ) :   1.1134 B( 33-C , 85-H ) :   0.9251
B( 33-C , 86-H ) :   0.9405 B( 34-C , 87-H ) :   0.9644 B( 34-C , 88-H ) :   0.9659
B( 34-C , 89-H ) :   0.9671 B( 35-C , 36-O ) :   2.0220 B( 35-C , 37-C ) :   1.0054
B( 36-O , 96-H ) :   0.1122 B( 37-C , 38-C ) :   1.2310 B( 37-C , 44-C ) :   1.3294
B( 38-C , 39-C ) :   0.9554 B( 39-C , 40-O ) :   2.1497 B( 39-C , 41-N ) :   1.0384
B( 41-N , 42-C ) :   0.9363 B( 41-N , 44-C ) :   1.1701 B( 42-C , 43-C ) :   1.1232
B( 42-C , 90-H ) :   0.9277 B( 42-C , 91-H ) :   0.9491 B( 43-C , 92-H ) :   0.9633
B( 43-C , 93-H ) :   0.9673 B( 43-C , 94-H ) :   0.9679 B( 44-C , 45-C ) :   1.1655
B( 45-C , 46-C ) :   1.6030 B( 45-C , 95-H ) :   0.9604 B( 46-C , 47-C ) :   1.1489
B( 46-C , 96-H ) :   0.9291 B( 47-C , 48-S ) :   1.1498 B( 47-C , 49-C ) :   0.1046
B( 47-C , 51-C ) :   1.4320 B( 48-S , 49-C ) :   1.1247 B( 49-C , 50-C ) :   1.4685
B( 49-C , 58-C ) :   1.1803 B( 50-C , 51-C ) :   1.3007 B( 50-C , 57-S ) :   0.9982
B( 51-C , 52-O ) :   1.0684 B( 52-O , 53-C ) :   1.0568 B( 53-C , 54-O ) :   2.2340
B( 53-C , 55-C ) :   0.8028 B( 55-C , 56-O ) :   2.1603 B( 55-C , 57-S ) :   1.0570
B( 56-O , 57-S ) :   0.1389 B( 58-C , 59-C ) :   1.6116 B( 58-C , 97-H ) :   0.9305
B( 59-C , 60-C ) :   1.0501 B( 59-C , 68-C ) :   0.9591 B( 60-C , 61-C ) :   1.6545
B( 60-C , 66-C ) :   0.9967 B( 61-C , 62-C ) :   1.1425 B( 61-C , 64-C ) :   1.1395
B( 62-C , 63-N ) :   2.9672 B( 64-C , 65-N ) :   2.9934 B( 66-C , 67-C ) :   1.2090
B( 66-C , 73-C ) :   1.4492 B( 67-C , 68-C ) :   0.9470 B( 67-C , 70-C ) :   1.4711
B( 68-C , 69-O ) :   2.1779 B( 70-C , 71-C ) :   1.1788 B( 70-C , 98-H ) :   1.0163
B( 71-C , 72-C ) :   1.2541 B( 71-C , 77-C ) :   1.2454 B( 72-C , 73-C ) :   1.2062
B( 72-C , 74-C ) :   1.2403 B( 73-C , 99-H ) :   0.9900 B( 74-C , 75-C ) :   1.4880
B( 74-C ,100-H ) :   0.9971 B( 75-C , 76-C ) :   1.2609 B( 75-C ,101-H ) :   0.9890
B( 76-C , 77-C ) :   1.4871 B( 76-C ,102-H ) :   0.9887 B( 77-C ,103-H ) :   0.9976

-----------------------------------------------------------------------------
         ABSORPTION SPECTRUM VIA TRANSITION ELECTRIC DIPOLE MOMENTS
-----------------------------------------------------------------------------
State   Energy  Wavelength   fosc         T2         TX        TY        TZ
        (cm-1)    (nm)                  (au**2)     (au)      (au)      (au)
-----------------------------------------------------------------------------
   0   13609.3    734.8   1.238639123  29.96301   1.76834   5.10226   0.89603
   1   18819.7    531.4   0.041944395   0.73373   0.44279  -0.56206   0.47091
   2   23179.2    431.4   0.571341389   8.11472   2.41722   1.44059  -0.44323
   3   23880.5    418.8   0.124314898   1.71378  -0.87908  -0.24517   0.93856
   4   24202.5    413.2   0.082606916   1.12365   0.56805   0.63646  -0.62919
   5   24839.1    402.6   0.195142671   2.58638   0.26573   1.49379   0.53326
   6   25247.4    396.1   0.061870849   0.80676  -0.17144   0.87702  -0.09060
   7   25496.8    392.2   0.171076195   2.20892  -1.23886  -0.65510  -0.49496
   8   26155.9    382.3   0.126175471   1.58811  -0.81070  -0.89204  -0.36761
   9   26364.3    379.3   0.027655449   0.34533  -0.51173   0.18178  -0.22455
  10   26965.0    370.9   0.007110534   0.08681   0.28243   0.04458  -0.07112
  11   27131.1    368.6   0.058265969   0.70701   0.14312   0.74611   0.36034
  12   27515.7    363.4   0.074472254   0.89102  -0.50527  -0.78029   0.16391
  13   28169.9    355.0   0.104561400   1.22197   0.51738   0.97656  -0.02473
  14   28212.6    354.5   0.033777061   0.39414   0.41190   0.47347   0.01762
  15   28298.7    353.4   0.083274720   0.96877   0.62411  -0.62620  -0.43259
  16   28811.4    347.1   0.081306356   0.92904   0.10706  -0.76533  -0.57606
  17   29312.7    341.1   0.077457882   0.86993   0.48388  -0.12481   0.78754
  18   29353.3    340.7   0.244500309   2.74220  -0.37261  -1.55044  -0.44665
  19   30738.8    325.3   0.083486122   0.89414  -0.34977  -0.02570   0.87814
  20   31043.2    322.1   0.047791601   0.50683   0.18437   0.68703  -0.02877
  21   31279.4    319.7   0.010360144   0.10904   0.08622  -0.31114   0.06926
  22   31790.5    314.6   0.095612290   0.99013  -0.40680  -0.08622  -0.90400
  23   31840.0    314.1   0.107556304   1.11209   0.27829   0.97847   0.27790
  24   32301.9    309.6   0.025363700   0.25850  -0.04242   0.39624  -0.31575
  25   32377.9    308.9   0.462710481   4.70475  -0.14853  -0.90374  -1.96620
  26   32543.4    307.3   0.264986173   2.68062  -0.93145   1.29898   0.35448
  27   32644.7    306.3   0.030746282   0.31007   0.06961  -0.53134  -0.15133
  28   32999.7    303.0   0.283212131   2.82539  -0.82269   1.32272   0.63166
  29   33519.7    298.3   0.050279637   0.49382   0.58494   0.29830  -0.25037
  30   33628.7    297.4   0.066814123   0.65408  -0.55320   0.05293   0.58758
  31   33755.8    296.2   0.006066730   0.05917   0.20280  -0.13378   0.01194
  32   34387.2    290.8   0.010459296   0.10013   0.28641  -0.08741   0.10230
  33   34918.6    286.4   0.070752081   0.66705   0.17442   0.50871   0.61469
  34   34992.1    285.8   0.006262905   0.05892   0.10619  -0.05577   0.21103
  35   35118.1    284.8   0.006819088   0.06393   0.00195   0.02761   0.25131
  36   35778.6    279.5   0.011100973   0.10214  -0.13983   0.25819  -0.12620
  37   36117.2    276.9   0.104066743   0.94858  -0.92189  -0.29654   0.10371
  38   36298.8    275.5   0.045061817   0.40869  -0.54055   0.22504   0.25661
  39   36441.4    274.4   0.272961555   2.46594  -0.00889  -1.29669  -0.88569
  40   36453.3    274.3   0.065079952   0.58774  -0.10656  -0.48071   0.58763
  41   36594.3    273.3   0.010712446   0.09637   0.22974  -0.20488  -0.04019
  42   36640.1    272.9   0.037551065   0.33740  -0.11153  -0.15692  -0.54803
  43   37021.8    270.1   0.374149916   3.32709   1.65758   0.08168  -0.75685
  44   37268.3    268.3   0.013720538   0.12120  -0.22872  -0.10810   0.23917
  45   37425.1    267.2   0.007189798   0.06325   0.12613  -0.21757  -0.00076
  46   37571.7    266.2   0.211364960   1.85203   0.69200  -0.09743  -1.16777
  47   37878.5    264.0   0.060904460   0.52934   0.47009   0.11889  -0.54242
  48   37986.5    263.3   0.017322925   0.15013  -0.16465  -0.02382  -0.34993
  49   38145.6    262.2   0.010112184   0.08727  -0.07167   0.26273  -0.11449
  50   38289.4    261.2   0.086039503   0.73977  -0.24710  -0.08759   0.81917
  51   38603.1    259.0   0.091932974   0.78402   0.58110   0.07271  -0.66412
  52   38943.9    256.8   0.033750362   0.28531  -0.38805  -0.35873   0.07774
  53   38975.7    256.6   0.014348118   0.12119   0.13534   0.09044   0.30773
  54   39375.4    254.0   0.075605045   0.63212   0.06691   0.70923   0.35304
  55   39402.2    253.8   0.100055091   0.83598  -0.54595  -0.05960   0.73100
  56   39846.2    251.0   0.120382568   0.99461  -0.69199  -0.54148   0.47175
  57   39941.7    250.4   0.064297882   0.52996  -0.11203  -0.70054  -0.16326
  58   40034.5    249.8   0.030447150   0.25037   0.37194   0.32120  -0.09416
  59   40135.1    249.2   0.014016627   0.11497  -0.31576   0.11596   0.04268
  60   40235.8    248.5   0.154590311   1.26487  -0.94204  -0.59263  -0.16191

FINAL SINGLE POINT ENERGY     -4894.711994258018

DIPOLE MOMENT
-------------
                                X             Y             Z
Electronic contribution:    -12.46754      13.63286     -18.90752
Nuclear contribution   :     15.33036     -13.63957      20.92630
                        -----------------------------------------
Total Dipole Moment    :      2.86282      -0.00670       2.01879
                        -----------------------------------------
Magnitude (a.u.)       :      3.50304
Magnitude (Debye)      :      8.90401

Rotational constants in cm-1:     0.001938     0.000207     0.000200
Rotational constants in MHz :    58.105149     6.206058     5.991929

                             ****ORCA TERMINATED NORMALLY****
TOTAL RUN TIME: 0 days 0 hours 11 minutes 29 seconds 937 msec
