                         Program Version 4.2.0 -  RELEASE  -
|  1> # ORCA input file
|  2> # SCF done       -188.206472316513          0.000907976591
|  3> ! CAM-B3LYP def2-SVP def2/J RIJCOSX Grid4 TightSCF
|  4> %maxcore 5000
|  5> %tddft
|  6>     Mode sTDDFT
|  7>     Ethresh 5.0
|  8>     maxcore 5000
|  9> end
| 10>
| 11> %pal
| 12>   nprocs 6
| 13>   end
| 14> * xyz 0 1
| 15>    C       -0.43840         2.12568         2.96753
| 16>    C       -0.28403         3.31059         3.63067
| 17>    C       -0.48863         3.46444         5.02006
| 18>    N       -0.64359         3.64562         6.14198
| 19>    C        0.17362         4.49900         3.03184
| 20>    N        0.58725         5.48566         2.61307
| 21>    C       -0.70081         0.82905         3.56842
| 22>    C       -0.38159        -0.19421         2.62432
| 23>    C       -0.50540        -1.51908         2.93427
| 24>    C       -0.96575        -1.88647         4.21800
| 25>    C       -1.30550        -0.86881         5.15804
| 26>    C       -1.16671         0.49374         4.81257
| 27>    C       -1.77387        -1.25019         6.43222
| 28>    C       -1.89677        -2.57150         6.76585
| 29>    C       -1.55901        -3.57194         5.84155
| 30>    C       -1.10383        -3.23702         4.59497
| 31>    C        0.04053         0.41994         1.35993
| 32>    O        0.45124        -0.10292         0.35226
| 33>    C       -0.19773         1.88789         1.55122
| 34>    C       -0.32602         2.68684         0.47707
| 35>    C       -0.84632         4.02921         0.42051
| 36>    C       -2.07922         4.46972         0.83374
| 37>    N       -3.11916         3.72104         1.43121
| 38>    O       -4.22760         4.21595         1.43076
| 39>    O       -2.84990         2.63287         1.91585
| 40>    C       -2.25528         5.86316         0.46127
| 41>    C       -1.11493         6.29886        -0.10412
| 42>    C       -0.15637         5.20917        -0.14015
| 43>    C        1.15868         5.26552        -0.51106
| 44>    C        2.03283         4.16213        -0.83339
| 45>    C        3.14878         4.64353        -1.42366
| 46>    C        3.09235         6.09156        -1.41167
| 47>    N        4.16380         6.89935        -1.83892
| 48>    O        4.12018         8.09663        -1.59636
| 49>    O        5.08095         6.35315        -2.42051
| 50>    C        1.91790         6.50223        -0.82399
| 51>    C        1.59598         7.84510        -0.45487
| 52>    C        1.03178         8.18715         0.71306
| 53>    C        0.90831         9.59834         1.14157
| 54>    O       -0.19910         9.86685         2.00184
| 55>    C        0.62607        10.47473         2.99740
| 56>    C        1.89810        10.03082         2.26259
| 57>    C        2.95600        11.02098         1.89847
| 58>    C        3.16199        12.16731         2.64659
| 59>    C        4.15382        13.07341         2.28984
| 60>    N        4.27069        14.27073         3.07949
| 61>    O        3.75130        14.27177         4.17467
| 62>    O        4.87384        15.21285         2.60545
| 63>    C        4.98008        12.85593         1.17940
| 64>    C        4.76112        11.69152         0.44104
| 65>    C        3.77478        10.79247         0.79023
| 66>    C        6.05836        13.76216         0.81527
| 67>    C        6.28990        14.13783        -0.44625
| 68>    C        7.32156        15.08826        -0.81626
| 69>    C        8.65104        15.01678        -0.35971
| 70>    C        9.22630        13.88583         0.40400
| 71>    O        8.71018        12.86216         0.73335
| 72>    S       10.95885        14.23546         0.75742
| 73>    C       10.94234        15.78874        -0.13284
| 74>    O       11.88834        16.50487        -0.24517
| 75>    C        9.58523        15.99890        -0.68596
| 76>    C        9.26913        17.08672        -1.48607
| 77>    C        7.97493        17.14147        -1.97956
| 78>    C        7.02600        16.17238        -1.66327
| 79>    C        5.70030        16.41319        -2.27053
| 80>    O        4.70787        15.75719        -2.17379
| 81>    S        5.77129        17.91759        -3.25649
| 82>    C        7.49402        18.22492        -2.86624
| 83>    O        8.11409        19.15680        -3.27502
| 84>    H       -0.25654        -2.27835         2.20780
| 85>    H       -1.44603         1.24385         5.53564
| 86>    H       -2.03047        -0.47668         7.14076
| 87>    H       -2.25499        -2.85366         7.74434
| 88>    H       -1.66256        -4.60931         6.12195
| 89>    H       -0.84379        -4.00320         3.87955
| 90>    H       -0.08018         2.23284        -0.47966
| 91>    H       -3.16589         6.40431         0.63050
| 92>    H       -0.93531         7.27756        -0.49873
| 93>    H        1.80090         3.12740        -0.68762
| 94>    H        3.97566         4.08952        -1.82630
| 95>    H        1.97357         8.61908        -1.11289
| 96>    H        0.73245         7.44324         1.43849
| 97>    H        0.91956        10.28469         0.28422
| 98>    H        0.45804        10.04607         3.98674
| 99>    H        0.46647        11.55646         3.02647
|100>    H        2.35597         9.15669         2.73196
|101>    H        2.56189        12.38466         3.51730
|102>    H        5.39963        11.48140        -0.40202
|103>    H        3.64851         9.89792         0.19944
|104>    H        6.65935        14.15957         1.62094
|105>    H        5.61387        13.83746        -1.23439
|106>    H        9.99931        17.84425        -1.72349
|107> *
|108>
|109>                          ****END OF INPUT****

CARTESIAN COORDINATES (ANGSTROEM)
---------------------------------
  C     -0.438400    2.125680    2.967530
  C     -0.284030    3.310590    3.630670
  C     -0.488630    3.464440    5.020060
  N     -0.643590    3.645620    6.141980
  C      0.173620    4.499000    3.031840
  N      0.587250    5.485660    2.613070
  C     -0.700810    0.829050    3.568420
  C     -0.381590   -0.194210    2.624320
  C     -0.505400   -1.519080    2.934270
  C     -0.965750   -1.886470    4.218000
  C     -1.305500   -0.868810    5.158040
  C     -1.166710    0.493740    4.812570
  C     -1.773870   -1.250190    6.432220
  C     -1.896770   -2.571500    6.765850
  C     -1.559010   -3.571940    5.841550
  C     -1.103830   -3.237020    4.594970
  C      0.040530    0.419940    1.359930
  O      0.451240   -0.102920    0.352260
  C     -0.197730    1.887890    1.551220
  C     -0.326020    2.686840    0.477070
  C     -0.846320    4.029210    0.420510
  C     -2.079220    4.469720    0.833740
  N     -3.119160    3.721040    1.431210
  O     -4.227600    4.215950    1.430760
  O     -2.849900    2.632870    1.915850
  C     -2.255280    5.863160    0.461270
  C     -1.114930    6.298860   -0.104120
  C     -0.156370    5.209170   -0.140150
  C      1.158680    5.265520   -0.511060
  C      2.032830    4.162130   -0.833390
  C      3.148780    4.643530   -1.423660
  C      3.092350    6.091560   -1.411670
  N      4.163800    6.899350   -1.838920
  O      4.120180    8.096630   -1.596360
  O      5.080950    6.353150   -2.420510
  C      1.917900    6.502230   -0.823990
  C      1.595980    7.845100   -0.454870
  C      1.031780    8.187150    0.713060
  C      0.908310    9.598340    1.141570
  O     -0.199100    9.866850    2.001840
  C      0.626070   10.474730    2.997400
  C      1.898100   10.030820    2.262590
  C      2.956000   11.020980    1.898470
  C      3.161990   12.167310    2.646590
  C      4.153820   13.073410    2.289840
  N      4.270690   14.270730    3.079490
  O      3.751300   14.271770    4.174670
  O      4.873840   15.212850    2.605450
  C      4.980080   12.855930    1.179400
  C      4.761120   11.691520    0.441040
  C      3.774780   10.792470    0.790230
  C      6.058360   13.762160    0.815270
  C      6.289900   14.137830   -0.446250
  C      7.321560   15.088260   -0.816260
  C      8.651040   15.016780   -0.359710
  C      9.226300   13.885830    0.404000
  O      8.710180   12.862160    0.733350
  S     10.958850   14.235460    0.757420
  C     10.942340   15.788740   -0.132840
  O     11.888340   16.504870   -0.245170
  C      9.585230   15.998900   -0.685960
  C      9.269130   17.086720   -1.486070
  C      7.974930   17.141470   -1.979560
  C      7.026000   16.172380   -1.663270
  C      5.700300   16.413190   -2.270530
  O      4.707870   15.757190   -2.173790
  S      5.771290   17.917590   -3.256490
  C      7.494020   18.224920   -2.866240
  O      8.114090   19.156800   -3.275020
  H     -0.256540   -2.278350    2.207800
  H     -1.446030    1.243850    5.535640
  H     -2.030470   -0.476680    7.140760
  H     -2.254990   -2.853660    7.744340
  H     -1.662560   -4.609310    6.121950
  H     -0.843790   -4.003200    3.879550
  H     -0.080180    2.232840   -0.479660
  H     -3.165890    6.404310    0.630500
  H     -0.935310    7.277560   -0.498730
  H      1.800900    3.127400   -0.687620
  H      3.975660    4.089520   -1.826300
  H      1.973570    8.619080   -1.112890
  H      0.732450    7.443240    1.438490
  H      0.919560   10.284690    0.284220
  H      0.458040   10.046070    3.986740
  H      0.466470   11.556460    3.026470
  H      2.355970    9.156690    2.731960
  H      2.561890   12.384660    3.517300
  H      5.399630   11.481400   -0.402020
  H      3.648510    9.897920    0.199440
  H      6.659350   14.159570    1.620940
  H      5.613870   13.837460   -1.234390
  H      9.999310   17.844250   -1.723490

 Total Charge           Charge          ....    0
 Multiplicity           Mult            ....    1
 Number of Electrons    NEL             ....  486
 Basis Dimension        Dim             .... 1089

ORBITAL ENERGIES
----------------

  NO   OCC          E(Eh)            E(eV)
   0   2.0000     -88.953617     -2420.5510
   1   2.0000     -88.953357     -2420.5439
   2   2.0000     -19.258141      -524.0407
   3   2.0000     -19.256230      -523.9886
   4   2.0000     -19.248646      -523.7823
   5   2.0000     -19.247058      -523.7391
   6   2.0000     -19.246885      -523.7344
   7   2.0000     -19.246545      -523.7251
   8   2.0000     -19.246061      -523.7119
   9   2.0000     -19.245539      -523.6977
  10   2.0000     -19.244937      -523.6814
  11   2.0000     -19.243966      -523.6549
  12   2.0000     -19.231256      -523.3091
  13   2.0000     -19.215987      -522.8936
  14   2.0000     -14.664892      -399.0520
  15   2.0000     -14.656533      -398.8245
  16   2.0000     -14.650413      -398.6580
  17   2.0000     -14.435972      -392.8228
  18   2.0000     -14.428169      -392.6104
  19   2.0000     -10.409715      -283.2628
  20   2.0000     -10.409282      -283.2510
  21   2.0000     -10.407727      -283.2086
  22   2.0000     -10.407159      -283.1932
  23   2.0000     -10.381029      -282.4822
  24   2.0000     -10.358246      -281.8622
  25   2.0000     -10.357122      -281.8316
  26   2.0000     -10.351421      -281.6765
  27   2.0000     -10.340416      -281.3770
  28   2.0000     -10.339550      -281.3535
  29   2.0000     -10.338765      -281.3321
  30   2.0000     -10.338584      -281.3272
  31   2.0000     -10.337854      -281.3073
  32   2.0000     -10.335337      -281.2388
  33   2.0000     -10.334003      -281.2025
  34   2.0000     -10.333438      -281.1871
  35   2.0000     -10.332215      -281.1539
  36   2.0000     -10.331670      -281.1390
  37   2.0000     -10.330158      -281.0979
  38   2.0000     -10.329813      -281.0885
  39   2.0000     -10.329559      -281.0816
  40   2.0000     -10.329415      -281.0777
  41   2.0000     -10.327908      -281.0367
  42   2.0000     -10.323123      -280.9065
  43   2.0000     -10.323010      -280.9034
  44   2.0000     -10.319501      -280.8079
  45   2.0000     -10.315010      -280.6857
  46   2.0000     -10.309516      -280.5362
  47   2.0000     -10.309352      -280.5317
  48   2.0000     -10.308496      -280.5084
  49   2.0000     -10.308305      -280.5032
  50   2.0000     -10.308065      -280.4967
  51   2.0000     -10.307906      -280.4924
  52   2.0000     -10.302133      -280.3353
  53   2.0000     -10.301887      -280.3286
  54   2.0000     -10.299800      -280.2718
  55   2.0000     -10.296950      -280.1943
  56   2.0000     -10.296473      -280.1813
  57   2.0000     -10.295765      -280.1620
  58   2.0000     -10.295575      -280.1568
  59   2.0000     -10.295401      -280.1521
  60   2.0000     -10.295019      -280.1417
  61   2.0000     -10.294859      -280.1373
  62   2.0000     -10.294786      -280.1354
  63   2.0000     -10.294771      -280.1350
  64   2.0000     -10.294212      -280.1198
  65   2.0000     -10.293990      -280.1137
  66   2.0000     -10.291380      -280.0427
  67   2.0000     -10.290800      -280.0269
  68   2.0000     -10.284800      -279.8636
  69   2.0000      -8.052865      -219.1296
  70   2.0000      -8.052670      -219.1243
  71   2.0000      -6.021715      -163.8592
  72   2.0000      -6.021499      -163.8533
  73   2.0000      -6.018456      -163.7705
  74   2.0000      -6.018253      -163.7650
  75   2.0000      -6.013923      -163.6472
  76   2.0000      -6.013742      -163.6422
  77   2.0000      -1.336690       -36.3732
  78   2.0000      -1.326941       -36.1079
  79   2.0000      -1.325974       -36.0816
  80   2.0000      -1.172128       -31.8952
  81   2.0000      -1.171241       -31.8711
  82   2.0000      -1.168027       -31.7836
  83   2.0000      -1.167356       -31.7654
  84   2.0000      -1.154632       -31.4191
  85   2.0000      -1.146485       -31.1975
  86   2.0000      -1.144472       -31.1427
  87   2.0000      -1.144411       -31.1410
  88   2.0000      -1.142635       -31.0927
  89   2.0000      -1.037330       -28.2272
  90   2.0000      -1.026026       -27.9196
  91   2.0000      -1.020907       -27.7803
  92   2.0000      -1.014088       -27.5947
  93   2.0000      -1.009642       -27.4738
  94   2.0000      -1.006269       -27.3820
  95   2.0000      -0.991000       -26.9665
  96   2.0000      -0.982861       -26.7450
  97   2.0000      -0.968067       -26.3424
  98   2.0000      -0.937120       -25.5003
  99   2.0000      -0.933416       -25.3995
 100   2.0000      -0.922626       -25.1059
 101   2.0000      -0.920863       -25.0580
 102   2.0000      -0.917864       -24.9763
 103   2.0000      -0.911494       -24.8030
 104   2.0000      -0.908843       -24.7309
 105   2.0000      -0.893244       -24.3064
 106   2.0000      -0.892143       -24.2764
 107   2.0000      -0.891350       -24.2549
 108   2.0000      -0.886582       -24.1251
 109   2.0000      -0.857002       -23.3202
 110   2.0000      -0.853522       -23.2255
 111   2.0000      -0.847643       -23.0655
 112   2.0000      -0.839333       -22.8394
 113   2.0000      -0.837634       -22.7932
 114   2.0000      -0.817028       -22.2325
 115   2.0000      -0.810746       -22.0615
 116   2.0000      -0.796961       -21.6864
 117   2.0000      -0.791072       -21.5262
 118   2.0000      -0.788571       -21.4581
 119   2.0000      -0.773056       -21.0359
 120   2.0000      -0.771433       -20.9918
 121   2.0000      -0.756970       -20.5982
 122   2.0000      -0.737131       -20.0583
 123   2.0000      -0.733829       -19.9685
 124   2.0000      -0.726862       -19.7789
 125   2.0000      -0.718596       -19.5540
 126   2.0000      -0.713994       -19.4288
 127   2.0000      -0.706577       -19.2269
 128   2.0000      -0.702734       -19.1224
 129   2.0000      -0.696590       -18.9552
 130   2.0000      -0.690898       -18.8003
 131   2.0000      -0.681988       -18.5578
 132   2.0000      -0.677296       -18.4302
 133   2.0000      -0.664790       -18.0899
 134   2.0000      -0.661754       -18.0072
 135   2.0000      -0.657484       -17.8911
 136   2.0000      -0.654302       -17.8045
 137   2.0000      -0.651740       -17.7347
 138   2.0000      -0.647221       -17.6118
 139   2.0000      -0.645940       -17.5769
 140   2.0000      -0.642386       -17.4802
 141   2.0000      -0.637598       -17.3499
 142   2.0000      -0.635071       -17.2812
 143   2.0000      -0.632368       -17.2076
 144   2.0000      -0.631998       -17.1975
 145   2.0000      -0.629487       -17.1292
 146   2.0000      -0.618748       -16.8370
 147   2.0000      -0.618284       -16.8244
 148   2.0000      -0.613402       -16.6915
 149   2.0000      -0.612240       -16.6599
 150   2.0000      -0.607932       -16.5427
 151   2.0000      -0.604773       -16.4567
 152   2.0000      -0.598137       -16.2761
 153   2.0000      -0.593306       -16.1447
 154   2.0000      -0.588937       -16.0258
 155   2.0000      -0.588373       -16.0105
 156   2.0000      -0.586634       -15.9631
 157   2.0000      -0.577296       -15.7090
 158   2.0000      -0.571297       -15.5458
 159   2.0000      -0.569917       -15.5082
 160   2.0000      -0.567414       -15.4401
 161   2.0000      -0.562095       -15.2954
 162   2.0000      -0.559910       -15.2359
 163   2.0000      -0.556996       -15.1566
 164   2.0000      -0.554141       -15.0789
 165   2.0000      -0.550095       -14.9689
 166   2.0000      -0.549219       -14.9450
 167   2.0000      -0.548161       -14.9162
 168   2.0000      -0.546373       -14.8676
 169   2.0000      -0.543766       -14.7966
 170   2.0000      -0.543341       -14.7851
 171   2.0000      -0.541175       -14.7261
 172   2.0000      -0.539822       -14.6893
 173   2.0000      -0.534306       -14.5392
 174   2.0000      -0.531353       -14.4589
 175   2.0000      -0.529097       -14.3975
 176   2.0000      -0.528648       -14.3852
 177   2.0000      -0.524519       -14.2729
 178   2.0000      -0.523701       -14.2506
 179   2.0000      -0.519815       -14.1449
 180   2.0000      -0.514383       -13.9971
 181   2.0000      -0.513446       -13.9716
 182   2.0000      -0.510891       -13.9020
 183   2.0000      -0.510365       -13.8877
 184   2.0000      -0.508855       -13.8466
 185   2.0000      -0.506531       -13.7834
 186   2.0000      -0.504966       -13.7408
 187   2.0000      -0.501894       -13.6572
 188   2.0000      -0.495522       -13.4838
 189   2.0000      -0.493250       -13.4220
 190   2.0000      -0.492770       -13.4090
 191   2.0000      -0.485432       -13.2093
 192   2.0000      -0.482785       -13.1373
 193   2.0000      -0.480334       -13.0705
 194   2.0000      -0.478902       -13.0316
 195   2.0000      -0.475900       -12.9499
 196   2.0000      -0.474075       -12.9002
 197   2.0000      -0.471565       -12.8319
 198   2.0000      -0.464296       -12.6341
 199   2.0000      -0.461403       -12.5554
 200   2.0000      -0.457306       -12.4439
 201   2.0000      -0.455154       -12.3854
 202   2.0000      -0.450756       -12.2657
 203   2.0000      -0.448044       -12.1919
 204   2.0000      -0.447155       -12.1677
 205   2.0000      -0.443151       -12.0588
 206   2.0000      -0.442595       -12.0436
 207   2.0000      -0.439079       -11.9480
 208   2.0000      -0.433432       -11.7943
 209   2.0000      -0.426768       -11.6130
 210   2.0000      -0.423964       -11.5366
 211   2.0000      -0.417207       -11.3528
 212   2.0000      -0.408492       -11.1156
 213   2.0000      -0.401083       -10.9140
 214   2.0000      -0.399075       -10.8594
 215   2.0000      -0.397825       -10.8254
 216   2.0000      -0.396121       -10.7790
 217   2.0000      -0.388297       -10.5661
 218   2.0000      -0.387572       -10.5464
 219   2.0000      -0.386325       -10.5124
 220   2.0000      -0.383363       -10.4318
 221   2.0000      -0.379176       -10.3179
 222   2.0000      -0.378251       -10.2927
 223   2.0000      -0.377202       -10.2642
 224   2.0000      -0.376146       -10.2354
 225   2.0000      -0.373097       -10.1525
 226   2.0000      -0.367425        -9.9981
 227   2.0000      -0.365168        -9.9367
 228   2.0000      -0.362898        -9.8750
 229   2.0000      -0.355783        -9.6813
 230   2.0000      -0.354378        -9.6431
 231   2.0000      -0.350677        -9.5424
 232   2.0000      -0.349300        -9.5049
 233   2.0000      -0.346934        -9.4406
 234   2.0000      -0.346494        -9.4286
 235   2.0000      -0.345610        -9.4045
 236   2.0000      -0.340442        -9.2639
 237   2.0000      -0.338758        -9.2181
 238   2.0000      -0.327558        -8.9133
 239   2.0000      -0.319955        -8.7064
 240   2.0000      -0.304246        -8.2790
 241   2.0000      -0.303082        -8.2473
 242   2.0000      -0.298693        -8.1279
 243   0.0000      -0.135677        -3.6920
 244   0.0000      -0.098749        -2.6871
 245   0.0000      -0.096964        -2.6385
 246   0.0000      -0.066587        -1.8119
 247   0.0000      -0.065616        -1.7855

MULLIKEN ATOMIC CHARGES
-----------------------
   0 C :    0.346170
   1 C :   -0.361056
   2 C :   -0.188887
   3 N :    0.166846
   4 C :   -0.172205
   5 N :    0.182864
   6 C :    0.037081
   7 C :    0.010831
   8 C :   -0.074453
   9 C :    0.095032
  10 C :    0.091179
  11 C :   -0.069032
  12 C :   -0.014317
  13 C :    0.039965
  14 C :    0.035298
  15 C :   -0.012690
  16 C :    0.138501
  17 O :   -0.131373
  18 C :   -0.069892
  19 C :   -0.055462
  20 C :   -0.022424
  21 C :    0.096249
  22 N :    0.266993
  23 O :   -0.223631
  24 O :   -0.249517
  25 C :    0.023718
  26 C :    0.032957
  27 C :    0.049489
  28 C :    0.066585
  29 C :   -0.010524
  30 C :    0.033243
  31 C :    0.080918
  32 N :    0.276632
  33 O :   -0.262453
  34 O :   -0.238369
  35 C :    0.030359
  36 C :   -0.042660
  37 C :    0.022814
  38 C :    0.148236
  39 O :   -0.370266
  40 C :    0.296808
  41 C :   -0.104349
  42 C :    0.085891
  43 C :   -0.074233
  44 C :    0.155452
  45 N :    0.245842
  46 O :   -0.232549
  47 O :   -0.234901
  48 C :    0.005119
  49 C :   -0.020734
  50 C :    0.017886
  51 C :    0.089971
  52 C :   -0.053268
  53 C :    0.035255
  54 C :    0.033026
  55 C :    0.029953
  56 O :   -0.112634
  57 S :    0.013056
  58 C :    0.051613
  59 O :   -0.114546
  60 C :    0.053644
  61 C :   -0.062368
  62 C :    0.053382
  63 C :    0.053058
  64 C :    0.040684
  65 O :   -0.121960
  66 S :    0.013061
  67 C :    0.051959
  68 O :   -0.113366
  69 H :   -0.008164
  70 H :   -0.002309
  71 H :   -0.006465
  72 H :   -0.001322
  73 H :   -0.000817
  74 H :   -0.014337
  75 H :    0.053123
  76 H :    0.006548
  77 H :    0.009615
  78 H :   -0.008414
  79 H :    0.010186
  80 H :    0.026649
  81 H :    0.026087
  82 H :    0.002074
  83 H :    0.020201
  84 H :    0.011157
  85 H :    0.037881
  86 H :   -0.000224
  87 H :    0.003080
  88 H :   -0.015695
  89 H :    0.017348
  90 H :    0.028352
  91 H :    0.021948
Sum of atomic charges:    0.0000000

LOEWDIN ATOMIC CHARGES
----------------------
   0 C :    0.084851
   1 C :   -0.133850
   2 C :   -0.018532
   3 N :   -0.041577
   4 C :    0.002806
   5 N :   -0.052346
   6 C :   -0.018888
   7 C :   -0.056182
   8 C :    0.037580
   9 C :   -0.005900
  10 C :   -0.003173
  11 C :    0.027586
  12 C :   -0.003335
  13 C :   -0.008782
  14 C :   -0.008231
  15 C :   -0.007614
  16 C :    0.087623
  17 O :   -0.132872
  18 C :   -0.049262
  19 C :    0.043863
  20 C :   -0.003735
  21 C :   -0.018018
  22 N :    0.283282
  23 O :   -0.188699
  24 O :   -0.207126
  25 C :    0.001334
  26 C :   -0.010867
  27 C :    0.040464
  28 C :    0.054299
  29 C :   -0.046666
  30 C :    0.029157
  31 C :   -0.052486
  32 N :    0.287809
  33 O :   -0.223840
  34 O :   -0.202757
  35 C :    0.034195
  36 C :   -0.041056
  37 C :    0.017611
  38 C :    0.082719
  39 O :   -0.188720
  40 C :    0.106311
  41 C :   -0.025011
  42 C :   -0.018861
  43 C :   -0.003913
  44 C :   -0.025066
  45 N :    0.286108
  46 O :   -0.199991
  47 O :   -0.193265
  48 C :   -0.005760
  49 C :    0.005247
  50 C :    0.006617
  51 C :    0.034869
  52 C :   -0.039298
  53 C :    0.045451
  54 C :   -0.059662
  55 C :   -0.043187
  56 O :   -0.104897
  57 S :    0.302850
  58 C :   -0.048598
  59 O :   -0.107342
  60 C :   -0.048960
  61 C :    0.039994
  62 C :   -0.049769
  63 C :   -0.056561
  64 C :   -0.040521
  65 O :   -0.105271
  66 S :    0.302959
  67 C :   -0.046899
  68 O :   -0.106279
  69 H :    0.041125
  70 H :    0.040952
  71 H :    0.036049
  72 H :    0.034808
  73 H :    0.034538
  74 H :    0.033229
  75 H :    0.051628
  76 H :    0.040516
  77 H :    0.035337
  78 H :    0.031630
  79 H :    0.040797
  80 H :    0.034619
  81 H :    0.030605
  82 H :    0.018069
  83 H :    0.017885
  84 H :    0.012795
  85 H :    0.043329
  86 H :    0.037109
  87 H :    0.040770
  88 H :    0.034697
  89 H :    0.029760
  90 H :    0.035883
  91 H :    0.051910

  Mayer bond orders larger than 0.100000
B(  0-C ,  1-C ) :   1.6682 B(  0-C ,  6-C ) :   1.0188 B(  0-C , 18-C ) :   0.9823
B(  1-C ,  2-C ) :   1.1305 B(  1-C ,  4-C ) :   1.1672 B(  2-C ,  3-N ) :   2.9936
B(  4-C ,  5-N ) :   2.9609 B(  6-C ,  7-C ) :   1.2103 B(  6-C , 11-C ) :   1.4468
B(  7-C ,  8-C ) :   1.4643 B(  7-C , 16-C ) :   0.9242 B(  8-C ,  9-C ) :   1.1913
B(  8-C , 69-H ) :   1.0153 B(  9-C , 10-C ) :   1.2508 B(  9-C , 15-C ) :   1.2433
B( 10-C , 11-C ) :   1.2140 B( 10-C , 12-C ) :   1.2367 B( 11-C , 70-H ) :   0.9924
B( 12-C , 13-C ) :   1.4918 B( 12-C , 71-H ) :   0.9975 B( 13-C , 14-C ) :   1.2587
B( 13-C , 72-H ) :   0.9882 B( 14-C , 15-C ) :   1.4901 B( 14-C , 73-H ) :   0.9892
B( 15-C , 74-H ) :   0.9977 B( 16-C , 17-O ) :   2.2850 B( 16-C , 18-C ) :   0.9176
B( 18-C , 19-C ) :   1.8289 B( 19-C , 20-C ) :   0.9722 B( 19-C , 75-H ) :   0.9192
B( 20-C , 21-C ) :   1.6365 B( 20-C , 27-C ) :   1.0528 B( 21-C , 22-N ) :   0.9261
B( 21-C , 25-C ) :   1.0962 B( 22-N , 23-O ) :   1.5525 B( 22-N , 24-O ) :   1.4974
B( 23-O , 24-O ) :   0.2688 B( 25-C , 26-C ) :   1.6305 B( 25-C , 76-H ) :   1.0151
B( 26-C , 27-C ) :   1.0836 B( 26-C , 77-H ) :   0.9946 B( 27-C , 28-C ) :   1.5592
B( 28-C , 29-C ) :   1.0869 B( 28-C , 35-C ) :   1.0139 B( 29-C , 30-C ) :   1.6095
B( 29-C , 78-H ) :   1.0050 B( 30-C , 31-C ) :   1.0996 B( 30-C , 79-H ) :   1.0121
B( 31-C , 32-N ) :   0.9439 B( 31-C , 35-C ) :   1.5829 B( 32-N , 33-O ) :   1.4709
B( 32-N , 34-O ) :   1.5424 B( 33-O , 34-O ) :   0.2566 B( 35-C , 36-C ) :   1.1160
B( 36-C , 37-C ) :   1.7295 B( 36-C , 80-H ) :   0.9381 B( 37-C , 38-C ) :   1.0286
B( 37-C , 81-H ) :   0.9277 B( 38-C , 39-O ) :   1.0534 B( 38-C , 41-C ) :   1.0469
B( 38-C , 82-H ) :   0.9293 B( 39-O , 40-C ) :   1.0100 B( 40-C , 41-C ) :   1.0847
B( 40-C , 83-H ) :   0.9446 B( 40-C , 84-H ) :   0.9405 B( 41-C , 42-C ) :   0.9509
B( 41-C , 85-H ) :   0.8893 B( 42-C , 43-C ) :   1.3556 B( 42-C , 50-C ) :   1.3506
B( 43-C , 44-C ) :   1.3547 B( 43-C , 86-H ) :   0.9922 B( 44-C , 45-N ) :   0.8858
B( 44-C , 48-C ) :   1.3658 B( 45-N , 46-O ) :   1.5594 B( 45-N , 47-O ) :   1.5231
B( 46-O , 47-O ) :   0.2632 B( 48-C , 49-C ) :   1.3609 B( 48-C , 51-C ) :   1.0610
B( 49-C , 50-C ) :   1.3921 B( 49-C , 87-H ) :   0.9953 B( 50-C , 88-H ) :   0.9959
B( 51-C , 52-C ) :   1.7965 B( 51-C , 89-H ) :   0.9347 B( 52-C , 53-C ) :   1.0793
B( 52-C , 90-H ) :   0.9379 B( 53-C , 54-C ) :   1.3656 B( 53-C , 63-C ) :   1.3834
B( 54-C , 55-C ) :   0.8463 B( 54-C , 60-C ) :   1.3392 B( 55-C , 56-O ) :   2.1985
B( 55-C , 57-S ) :   1.0213 B( 56-O , 57-S ) :   0.1066 B( 57-S , 58-C ) :   1.0275
B( 57-S , 59-O ) :   0.1095 B( 58-C , 59-O ) :   2.2266 B( 58-C , 60-C ) :   0.8386
B( 60-C , 61-C ) :   1.3419 B( 61-C , 62-C ) :   1.3364 B( 61-C , 91-H ) :   1.0267
B( 62-C , 63-C ) :   1.3406 B( 62-C , 67-C ) :   0.8380 B( 63-C , 64-C ) :   0.8541
B( 64-C , 65-O ) :   2.1723 B( 64-C , 66-S ) :   1.0269 B( 65-O , 66-S ) :   0.1058
B( 66-S , 67-C ) :   1.0258 B( 66-S , 68-O ) :   0.1097 B( 67-C , 68-O ) :   2.2293

-----------------------------------------------------------------------------
         ABSORPTION SPECTRUM VIA TRANSITION ELECTRIC DIPOLE MOMENTS
-----------------------------------------------------------------------------
State   Energy  Wavelength   fosc         T2         TX        TY        TZ
        (cm-1)    (nm)                  (au**2)     (au)      (au)      (au)
-----------------------------------------------------------------------------
   0   15557.6    642.8   0.058854256   1.24540   0.30469   1.07064  -0.07939
   1   18867.8    530.0   0.017020111   0.29697  -0.19967   0.16267  -0.48025
   2   21590.5    463.2   0.032484389   0.49532   0.20799   0.63694  -0.21534
   3   23481.2    425.9   0.024026736   0.33686   0.49202  -0.18887   0.24312
   4   24588.1    406.7   0.003782917   0.05065  -0.01434  -0.20011  -0.10198
   5   24776.6    403.6   0.001734412   0.02305   0.03990   0.05588   0.13539
   6   26197.2    381.7   0.024934195   0.31334  -0.25718   0.40257   0.29178
   7   26273.3    380.6   0.035158406   0.44054  -0.20940  -0.27770   0.56531
   8   26432.0    378.3   0.019763584   0.24616  -0.28085   0.11895  -0.39132
   9   28127.2    355.5   0.058635745   0.68630  -0.78568   0.00251   0.26267
  10   28451.7    351.5   0.003847040   0.04451   0.01886  -0.02294  -0.20888
  11   28611.4    349.5   0.057984566   0.66719   0.62648   0.48468  -0.19948
  12   28965.2    345.2   0.030457006   0.34617   0.50173   0.23931  -0.19278
  13   29239.3    342.0   0.270211660   3.04237  -0.61517  -1.38503   0.86349
  14   29350.7    340.7   0.020486553   0.22979  -0.07490  -0.46131   0.10664
  15   29576.9    338.1   0.028502519   0.31725   0.21793  -0.35828   0.37602
  16   30363.5    329.3   0.086969149   0.94295   0.86562  -0.02455  -0.43937
  17   31040.4    322.2   0.429696982   4.55733   1.37200   1.21367  -1.09634
  18   31174.1    320.8   0.051920132   0.54830  -0.62385   0.22898  -0.32662
  19   31372.0    318.8   0.079924368   0.83871  -0.60292  -0.68890  -0.02481
  20   32120.9    311.3   0.016213116   0.16617  -0.29109  -0.28241   0.04105
  21   32499.5    307.7   0.003162600   0.03204   0.13077   0.10518  -0.06223
  22   32702.8    305.8   0.012500421   0.12584   0.33822  -0.07191   0.07920
  23   32908.5    303.9   0.004836209   0.04838  -0.02243   0.05730   0.21117
  24   33281.6    300.5   0.028662512   0.28352  -0.19488   0.45050  -0.20637
  25   33610.3    297.5   0.053560967   0.52463   0.52866   0.38030  -0.31704
  26   33689.5    296.8   0.022493832   0.21981   0.23454  -0.24513  -0.32359
  27   33902.1    295.0   0.310607035   3.01620  -1.12811  -0.89890   0.96724
  28   34257.1    291.9   0.276496109   2.65714  -0.51176  -1.54737  -0.02983
  29   34429.8    290.4   0.009534481   0.09117   0.00148  -0.24327   0.17884
  30   34848.2    287.0   0.003957277   0.03738  -0.07411   0.14893   0.09855
  31   34917.5    286.4   0.013171398   0.12418   0.04719  -0.31552   0.14967
  32   35040.3    285.4   0.579698430   5.44641  -0.11330  -2.28071   0.48160
  33   35292.2    283.3   0.030744894   0.28679  -0.13239  -0.45733   0.24518
  34   35338.2    283.0   0.025102032   0.23385  -0.32638   0.24265   0.26163
  35   35961.9    278.1   0.080487482   0.73682   0.83419   0.02197  -0.20117
  36   36158.4    276.6   0.057827497   0.52650  -0.26246   0.51991   0.43279
  37   36375.0    274.9   0.003584026   0.03244   0.08922   0.15612   0.01029
  38   36637.4    272.9   0.048823469   0.43871   0.44158   0.44873  -0.20582
  39   37018.1    270.1   0.009813966   0.08728  -0.17179   0.12324  -0.20635
  40   37092.7    269.6   0.240297355   2.13273   1.31903  -0.20677  -0.59173
  41   37642.3    265.7   0.032244292   0.28200  -0.35117   0.37582  -0.13206
  42   37792.0    264.6   0.137848953   1.20082  -1.01824  -0.04670   0.40228
  43   37851.0    264.2   0.082619164   0.71859   0.79816  -0.00696  -0.28544
  44   38015.9    263.0   0.000996118   0.00863   0.08977  -0.02336  -0.00469
  45   38170.3    262.0   0.035659679   0.30756   0.54051  -0.12284  -0.01785
  46   38426.2    260.2   0.187054715   1.60257  -0.89034  -0.62844   0.64415
  47   38511.7    259.7   0.078835321   0.67391   0.59382   0.54144  -0.16773
  48   38769.5    257.9   0.004517232   0.03836  -0.18790  -0.00846   0.05459
  49   39063.8    256.0   0.000083061   0.00070   0.02242   0.00204  -0.01390
  50   39382.7    253.9   0.000862662   0.00721   0.06630  -0.05113  -0.01418
  51   39576.0    252.7   0.135960701   1.13099  -0.66542  -0.42237   0.71401
  52   39593.2    252.6   0.017353047   0.14429  -0.35682  -0.10602   0.07568
  53   39630.2    252.3   0.050532558   0.41978   0.29947   0.51657  -0.25149
  54   39839.1    251.0   0.105216588   0.86946   0.08074  -0.68453   0.62798
  55   39991.7    250.1   0.070582947   0.58104  -0.22719   0.38774   0.61569
  56   40039.5    249.8   0.006725762   0.05530   0.09274  -0.14696  -0.15844

FINAL SINGLE POINT ENERGY     -3887.544218781483

DIPOLE MOMENT
-------------
                                X             Y             Z
Electronic contribution:     29.96963      40.58200     -17.27108
Nuclear contribution   :    -31.24511     -44.53756      17.50820
                        -----------------------------------------
Total Dipole Moment    :     -1.27549      -3.95556       0.23712
                        -----------------------------------------
Magnitude (a.u.)       :      4.16287
Magnitude (Debye)      :     10.58119

Rotational constants in cm-1:     0.002369     0.000298     0.000296
Rotational constants in MHz :    71.020694     8.936857     8.887867

                             ****ORCA TERMINATED NORMALLY****
TOTAL RUN TIME: 0 days 0 hours 8 minutes 53 seconds 220 msec
