                         Program Version 4.2.0 -  RELEASE  -
|  1> # ORCA input file
|  2> # SCF done       -203.624425541231          0.000806133209
|  3> ! CAM-B3LYP def2-SVP def2/J RIJCOSX Grid4 TightSCF
|  4> %maxcore 5000
|  5> %tddft
|  6>     Mode sTDDFT
|  7>     Ethresh 5.0
|  8>     maxcore 5000
|  9> end
| 10>
| 11> %pal
| 12>   nprocs 6
| 13>   end
| 14> * xyz 0 1
| 15>    C       -4.69250        -8.37379         7.83608
| 16>    C       -3.42253        -8.39635         7.27794
| 17>    C       -3.22914        -8.45549         5.85396
| 18>    N       -1.97759        -8.47463         5.35155
| 19>    C       -0.97048        -8.43958         6.16099
| 20>    C       -1.16351        -8.38139         7.57263
| 21>    N       -2.33926        -8.36098         8.09840
| 22>    F       -0.11212        -8.34636         8.38578
| 23>    F        0.25160        -8.45925         5.63811
| 24>    C       -4.31044        -8.49407         4.94596
| 25>    C       -5.59931        -8.47163         5.52734
| 26>    C       -5.77615        -8.41135         6.96494
| 27>    N       -7.07264        -8.39770         7.30138
| 28>    S       -7.95768        -8.45388         5.97212
| 29>    N       -6.77338        -8.49869         4.89350
| 30>    C       -4.10007        -8.54704         3.54017
| 31>    C       -5.08258        -8.58573         2.55737
| 32>    C       -4.54090        -8.62282         1.28135
| 33>    C       -3.12626        -8.61333         1.28681
| 34>    S       -2.47863        -8.56012         2.86727
| 35>    C       -2.67347        -8.64095        -0.05068
| 36>    C       -3.80053        -8.66848        -0.90498
| 37>    C       -5.00710        -8.65867        -0.09353
| 38>    C       -6.29893        -8.67318        -0.53213
| 39>    C       -6.62701        -8.70213        -1.90423
| 40>    N       -6.90483        -8.72554        -3.01666
| 41>    C       -7.39569        -8.65812         0.35549
| 42>    N       -8.29466        -8.64388         1.06702
| 43>    C       -3.45849        -8.68443        -2.24700
| 44>    C       -2.07852        -8.66600        -2.43472
| 45>    S       -1.19889        -8.63632        -0.91525
| 46>    C       -1.39523        -8.64792        -3.67738
| 47>    C        0.01562        -8.60630        -3.74926
| 48>    C        0.72309        -8.54401        -4.99375
| 49>    N        2.06969        -8.50317        -4.98468
| 50>    C        2.70578        -8.52085        -3.85752
| 51>    C        2.00512        -8.57894        -2.62500
| 52>    N        0.71170        -8.61892        -2.59584
| 53>    F        2.65516        -8.59433        -1.46668
| 54>    F        4.03320        -8.48414        -3.89060
| 55>    C        0.06341        -8.51747        -6.24330
| 56>    C       -1.35040        -8.58810        -6.18189
| 57>    C       -2.06404        -8.65231        -4.92645
| 58>    N       -3.38231        -8.70823        -5.11883
| 59>    S       -3.69859        -8.68488        -6.68938
| 60>    N       -2.18867        -8.60051        -7.21877
| 61>    C        0.77962        -8.41208        -7.46282
| 62>    C        0.23391        -8.36328        -8.74322
| 63>    C        1.20842        -8.23367        -9.71872
| 64>    C        2.51761        -8.18324        -9.18534
| 65>    S        2.53202        -8.30048        -7.47993
| 66>    C        3.43097        -8.04334       -10.25370
| 67>    C        2.70089        -8.00553       -11.46488
| 68>    C        1.28474        -8.12436       -11.16655
| 69>    C        0.24726        -8.12864       -12.05261
| 70>    C        0.44613        -8.01598       -13.44499
| 71>    N        0.59607        -7.92566       -14.57814
| 72>    C       -1.09619        -8.24401       -11.63697
| 73>    N       -2.19129        -8.33643       -11.30955
| 74>    C        3.51495        -7.86257       -12.57825
| 75>    C        4.86007        -7.78926       -12.23503
| 76>    S        5.11588        -7.90047       -10.50170
| 77>    C        5.95458        -7.64021       -13.13119
| 78>    C        7.28646        -7.56904       -12.66634
| 79>    C        8.40486        -7.41935       -13.55807
| 80>    N        9.66313        -7.35694       -13.04723
| 81>    C        9.81737        -7.43316       -11.77078
| 82>    C        8.70918        -7.58061       -10.88556
| 83>    N        7.49956        -7.64441       -11.33661
| 84>    F        8.88992        -7.65604        -9.57069
| 85>    F       11.05296        -7.37042       -11.28354
| 86>    C        8.22991        -7.33661       -14.93185
| 87>    C        6.92813        -7.40224       -15.41737
| 88>    C        5.78956        -7.55270       -14.53296
| 89>    N        4.64426        -7.59169       -15.21698
| 90>    S        4.95822        -7.45563       -16.78241
| 91>    N        6.54974        -7.33963       -16.70084
| 92>    H       -4.82451        -8.32856         8.90273
| 93>    H       -6.12957        -8.58281         2.79911
| 94>    H       -4.14388        -8.70389        -3.07405
| 95>    H       -0.82561        -8.41982        -8.91165
| 96>    H        3.18452        -7.80969       -13.59935
| 97>    H        9.07446        -7.22561       -15.58872
| 98> *
| 99>
|100>                          ****END OF INPUT****

CARTESIAN COORDINATES (ANGSTROEM)
---------------------------------
  C     -4.692500   -8.373790    7.836080
  C     -3.422530   -8.396350    7.277940
  C     -3.229140   -8.455490    5.853960
  N     -1.977590   -8.474630    5.351550
  C     -0.970480   -8.439580    6.160990
  C     -1.163510   -8.381390    7.572630
  N     -2.339260   -8.360980    8.098400
  F     -0.112120   -8.346360    8.385780
  F      0.251600   -8.459250    5.638110
  C     -4.310440   -8.494070    4.945960
  C     -5.599310   -8.471630    5.527340
  C     -5.776150   -8.411350    6.964940
  N     -7.072640   -8.397700    7.301380
  S     -7.957680   -8.453880    5.972120
  N     -6.773380   -8.498690    4.893500
  C     -4.100070   -8.547040    3.540170
  C     -5.082580   -8.585730    2.557370
  C     -4.540900   -8.622820    1.281350
  C     -3.126260   -8.613330    1.286810
  S     -2.478630   -8.560120    2.867270
  C     -2.673470   -8.640950   -0.050680
  C     -3.800530   -8.668480   -0.904980
  C     -5.007100   -8.658670   -0.093530
  C     -6.298930   -8.673180   -0.532130
  C     -6.627010   -8.702130   -1.904230
  N     -6.904830   -8.725540   -3.016660
  C     -7.395690   -8.658120    0.355490
  N     -8.294660   -8.643880    1.067020
  C     -3.458490   -8.684430   -2.247000
  C     -2.078520   -8.666000   -2.434720
  S     -1.198890   -8.636320   -0.915250
  C     -1.395230   -8.647920   -3.677380
  C      0.015620   -8.606300   -3.749260
  C      0.723090   -8.544010   -4.993750
  N      2.069690   -8.503170   -4.984680
  C      2.705780   -8.520850   -3.857520
  C      2.005120   -8.578940   -2.625000
  N      0.711700   -8.618920   -2.595840
  F      2.655160   -8.594330   -1.466680
  F      4.033200   -8.484140   -3.890600
  C      0.063410   -8.517470   -6.243300
  C     -1.350400   -8.588100   -6.181890
  C     -2.064040   -8.652310   -4.926450
  N     -3.382310   -8.708230   -5.118830
  S     -3.698590   -8.684880   -6.689380
  N     -2.188670   -8.600510   -7.218770
  C      0.779620   -8.412080   -7.462820
  C      0.233910   -8.363280   -8.743220
  C      1.208420   -8.233670   -9.718720
  C      2.517610   -8.183240   -9.185340
  S      2.532020   -8.300480   -7.479930
  C      3.430970   -8.043340  -10.253700
  C      2.700890   -8.005530  -11.464880
  C      1.284740   -8.124360  -11.166550
  C      0.247260   -8.128640  -12.052610
  C      0.446130   -8.015980  -13.444990
  N      0.596070   -7.925660  -14.578140
  C     -1.096190   -8.244010  -11.636970
  N     -2.191290   -8.336430  -11.309550
  C      3.514950   -7.862570  -12.578250
  C      4.860070   -7.789260  -12.235030
  S      5.115880   -7.900470  -10.501700
  C      5.954580   -7.640210  -13.131190
  C      7.286460   -7.569040  -12.666340
  C      8.404860   -7.419350  -13.558070
  N      9.663130   -7.356940  -13.047230
  C      9.817370   -7.433160  -11.770780
  C      8.709180   -7.580610  -10.885560
  N      7.499560   -7.644410  -11.336610
  F      8.889920   -7.656040   -9.570690
  F     11.052960   -7.370420  -11.283540
  C      8.229910   -7.336610  -14.931850
  C      6.928130   -7.402240  -15.417370
  C      5.789560   -7.552700  -14.532960
  N      4.644260   -7.591690  -15.216980
  S      4.958220   -7.455630  -16.782410
  N      6.549740   -7.339630  -16.700840
  H     -4.824510   -8.328560    8.902730
  H     -6.129570   -8.582810    2.799110
  H     -4.143880   -8.703890   -3.074050
  H     -0.825610   -8.419820   -8.911650
  H      3.184520   -7.809690  -13.599350
  H      9.074460   -7.225610  -15.588720

 Total Charge           Charge          ....    0
 Multiplicity           Mult            ....    1
 Number of Electrons    NEL             ....  572
 Basis Dimension        Dim             .... 1136

ORBITAL ENERGIES
----------------

  NO   OCC          E(Eh)            E(eV)
   0   2.0000     -89.043135     -2422.9869
   1   2.0000     -89.040064     -2422.9033
   2   2.0000     -89.039789     -2422.8958
   3   2.0000     -88.979363     -2421.2516
   4   2.0000     -88.979222     -2421.2477
   5   2.0000     -88.978791     -2421.2360
   6   2.0000     -88.978592     -2421.2306
   7   2.0000     -24.825554      -675.5377
   8   2.0000     -24.825352      -675.5322
   9   2.0000     -24.820538      -675.4012
  10   2.0000     -24.820460      -675.3990
  11   2.0000     -24.814539      -675.2379
  12   2.0000     -24.814410      -675.2344
  13   2.0000     -14.466537      -393.6545
  14   2.0000     -14.466382      -393.6503
  15   2.0000     -14.460515      -393.4906
  16   2.0000     -14.460511      -393.4905
  17   2.0000     -14.452995      -393.2860
  18   2.0000     -14.452875      -393.2827
  19   2.0000     -14.452017      -393.2594
  20   2.0000     -14.451930      -393.2570
  21   2.0000     -14.448317      -393.1587
  22   2.0000     -14.448305      -393.1584
  23   2.0000     -14.445616      -393.0852
  24   2.0000     -14.445605      -393.0849
  25   2.0000     -14.422098      -392.4452
  26   2.0000     -14.422094      -392.4451
  27   2.0000     -14.421974      -392.4419
  28   2.0000     -14.421929      -392.4406
  29   2.0000     -10.441577      -284.1298
  30   2.0000     -10.441277      -284.1216
  31   2.0000     -10.435556      -283.9659
  32   2.0000     -10.435459      -283.9633
  33   2.0000     -10.431158      -283.8463
  34   2.0000     -10.431036      -283.8429
  35   2.0000     -10.355180      -281.7788
  36   2.0000     -10.355129      -281.7774
  37   2.0000     -10.350930      -281.6631
  38   2.0000     -10.350655      -281.6556
  39   2.0000     -10.344370      -281.4846
  40   2.0000     -10.344298      -281.4827
  41   2.0000     -10.343783      -281.4687
  42   2.0000     -10.343704      -281.4665
  43   2.0000     -10.343562      -281.4626
  44   2.0000     -10.343322      -281.4561
  45   2.0000     -10.343195      -281.4526
  46   2.0000     -10.343101      -281.4501
  47   2.0000     -10.338644      -281.3288
  48   2.0000     -10.338518      -281.3254
  49   2.0000     -10.335245      -281.2363
  50   2.0000     -10.335229      -281.2359
  51   2.0000     -10.322819      -280.8982
  52   2.0000     -10.322795      -280.8975
  53   2.0000     -10.322661      -280.8939
  54   2.0000     -10.322624      -280.8929
  55   2.0000     -10.321953      -280.8746
  56   2.0000     -10.321933      -280.8741
  57   2.0000     -10.320564      -280.8368
  58   2.0000     -10.320361      -280.8313
  59   2.0000     -10.319880      -280.8182
  60   2.0000     -10.319776      -280.8154
  61   2.0000     -10.319164      -280.7987
  62   2.0000     -10.319092      -280.7968
  63   2.0000     -10.318817      -280.7893
  64   2.0000     -10.318785      -280.7884
  65   2.0000     -10.318062      -280.7687
  66   2.0000     -10.318044      -280.7683
  67   2.0000     -10.295528      -280.1556
  68   2.0000     -10.295500      -280.1548
  69   2.0000     -10.293800      -280.1085
  70   2.0000     -10.293766      -280.1076
  71   2.0000     -10.293073      -280.0887
  72   2.0000     -10.292967      -280.0859
  73   2.0000     -10.290611      -280.0218
  74   2.0000     -10.290556      -280.0203
  75   2.0000     -10.290472      -280.0180
  76   2.0000     -10.290397      -280.0159
  77   2.0000      -8.134289      -221.3453
  78   2.0000      -8.131290      -221.2636
  79   2.0000      -8.131156      -221.2600
  80   2.0000      -8.072123      -219.6536
  81   2.0000      -8.072066      -219.6521
  82   2.0000      -8.071584      -219.6390
  83   2.0000      -8.071477      -219.6361
  84   2.0000      -6.105407      -166.1366
  85   2.0000      -6.102244      -166.0505
  86   2.0000      -6.102115      -166.0470
  87   2.0000      -6.097454      -165.9202
  88   2.0000      -6.097118      -165.9110
  89   2.0000      -6.094415      -165.8375
  90   2.0000      -6.094392      -165.8368
  91   2.0000      -6.094270      -165.8335
  92   2.0000      -6.094213      -165.8320
  93   2.0000      -6.041575      -164.3996
  94   2.0000      -6.041514      -164.3979
  95   2.0000      -6.041021      -164.3845
  96   2.0000      -6.040922      -164.3818
  97   2.0000      -6.036891      -164.2722
  98   2.0000      -6.036822      -164.2703
  99   2.0000      -6.036329      -164.2569
 100   2.0000      -6.036213      -164.2537
 101   2.0000      -6.034663      -164.2115
 102   2.0000      -6.034581      -164.2093
 103   2.0000      -6.034136      -164.1972
 104   2.0000      -6.033999      -164.1935
 105   2.0000      -1.354271       -36.8516
 106   2.0000      -1.346776       -36.6476
 107   2.0000      -1.346725       -36.6462
 108   2.0000      -1.340259       -36.4703
 109   2.0000      -1.331446       -36.2305
 110   2.0000      -1.331442       -36.2304
 111   2.0000      -1.141656       -31.0660
 112   2.0000      -1.136390       -30.9228
 113   2.0000      -1.136383       -30.9225
 114   2.0000      -1.124843       -30.6085
 115   2.0000      -1.114888       -30.3377
 116   2.0000      -1.114834       -30.3362
 117   2.0000      -1.052283       -28.6341
 118   2.0000      -1.041684       -28.3457
 119   2.0000      -1.041597       -28.3433
 120   2.0000      -1.033707       -28.1286
 121   2.0000      -1.033135       -28.1130
 122   2.0000      -1.013477       -27.5781
 123   2.0000      -1.013320       -27.5738
 124   2.0000      -1.000317       -27.2200
 125   2.0000      -0.999856       -27.2075
 126   2.0000      -0.998822       -27.1793
 127   2.0000      -0.996719       -27.1221
 128   2.0000      -0.991851       -26.9896
 129   2.0000      -0.987849       -26.8807
 130   2.0000      -0.982618       -26.7384
 131   2.0000      -0.975904       -26.5557
 132   2.0000      -0.967380       -26.3237
 133   2.0000      -0.962849       -26.2005
 134   2.0000      -0.947503       -25.7829
 135   2.0000      -0.944686       -25.7062
 136   2.0000      -0.912791       -24.8383
 137   2.0000      -0.903988       -24.5988
 138   2.0000      -0.891495       -24.2588
 139   2.0000      -0.886778       -24.1304
 140   2.0000      -0.882266       -24.0077
 141   2.0000      -0.882015       -24.0008
 142   2.0000      -0.872826       -23.7508
 143   2.0000      -0.868833       -23.6422
 144   2.0000      -0.856415       -23.3042
 145   2.0000      -0.851025       -23.1576
 146   2.0000      -0.844622       -22.9833
 147   2.0000      -0.844132       -22.9700
 148   2.0000      -0.823156       -22.3992
 149   2.0000      -0.813521       -22.1370
 150   2.0000      -0.812653       -22.1134
 151   2.0000      -0.806925       -21.9576
 152   2.0000      -0.792631       -21.5686
 153   2.0000      -0.776059       -21.1176
 154   2.0000      -0.775493       -21.1022
 155   2.0000      -0.769502       -20.9392
 156   2.0000      -0.768939       -20.9239
 157   2.0000      -0.759186       -20.6585
 158   2.0000      -0.756813       -20.5939
 159   2.0000      -0.751233       -20.4421
 160   2.0000      -0.748555       -20.3692
 161   2.0000      -0.737327       -20.0637
 162   2.0000      -0.721437       -19.6313
 163   2.0000      -0.708447       -19.2778
 164   2.0000      -0.699519       -19.0349
 165   2.0000      -0.688248       -18.7282
 166   2.0000      -0.687936       -18.7197
 167   2.0000      -0.684234       -18.6190
 168   2.0000      -0.684013       -18.6129
 169   2.0000      -0.683553       -18.6004
 170   2.0000      -0.679463       -18.4891
 171   2.0000      -0.677647       -18.4397
 172   2.0000      -0.674961       -18.3666
 173   2.0000      -0.669985       -18.2312
 174   2.0000      -0.665705       -18.1148
 175   2.0000      -0.664214       -18.0742
 176   2.0000      -0.656020       -17.8512
 177   2.0000      -0.653884       -17.7931
 178   2.0000      -0.644338       -17.5333
 179   2.0000      -0.642589       -17.4857
 180   2.0000      -0.632479       -17.2106
 181   2.0000      -0.632260       -17.2047
 182   2.0000      -0.628991       -17.1157
 183   2.0000      -0.625750       -17.0275
 184   2.0000      -0.622818       -16.9477
 185   2.0000      -0.621033       -16.8992
 186   2.0000      -0.620714       -16.8905
 187   2.0000      -0.620700       -16.8901
 188   2.0000      -0.617164       -16.7939
 189   2.0000      -0.606316       -16.4987
 190   2.0000      -0.605525       -16.4772
 191   2.0000      -0.599941       -16.3252
 192   2.0000      -0.595062       -16.1925
 193   2.0000      -0.584415       -15.9027
 194   2.0000      -0.581020       -15.8103
 195   2.0000      -0.573115       -15.5953
 196   2.0000      -0.573051       -15.5935
 197   2.0000      -0.569385       -15.4938
 198   2.0000      -0.569184       -15.4883
 199   2.0000      -0.562147       -15.2968
 200   2.0000      -0.562136       -15.2965
 201   2.0000      -0.558680       -15.2024
 202   2.0000      -0.557897       -15.1812
 203   2.0000      -0.548355       -14.9215
 204   2.0000      -0.547324       -14.8935
 205   2.0000      -0.540993       -14.7212
 206   2.0000      -0.540536       -14.7087
 207   2.0000      -0.538269       -14.6470
 208   2.0000      -0.538149       -14.6438
 209   2.0000      -0.537805       -14.6344
 210   2.0000      -0.537668       -14.6307
 211   2.0000      -0.528438       -14.3795
 212   2.0000      -0.523497       -14.2451
 213   2.0000      -0.522013       -14.2047
 214   2.0000      -0.520249       -14.1567
 215   2.0000      -0.520086       -14.1523
 216   2.0000      -0.519226       -14.1289
 217   2.0000      -0.517708       -14.0876
 218   2.0000      -0.513606       -13.9759
 219   2.0000      -0.513384       -13.9699
 220   2.0000      -0.510359       -13.8876
 221   2.0000      -0.510148       -13.8818
 222   2.0000      -0.499195       -13.5838
 223   2.0000      -0.495379       -13.4800
 224   2.0000      -0.489197       -13.3117
 225   2.0000      -0.487656       -13.2698
 226   2.0000      -0.487214       -13.2578
 227   2.0000      -0.484951       -13.1962
 228   2.0000      -0.484512       -13.1842
 229   2.0000      -0.484164       -13.1748
 230   2.0000      -0.479340       -13.0435
 231   2.0000      -0.478872       -13.0308
 232   2.0000      -0.478506       -13.0208
 233   2.0000      -0.471241       -12.8231
 234   2.0000      -0.469743       -12.7824
 235   2.0000      -0.463566       -12.6143
 236   2.0000      -0.460331       -12.5263
 237   2.0000      -0.458656       -12.4807
 238   2.0000      -0.456670       -12.4266
 239   2.0000      -0.455817       -12.4034
 240   2.0000      -0.454082       -12.3562
 241   2.0000      -0.453733       -12.3467
 242   2.0000      -0.452689       -12.3183
 243   2.0000      -0.448424       -12.2022
 244   2.0000      -0.447223       -12.1696
 245   2.0000      -0.445213       -12.1149
 246   2.0000      -0.436254       -11.8711
 247   2.0000      -0.432732       -11.7752
 248   2.0000      -0.432721       -11.7749
 249   2.0000      -0.430984       -11.7277
 250   2.0000      -0.430807       -11.7229
 251   2.0000      -0.430127       -11.7044
 252   2.0000      -0.423233       -11.5168
 253   2.0000      -0.420965       -11.4550
 254   2.0000      -0.420726       -11.4485
 255   2.0000      -0.420211       -11.4345
 256   2.0000      -0.414291       -11.2734
 257   2.0000      -0.414250       -11.2723
 258   2.0000      -0.409151       -11.1336
 259   2.0000      -0.408700       -11.1213
 260   2.0000      -0.407294       -11.0830
 261   2.0000      -0.403448       -10.9784
 262   2.0000      -0.401905       -10.9364
 263   2.0000      -0.399158       -10.8616
 264   2.0000      -0.398561       -10.8454
 265   2.0000      -0.390981       -10.6391
 266   2.0000      -0.377150       -10.2628
 267   2.0000      -0.375790       -10.2258
 268   2.0000      -0.375635       -10.2215
 269   2.0000      -0.372900       -10.1471
 270   2.0000      -0.370587       -10.0842
 271   2.0000      -0.365470        -9.9449
 272   2.0000      -0.364966        -9.9312
 273   2.0000      -0.362934        -9.8759
 274   2.0000      -0.348073        -9.4715
 275   2.0000      -0.340229        -9.2581
 276   2.0000      -0.340168        -9.2564
 277   2.0000      -0.339042        -9.2258
 278   2.0000      -0.337757        -9.1908
 279   2.0000      -0.334193        -9.0938
 280   2.0000      -0.316200        -8.6042
 281   2.0000      -0.313070        -8.5191
 282   2.0000      -0.312188        -8.4951
 283   2.0000      -0.287713        -7.8291
 284   2.0000      -0.259135        -7.0514
 285   2.0000      -0.229729        -6.2512
 286   0.0000      -0.126738        -3.4487
 287   0.0000      -0.107295        -2.9196
 288   0.0000      -0.099488        -2.7072
 289   0.0000      -0.089426        -2.4334
 290   0.0000      -0.087983        -2.3941

MULLIKEN ATOMIC CHARGES
-----------------------
   0 C :   -0.087540
   1 C :    0.025141
   2 C :   -0.065517
   3 N :   -0.046238
   4 C :    0.145985
   5 C :    0.125421
   6 N :    0.015860
   7 F :   -0.139835
   8 F :   -0.136751
   9 C :    0.203831
  10 C :   -0.050430
  11 C :    0.096268
  12 N :   -0.270521
  13 S :    0.551621
  14 N :   -0.281763
  15 C :   -0.178673
  16 C :   -0.055490
  17 C :    0.031927
  18 C :   -0.071271
  19 S :    0.204234
  20 C :   -0.071269
  21 C :    0.040585
  22 C :    0.313892
  23 C :   -0.309219
  24 C :   -0.190521
  25 N :    0.168156
  26 C :   -0.191511
  27 N :    0.173966
  28 C :   -0.068779
  29 C :   -0.184024
  30 S :    0.201974
  31 C :    0.187109
  32 C :   -0.066110
  33 C :   -0.063413
  34 N :   -0.046292
  35 C :    0.148388
  36 C :    0.149025
  37 N :   -0.040286
  38 F :   -0.134553
  39 F :   -0.135721
  40 C :    0.183861
  41 C :   -0.017876
  42 C :   -0.012655
  43 N :   -0.286889
  44 S :    0.576596
  45 N :   -0.283381
  46 C :   -0.184537
  47 C :   -0.064954
  48 C :    0.037507
  49 C :   -0.071202
  50 S :    0.202972
  51 C :   -0.072072
  52 C :    0.034281
  53 C :    0.313450
  54 C :   -0.307542
  55 C :   -0.190309
  56 N :    0.167350
  57 C :   -0.188258
  58 N :    0.168264
  59 C :   -0.055168
  60 C :   -0.181874
  61 S :    0.205395
  62 C :    0.204677
  63 C :   -0.066988
  64 C :    0.029405
  65 N :    0.014841
  66 C :    0.127379
  67 C :    0.146004
  68 N :   -0.048364
  69 F :   -0.137521
  70 F :   -0.139916
  71 C :   -0.088633
  72 C :    0.096092
  73 C :   -0.046187
  74 N :   -0.283812
  75 S :    0.552967
  76 N :   -0.271678
  77 H :   -0.022238
  78 H :    0.021594
  79 H :    0.021470
  80 H :    0.021635
  81 H :    0.021006
  82 H :   -0.022351
Sum of atomic charges:   -0.0000000

LOEWDIN ATOMIC CHARGES
----------------------
   0 C :   -0.020712
   1 C :   -0.010211
   2 C :   -0.025207
   3 N :   -0.060897
   4 C :    0.060917
   5 C :    0.054237
   6 N :   -0.036359
   7 F :   -0.028834
   8 F :   -0.026583
   9 C :   -0.029055
  10 C :   -0.043992
  11 C :   -0.048613
  12 N :   -0.287132
  13 S :    0.686660
  14 N :   -0.280412
  15 C :   -0.170591
  16 C :   -0.009386
  17 C :   -0.073578
  18 C :   -0.179153
  19 S :    0.511000
  20 C :   -0.181559
  21 C :   -0.070788
  22 C :    0.082299
  23 C :   -0.107296
  24 C :   -0.016577
  25 N :   -0.037802
  26 C :   -0.017135
  27 N :   -0.037114
  28 C :   -0.012470
  29 C :   -0.166489
  30 S :    0.507157
  31 C :   -0.044415
  32 C :   -0.018619
  33 C :   -0.018431
  34 N :   -0.055266
  35 C :    0.061514
  36 C :    0.061276
  37 N :   -0.055036
  38 F :   -0.024318
  39 F :   -0.024608
  40 C :   -0.044492
  41 C :   -0.038823
  42 C :   -0.038502
  43 N :   -0.273583
  44 S :    0.694833
  45 N :   -0.273432
  46 C :   -0.166499
  47 C :   -0.012544
  48 C :   -0.070862
  49 C :   -0.181615
  50 S :    0.507201
  51 C :   -0.179244
  52 C :   -0.073691
  53 C :    0.082226
  54 C :   -0.107304
  55 C :   -0.016784
  56 N :   -0.037365
  57 C :   -0.016599
  58 N :   -0.037750
  59 C :   -0.009258
  60 C :   -0.170609
  61 S :    0.510908
  62 C :   -0.028935
  63 C :   -0.025169
  64 C :   -0.010060
  65 N :   -0.036486
  66 C :    0.054240
  67 C :    0.061207
  68 N :   -0.061059
  69 F :   -0.026721
  70 F :   -0.028915
  71 C :   -0.020494
  72 C :   -0.048552
  73 C :   -0.043867
  74 N :   -0.280772
  75 S :    0.686951
  76 N :   -0.287268
  77 H :    0.046376
  78 H :    0.037977
  79 H :    0.037378
  80 H :    0.037393
  81 H :    0.037839
  82 H :    0.046298

  Mayer bond orders larger than 0.100000
B(  0-C ,  1-C ) :   1.3368 B(  0-C ,  9-C ) :   0.1331 B(  0-C , 11-C ) :   1.1732
B(  0-C , 77-H ) :   1.0615 B(  1-C ,  2-C ) :   1.1352 B(  1-C ,  6-N ) :   1.3288
B(  2-C ,  3-N ) :   1.3623 B(  2-C ,  9-C ) :   1.3070 B(  3-N ,  4-C ) :   1.6699
B(  4-C ,  5-C ) :   1.0883 B(  4-C ,  8-F ) :   1.1853 B(  5-C ,  6-N ) :   1.7293
B(  5-C ,  7-F ) :   1.1755 B(  9-C , 10-C ) :   1.2131 B(  9-C , 15-C ) :   1.1746
B( 10-C , 11-C ) :   1.1245 B( 10-C , 14-N ) :   1.5075 B( 11-C , 12-N ) :   1.4617
B( 12-N , 13-S ) :   1.3090 B( 12-N , 14-N ) :   0.1571 B( 13-S , 14-N ) :   1.2806
B( 15-C , 16-C ) :   1.4224 B( 15-C , 19-S ) :   1.0874 B( 16-C , 17-C ) :   1.2776
B( 16-C , 78-H ) :   0.9811 B( 17-C , 18-C ) :   1.3939 B( 17-C , 22-C ) :   0.9921
B( 18-C , 19-S ) :   1.0919 B( 18-C , 20-C ) :   1.2101 B( 20-C , 21-C ) :   1.3897
B( 20-C , 30-S ) :   1.0888 B( 21-C , 22-C ) :   0.9877 B( 21-C , 28-C ) :   1.2835
B( 22-C , 23-C ) :   1.7059 B( 23-C , 24-C ) :   1.1400 B( 23-C , 26-C ) :   1.1373
B( 24-C , 25-N ) :   2.9858 B( 26-C , 27-N ) :   2.9901 B( 28-C , 29-C ) :   1.4104
B( 28-C , 79-H ) :   0.9805 B( 29-C , 30-S ) :   1.0872 B( 29-C , 31-C ) :   1.1975
B( 31-C , 32-C ) :   1.2920 B( 31-C , 40-C ) :   0.1255 B( 31-C , 42-C ) :   1.1911
B( 32-C , 33-C ) :   1.1205 B( 32-C , 37-N ) :   1.3856 B( 33-C , 34-N ) :   1.3830
B( 33-C , 40-C ) :   1.2907 B( 34-N , 35-C ) :   1.6524 B( 35-C , 36-C ) :   1.1121
B( 35-C , 39-F ) :   1.1851 B( 36-C , 37-N ) :   1.6489 B( 36-C , 38-F ) :   1.1879
B( 40-C , 41-C ) :   1.1928 B( 40-C , 46-C ) :   1.1985 B( 41-C , 42-C ) :   1.1017
B( 41-C , 45-N ) :   1.5177 B( 42-C , 43-N ) :   1.5133 B( 43-N , 44-S ) :   1.2812
B( 43-N , 45-N ) :   0.1483 B( 44-S , 45-N ) :   1.2803 B( 46-C , 47-C ) :   1.4096
B( 46-C , 50-S ) :   1.0878 B( 47-C , 48-C ) :   1.2821 B( 47-C , 80-H ) :   0.9803
B( 48-C , 49-C ) :   1.3912 B( 48-C , 53-C ) :   0.9904 B( 49-C , 50-S ) :   1.0890
B( 49-C , 51-C ) :   1.2087 B( 51-C , 52-C ) :   1.3909 B( 51-C , 61-S ) :   1.0927
B( 52-C , 53-C ) :   0.9929 B( 52-C , 59-C ) :   1.2756 B( 53-C , 54-C ) :   1.7029
B( 54-C , 55-C ) :   1.1388 B( 54-C , 57-C ) :   1.1378 B( 55-C , 56-N ) :   2.9864
B( 57-C , 58-N ) :   2.9857 B( 59-C , 60-C ) :   1.4248 B( 59-C , 81-H ) :   0.9810
B( 60-C , 61-S ) :   1.0883 B( 60-C , 62-C ) :   1.1719 B( 62-C , 63-C ) :   1.3084
B( 62-C , 71-C ) :   0.1334 B( 62-C , 73-C ) :   1.2128 B( 63-C , 64-C ) :   1.1344
B( 63-C , 68-N ) :   1.3616 B( 64-C , 65-N ) :   1.3259 B( 64-C , 71-C ) :   1.3374
B( 65-N , 66-C ) :   1.7294 B( 66-C , 67-C ) :   1.0881 B( 66-C , 70-F ) :   1.1756
B( 67-C , 68-N ) :   1.6699 B( 67-C , 69-F ) :   1.1832 B( 71-C , 72-C ) :   1.1733
B( 71-C , 82-H ) :   1.0609 B( 72-C , 73-C ) :   1.1250 B( 72-C , 76-N ) :   1.4603
B( 73-C , 74-N ) :   1.5055 B( 74-N , 75-S ) :   1.2795 B( 74-N , 76-N ) :   0.1570
B( 75-S , 76-N ) :   1.3086

-----------------------------------------------------------------------------
         ABSORPTION SPECTRUM VIA TRANSITION ELECTRIC DIPOLE MOMENTS
-----------------------------------------------------------------------------
State   Energy  Wavelength   fosc         T2         TX        TY        TZ
        (cm-1)    (nm)                  (au**2)     (au)      (au)      (au)
-----------------------------------------------------------------------------
   0    8266.2   1209.7   1.088478955  43.35003  -3.24882  -0.27036   5.72032
   1   12232.2    817.5   0.033300672   0.89624  -0.79586  -0.21064  -0.46741
   2   13458.9    743.0   0.000372752   0.00912   0.04016  -0.00180  -0.08661
   3   15424.7    648.3   0.355101138   7.57899   1.31825   0.09524  -2.41498
   4   15491.3    645.5   0.087086313   1.85071  -1.20451  -0.24347  -0.58360
   5   16235.2    615.9   0.002353715   0.04773   0.15246   0.12480   0.09438
   6   20799.0    480.8   0.005820371   0.09213   0.14832   0.00433  -0.26478
   7   22593.6    442.6   0.015562179   0.22676  -0.41321   0.01860  -0.23594
   8   23167.4    431.6   0.145450526   2.06687   0.70971   0.05944  -1.24886
   9   24184.1    413.5   0.003326651   0.04528   0.10542   0.00439  -0.18481
  10   24244.5    412.5   0.000086584   0.00118  -0.01687  -0.02864  -0.00841
  11   25449.0    392.9   0.044534606   0.57611  -0.37479  -0.03299   0.65921
  12   25946.8    385.4   0.055942087   0.70979  -0.73121  -0.01591  -0.41817
  13   26040.4    384.0   0.013820838   0.17473  -0.20696  -0.01861   0.36270
  14   26802.6    373.1   0.019822647   0.24348  -0.42804  -0.04982  -0.24038
  15   28084.4    356.1   0.001507528   0.01767   0.06778   0.00221  -0.11433
  16   28585.3    349.8   0.062278661   0.71725   0.73323   0.04975   0.42089
  17   28719.1    348.2   0.000059491   0.00068   0.02394   0.00198  -0.01025
  18   29364.3    340.5   0.030446179   0.34134  -0.49767  -0.04498  -0.30273
  19   29652.3    337.2   1.263755875  14.03073   1.85388   0.15054  -3.25134
  20   29932.6    334.1   0.015709952   0.17279   0.34387   0.06712   0.22369
  21   30200.8    331.1   0.013760867   0.15000  -0.34106   0.00213  -0.18352
  22   30261.6    330.5   0.080037842   0.87072   0.45619   0.04176  -0.81294
  23   30969.2    322.9   0.001153940   0.01227   0.09767  -0.01266   0.05067
  24   30992.8    322.7   0.008169289   0.08678  -0.25554  -0.00070  -0.14655
  25   31147.4    321.1   0.058592058   0.61929  -0.39075  -0.02401   0.68266
  26   31408.4    318.4   0.002441903   0.02560  -0.12945  -0.05449  -0.07661
  27   31447.5    318.0   0.001280738   0.01341   0.05464   0.00859  -0.10172
  28   31844.7    314.0   0.333622123   3.44900   1.61644  -0.07492   0.91133
  29   32049.3    312.0   0.001572731   0.01616   0.04865   0.01083  -0.11693
  30   32057.1    311.9   0.000074486   0.00076  -0.01081  -0.01570  -0.02004
  31   32356.4    309.1   0.202995020   2.06538  -0.70582  -0.05491   1.25067
  32   32700.1    305.8   0.768869920   7.74068  -2.41961  -0.01531  -1.37329
  33   32771.0    305.1   0.001740685   0.01749   0.08919  -0.01308   0.09675
  34   33199.8    301.2   0.162107819   1.60747  -1.09551  -0.12723  -0.62542
  35   33336.3    300.0   0.000308712   0.00305   0.05055   0.01169   0.01889
  36   33416.3    299.3   0.000253815   0.00250  -0.03465  -0.03439  -0.01084
  37   34019.4    293.9   0.044061258   0.42639   0.37570   0.02948  -0.53326
  38   34057.7    293.6   0.113264128   1.09485  -0.88847   0.01478  -0.55249
  39   34333.8    291.3   0.044575383   0.42741   0.57418  -0.06215   0.30639
  40   34433.8    290.4   0.035936803   0.34358   0.27589   0.02630  -0.51651
  41   35235.5    283.8   0.006280434   0.05868  -0.20988   0.02819  -0.11763
  42   35389.5    282.6   0.000053994   0.00050   0.02238   0.00041  -0.00110
  43   35407.0    282.4   0.000017442   0.00016   0.01001   0.00057  -0.00786
  44   35636.8    280.6   0.164759345   1.52204   1.05288   0.09332   0.63622
  45   35706.4    280.1   0.091454764   0.84321   0.49401   0.04000  -0.77302
  46   36140.5    276.7   0.923847973   8.41553  -2.51904  -0.10241  -1.43508
  47   36686.1    272.6   0.184321497   1.65406  -0.64933  -0.05566   1.10875
  48   36886.4    271.1   0.123815407   1.10505   0.90200   0.10203   0.53013
  49   36910.0    270.9   0.023233898   0.20723   0.19370   0.01858  -0.41154
  50   37475.1    266.8   0.008331888   0.07319   0.23277   0.03541   0.13326
  51   37508.5    266.6   0.013470463   0.11823  -0.16651  -0.01490   0.30047
  52   37635.4    265.7   0.064379472   0.56315   0.64931   0.06597   0.37039
  53   37775.2    264.7   0.026415562   0.23021   0.23493   0.01969  -0.41789
  54   38019.5    263.0   0.032041928   0.27745   0.45205   0.06794   0.26171
  55   38139.4    262.2   0.000148904   0.00129   0.01096   0.00112   0.03412
  56   39018.1    256.3   0.141858681   1.19692   0.96209  -0.07390   0.51561
  57   39144.7    255.5   0.174483633   1.46743  -0.59700  -0.02831   1.05367
  58   39331.6    254.2   0.017275858   0.14460  -0.16710  -0.01811   0.34111
  59   39549.6    252.8   0.451103006   3.75499   1.68442  -0.03365   0.95739
  60   39712.8    251.8   0.011573519   0.09594  -0.22425  -0.00712   0.21355
  61   39736.2    251.7   0.269240359   2.23064   1.28840  -0.00047   0.75543
  62   40046.0    249.7   0.229252129   1.88465  -0.67227  -0.03954   1.19630
  63   40089.6    249.4   0.005714679   0.04693  -0.19331   0.02092  -0.09551

FINAL SINGLE POINT ENERGY     -6090.158208922518

DIPOLE MOMENT
-------------
                                X             Y             Z
Electronic contribution:     30.02100       0.18183      17.05291
Nuclear contribution   :    -28.20425      -0.13483     -16.01692
                        -----------------------------------------
Total Dipole Moment    :      1.81674       0.04701       1.03599
                        -----------------------------------------
Magnitude (a.u.)       :      2.09190
Magnitude (Debye)      :      5.31717

Rotational constants in cm-1:     0.001703     0.000209     0.000186
Rotational constants in MHz :    51.066843     6.255225     5.580223

                             ****ORCA TERMINATED NORMALLY****
TOTAL RUN TIME: 0 days 0 hours 8 minutes 43 seconds 887 msec
