                         Program Version 4.2.0 -  RELEASE  -
|  1> # ORCA input file
|  2> # SCF done       -225.274242205349          0.000980609682
|  3> ! CAM-B3LYP def2-SVP def2/J RIJCOSX Grid4 TightSCF
|  4> %maxcore 5000
|  5> %tddft
|  6>     Mode sTDDFT
|  7>     Ethresh 5.0
|  8>     maxcore 5000
|  9> end
| 10>
| 11> %pal
| 12>   nprocs 6
| 13>   end
| 14> * xyz 0 1
| 15>    C        2.49891        -1.40862         6.74066
| 16>    C        3.33476        -1.83039         7.73655
| 17>    F        4.12745        -0.95440         8.36628
| 18>    C        3.37421        -3.18823         8.11295
| 19>    F        4.20287        -3.57329         9.09206
| 20>    C        2.57744        -4.10599         7.48732
| 21>    C        1.70631        -3.70243         6.45691
| 22>    C        1.66423        -2.32968         6.07639
| 23>    C        0.79667        -1.90015         5.04569
| 24>    C       -0.00255        -2.81537         4.41298
| 25>    C        0.05206        -4.18511         4.79587
| 26>    C        0.87588        -4.62997         5.78944
| 27>    C       -0.88015        -4.95594         3.95766
| 28>    O       -1.09747        -6.15342         4.02908
| 29>    C       -1.47681        -3.99915         3.01876
| 30>    C       -0.97723        -2.67216         3.33328
| 31>    C       -1.35619        -1.48469         2.76535
| 32>    C       -2.33224        -1.32819         1.75790
| 33>    N       -3.11879        -1.11718         0.94839
| 34>    C       -0.82771        -0.22935         3.13620
| 35>    N       -0.43752         0.81949         3.39044
| 36>    C       -2.30458        -4.32225         1.97444
| 37>    C       -2.81638        -5.56579         1.57110
| 38>    C       -3.57771        -5.69909         0.40258
| 39>    C       -3.96658        -7.00383         0.17185
| 40>    C       -3.52073        -7.88416         1.18725
| 41>    S       -2.60677        -7.10993         2.39678
| 42>    C       -3.94877        -9.19412         0.85260
| 43>    C       -4.65142        -9.14213        -0.36908
| 44>    C       -4.69538        -7.76515        -0.83123
| 45>    C       -5.28557        -7.29334        -1.96596
| 46>    C       -5.96588        -8.14546        -2.86210
| 47>    N       -6.51814        -8.84097        -3.58680
| 48>    C       -5.25172        -5.92781        -2.32139
| 49>    N       -5.22034        -4.82117        -2.61768
| 50>    C       -5.07796       -10.39494        -0.79568
| 51>    C       -4.71308       -11.39087         0.09721
| 52>    S       -3.83929       -10.77277         1.49113
| 53>    C       -4.94861       -12.77916        -0.04506
| 54>    C       -4.66432       -13.80294         0.82794
| 55>    C       -4.08539       -13.94976         2.16515
| 56>    O       -3.64936       -13.11061         2.91798
| 57>    N       -4.11834       -15.31643         2.42100
| 58>    C       -3.64276       -15.90025         3.65089
| 59>    C       -4.64070       -16.06848         1.37549
| 60>    O       -4.74405       -17.27310         1.36699
| 61>    C       -4.99951       -15.08849         0.34820
| 62>    C       -5.54383       -15.10012        -0.91464
| 63>    S       -5.66182       -13.44846        -1.50698
| 64>    C       -5.93436       -16.20529        -1.70750
| 65>    C       -6.41964       -16.16246        -3.00584
| 66>    C       -6.64742       -17.43731        -3.51160
| 67>    C       -6.33928       -18.45206        -2.58218
| 68>    S       -5.77244       -17.84383        -1.09271
| 69>    C       -6.57390       -19.70798        -3.19906
| 70>    C       -7.01908       -19.48285        -4.51793
| 71>    C       -7.09811       -18.05083        -4.74996
| 72>    C       -7.52931       -17.43087        -5.88543
| 73>    C       -7.95040       -18.17295        -7.00951
| 74>    N       -8.27956       -18.79526        -7.91469
| 75>    C       -7.57597       -16.02556        -6.00200
| 76>    N       -7.60624       -14.88345        -6.09298
| 77>    C       -7.26958       -20.65643        -5.21453
| 78>    C       -7.03101       -21.78575        -4.44227
| 79>    S       -6.45988       -21.36383        -2.83083
| 80>    C       -7.11803       -23.14630        -4.80528
| 81>    C       -7.72861       -23.71602        -5.88241
| 82>    C       -7.30145       -25.08639        -6.29104
| 83>    O       -6.63319       -25.85517        -5.64076
| 84>    C       -7.81427       -25.25888        -7.66370
| 85>    C       -7.58779       -26.27806        -8.54340
| 86>    C       -8.15614       -26.20828        -9.83507
| 87>    C       -8.94346       -25.07516       -10.19329
| 88>    C       -9.49673       -25.00673       -11.48768
| 89>    C       -9.28252       -26.01727       -12.38252
| 90>    C       -8.50587       -27.13851       -12.02636
| 91>    C       -7.95379       -27.23332       -10.77976
| 92>    F       -8.31138       -28.11333       -12.92414
| 93>    F       -9.80995       -25.95190       -13.61127
| 94>    C       -9.16710       -24.03844        -9.25824
| 95>    C       -8.61792       -24.13488        -8.00799
| 96>    C       -8.69792       -23.24699        -6.84945
| 97>    C       -9.69063       -22.32509        -6.64190
| 98>    C       -9.87992       -21.63845        -5.42712
| 99>    N      -10.07040       -21.07455        -4.44519
|100>    C      -10.69515       -22.02970        -7.58826
|101>    N      -11.53816       -21.76076        -8.31826
|102>    H        2.48063        -0.36560         6.46548
|103>    H        2.61986        -5.14150         7.78675
|104>    H        0.79192        -0.85534         4.78129
|105>    H        0.89494        -5.67462         6.06041
|106>    H       -2.60907        -3.51199         1.32266
|107>    H       -3.80939        -4.85977        -0.22920
|108>    H       -5.62167       -10.59717        -1.70140
|109>    H       -3.01376       -15.16670         4.15209
|110>    H       -3.07373       -16.80134         3.42495
|111>    H       -4.48178       -16.16378         4.29767
|112>    H       -6.58031       -15.24075        -3.53654
|113>    H       -7.55878       -20.70257        -6.24824
|114>    H       -6.55605       -23.84052        -4.18721
|115>    H       -6.98181       -27.12482        -8.25917
|116>    H      -10.09624       -24.15723       -11.77528
|117>    H       -7.36127       -28.09750       -10.52313
|118>    H       -9.75617       -23.18652        -9.55832
|119> *
|120>
|121>                          ****END OF INPUT****

CARTESIAN COORDINATES (ANGSTROEM)
---------------------------------
  C      2.498910   -1.408620    6.740660
  C      3.334760   -1.830390    7.736550
  F      4.127450   -0.954400    8.366280
  C      3.374210   -3.188230    8.112950
  F      4.202870   -3.573290    9.092060
  C      2.577440   -4.105990    7.487320
  C      1.706310   -3.702430    6.456910
  C      1.664230   -2.329680    6.076390
  C      0.796670   -1.900150    5.045690
  C     -0.002550   -2.815370    4.412980
  C      0.052060   -4.185110    4.795870
  C      0.875880   -4.629970    5.789440
  C     -0.880150   -4.955940    3.957660
  O     -1.097470   -6.153420    4.029080
  C     -1.476810   -3.999150    3.018760
  C     -0.977230   -2.672160    3.333280
  C     -1.356190   -1.484690    2.765350
  C     -2.332240   -1.328190    1.757900
  N     -3.118790   -1.117180    0.948390
  C     -0.827710   -0.229350    3.136200
  N     -0.437520    0.819490    3.390440
  C     -2.304580   -4.322250    1.974440
  C     -2.816380   -5.565790    1.571100
  C     -3.577710   -5.699090    0.402580
  C     -3.966580   -7.003830    0.171850
  C     -3.520730   -7.884160    1.187250
  S     -2.606770   -7.109930    2.396780
  C     -3.948770   -9.194120    0.852600
  C     -4.651420   -9.142130   -0.369080
  C     -4.695380   -7.765150   -0.831230
  C     -5.285570   -7.293340   -1.965960
  C     -5.965880   -8.145460   -2.862100
  N     -6.518140   -8.840970   -3.586800
  C     -5.251720   -5.927810   -2.321390
  N     -5.220340   -4.821170   -2.617680
  C     -5.077960  -10.394940   -0.795680
  C     -4.713080  -11.390870    0.097210
  S     -3.839290  -10.772770    1.491130
  C     -4.948610  -12.779160   -0.045060
  C     -4.664320  -13.802940    0.827940
  C     -4.085390  -13.949760    2.165150
  O     -3.649360  -13.110610    2.917980
  N     -4.118340  -15.316430    2.421000
  C     -3.642760  -15.900250    3.650890
  C     -4.640700  -16.068480    1.375490
  O     -4.744050  -17.273100    1.366990
  C     -4.999510  -15.088490    0.348200
  C     -5.543830  -15.100120   -0.914640
  S     -5.661820  -13.448460   -1.506980
  C     -5.934360  -16.205290   -1.707500
  C     -6.419640  -16.162460   -3.005840
  C     -6.647420  -17.437310   -3.511600
  C     -6.339280  -18.452060   -2.582180
  S     -5.772440  -17.843830   -1.092710
  C     -6.573900  -19.707980   -3.199060
  C     -7.019080  -19.482850   -4.517930
  C     -7.098110  -18.050830   -4.749960
  C     -7.529310  -17.430870   -5.885430
  C     -7.950400  -18.172950   -7.009510
  N     -8.279560  -18.795260   -7.914690
  C     -7.575970  -16.025560   -6.002000
  N     -7.606240  -14.883450   -6.092980
  C     -7.269580  -20.656430   -5.214530
  C     -7.031010  -21.785750   -4.442270
  S     -6.459880  -21.363830   -2.830830
  C     -7.118030  -23.146300   -4.805280
  C     -7.728610  -23.716020   -5.882410
  C     -7.301450  -25.086390   -6.291040
  O     -6.633190  -25.855170   -5.640760
  C     -7.814270  -25.258880   -7.663700
  C     -7.587790  -26.278060   -8.543400
  C     -8.156140  -26.208280   -9.835070
  C     -8.943460  -25.075160  -10.193290
  C     -9.496730  -25.006730  -11.487680
  C     -9.282520  -26.017270  -12.382520
  C     -8.505870  -27.138510  -12.026360
  C     -7.953790  -27.233320  -10.779760
  F     -8.311380  -28.113330  -12.924140
  F     -9.809950  -25.951900  -13.611270
  C     -9.167100  -24.038440   -9.258240
  C     -8.617920  -24.134880   -8.007990
  C     -8.697920  -23.246990   -6.849450
  C     -9.690630  -22.325090   -6.641900
  C     -9.879920  -21.638450   -5.427120
  N    -10.070400  -21.074550   -4.445190
  C    -10.695150  -22.029700   -7.588260
  N    -11.538160  -21.760760   -8.318260
  H      2.480630   -0.365600    6.465480
  H      2.619860   -5.141500    7.786750
  H      0.791920   -0.855340    4.781290
  H      0.894940   -5.674620    6.060410
  H     -2.609070   -3.511990    1.322660
  H     -3.809390   -4.859770   -0.229200
  H     -5.621670  -10.597170   -1.701400
  H     -3.013760  -15.166700    4.152090
  H     -3.073730  -16.801340    3.424950
  H     -4.481780  -16.163780    4.297670
  H     -6.580310  -15.240750   -3.536540
  H     -7.558780  -20.702570   -6.248240
  H     -6.556050  -23.840520   -4.187210
  H     -6.981810  -27.124820   -8.259170
  H    -10.096240  -24.157230  -11.775280
  H     -7.361270  -28.097500  -10.523130
  H     -9.756170  -23.186520   -9.558320

 Total Charge           Charge          ....    0
 Multiplicity           Mult            ....    1
 Number of Electrons    NEL             ....  618
 Basis Dimension        Dim             .... 1323

ORBITAL ENERGIES
----------------

  NO   OCC          E(Eh)            E(eV)
   0   2.0000     -89.003108     -2421.8977
   1   2.0000     -89.001250     -2421.8471
   2   2.0000     -89.000548     -2421.8280
   3   2.0000     -88.999439     -2421.7979
   4   2.0000     -88.997638     -2421.7488
   5   2.0000     -24.803325      -674.9328
   6   2.0000     -24.802157      -674.9010
   7   2.0000     -24.799929      -674.8404
   8   2.0000     -24.799141      -674.8189
   9   2.0000     -19.232877      -523.3532
  10   2.0000     -19.232283      -523.3370
  11   2.0000     -19.231992      -523.3291
  12   2.0000     -19.221378      -523.0403
  13   2.0000     -14.476812      -393.9341
  14   2.0000     -14.439063      -392.9069
  15   2.0000     -14.437872      -392.8745
  16   2.0000     -14.436863      -392.8470
  17   2.0000     -14.435639      -392.8137
  18   2.0000     -14.423509      -392.4836
  19   2.0000     -14.422930      -392.4679
  20   2.0000     -14.420393      -392.3988
  21   2.0000     -14.418404      -392.3447
  22   2.0000     -10.415012      -283.4069
  23   2.0000     -10.414292      -283.3873
  24   2.0000     -10.386790      -282.6389
  25   2.0000     -10.386004      -282.6175
  26   2.0000     -10.383306      -282.5441
  27   2.0000     -10.382719      -282.5282
  28   2.0000     -10.380645      -282.4717
  29   2.0000     -10.374225      -282.2970
  30   2.0000     -10.372869      -282.2601
  31   2.0000     -10.372569      -282.2519
  32   2.0000     -10.361602      -281.9535
  33   2.0000     -10.360707      -281.9292
  34   2.0000     -10.358982      -281.8822
  35   2.0000     -10.358738      -281.8756
  36   2.0000     -10.350171      -281.6425
  37   2.0000     -10.349869      -281.6343
  38   2.0000     -10.349324      -281.6194
  39   2.0000     -10.348738      -281.6035
  40   2.0000     -10.348460      -281.5959
  41   2.0000     -10.345670      -281.5200
  42   2.0000     -10.344797      -281.4962
  43   2.0000     -10.342827      -281.4426
  44   2.0000     -10.341727      -281.4127
  45   2.0000     -10.341056      -281.3944
  46   2.0000     -10.339222      -281.3445
  47   2.0000     -10.337753      -281.3046
  48   2.0000     -10.336850      -281.2800
  49   2.0000     -10.335420      -281.2411
  50   2.0000     -10.335301      -281.2378
  51   2.0000     -10.335260      -281.2367
  52   2.0000     -10.334825      -281.2249
  53   2.0000     -10.331692      -281.1396
  54   2.0000     -10.325127      -280.9610
  55   2.0000     -10.324318      -280.9390
  56   2.0000     -10.323287      -280.9109
  57   2.0000     -10.320615      -280.8382
  58   2.0000     -10.320381      -280.8319
  59   2.0000     -10.319698      -280.8133
  60   2.0000     -10.319676      -280.8127
  61   2.0000     -10.319063      -280.7960
  62   2.0000     -10.318718      -280.7866
  63   2.0000     -10.318275      -280.7745
  64   2.0000     -10.317935      -280.7653
  65   2.0000     -10.316345      -280.7220
  66   2.0000     -10.315998      -280.7126
  67   2.0000     -10.315605      -280.7019
  68   2.0000     -10.313676      -280.6494
  69   2.0000     -10.313559      -280.6462
  70   2.0000     -10.313276      -280.6385
  71   2.0000     -10.313082      -280.6332
  72   2.0000     -10.312791      -280.6253
  73   2.0000     -10.312602      -280.6202
  74   2.0000     -10.311253      -280.5834
  75   2.0000     -10.309762      -280.5429
  76   2.0000     -10.308059      -280.4966
  77   2.0000     -10.307786      -280.4891
  78   2.0000     -10.307028      -280.4685
  79   2.0000     -10.306590      -280.4566
  80   2.0000     -10.306131      -280.4441
  81   2.0000     -10.305432      -280.4251
  82   2.0000     -10.305068      -280.4152
  83   2.0000     -10.303142      -280.3628
  84   2.0000     -10.302003      -280.3318
  85   2.0000     -10.300613      -280.2939
  86   2.0000     -10.297447      -280.2078
  87   2.0000      -8.097777      -220.3517
  88   2.0000      -8.094755      -220.2695
  89   2.0000      -8.094190      -220.2541
  90   2.0000      -8.094085      -220.2512
  91   2.0000      -8.089908      -220.1376
  92   2.0000      -6.066916      -165.0892
  93   2.0000      -6.064088      -165.0122
  94   2.0000      -6.063741      -165.0028
  95   2.0000      -6.063504      -164.9963
  96   2.0000      -6.062734      -164.9754
  97   2.0000      -6.060327      -164.9099
  98   2.0000      -6.059635      -164.8911
  99   2.0000      -6.059386      -164.8843
 100   2.0000      -6.059317      -164.8824
 101   2.0000      -6.059038      -164.8748
 102   2.0000      -6.057106      -164.8222
 103   2.0000      -6.056539      -164.8068
 104   2.0000      -6.055675      -164.7833
 105   2.0000      -6.054548      -164.7526
 106   2.0000      -6.052497      -164.6968
 107   2.0000      -1.325888       -36.0792
 108   2.0000      -1.322634       -35.9907
 109   2.0000      -1.310984       -35.6737
 110   2.0000      -1.307753       -35.5858
 111   2.0000      -1.178492       -32.0684
 112   2.0000      -1.155339       -31.4384
 113   2.0000      -1.148471       -31.2515
 114   2.0000      -1.137286       -30.9471
 115   2.0000      -1.070729       -29.1360
 116   2.0000      -1.057757       -28.7830
 117   2.0000      -1.055225       -28.7141
 118   2.0000      -1.032318       -28.0908
 119   2.0000      -1.029962       -28.0267
 120   2.0000      -1.027642       -27.9636
 121   2.0000      -1.026494       -27.9323
 122   2.0000      -1.024710       -27.8838
 123   2.0000      -1.016175       -27.6515
 124   2.0000      -1.014074       -27.5943
 125   2.0000      -1.011264       -27.5179
 126   2.0000      -1.010772       -27.5045
 127   2.0000      -1.008090       -27.4315
 128   2.0000      -1.002802       -27.2876
 129   2.0000      -1.000235       -27.2178
 130   2.0000      -0.998332       -27.1660
 131   2.0000      -0.988108       -26.8878
 132   2.0000      -0.985211       -26.8090
 133   2.0000      -0.971702       -26.4414
 134   2.0000      -0.967037       -26.3144
 135   2.0000      -0.939998       -25.5787
 136   2.0000      -0.938284       -25.5320
 137   2.0000      -0.931075       -25.3358
 138   2.0000      -0.926514       -25.2117
 139   2.0000      -0.913481       -24.8571
 140   2.0000      -0.911110       -24.7926
 141   2.0000      -0.905793       -24.6479
 142   2.0000      -0.898609       -24.4524
 143   2.0000      -0.895820       -24.3765
 144   2.0000      -0.892830       -24.2951
 145   2.0000      -0.886241       -24.1159
 146   2.0000      -0.886058       -24.1109
 147   2.0000      -0.874011       -23.7830
 148   2.0000      -0.869714       -23.6661
 149   2.0000      -0.867699       -23.6113
 150   2.0000      -0.864416       -23.5219
 151   2.0000      -0.846641       -23.0383
 152   2.0000      -0.843436       -22.9511
 153   2.0000      -0.831643       -22.6302
 154   2.0000      -0.823603       -22.4114
 155   2.0000      -0.818060       -22.2605
 156   2.0000      -0.803746       -21.8710
 157   2.0000      -0.791297       -21.5323
 158   2.0000      -0.787685       -21.4340
 159   2.0000      -0.785417       -21.3723
 160   2.0000      -0.775496       -21.1023
 161   2.0000      -0.771654       -20.9978
 162   2.0000      -0.766556       -20.8590
 163   2.0000      -0.757935       -20.6245
 164   2.0000      -0.744353       -20.2549
 165   2.0000      -0.736053       -20.0290
 166   2.0000      -0.727317       -19.7913
 167   2.0000      -0.722738       -19.6667
 168   2.0000      -0.720744       -19.6124
 169   2.0000      -0.716784       -19.5047
 170   2.0000      -0.710926       -19.3453
 171   2.0000      -0.706770       -19.2322
 172   2.0000      -0.702672       -19.1207
 173   2.0000      -0.699367       -19.0307
 174   2.0000      -0.692620       -18.8471
 175   2.0000      -0.692386       -18.8408
 176   2.0000      -0.688706       -18.7406
 177   2.0000      -0.685962       -18.6660
 178   2.0000      -0.673741       -18.3334
 179   2.0000      -0.670308       -18.2400
 180   2.0000      -0.662564       -18.0293
 181   2.0000      -0.657508       -17.8917
 182   2.0000      -0.651216       -17.7205
 183   2.0000      -0.649146       -17.6642
 184   2.0000      -0.645313       -17.5599
 185   2.0000      -0.644292       -17.5321
 186   2.0000      -0.643088       -17.4993
 187   2.0000      -0.637930       -17.3590
 188   2.0000      -0.631999       -17.1976
 189   2.0000      -0.629037       -17.1170
 190   2.0000      -0.624944       -17.0056
 191   2.0000      -0.620956       -16.8971
 192   2.0000      -0.619720       -16.8634
 193   2.0000      -0.614636       -16.7251
 194   2.0000      -0.601401       -16.3649
 195   2.0000      -0.598752       -16.2929
 196   2.0000      -0.597402       -16.2561
 197   2.0000      -0.594768       -16.1845
 198   2.0000      -0.590395       -16.0655
 199   2.0000      -0.590288       -16.0625
 200   2.0000      -0.587080       -15.9753
 201   2.0000      -0.584631       -15.9086
 202   2.0000      -0.583179       -15.8691
 203   2.0000      -0.577169       -15.7056
 204   2.0000      -0.572974       -15.5914
 205   2.0000      -0.567690       -15.4476
 206   2.0000      -0.561412       -15.2768
 207   2.0000      -0.559704       -15.2303
 208   2.0000      -0.559160       -15.2155
 209   2.0000      -0.558549       -15.1989
 210   2.0000      -0.556519       -15.1437
 211   2.0000      -0.554454       -15.0875
 212   2.0000      -0.551781       -15.0147
 213   2.0000      -0.548921       -14.9369
 214   2.0000      -0.548655       -14.9296
 215   2.0000      -0.547686       -14.9033
 216   2.0000      -0.543644       -14.7933
 217   2.0000      -0.541980       -14.7480
 218   2.0000      -0.540970       -14.7205
 219   2.0000      -0.537197       -14.6179
 220   2.0000      -0.537021       -14.6131
 221   2.0000      -0.534657       -14.5487
 222   2.0000      -0.532951       -14.5023
 223   2.0000      -0.532921       -14.5015
 224   2.0000      -0.527976       -14.3670
 225   2.0000      -0.524393       -14.2695
 226   2.0000      -0.522235       -14.2107
 227   2.0000      -0.520824       -14.1723
 228   2.0000      -0.518687       -14.1142
 229   2.0000      -0.515611       -14.0305
 230   2.0000      -0.515211       -14.0196
 231   2.0000      -0.512936       -13.9577
 232   2.0000      -0.510836       -13.9005
 233   2.0000      -0.510278       -13.8854
 234   2.0000      -0.509686       -13.8693
 235   2.0000      -0.506151       -13.7731
 236   2.0000      -0.505198       -13.7471
 237   2.0000      -0.502525       -13.6744
 238   2.0000      -0.502163       -13.6645
 239   2.0000      -0.499566       -13.5939
 240   2.0000      -0.497144       -13.5280
 241   2.0000      -0.495526       -13.4839
 242   2.0000      -0.493786       -13.4366
 243   2.0000      -0.492806       -13.4099
 244   2.0000      -0.491462       -13.3734
 245   2.0000      -0.490115       -13.3367
 246   2.0000      -0.486301       -13.2329
 247   2.0000      -0.482979       -13.1425
 248   2.0000      -0.477684       -12.9984
 249   2.0000      -0.476341       -12.9619
 250   2.0000      -0.472165       -12.8483
 251   2.0000      -0.470197       -12.7947
 252   2.0000      -0.469205       -12.7677
 253   2.0000      -0.468548       -12.7498
 254   2.0000      -0.466383       -12.6909
 255   2.0000      -0.465904       -12.6779
 256   2.0000      -0.465282       -12.6610
 257   2.0000      -0.462088       -12.5740
 258   2.0000      -0.457436       -12.4475
 259   2.0000      -0.455977       -12.4078
 260   2.0000      -0.455544       -12.3960
 261   2.0000      -0.452557       -12.3147
 262   2.0000      -0.451212       -12.2781
 263   2.0000      -0.450035       -12.2461
 264   2.0000      -0.449136       -12.2216
 265   2.0000      -0.448310       -12.1991
 266   2.0000      -0.447200       -12.1689
 267   2.0000      -0.446435       -12.1481
 268   2.0000      -0.446225       -12.1424
 269   2.0000      -0.445885       -12.1331
 270   2.0000      -0.444897       -12.1063
 271   2.0000      -0.442975       -12.0540
 272   2.0000      -0.441139       -12.0040
 273   2.0000      -0.439236       -11.9522
 274   2.0000      -0.434709       -11.8290
 275   2.0000      -0.434326       -11.8186
 276   2.0000      -0.433860       -11.8059
 277   2.0000      -0.432617       -11.7721
 278   2.0000      -0.430755       -11.7215
 279   2.0000      -0.430130       -11.7044
 280   2.0000      -0.425032       -11.5657
 281   2.0000      -0.423621       -11.5273
 282   2.0000      -0.416369       -11.3300
 283   2.0000      -0.413507       -11.2521
 284   2.0000      -0.409503       -11.1432
 285   2.0000      -0.406709       -11.0671
 286   2.0000      -0.401255       -10.9187
 287   2.0000      -0.393984       -10.7209
 288   2.0000      -0.389303       -10.5935
 289   2.0000      -0.381475       -10.3805
 290   2.0000      -0.379922       -10.3382
 291   2.0000      -0.373547       -10.1647
 292   2.0000      -0.368297       -10.0219
 293   2.0000      -0.363674        -9.8961
 294   2.0000      -0.360359        -9.8059
 295   2.0000      -0.358612        -9.7583
 296   2.0000      -0.351623        -9.5682
 297   2.0000      -0.349025        -9.4974
 298   2.0000      -0.348187        -9.4746
 299   2.0000      -0.341258        -9.2861
 300   2.0000      -0.333257        -9.0684
 301   2.0000      -0.330003        -8.9798
 302   2.0000      -0.323898        -8.8137
 303   2.0000      -0.321226        -8.7410
 304   2.0000      -0.318906        -8.6779
 305   2.0000      -0.306339        -8.3359
 306   2.0000      -0.303663        -8.2631
 307   2.0000      -0.282880        -7.6975
 308   2.0000      -0.260950        -7.1008
 309   0.0000      -0.122892        -3.3441
 310   0.0000      -0.117058        -3.1853
 311   0.0000      -0.097231        -2.6458
 312   0.0000      -0.095809        -2.6071
 313   0.0000      -0.073542        -2.0012

MULLIKEN ATOMIC CHARGES
-----------------------
   0 C :   -0.106162
   1 C :    0.241101
   2 F :   -0.169159
   3 C :    0.238547
   4 F :   -0.170625
   5 C :   -0.103592
   6 C :    0.115142
   7 C :    0.113253
   8 C :   -0.082404
   9 C :    0.044736
  10 C :   -0.001385
  11 C :   -0.080237
  12 C :    0.168733
  13 O :   -0.188298
  14 C :   -0.093369
  15 C :    0.327435
  16 C :   -0.350556
  17 C :   -0.196759
  18 N :    0.158838
  19 C :   -0.184759
  20 N :    0.155628
  21 C :   -0.026874
  22 C :   -0.053894
  23 C :   -0.058882
  24 C :    0.050139
  25 C :   -0.072418
  26 S :    0.251952
  27 C :   -0.096250
  28 C :    0.031600
  29 C :    0.300802
  30 C :   -0.292115
  31 C :   -0.193002
  32 N :    0.180756
  33 C :   -0.192806
  34 N :    0.185711
  35 C :   -0.069532
  36 C :   -0.076581
  37 S :    0.252272
  38 C :   -0.086382
  39 C :   -0.032768
  40 C :    0.193538
  41 O :   -0.173620
  42 N :   -0.308838
  43 C :    0.135082
  44 C :    0.188575
  45 O :   -0.177338
  46 C :   -0.025900
  47 C :   -0.083509
  48 S :    0.180577
  49 C :   -0.079047
  50 C :   -0.069930
  51 C :    0.033112
  52 C :   -0.092955
  53 S :    0.249035
  54 C :   -0.073312
  55 C :   -0.006211
  56 C :    0.303065
  57 C :   -0.281702
  58 C :   -0.183227
  59 N :    0.170958
  60 C :   -0.192126
  61 N :    0.180917
  62 C :    0.001788
  63 C :   -0.110107
  64 S :    0.221832
  65 C :    0.083610
  66 C :   -0.136843
  67 C :    0.132723
  68 O :   -0.141402
  69 C :    0.022253
  70 C :   -0.084232
  71 C :    0.114103
  72 C :    0.110941
  73 C :   -0.106492
  74 C :    0.243322
  75 C :    0.239290
  76 C :   -0.104576
  77 F :   -0.171420
  78 F :   -0.169565
  79 C :   -0.077508
  80 C :    0.028744
  81 C :    0.268049
  82 C :   -0.327470
  83 C :   -0.202594
  84 N :    0.169056
  85 C :   -0.166964
  86 N :    0.160069
  87 H :    0.009354
  88 H :    0.000296
  89 H :   -0.004481
  90 H :   -0.009647
  91 H :    0.018626
  92 H :    0.029499
  93 H :    0.019172
  94 H :    0.054451
  95 H :    0.046795
  96 H :    0.044312
  97 H :    0.019397
  98 H :    0.026340
  99 H :    0.022340
 100 H :   -0.008619
 101 H :    0.008066
 102 H :   -0.000315
 103 H :    0.002830
Sum of atomic charges:   -0.0000000

LOEWDIN ATOMIC CHARGES
----------------------
   0 C :   -0.028479
   1 C :    0.067505
   2 F :   -0.047200
   3 C :    0.068177
   4 F :   -0.048154
   5 C :   -0.033164
   6 C :   -0.009121
   7 C :   -0.005852
   8 C :    0.018907
   9 C :   -0.021905
  10 C :   -0.052982
  11 C :    0.030789
  12 C :    0.085847
  13 O :   -0.173414
  14 C :   -0.109447
  15 C :    0.075297
  16 C :   -0.138296
  17 C :   -0.023996
  18 N :   -0.044892
  19 C :   -0.017555
  20 N :   -0.050833
  21 C :    0.058402
  22 C :   -0.182153
  23 C :    0.012959
  24 C :   -0.074878
  25 C :   -0.167333
  26 S :    0.553029
  27 C :   -0.184160
  28 C :   -0.057771
  29 C :    0.075972
  30 C :   -0.098362
  31 C :   -0.017935
  32 N :   -0.027320
  33 C :   -0.020142
  34 N :   -0.021785
  35 C :   -0.026062
  36 C :   -0.182140
  37 S :    0.539921
  38 C :   -0.141448
  39 C :   -0.103473
  40 C :    0.085753
  41 O :   -0.171464
  42 N :   -0.034348
  43 C :    0.038138
  44 C :    0.085245
  45 O :   -0.172841
  46 C :   -0.105225
  47 C :   -0.140044
  48 S :    0.468207
  49 C :   -0.185147
  50 C :   -0.023242
  51 C :   -0.060435
  52 C :   -0.181276
  53 S :    0.540273
  54 C :   -0.160627
  55 C :   -0.063345
  56 C :    0.080298
  57 C :   -0.095759
  58 C :   -0.012446
  59 N :   -0.030252
  60 C :   -0.018453
  61 N :   -0.024864
  62 C :    0.011076
  63 C :   -0.178719
  64 S :    0.505416
  65 C :    0.043024
  66 C :   -0.090401
  67 C :    0.083302
  68 O :   -0.141796
  69 C :   -0.055008
  70 C :    0.031123
  71 C :   -0.009258
  72 C :   -0.004990
  73 C :   -0.028977
  74 C :    0.067658
  75 C :    0.067625
  76 C :   -0.032982
  77 F :   -0.048785
  78 F :   -0.047618
  79 C :    0.017367
  80 C :   -0.020225
  81 C :    0.064242
  82 C :   -0.134364
  83 C :   -0.015798
  84 N :   -0.044086
  85 C :   -0.018645
  86 N :   -0.043528
  87 H :    0.048459
  88 H :    0.044914
  89 H :    0.040597
  90 H :    0.040365
  91 H :    0.054272
  92 H :    0.048655
  93 H :    0.038950
  94 H :    0.038944
  95 H :    0.036635
  96 H :    0.033563
  97 H :    0.039259
  98 H :    0.042949
  99 H :    0.046322
 100 H :    0.040839
 101 H :    0.048284
 102 H :    0.044901
 103 H :    0.041741

  Mayer bond orders larger than 0.100000
B(  0-C ,  1-C ) :   1.4397 B(  0-C ,  5-C ) :   0.1080 B(  0-C ,  7-C ) :   1.1904
B(  0-C , 87-H ) :   1.0064 B(  1-C ,  2-F ) :   1.1366 B(  1-C ,  3-C ) :   1.1918
B(  3-C ,  4-F ) :   1.1349 B(  3-C ,  5-C ) :   1.4421 B(  5-C ,  6-C ) :   1.1937
B(  5-C , 88-H ) :   1.0066 B(  6-C ,  7-C ) :   1.2556 B(  6-C , 11-C ) :   1.1884
B(  7-C ,  8-C ) :   1.2140 B(  8-C ,  9-C ) :   1.4566 B(  8-C , 89-H ) :   0.9888
B(  9-C , 10-C ) :   1.2207 B(  9-C , 15-C ) :   0.9835 B( 10-C , 11-C ) :   1.4686
B( 10-C , 12-C ) :   0.9599 B( 11-C , 90-H ) :   1.0164 B( 12-C , 13-O ) :   2.1156
B( 12-C , 14-C ) :   0.9844 B( 14-C , 15-C ) :   1.0747 B( 14-C , 21-C ) :   1.4925
B( 15-C , 16-C ) :   1.6321 B( 16-C , 17-C ) :   1.1433 B( 16-C , 19-C ) :   1.1489
B( 17-C , 18-N ) :   2.9669 B( 19-C , 20-N ) :   2.9629 B( 21-C , 22-C ) :   1.2677
B( 21-C , 91-H ) :   0.9404 B( 22-C , 23-C ) :   1.3274 B( 22-C , 26-S ) :   1.0721
B( 23-C , 24-C ) :   1.3320 B( 23-C , 92-H ) :   1.0079 B( 24-C , 25-C ) :   1.3563
B( 24-C , 29-C ) :   0.9864 B( 25-C , 26-S ) :   1.1310 B( 25-C , 27-C ) :   1.1993
B( 27-C , 28-C ) :   1.4078 B( 27-C , 37-S ) :   1.1100 B( 28-C , 29-C ) :   0.9967
B( 28-C , 35-C ) :   1.3184 B( 29-C , 30-C ) :   1.7184 B( 30-C , 31-C ) :   1.1340
B( 30-C , 33-C ) :   1.1345 B( 31-C , 32-N ) :   2.9923 B( 33-C , 34-N ) :   2.9938
B( 35-C , 36-C ) :   1.4155 B( 35-C , 93-H ) :   0.9903 B( 36-C , 37-S ) :   1.1258
B( 36-C , 38-C ) :   1.1849 B( 38-C , 39-C ) :   1.5283 B( 38-C , 48-S ) :   1.1198
B( 39-C , 40-C ) :   0.9062 B( 39-C , 46-C ) :   1.2366 B( 40-C , 41-O ) :   2.1459
B( 40-C , 42-N ) :   1.0845 B( 42-N , 43-C ) :   0.9372 B( 42-N , 44-C ) :   1.0836
B( 43-C , 94-H ) :   0.9625 B( 43-C , 95-H ) :   0.9691 B( 43-C , 96-H ) :   0.9805
B( 44-C , 45-O ) :   2.1493 B( 44-C , 46-C ) :   0.9046 B( 46-C , 47-C ) :   1.5236
B( 47-C , 48-S ) :   1.1197 B( 47-C , 49-C ) :   1.1890 B( 49-C , 50-C ) :   1.4137
B( 49-C , 53-S ) :   1.1228 B( 50-C , 51-C ) :   1.3213 B( 50-C , 97-H ) :   0.9917
B( 51-C , 52-C ) :   1.4145 B( 51-C , 56-C ) :   0.9908 B( 52-C , 53-S ) :   1.1117
B( 52-C , 54-C ) :   1.1902 B( 54-C , 55-C ) :   1.4090 B( 54-C , 64-S ) :   1.1571
B( 55-C , 56-C ) :   0.9983 B( 55-C , 62-C ) :   1.3633 B( 56-C , 57-C ) :   1.7210
B( 57-C , 58-C ) :   1.1339 B( 57-C , 60-C ) :   1.1304 B( 58-C , 59-N ) :   2.9816
B( 60-C , 61-N ) :   2.9949 B( 62-C , 63-C ) :   1.3898 B( 62-C , 98-H ) :   0.9768
B( 63-C , 64-S ) :   1.0930 B( 63-C , 65-C ) :   1.1443 B( 65-C , 66-C ) :   1.6634
B( 65-C , 99-H ) :   0.9272 B( 66-C , 67-C ) :   0.9424 B( 66-C , 81-C ) :   1.0377
B( 67-C , 68-O ) :   2.2681 B( 67-C , 69-C ) :   0.9197 B( 69-C , 70-C ) :   1.4722
B( 69-C , 80-C ) :   1.2220 B( 70-C , 71-C ) :   1.1939 B( 70-C ,100-H ) :   1.0163
B( 71-C , 72-C ) :   1.2581 B( 71-C , 76-C ) :   1.1925 B( 72-C , 73-C ) :   1.1893
B( 72-C , 79-C ) :   1.2158 B( 73-C , 74-C ) :   1.4412 B( 73-C , 76-C ) :   0.1089
B( 73-C ,101-H ) :   1.0071 B( 74-C , 75-C ) :   1.1924 B( 74-C , 78-F ) :   1.1361
B( 75-C , 76-C ) :   1.4432 B( 75-C , 77-F ) :   1.1336 B( 76-C ,102-H ) :   1.0066
B( 79-C , 80-C ) :   1.4593 B( 79-C ,103-H ) :   0.9937 B( 80-C , 81-C ) :   0.9928
B( 81-C , 82-C ) :   1.6532 B( 82-C , 83-C ) :   1.1724 B( 82-C , 85-C ) :   1.1256
B( 83-C , 84-N ) :   2.9933 B( 85-C , 86-N ) :   2.9912

-----------------------------------------------------------------------------
         ABSORPTION SPECTRUM VIA TRANSITION ELECTRIC DIPOLE MOMENTS
-----------------------------------------------------------------------------
State   Energy  Wavelength   fosc         T2         TX        TY        TZ
        (cm-1)    (nm)                  (au**2)     (au)      (au)      (au)
-----------------------------------------------------------------------------
   0   13739.0    727.9   0.758947363  18.18575   1.30486   3.57655   1.92130
   1   14812.4    675.1   0.190735346   4.23916  -0.75384  -1.82372  -0.58730
   2   19557.5    511.3   1.916801218  32.26550  -1.99794  -4.62057  -2.63137
   3   21124.0    473.4   0.134833513   2.10134  -0.51748  -1.35000  -0.10511
   4   22514.4    444.2   0.001416196   0.02071  -0.00844   0.10360  -0.09951
   5   23571.9    424.2   0.106115716   1.48204   0.75383   0.73624   0.60970
   6   25637.5    390.1   0.013799798   0.17720   0.13090   0.39550  -0.06041
   7   26262.0    380.8   0.178454496   2.23705  -0.23640   1.29442   0.71109
   8   26681.0    374.8   0.114132236   1.40826   0.39277   0.82114   0.76139
   9   27667.3    361.4   0.027591064   0.32830  -0.46884   0.30972   0.11209
  10   27990.5    357.3   0.053455657   0.62872   0.50757  -0.48646   0.36668
  11   28157.6    355.1   0.065991799   0.77156  -0.10139  -0.29647  -0.82060
  12   28481.8    351.1   0.016812508   0.19433   0.25922  -0.19442   0.29889
  13   28504.9    350.8   0.029883771   0.34514  -0.22200  -0.18911  -0.50999
  14   29052.5    344.2   0.053858798   0.61031   0.30782   0.04347   0.71670
  15   29206.2    342.4   0.017507688   0.19735  -0.07037  -0.43624  -0.04575
  16   29430.1    339.8   0.061543469   0.68844   0.14072  -0.62709   0.52478
  17   29936.3    334.0   0.171490544   1.88589   0.06570   1.05832  -0.87266
  18   29958.3    333.8   0.115106774   1.26491  -0.58356  -0.59761  -0.75315
  19   30332.4    329.7   0.641220914   6.95947   1.45075  -0.72590   2.08035
  20   30634.0    326.4   0.396866549   4.26497  -0.00262   1.25820   1.63765
  21   30801.7    324.7   0.004371514   0.04672   0.14434  -0.11094   0.11655
  22   31119.9    321.3   0.105680022   1.11797  -0.22229   0.85794  -0.57663
  23   32270.8    309.9   0.113141572   1.15422   0.31397   0.84004   0.59159
  24   32476.2    307.9   0.046651116   0.47290  -0.30392   0.29169   0.54356
  25   32615.8    306.6   0.217673555   2.19712  -0.11626  -1.41244  -0.43431
  26   32807.7    304.8   0.057134599   0.57332  -0.30063   0.15022  -0.67851
  27   33389.1    299.5   0.847638451   8.35759  -1.76157  -0.02128  -2.29216
  28   33821.1    295.7   0.098273107   0.95658   0.26264  -0.19718  -0.92126
  29   34281.0    291.7   0.073813415   0.70886   0.58018  -0.60349  -0.08968
  30   34350.1    291.1   0.249460377   2.39084  -0.57796   0.17899  -1.42294
  31   34515.5    289.7   0.284094678   2.70972   0.64531  -1.26998   0.82489
  32   34557.9    289.4   0.033750655   0.32152  -0.08889   0.51535   0.21917
  33   34689.0    288.3   0.120351791   1.14218   0.46846   0.31688   0.90682
  34   34937.1    286.2   0.185011455   1.74336   0.51916   0.72013   0.97737
  35   35010.2    285.6   0.102510690   0.96394  -0.16110   0.90527  -0.34420
  36   35305.2    283.2   0.049166723   0.45847   0.12115   0.06014   0.66346
  37   35319.3    283.1   0.123623637   1.15230  -0.18134   0.62186  -0.85599
  38   35433.3    282.2   0.314814981   2.92496   0.56252  -1.23763  -1.03769
  39   35654.9    280.5   0.002866660   0.02647  -0.11995   0.03203  -0.10514
  40   35824.3    279.1   0.083318885   0.76567  -0.45406   0.30499  -0.68299
  41   36122.3    276.8   0.117047455   1.06675  -0.65866   0.62238  -0.49554
  42   36137.5    276.7   0.015749338   0.14348   0.22862  -0.29193  -0.07737
  43   36276.6    275.7   0.045597537   0.41380  -0.16759  -0.07826  -0.61611
  44   36447.9    274.4   0.131696203   1.18953   0.32762   0.06891   1.03800
  45   36516.9    273.8   0.024586053   0.22165   0.23192  -0.16283  -0.37597
  46   36784.4    271.9   0.007317792   0.06549   0.18107  -0.16998   0.06176
  47   37058.3    269.8   0.060591042   0.53827   0.38589  -0.52249   0.34112
  48   37346.1    267.8   0.027341309   0.24102   0.03523  -0.48856   0.03300
  49   37571.7    266.2   0.095300722   0.83505   0.34978  -0.72663   0.42978
  50   37693.0    265.3   0.071838461   0.62744  -0.00678  -0.77384  -0.16901
  51   37761.8    264.8   0.010053356   0.08765   0.03125  -0.13037   0.26396
  52   38013.6    263.1   0.087550362   0.75822   0.03131  -0.85854  -0.14192
  53   38265.7    261.3   0.049654031   0.42719   0.49048   0.43162  -0.01808
  54   38577.0    259.2   0.051574796   0.44013   0.12637   0.50251   0.41430
  55   38785.5    257.8   0.135475380   1.14992  -0.12609  -1.05908   0.11122
  56   39006.6    256.4   0.041431037   0.34967  -0.24501   0.51128  -0.16803
  57   39206.5    255.1   0.024603813   0.20660  -0.10089   0.44267  -0.02136
  58   39266.9    254.7   0.099022833   0.83020  -0.50745   0.18930  -0.73271
  59   39394.7    253.8   0.131004332   1.09477   0.55460   0.85805   0.22570
  60   40008.5    249.9   0.027253992   0.22426   0.07262   0.26858   0.38321
  61   40047.8    249.7   0.055477338   0.45605   0.20050  -0.40537   0.50152

FINAL SINGLE POINT ENERGY     -5665.846701634930

DIPOLE MOMENT
-------------
                                X             Y             Z
Electronic contribution:      1.95602       1.93755      -7.84054
Nuclear contribution   :      0.79354      -5.01578      10.56043
                        -----------------------------------------
Total Dipole Moment    :      2.74956      -3.07823       2.71990
                        -----------------------------------------
Magnitude (a.u.)       :      4.94302
Magnitude (Debye)      :     12.56416

Rotational constants in cm-1:     0.001740     0.000127     0.000121
Rotational constants in MHz :    52.161198     3.804350     3.632147

                             ****ORCA TERMINATED NORMALLY****
TOTAL RUN TIME: 0 days 0 hours 11 minutes 53 seconds 220 msec
