                         Program Version 4.2.0 -  RELEASE  -
|  1> # ORCA input file
|  2> # SCF done       -215.325175649761          0.000700866837
|  3> ! CAM-B3LYP def2-SVP def2/J RIJCOSX Grid4 TightSCF
|  4> %maxcore 5000
|  5> %tddft
|  6>     Mode sTDDFT
|  7>     Ethresh 5.0
|  8>     maxcore 5000
|  9> end
| 10>
| 11> %pal
| 12>   nprocs 6
| 13>   end
| 14> * xyz 0 1
| 15>    C       -5.61002        -0.01762        -8.32697
| 16>    C       -6.09075        -0.19787        -9.59383
| 17>    F       -6.10757         0.82338       -10.45892
| 18>    C       -6.57386        -1.45643       -10.00583
| 19>    F       -7.03866        -1.60420       -11.25291
| 20>    C       -6.56998        -2.51767        -9.14436
| 21>    C       -6.08194        -2.36299        -7.83237
| 22>    C       -5.59250        -1.09144        -7.41442
| 23>    C       -5.09757        -0.91162        -6.10191
| 24>    C       -5.09314        -1.97028        -5.23226
| 25>    C       -5.58529        -3.23507        -5.66007
| 26>    C       -6.06808        -3.44117        -6.92033
| 27>    C       -5.47557        -4.19316        -4.55006
| 28>    O       -5.81104        -5.36559        -4.57351
| 29>    C       -4.88628        -3.45927        -3.42502
| 30>    C       -4.65591        -2.08663        -3.84192
| 31>    C       -4.13453        -1.06463        -3.09354
| 32>    C       -3.71839        -1.15333        -1.74783
| 33>    N       -3.36095        -1.14006        -0.65672
| 34>    C       -3.94249         0.24798        -3.57651
| 35>    N       -3.76033         1.33205        -3.90620
| 36>    C       -4.59361        -3.99117        -2.19462
| 37>    C       -4.77963        -5.29178        -1.70009
| 38>    C       -4.39836        -5.64750        -0.39870
| 39>    C       -4.66961        -6.97111        -0.11007
| 40>    C       -5.27125        -7.63911        -1.20303
| 41>    S       -5.49244        -6.64996        -2.56952
| 42>    C       -5.50807        -8.97913        -0.81747
| 43>    C       -5.06232        -9.16907         0.50565
| 44>    C       -4.52157        -7.90932         0.99479
| 45>    C       -3.98895        -7.66047         2.22414
| 46>    C       -3.89735        -8.65449         3.22255
| 47>    N       -3.82456        -9.45346         4.04104
| 48>    C       -3.49205        -6.38872         2.58412
| 49>    N       -3.08057        -5.36069         2.87957
| 50>    C       -5.25472       -10.47304         0.95904
| 51>    C       -5.84418       -11.26566        -0.01256
| 52>    S       -6.16512       -10.39654        -1.49845
| 53>    C       -6.18033       -12.63790         0.08208
| 54>    N       -5.95186       -13.39037         1.11837
| 55>    C       -6.36927       -14.63617         0.89955
| 56>    C       -6.95508       -14.88804        -0.35638
| 57>    S       -6.96847       -13.45635        -1.29636
| 58>    N       -7.36721       -16.13025        -0.58224
| 59>    C       -7.13143       -16.89216         0.44845
| 60>    S       -6.35331       -16.08381         1.82965
| 61>    C       -7.47235       -18.26448         0.44620
| 62>    C       -7.29082       -19.23035         1.42047
| 63>    C       -7.76754       -20.47158         0.99993
| 64>    C       -8.31040       -20.43105        -0.29897
| 65>    S       -8.23634       -18.88066        -1.00362
| 66>    C       -8.76013       -21.72807        -0.63928
| 67>    C       -8.51293       -22.59574         0.44217
| 68>    C       -7.87735       -21.83315         1.50703
| 69>    C       -7.47006       -22.29638         2.72233
| 70>    C       -7.64306       -23.64327         3.10908
| 71>    N       -7.79120       -24.73350         3.42989
| 72>    C       -6.85613       -21.45786         3.67788
| 73>    N       -6.36114       -20.77754         4.45620
| 74>    C       -8.94184       -23.89619         0.19287
| 75>    C       -9.47633       -24.03879        -1.07915
| 76>    S       -9.49156       -22.50999        -1.95753
| 77>    C      -10.05672       -25.20907        -1.62327
| 78>    C      -10.33349       -25.48891        -2.92566
| 79>    C      -11.38977       -26.48622        -3.26281
| 80>    O      -11.87975       -27.30207        -2.51977
| 81>    C      -11.74822       -26.19867        -4.66812
| 82>    C      -12.76595       -26.71378        -5.41833
| 83>    C      -12.94797       -26.24897        -6.74063
| 84>    C      -12.06826       -25.25602        -7.26270
| 85>    C      -12.26498       -24.78750        -8.57723
| 86>    C      -13.28631       -25.28177        -9.33889
| 87>    C      -14.15469       -26.26509        -8.82285
| 88>    C      -13.98936       -26.74033        -7.55200
| 89>    F      -15.14842       -26.72942        -9.59095
| 90>    F      -13.47345       -24.83354       -10.58639
| 91>    C      -11.01488       -24.75029        -6.46748
| 92>    C      -10.85702       -25.21806        -5.19096
| 93>    C       -9.87184       -24.89628        -4.16388
| 94>    C       -8.62180       -24.38708        -4.39775
| 95>    C       -7.61642       -24.33023        -3.41031
| 96>    N       -6.77416       -24.29913        -2.63121
| 97>    C       -8.18391       -23.94250        -5.66169
| 98>    N       -7.79157       -23.55830        -6.66924
| 99>    H       -5.24409         0.95234        -8.02839
|100>    H       -6.94313        -3.47440        -9.47476
|101>    H       -4.73436         0.06321        -5.82056
|102>    H       -6.43446        -4.41250        -7.21595
|103>    H       -4.14414        -3.32582        -1.46737
|104>    H       -3.94535        -4.94308         0.27655
|105>    H       -4.99363       -10.85504         1.92862
|106>    H       -6.83436       -19.02229         2.37148
|107>    H       -8.85334       -24.72098         0.87680
|108>    H      -10.40959       -25.93869        -0.90073
|109>    H      -13.42692       -27.46207        -5.00837
|110>    H      -11.60692       -24.03804        -8.98844
|111>    H      -14.66299       -27.49255        -7.17247
|112>    H      -10.36705       -23.99336        -6.88054
|113> *
|114>
|115>                          ****END OF INPUT****

CARTESIAN COORDINATES (ANGSTROEM)
---------------------------------
  C     -5.610020   -0.017620   -8.326970
  C     -6.090750   -0.197870   -9.593830
  F     -6.107570    0.823380  -10.458920
  C     -6.573860   -1.456430  -10.005830
  F     -7.038660   -1.604200  -11.252910
  C     -6.569980   -2.517670   -9.144360
  C     -6.081940   -2.362990   -7.832370
  C     -5.592500   -1.091440   -7.414420
  C     -5.097570   -0.911620   -6.101910
  C     -5.093140   -1.970280   -5.232260
  C     -5.585290   -3.235070   -5.660070
  C     -6.068080   -3.441170   -6.920330
  C     -5.475570   -4.193160   -4.550060
  O     -5.811040   -5.365590   -4.573510
  C     -4.886280   -3.459270   -3.425020
  C     -4.655910   -2.086630   -3.841920
  C     -4.134530   -1.064630   -3.093540
  C     -3.718390   -1.153330   -1.747830
  N     -3.360950   -1.140060   -0.656720
  C     -3.942490    0.247980   -3.576510
  N     -3.760330    1.332050   -3.906200
  C     -4.593610   -3.991170   -2.194620
  C     -4.779630   -5.291780   -1.700090
  C     -4.398360   -5.647500   -0.398700
  C     -4.669610   -6.971110   -0.110070
  C     -5.271250   -7.639110   -1.203030
  S     -5.492440   -6.649960   -2.569520
  C     -5.508070   -8.979130   -0.817470
  C     -5.062320   -9.169070    0.505650
  C     -4.521570   -7.909320    0.994790
  C     -3.988950   -7.660470    2.224140
  C     -3.897350   -8.654490    3.222550
  N     -3.824560   -9.453460    4.041040
  C     -3.492050   -6.388720    2.584120
  N     -3.080570   -5.360690    2.879570
  C     -5.254720  -10.473040    0.959040
  C     -5.844180  -11.265660   -0.012560
  S     -6.165120  -10.396540   -1.498450
  C     -6.180330  -12.637900    0.082080
  N     -5.951860  -13.390370    1.118370
  C     -6.369270  -14.636170    0.899550
  C     -6.955080  -14.888040   -0.356380
  S     -6.968470  -13.456350   -1.296360
  N     -7.367210  -16.130250   -0.582240
  C     -7.131430  -16.892160    0.448450
  S     -6.353310  -16.083810    1.829650
  C     -7.472350  -18.264480    0.446200
  C     -7.290820  -19.230350    1.420470
  C     -7.767540  -20.471580    0.999930
  C     -8.310400  -20.431050   -0.298970
  S     -8.236340  -18.880660   -1.003620
  C     -8.760130  -21.728070   -0.639280
  C     -8.512930  -22.595740    0.442170
  C     -7.877350  -21.833150    1.507030
  C     -7.470060  -22.296380    2.722330
  C     -7.643060  -23.643270    3.109080
  N     -7.791200  -24.733500    3.429890
  C     -6.856130  -21.457860    3.677880
  N     -6.361140  -20.777540    4.456200
  C     -8.941840  -23.896190    0.192870
  C     -9.476330  -24.038790   -1.079150
  S     -9.491560  -22.509990   -1.957530
  C    -10.056720  -25.209070   -1.623270
  C    -10.333490  -25.488910   -2.925660
  C    -11.389770  -26.486220   -3.262810
  O    -11.879750  -27.302070   -2.519770
  C    -11.748220  -26.198670   -4.668120
  C    -12.765950  -26.713780   -5.418330
  C    -12.947970  -26.248970   -6.740630
  C    -12.068260  -25.256020   -7.262700
  C    -12.264980  -24.787500   -8.577230
  C    -13.286310  -25.281770   -9.338890
  C    -14.154690  -26.265090   -8.822850
  C    -13.989360  -26.740330   -7.552000
  F    -15.148420  -26.729420   -9.590950
  F    -13.473450  -24.833540  -10.586390
  C    -11.014880  -24.750290   -6.467480
  C    -10.857020  -25.218060   -5.190960
  C     -9.871840  -24.896280   -4.163880
  C     -8.621800  -24.387080   -4.397750
  C     -7.616420  -24.330230   -3.410310
  N     -6.774160  -24.299130   -2.631210
  C     -8.183910  -23.942500   -5.661690
  N     -7.791570  -23.558300   -6.669240
  H     -5.244090    0.952340   -8.028390
  H     -6.943130   -3.474400   -9.474760
  H     -4.734360    0.063210   -5.820560
  H     -6.434460   -4.412500   -7.215950
  H     -4.144140   -3.325820   -1.467370
  H     -3.945350   -4.943080    0.276550
  H     -4.993630  -10.855040    1.928620
  H     -6.834360  -19.022290    2.371480
  H     -8.853340  -24.720980    0.876800
  H    -10.409590  -25.938690   -0.900730
  H    -13.426920  -27.462070   -5.008370
  H    -11.606920  -24.038040   -8.988440
  H    -14.662990  -27.492550   -7.172470
  H    -10.367050  -23.993360   -6.880540

 Total Charge           Charge          ....    0
 Multiplicity           Mult            ....    1
 Number of Electrons    NEL             ....  604
 Basis Dimension        Dim             .... 1270

ORBITAL ENERGIES
----------------

  NO   OCC          E(Eh)            E(eV)
   0   2.0000     -89.007442     -2422.0156
   1   2.0000     -89.004429     -2421.9337
   2   2.0000     -89.003625     -2421.9118
   3   2.0000     -88.999372     -2421.7960
   4   2.0000     -88.991582     -2421.5841
   5   2.0000     -88.990024     -2421.5417
   6   2.0000     -24.804233      -674.9575
   7   2.0000     -24.804007      -674.9513
   8   2.0000     -24.803630      -674.9411
   9   2.0000     -24.802923      -674.9218
  10   2.0000     -19.234556      -523.3989
  11   2.0000     -19.224152      -523.1158
  12   2.0000     -14.444611      -393.0578
  13   2.0000     -14.444272      -393.0486
  14   2.0000     -14.440075      -392.9344
  15   2.0000     -14.439426      -392.9168
  16   2.0000     -14.437539      -392.8654
  17   2.0000     -14.437479      -392.8638
  18   2.0000     -14.425644      -392.5417
  19   2.0000     -14.424637      -392.5143
  20   2.0000     -14.424550      -392.5120
  21   2.0000     -14.421559      -392.4306
  22   2.0000     -10.387695      -282.6636
  23   2.0000     -10.387637      -282.6620
  24   2.0000     -10.387293      -282.6526
  25   2.0000     -10.386915      -282.6423
  26   2.0000     -10.382218      -282.5145
  27   2.0000     -10.376640      -282.3627
  28   2.0000     -10.376527      -282.3597
  29   2.0000     -10.375124      -282.3215
  30   2.0000     -10.373000      -282.2637
  31   2.0000     -10.372771      -282.2574
  32   2.0000     -10.364143      -282.0227
  33   2.0000     -10.362785      -281.9857
  34   2.0000     -10.354311      -281.7551
  35   2.0000     -10.352757      -281.7128
  36   2.0000     -10.352527      -281.7066
  37   2.0000     -10.351656      -281.6829
  38   2.0000     -10.351120      -281.6683
  39   2.0000     -10.350723      -281.6575
  40   2.0000     -10.350141      -281.6417
  41   2.0000     -10.347228      -281.5624
  42   2.0000     -10.345239      -281.5083
  43   2.0000     -10.343712      -281.4667
  44   2.0000     -10.343226      -281.4535
  45   2.0000     -10.342447      -281.4323
  46   2.0000     -10.339875      -281.3623
  47   2.0000     -10.339120      -281.3418
  48   2.0000     -10.337906      -281.3087
  49   2.0000     -10.337012      -281.2844
  50   2.0000     -10.337006      -281.2842
  51   2.0000     -10.336897      -281.2813
  52   2.0000     -10.336654      -281.2747
  53   2.0000     -10.334592      -281.2186
  54   2.0000     -10.327895      -281.0363
  55   2.0000     -10.326711      -281.0041
  56   2.0000     -10.326174      -280.9895
  57   2.0000     -10.324415      -280.9416
  58   2.0000     -10.322999      -280.9031
  59   2.0000     -10.322615      -280.8926
  60   2.0000     -10.322287      -280.8837
  61   2.0000     -10.321369      -280.8587
  62   2.0000     -10.320718      -280.8410
  63   2.0000     -10.317943      -280.7655
  64   2.0000     -10.317787      -280.7613
  65   2.0000     -10.317578      -280.7556
  66   2.0000     -10.317398      -280.7507
  67   2.0000     -10.317373      -280.7500
  68   2.0000     -10.317070      -280.7417
  69   2.0000     -10.316107      -280.7156
  70   2.0000     -10.315771      -280.7064
  71   2.0000     -10.314866      -280.6818
  72   2.0000     -10.311011      -280.5769
  73   2.0000     -10.310473      -280.5622
  74   2.0000     -10.310256      -280.5563
  75   2.0000     -10.309440      -280.5341
  76   2.0000     -10.309240      -280.5287
  77   2.0000     -10.309235      -280.5285
  78   2.0000     -10.307651      -280.4854
  79   2.0000     -10.307344      -280.4771
  80   2.0000     -10.306806      -280.4624
  81   2.0000     -10.306436      -280.4524
  82   2.0000     -10.302050      -280.3330
  83   2.0000     -10.301598      -280.3207
  84   2.0000      -8.102280      -220.4742
  85   2.0000      -8.098719      -220.3773
  86   2.0000      -8.097890      -220.3548
  87   2.0000      -8.091591      -220.1834
  88   2.0000      -8.087182      -220.0634
  89   2.0000      -8.086251      -220.0381
  90   2.0000      -6.071497      -165.2138
  91   2.0000      -6.067940      -165.1170
  92   2.0000      -6.067320      -165.1002
  93   2.0000      -6.067184      -165.0965
  94   2.0000      -6.064647      -165.0274
  95   2.0000      -6.063742      -165.0028
  96   2.0000      -6.062859      -164.9788
  97   2.0000      -6.061131      -164.9318
  98   2.0000      -6.061046      -164.9295
  99   2.0000      -6.060248      -164.9077
 100   2.0000      -6.056356      -164.8018
 101   2.0000      -6.056230      -164.7984
 102   2.0000      -6.055396      -164.7757
 103   2.0000      -6.054147      -164.7417
 104   2.0000      -6.052700      -164.7024
 105   2.0000      -6.051727      -164.6759
 106   2.0000      -6.048864      -164.5980
 107   2.0000      -6.047939      -164.5728
 108   2.0000      -1.326999       -36.1095
 109   2.0000      -1.326837       -36.1051
 110   2.0000      -1.312131       -35.7049
 111   2.0000      -1.311916       -35.6990
 112   2.0000      -1.150359       -31.3029
 113   2.0000      -1.140317       -31.0296
 114   2.0000      -1.116939       -30.3935
 115   2.0000      -1.078220       -29.3399
 116   2.0000      -1.058985       -28.8165
 117   2.0000      -1.056992       -28.7622
 118   2.0000      -1.032707       -28.1014
 119   2.0000      -1.030077       -28.0298
 120   2.0000      -1.029811       -28.0226
 121   2.0000      -1.027897       -27.9705
 122   2.0000      -1.017420       -27.6854
 123   2.0000      -1.015167       -27.6241
 124   2.0000      -1.012945       -27.5636
 125   2.0000      -1.012069       -27.5398
 126   2.0000      -1.011958       -27.5368
 127   2.0000      -1.010898       -27.5079
 128   2.0000      -1.003046       -27.2943
 129   2.0000      -1.001553       -27.2536
 130   2.0000      -0.989835       -26.9348
 131   2.0000      -0.989402       -26.9230
 132   2.0000      -0.972451       -26.4617
 133   2.0000      -0.971615       -26.4390
 134   2.0000      -0.942519       -25.6472
 135   2.0000      -0.941502       -25.6196
 136   2.0000      -0.939289       -25.5593
 137   2.0000      -0.931159       -25.3381
 138   2.0000      -0.926328       -25.2067
 139   2.0000      -0.912332       -24.8258
 140   2.0000      -0.909349       -24.7446
 141   2.0000      -0.904403       -24.6101
 142   2.0000      -0.899947       -24.4888
 143   2.0000      -0.899452       -24.4753
 144   2.0000      -0.889459       -24.2034
 145   2.0000      -0.888014       -24.1641
 146   2.0000      -0.885319       -24.0908
 147   2.0000      -0.879079       -23.9209
 148   2.0000      -0.870116       -23.6771
 149   2.0000      -0.868694       -23.6384
 150   2.0000      -0.860447       -23.4140
 151   2.0000      -0.847995       -23.0751
 152   2.0000      -0.847809       -23.0701
 153   2.0000      -0.839149       -22.8344
 154   2.0000      -0.823215       -22.4008
 155   2.0000      -0.812036       -22.0966
 156   2.0000      -0.789989       -21.4967
 157   2.0000      -0.788769       -21.4635
 158   2.0000      -0.781760       -21.2728
 159   2.0000      -0.776917       -21.1410
 160   2.0000      -0.774216       -21.0675
 161   2.0000      -0.766327       -20.8528
 162   2.0000      -0.747689       -20.3457
 163   2.0000      -0.740220       -20.1424
 164   2.0000      -0.728720       -19.8295
 165   2.0000      -0.725658       -19.7462
 166   2.0000      -0.723192       -19.6791
 167   2.0000      -0.719244       -19.5716
 168   2.0000      -0.714556       -19.4441
 169   2.0000      -0.709039       -19.2939
 170   2.0000      -0.704031       -19.1577
 171   2.0000      -0.697746       -18.9866
 172   2.0000      -0.696953       -18.9651
 173   2.0000      -0.692636       -18.8476
 174   2.0000      -0.691678       -18.8215
 175   2.0000      -0.686948       -18.6928
 176   2.0000      -0.678499       -18.4629
 177   2.0000      -0.671171       -18.2635
 178   2.0000      -0.666464       -18.1354
 179   2.0000      -0.662176       -18.0187
 180   2.0000      -0.658643       -17.9226
 181   2.0000      -0.650602       -17.7038
 182   2.0000      -0.649731       -17.6801
 183   2.0000      -0.645995       -17.5784
 184   2.0000      -0.641436       -17.4543
 185   2.0000      -0.639111       -17.3911
 186   2.0000      -0.636854       -17.3297
 187   2.0000      -0.632209       -17.2033
 188   2.0000      -0.629774       -17.1370
 189   2.0000      -0.623137       -16.9564
 190   2.0000      -0.622238       -16.9319
 191   2.0000      -0.620373       -16.8812
 192   2.0000      -0.604689       -16.4544
 193   2.0000      -0.599088       -16.3020
 194   2.0000      -0.596316       -16.2266
 195   2.0000      -0.591648       -16.0996
 196   2.0000      -0.591425       -16.0935
 197   2.0000      -0.591266       -16.0892
 198   2.0000      -0.589933       -16.0529
 199   2.0000      -0.582666       -15.8551
 200   2.0000      -0.577361       -15.7108
 201   2.0000      -0.571979       -15.5643
 202   2.0000      -0.570212       -15.5163
 203   2.0000      -0.565149       -15.3785
 204   2.0000      -0.561616       -15.2823
 205   2.0000      -0.561204       -15.2712
 206   2.0000      -0.559470       -15.2240
 207   2.0000      -0.557868       -15.1804
 208   2.0000      -0.552986       -15.0475
 209   2.0000      -0.552699       -15.0397
 210   2.0000      -0.551463       -15.0061
 211   2.0000      -0.550292       -14.9742
 212   2.0000      -0.549687       -14.9577
 213   2.0000      -0.545926       -14.8554
 214   2.0000      -0.543466       -14.7885
 215   2.0000      -0.541174       -14.7261
 216   2.0000      -0.538365       -14.6497
 217   2.0000      -0.538147       -14.6437
 218   2.0000      -0.534671       -14.5491
 219   2.0000      -0.531011       -14.4495
 220   2.0000      -0.528533       -14.3821
 221   2.0000      -0.524336       -14.2679
 222   2.0000      -0.522955       -14.2303
 223   2.0000      -0.522258       -14.2114
 224   2.0000      -0.521580       -14.1929
 225   2.0000      -0.519486       -14.1359
 226   2.0000      -0.518682       -14.1140
 227   2.0000      -0.513412       -13.9707
 228   2.0000      -0.512864       -13.9557
 229   2.0000      -0.510715       -13.8972
 230   2.0000      -0.508362       -13.8332
 231   2.0000      -0.506667       -13.7871
 232   2.0000      -0.505933       -13.7671
 233   2.0000      -0.504717       -13.7340
 234   2.0000      -0.502223       -13.6662
 235   2.0000      -0.498877       -13.5751
 236   2.0000      -0.497119       -13.5273
 237   2.0000      -0.493862       -13.4387
 238   2.0000      -0.489535       -13.3209
 239   2.0000      -0.488121       -13.2824
 240   2.0000      -0.485444       -13.2096
 241   2.0000      -0.478217       -13.0129
 242   2.0000      -0.477560       -12.9951
 243   2.0000      -0.475922       -12.9505
 244   2.0000      -0.471608       -12.8331
 245   2.0000      -0.470315       -12.7979
 246   2.0000      -0.469854       -12.7854
 247   2.0000      -0.468786       -12.7563
 248   2.0000      -0.467513       -12.7217
 249   2.0000      -0.466994       -12.7076
 250   2.0000      -0.462976       -12.5982
 251   2.0000      -0.461416       -12.5558
 252   2.0000      -0.459301       -12.4982
 253   2.0000      -0.456669       -12.4266
 254   2.0000      -0.455149       -12.3852
 255   2.0000      -0.453717       -12.3463
 256   2.0000      -0.453671       -12.3450
 257   2.0000      -0.451607       -12.2889
 258   2.0000      -0.450330       -12.2541
 259   2.0000      -0.449556       -12.2330
 260   2.0000      -0.449233       -12.2243
 261   2.0000      -0.447073       -12.1655
 262   2.0000      -0.446728       -12.1561
 263   2.0000      -0.444483       -12.0950
 264   2.0000      -0.444144       -12.0858
 265   2.0000      -0.441700       -12.0193
 266   2.0000      -0.440796       -11.9947
 267   2.0000      -0.437730       -11.9112
 268   2.0000      -0.436260       -11.8713
 269   2.0000      -0.435635       -11.8542
 270   2.0000      -0.435028       -11.8377
 271   2.0000      -0.434249       -11.8165
 272   2.0000      -0.431773       -11.7491
 273   2.0000      -0.427932       -11.6446
 274   2.0000      -0.424710       -11.5570
 275   2.0000      -0.417453       -11.3595
 276   2.0000      -0.415443       -11.3048
 277   2.0000      -0.414334       -11.2746
 278   2.0000      -0.411495       -11.1973
 279   2.0000      -0.407864       -11.0985
 280   2.0000      -0.399271       -10.8647
 281   2.0000      -0.398937       -10.8556
 282   2.0000      -0.395673       -10.7668
 283   2.0000      -0.390208       -10.6181
 284   2.0000      -0.381854       -10.3908
 285   2.0000      -0.369412       -10.0522
 286   2.0000      -0.366739        -9.9795
 287   2.0000      -0.363031        -9.8786
 288   2.0000      -0.361228        -9.8295
 289   2.0000      -0.350975        -9.5505
 290   2.0000      -0.350600        -9.5403
 291   2.0000      -0.347215        -9.4482
 292   2.0000      -0.342240        -9.3128
 293   2.0000      -0.334721        -9.1082
 294   2.0000      -0.332163        -9.0386
 295   2.0000      -0.325106        -8.8466
 296   2.0000      -0.324733        -8.8364
 297   2.0000      -0.316780        -8.6200
 298   2.0000      -0.308974        -8.4076
 299   2.0000      -0.305100        -8.3022
 300   2.0000      -0.284276        -7.7356
 301   2.0000      -0.259926        -7.0730
 302   0.0000      -0.126330        -3.4376
 303   0.0000      -0.119642        -3.2556
 304   0.0000      -0.098885        -2.6908
 305   0.0000      -0.098159        -2.6710
 306   0.0000      -0.074405        -2.0247

MULLIKEN ATOMIC CHARGES
-----------------------
   0 C :   -0.107773
   1 C :    0.243332
   2 F :   -0.169176
   3 C :    0.238737
   4 F :   -0.170049
   5 C :   -0.104621
   6 C :    0.118425
   7 C :    0.115510
   8 C :   -0.085092
   9 C :    0.047873
  10 C :   -0.000881
  11 C :   -0.082682
  12 C :    0.169403
  13 O :   -0.190959
  14 C :   -0.092325
  15 C :    0.335120
  16 C :   -0.357028
  17 C :   -0.190672
  18 N :    0.156461
  19 C :   -0.179504
  20 N :    0.149285
  21 C :   -0.026857
  22 C :   -0.053330
  23 C :   -0.063439
  24 C :    0.054915
  25 C :   -0.066613
  26 S :    0.244765
  27 C :   -0.099891
  28 C :    0.016755
  29 C :    0.298843
  30 C :   -0.294045
  31 C :   -0.191407
  32 N :    0.188440
  33 C :   -0.195663
  34 N :    0.191100
  35 C :   -0.035529
  36 C :   -0.028092
  37 S :    0.203486
  38 C :   -0.112123
  39 N :   -0.014867
  40 C :   -0.056439
  41 C :   -0.051262
  42 S :    0.122290
  43 N :   -0.051104
  44 C :   -0.091520
  45 S :    0.158922
  46 C :   -0.056817
  47 C :   -0.034044
  48 C :    0.012257
  49 C :   -0.104617
  50 S :    0.257700
  51 C :   -0.080383
  52 C :    0.027747
  53 C :    0.295413
  54 C :   -0.289205
  55 C :   -0.187297
  56 N :    0.182534
  57 C :   -0.191153
  58 N :    0.181109
  59 C :    0.010481
  60 C :   -0.098056
  61 S :    0.205368
  62 C :    0.057032
  63 C :   -0.140681
  64 C :    0.146465
  65 O :   -0.135726
  66 C :    0.009577
  67 C :   -0.081744
  68 C :    0.112527
  69 C :    0.112208
  70 C :   -0.108167
  71 C :    0.243885
  72 C :    0.243254
  73 C :   -0.107679
  74 F :   -0.169925
  75 F :   -0.169437
  76 C :   -0.082309
  77 C :    0.041311
  78 C :    0.235805
  79 C :   -0.322194
  80 C :   -0.207209
  81 N :    0.178865
  82 C :   -0.176192
  83 N :    0.160800
  84 H :    0.008886
  85 H :   -0.000537
  86 H :   -0.005599
  87 H :   -0.011009
  88 H :    0.016852
  89 H :    0.030735
  90 H :    0.025348
  91 H :    0.017395
  92 H :    0.020938
  93 H :    0.035805
  94 H :   -0.006347
  95 H :    0.005790
  96 H :    0.001787
  97 H :   -0.002272
Sum of atomic charges:   -0.0000000

LOEWDIN ATOMIC CHARGES
----------------------
   0 C :   -0.028277
   1 C :    0.067802
   2 F :   -0.046793
   3 C :    0.068242
   4 F :   -0.047791
   5 C :   -0.032986
   6 C :   -0.009160
   7 C :   -0.005757
   8 C :    0.019161
   9 C :   -0.021931
  10 C :   -0.053403
  11 C :    0.031098
  12 C :    0.086040
  13 O :   -0.175612
  14 C :   -0.109920
  15 C :    0.075401
  16 C :   -0.137983
  17 C :   -0.023502
  18 N :   -0.044606
  19 C :   -0.016998
  20 N :   -0.050838
  21 C :    0.058392
  22 C :   -0.181806
  23 C :    0.013640
  24 C :   -0.074423
  25 C :   -0.169351
  26 S :    0.550200
  27 C :   -0.181752
  28 C :   -0.054054
  29 C :    0.074740
  30 C :   -0.093797
  31 C :   -0.019355
  32 N :   -0.022053
  33 C :   -0.019851
  34 N :   -0.019797
  35 C :   -0.001907
  36 C :   -0.188696
  37 S :    0.484746
  38 C :   -0.133101
  39 N :   -0.089982
  40 C :   -0.206341
  41 C :   -0.209185
  42 S :    0.405112
  43 N :   -0.110848
  44 C :   -0.136650
  45 S :    0.432837
  46 C :   -0.186532
  47 C :   -0.022348
  48 C :   -0.057452
  49 C :   -0.182905
  50 S :    0.524655
  51 C :   -0.153997
  52 C :   -0.069177
  53 C :    0.078496
  54 C :   -0.093934
  55 C :   -0.017408
  56 N :   -0.023863
  57 C :   -0.017484
  58 N :   -0.025697
  59 C :    0.015734
  60 C :   -0.176197
  61 S :    0.512013
  62 C :    0.052656
  63 C :   -0.099359
  64 C :    0.083699
  65 O :   -0.137462
  66 C :   -0.054200
  67 C :    0.031913
  68 C :   -0.008904
  69 C :   -0.005556
  70 C :   -0.030419
  71 C :    0.067905
  72 C :    0.067953
  73 C :   -0.032139
  74 F :   -0.047842
  75 F :   -0.047379
  76 C :    0.014360
  77 C :   -0.020800
  78 C :    0.057771
  79 C :   -0.142861
  80 C :   -0.036438
  81 N :   -0.044574
  82 C :   -0.020673
  83 N :   -0.047757
  84 H :    0.048400
  85 H :    0.044788
  86 H :    0.040542
  87 H :    0.040067
  88 H :    0.054230
  89 H :    0.048941
  90 H :    0.049999
  91 H :    0.041591
  92 H :    0.048259
  93 H :    0.056027
  94 H :    0.041691
  95 H :    0.047284
  96 H :    0.045645
  97 H :    0.039836

  Mayer bond orders larger than 0.100000
B(  0-C ,  1-C ) :   1.4393 B(  0-C ,  5-C ) :   0.1079 B(  0-C ,  7-C ) :   1.1906
B(  0-C , 84-H ) :   1.0067 B(  1-C ,  2-F ) :   1.1363 B(  1-C ,  3-C ) :   1.1913
B(  3-C ,  4-F ) :   1.1353 B(  3-C ,  5-C ) :   1.4431 B(  5-C ,  6-C ) :   1.1916
B(  5-C , 85-H ) :   1.0069 B(  6-C ,  7-C ) :   1.2563 B(  6-C , 11-C ) :   1.1878
B(  7-C ,  8-C ) :   1.2139 B(  8-C ,  9-C ) :   1.4540 B(  8-C , 86-H ) :   0.9894
B(  9-C , 10-C ) :   1.2223 B(  9-C , 15-C ) :   0.9802 B( 10-C , 11-C ) :   1.4651
B( 10-C , 12-C ) :   0.9637 B( 11-C , 87-H ) :   1.0171 B( 12-C , 13-O ) :   2.1076
B( 12-C , 14-C ) :   0.9847 B( 14-C , 15-C ) :   1.0778 B( 14-C , 21-C ) :   1.4872
B( 15-C , 16-C ) :   1.6289 B( 16-C , 17-C ) :   1.1433 B( 16-C , 19-C ) :   1.1497
B( 17-C , 18-N ) :   2.9585 B( 19-C , 20-N ) :   2.9580 B( 21-C , 22-C ) :   1.2710
B( 21-C , 88-H ) :   0.9377 B( 22-C , 23-C ) :   1.3266 B( 22-C , 26-S ) :   1.0700
B( 23-C , 24-C ) :   1.3345 B( 23-C , 89-H ) :   1.0079 B( 24-C , 25-C ) :   1.3534
B( 24-C , 29-C ) :   0.9857 B( 25-C , 26-S ) :   1.1254 B( 25-C , 27-C ) :   1.2089
B( 27-C , 28-C ) :   1.4220 B( 27-C , 37-S ) :   1.1302 B( 28-C , 29-C ) :   0.9878
B( 28-C , 35-C ) :   1.2764 B( 29-C , 30-C ) :   1.7264 B( 30-C , 31-C ) :   1.1326
B( 30-C , 33-C ) :   1.1364 B( 31-C , 32-N ) :   3.0007 B( 33-C , 34-N ) :   2.9958
B( 35-C , 36-C ) :   1.4662 B( 35-C , 90-H ) :   1.0114 B( 36-C , 37-S ) :   1.1121
B( 36-C , 38-C ) :   1.1037 B( 38-C , 39-N ) :   1.7376 B( 38-C , 42-S ) :   1.0788
B( 39-N , 40-C ) :   1.3977 B( 39-N , 42-S ) :   0.1016 B( 40-C , 41-C ) :   1.2929
B( 40-C , 45-S ) :   1.0977 B( 41-C , 42-S ) :   1.1035 B( 41-C , 43-N ) :   1.4125
B( 43-N , 44-C ) :   1.7027 B( 44-C , 45-S ) :   1.0997 B( 44-C , 46-C ) :   1.1455
B( 46-C , 47-C ) :   1.4591 B( 46-C , 50-S ) :   1.1212 B( 47-C , 48-C ) :   1.3200
B( 47-C , 91-H ) :   0.9859 B( 48-C , 49-C ) :   1.4280 B( 48-C , 53-C ) :   0.9953
B( 49-C , 50-S ) :   1.1211 B( 49-C , 51-C ) :   1.2073 B( 51-C , 52-C ) :   1.4048
B( 51-C , 61-S ) :   1.1586 B( 52-C , 53-C ) :   0.9916 B( 52-C , 59-C ) :   1.3051
B( 53-C , 54-C ) :   1.7222 B( 54-C , 55-C ) :   1.1324 B( 54-C , 57-C ) :   1.1335
B( 55-C , 56-N ) :   2.9948 B( 57-C , 58-N ) :   2.9955 B( 59-C , 60-C ) :   1.4018
B( 59-C , 92-H ) :   1.0010 B( 60-C , 61-S ) :   1.0878 B( 60-C , 62-C ) :   1.1412
B( 62-C , 63-C ) :   1.6383 B( 62-C , 93-H ) :   0.9493 B( 63-C , 64-C ) :   0.9363
B( 63-C , 78-C ) :   1.0379 B( 64-C , 65-O ) :   2.2807 B( 64-C , 66-C ) :   0.9155
B( 66-C , 67-C ) :   1.4748 B( 66-C , 77-C ) :   1.2206 B( 67-C , 68-C ) :   1.1929
B( 67-C , 94-H ) :   1.0174 B( 68-C , 69-C ) :   1.2575 B( 68-C , 73-C ) :   1.1931
B( 69-C , 70-C ) :   1.1867 B( 69-C , 76-C ) :   1.2145 B( 70-C , 71-C ) :   1.4409
B( 70-C , 73-C ) :   0.1088 B( 70-C , 95-H ) :   1.0083 B( 71-C , 72-C ) :   1.1902
B( 71-C , 75-F ) :   1.1363 B( 72-C , 73-C ) :   1.4423 B( 72-C , 74-F ) :   1.1348
B( 73-C , 96-H ) :   1.0083 B( 76-C , 77-C ) :   1.4543 B( 76-C , 97-H ) :   0.9965
B( 77-C , 78-C ) :   1.0009 B( 78-C , 79-C ) :   1.6600 B( 79-C , 80-C ) :   1.1512
B( 79-C , 82-C ) :   1.1366 B( 80-C , 81-N ) :   3.0240 B( 82-C , 83-N ) :   2.9933

-----------------------------------------------------------------------------
         ABSORPTION SPECTRUM VIA TRANSITION ELECTRIC DIPOLE MOMENTS
-----------------------------------------------------------------------------
State   Energy  Wavelength   fosc         T2         TX        TY        TZ
        (cm-1)    (nm)                  (au**2)     (au)      (au)      (au)
-----------------------------------------------------------------------------
   0   13248.0    754.8   0.744330218  18.49657   1.04242   4.15462   0.38609
   1   14508.6    689.2   0.219378985   4.97789   0.16232   1.86157  -1.21906
   2   19539.8    511.8   1.292252722  21.77226   1.04374   4.50784   0.60191
   3   20931.7    477.7   0.863120841  13.57512   0.00131   2.16716  -2.97968
   4   22120.8    452.1   0.013234073   0.19696  -0.15907  -0.19274   0.36675
   5   23254.5    430.0   0.039114691   0.55374   0.32271  -0.44779   0.49909
   6   25569.2    391.1   0.065480753   0.84309  -0.35459   0.67996  -0.50498
   7   26258.7    380.8   0.264407769   3.31495  -0.91373  -1.47650  -0.54772
   8   26649.4    375.2   0.226789220   2.80163  -0.51560  -1.55616   0.33787
   9   27680.7    361.3   0.108836468   1.29441   0.35120   0.23730   1.05582
  10   27838.5    359.2   0.110528255   1.30708  -0.71562  -0.73715  -0.50158
  11   28304.0    353.3   0.002810665   0.03269   0.00973   0.08662   0.15841
  12   28362.2    352.6   0.004597932   0.05337  -0.15846   0.12027   0.11745
  13   28706.2    348.4   0.094803633   1.08724  -0.60105  -0.66143  -0.53711
  14   29017.8    344.6   0.008164798   0.09263  -0.19361   0.22259  -0.07483
  15   29230.9    342.1   0.050721809   0.57125   0.42853   0.02689   0.62201
  16   29381.6    340.3   0.160053990   1.79336  -0.38916  -1.28078   0.03890
  17   29958.3    333.8   0.076149001   0.83680   0.46182  -0.42662   0.66447
  18   30272.2    330.3   0.814883429   8.86189   1.06480  -0.22284   2.77100
  19   30445.9    328.5   0.188216487   2.03519   0.36522   0.21095   1.36283
  20   30494.8    327.9   0.027918637   0.30140   0.17505  -0.10511   0.50962
  21   31413.1    318.3   0.133325590   1.39726  -0.86241  -0.71215  -0.38256
  22   31971.8    312.8   0.017230275   0.17742  -0.10049  -0.40657   0.04494
  23   32529.7    307.4   0.043540506   0.44065  -0.03561  -0.27706   0.60218
  24   32658.4    306.2   0.133432549   1.34506  -0.03806  -1.12570  -0.27643
  25   33223.7    301.0   0.640764124   6.34929   0.87500  -0.20242   2.35429
  26   33285.7    300.4   0.266964973   2.64042   1.15251   0.69652   0.90940
  27   33506.4    298.5   0.270985267   2.66253   0.21109  -0.84423   1.38031
  28   34019.0    294.0   0.062291875   0.60282   0.27115   0.38246   0.61888
  29   34045.3    293.7   0.003088665   0.02987   0.01293  -0.15434  -0.07667
  30   34346.1    291.2   0.040060407   0.38398   0.51659   0.30482  -0.15559
  31   34609.9    288.9   0.190927693   1.81612  -0.52040   0.48285  -1.14550
  32   34759.8    287.7   0.012648975   0.11980  -0.20381  -0.26092  -0.10089
  33   34935.3    286.2   0.105922111   0.99815  -0.29101   0.02209  -0.95550
  34   35003.8    285.7   0.468712173   4.40826  -0.69168   0.28714  -1.96147
  35   35206.3    284.0   0.230293911   2.15346   0.67737   0.15457   1.29257
  36   35465.1    282.0   0.000626840   0.00582   0.00034   0.02088  -0.07337
  37   35641.7    280.6   0.182806181   1.68853  -0.43045   0.07456  -1.22380
  38   35711.9    280.0   0.212464357   1.95861   1.19958   0.48372   0.53446
  39   35892.9    278.6   0.030819579   0.28268  -0.34451  -0.05746  -0.40086
  40   36155.0    276.6   0.200723834   1.82771  -0.87606  -0.40726  -0.94571
  41   36408.7    274.7   0.107249621   0.96976   0.70171   0.54696   0.42214
  42   36472.4    274.2   0.040541582   0.36594   0.46057   0.04031   0.39012
  43   36641.4    272.9   0.013726539   0.12333   0.32877   0.11990   0.02941
  44   36978.5    270.4   0.017410220   0.15500   0.17851   0.32659   0.12835
  45   37139.5    269.3   0.012963073   0.11491  -0.20373   0.27036  -0.01739
  46   37283.3    268.2   0.121209655   1.07028  -0.72229  -0.55405  -0.49154
  47   37483.7    266.8   0.052246319   0.45887   0.02011   0.54317   0.40427
  48   37577.3    266.1   0.018402741   0.16123  -0.15322   0.35754   0.09955
  49   37803.1    264.5   0.034964298   0.30449   0.03333  -0.36070  -0.41626
  50   38069.7    262.7   0.000485324   0.00420   0.00314  -0.04625  -0.04525
  51   38206.7    261.7   0.082377802   0.70982  -0.23266  -0.80567   0.08112
  52   38499.8    259.7   0.009533096   0.08152   0.20239   0.09067   0.17981
  53   38523.3    259.6   0.001216813   0.01040   0.03417  -0.01985   0.09400
  54   38569.6    259.3   0.019075261   0.16282  -0.19675   0.32761  -0.12952
  55   38752.6    258.0   0.087303323   0.74166  -0.35644  -0.74682  -0.23848
  56   39022.5    256.3   0.028782402   0.24282   0.11618   0.39061  -0.27703
  57   39282.4    254.6   0.098280802   0.82366   0.11096   0.88387  -0.17354
  58   39606.4    252.5   0.114210476   0.94933  -0.37686  -0.83547   0.33059
  59   39898.5    250.6   0.051535263   0.42523   0.08695  -0.04527   0.64469

FINAL SINGLE POINT ENERGY     -5852.306179496094

DIPOLE MOMENT
-------------
                                X             Y             Z
Electronic contribution:     -5.74257       3.03559     -14.83205
Nuclear contribution   :      2.86174      -3.91207      12.11420
                        -----------------------------------------
Total Dipole Moment    :     -2.88084      -0.87649      -2.71785
                        -----------------------------------------
Magnitude (a.u.)       :      4.05637
Magnitude (Debye)      :     10.31048

Rotational constants in cm-1:     0.000757     0.000147     0.000125
Rotational constants in MHz :    22.692306     4.417510     3.732987

                             ****ORCA TERMINATED NORMALLY****
TOTAL RUN TIME: 0 days 0 hours 11 minutes 43 seconds 446 msec
