                         Program Version 4.2.0 -  RELEASE  -
|  1> # ORCA input file
|  2> # SCF done       -194.326498300117          0.000657862997
|  3> ! CAM-B3LYP def2-SVP def2/J RIJCOSX Grid4 TightSCF
|  4> %maxcore 5000
|  5> %tddft
|  6>     Mode sTDDFT
|  7>     Ethresh 5.0
|  8>     maxcore 5000
|  9> end
| 10>
| 11> %pal
| 12>   nprocs 6
| 13>   end
| 14> * xyz 0 1
| 15>    C        2.33359         0.59720        -0.58200
| 16>    C        3.67767         0.74526        -0.79644
| 17>    C        4.58911        -0.33016        -0.84809
| 18>    N        5.37811        -1.16270        -0.89534
| 19>    C        4.32616         1.97471        -1.04254
| 20>    N        4.92223         2.92574        -1.28468
| 21>    C        1.62420        -0.66701        -0.44610
| 22>    C        0.22648        -0.39820        -0.43054
| 23>    C       -0.69948        -1.39497        -0.31823
| 24>    C       -0.26055        -2.73344        -0.21374
| 25>    C        1.13718        -3.01107        -0.22237
| 26>    C        2.07240        -1.95744        -0.33956
| 27>    C        1.56294        -4.35071        -0.11319
| 28>    C        0.65420        -5.36758        -0.00231
| 29>    C       -0.72160        -5.09284         0.00548
| 30>    C       -1.16913        -3.80388        -0.09859
| 31>    C       -0.00629         1.05211        -0.55186
| 32>    O       -1.08590         1.60012        -0.58996
| 33>    C        1.35042         1.67044        -0.54912
| 34>    C        1.64083         2.97556        -0.30262
| 35>    C        0.74884         4.09516        -0.28916
| 36>    C       -0.38233         4.24370        -1.08498
| 37>    C       -1.22405         5.34841        -0.99076
| 38>    C       -1.01243         6.39046        -0.09545
| 39>    C        0.17908         6.31741         0.66073
| 40>    C        1.04389         5.18804         0.55904
| 41>    N        2.07351         5.39551         1.39173
| 42>    N        1.83408         6.56724         1.91228
| 43>    N        0.74724         7.17095         1.52749
| 44>    C        2.70446         7.14127         2.89118
| 45>    C       -1.97468         7.45813         0.07997
| 46>    C       -2.19540         8.04773         1.34118
| 47>    C       -3.12347         9.13840         1.53211
| 48>    N       -3.17292         9.76384         2.72370
| 49>    C       -2.43693         9.33074         3.71037
| 50>    C       -1.65997         8.12717         3.56599
| 51>    N       -1.56719         7.53241         2.41008
| 52>    C       -0.94725         7.58040         4.66092
| 53>    N       -0.32731         7.17616         5.53571
| 54>    C       -2.42915        10.03232         4.94133
| 55>    N       -2.39320        10.56146         5.95676
| 56>    C       -3.94209         9.60484         0.48781
| 57>    C       -3.75882         8.98766        -0.75990
| 58>    C       -2.78041         7.93895        -0.96608
| 59>    N       -2.77895         7.51686        -2.23641
| 60>    S       -3.89622         8.31846        -3.05420
| 61>    N       -4.44643         9.24438        -1.87772
| 62>    C       -4.93370        10.64458         0.67455
| 63>    C       -5.73877        10.71088         1.80308
| 64>    C       -6.77931        11.62777         1.94139
| 65>    C       -7.09021        12.55833         0.95695
| 66>    C       -6.22013        12.57805        -0.15916
| 67>    C       -5.16630        11.62885        -0.30952
| 68>    N       -4.52193        11.92925        -1.44750
| 69>    N       -5.16631        12.95756        -1.91985
| 70>    N       -6.18112        13.39102        -1.22303
| 71>    C       -4.78233        13.58076        -3.14852
| 72>    C       -8.15824        13.51134         1.00422
| 73>    C       -9.37616        13.38760         1.59488
| 74>    C      -10.39337        14.42974         1.62206
| 75>    C      -10.18497        15.76724         1.41612
| 76>    C      -11.20490        16.74044         1.47401
| 77>    N      -11.99406        17.57388         1.49488
| 78>    C       -8.93398        16.36722         1.15547
| 79>    N       -7.95686        16.93964         0.96572
| 80>    C      -11.66006        13.81218         1.98997
| 81>    C      -11.42636        12.43580         2.26708
| 82>    C       -9.99915        12.12234         2.07870
| 83>    O       -9.48108        11.03833         2.23421
| 84>    C      -12.43148        11.59365         2.64687
| 85>    C      -13.74421        12.10005         2.76922
| 86>    C      -13.98906        13.47511         2.48648
| 87>    C      -12.92756        14.32257         2.09485
| 88>    C      -15.30454        13.96808         2.60673
| 89>    C      -16.32850        13.14522         2.98947
| 90>    C      -16.08563        11.79194         3.26900
| 91>    C      -14.82090        11.28065         3.16159
| 92>    H       -1.75448        -1.16407        -0.30997
| 93>    H        3.12380        -2.19790        -0.33467
| 94>    H        2.62302        -4.55769        -0.12095
| 95>    H        0.99050        -6.39025         0.08013
| 96>    H       -1.42474        -5.90742         0.09478
| 97>    H       -2.22713        -3.58568        -0.09296
| 98>    H        2.65286         3.22617        -0.00485
| 99>    H       -0.62147         3.48129        -1.80677
|100>    H       -2.10135         5.37921        -1.61654
|101>    H        3.63290         6.57521         2.89307
|102>    H        2.23756         7.08988         3.87723
|103>    H        2.89123         8.18568         2.64505
|104>    H       -5.58229         9.99525         2.59438
|105>    H       -7.35491        11.61008         2.85121
|106>    H       -3.79857        13.20912        -3.42477
|107>    H       -4.76176        14.66158        -3.01414
|108>    H       -5.50200        13.33830        -3.93220
|109>    H       -7.96049        14.40546         0.42382
|110>    H      -12.22564        10.55368         2.85295
|111>    H      -13.14648        15.35669         1.88111
|112>    H      -15.48667        15.01090         2.39217
|113>    H      -17.33224        13.53268         3.07953
|114>    H      -16.90556        11.15691         3.56958
|115>    H      -14.62718        10.23962         3.37538
|116> *
|117>
|118>                          ****END OF INPUT****

CARTESIAN COORDINATES (ANGSTROEM)
---------------------------------
  C      2.333590    0.597200   -0.582000
  C      3.677670    0.745260   -0.796440
  C      4.589110   -0.330160   -0.848090
  N      5.378110   -1.162700   -0.895340
  C      4.326160    1.974710   -1.042540
  N      4.922230    2.925740   -1.284680
  C      1.624200   -0.667010   -0.446100
  C      0.226480   -0.398200   -0.430540
  C     -0.699480   -1.394970   -0.318230
  C     -0.260550   -2.733440   -0.213740
  C      1.137180   -3.011070   -0.222370
  C      2.072400   -1.957440   -0.339560
  C      1.562940   -4.350710   -0.113190
  C      0.654200   -5.367580   -0.002310
  C     -0.721600   -5.092840    0.005480
  C     -1.169130   -3.803880   -0.098590
  C     -0.006290    1.052110   -0.551860
  O     -1.085900    1.600120   -0.589960
  C      1.350420    1.670440   -0.549120
  C      1.640830    2.975560   -0.302620
  C      0.748840    4.095160   -0.289160
  C     -0.382330    4.243700   -1.084980
  C     -1.224050    5.348410   -0.990760
  C     -1.012430    6.390460   -0.095450
  C      0.179080    6.317410    0.660730
  C      1.043890    5.188040    0.559040
  N      2.073510    5.395510    1.391730
  N      1.834080    6.567240    1.912280
  N      0.747240    7.170950    1.527490
  C      2.704460    7.141270    2.891180
  C     -1.974680    7.458130    0.079970
  C     -2.195400    8.047730    1.341180
  C     -3.123470    9.138400    1.532110
  N     -3.172920    9.763840    2.723700
  C     -2.436930    9.330740    3.710370
  C     -1.659970    8.127170    3.565990
  N     -1.567190    7.532410    2.410080
  C     -0.947250    7.580400    4.660920
  N     -0.327310    7.176160    5.535710
  C     -2.429150   10.032320    4.941330
  N     -2.393200   10.561460    5.956760
  C     -3.942090    9.604840    0.487810
  C     -3.758820    8.987660   -0.759900
  C     -2.780410    7.938950   -0.966080
  N     -2.778950    7.516860   -2.236410
  S     -3.896220    8.318460   -3.054200
  N     -4.446430    9.244380   -1.877720
  C     -4.933700   10.644580    0.674550
  C     -5.738770   10.710880    1.803080
  C     -6.779310   11.627770    1.941390
  C     -7.090210   12.558330    0.956950
  C     -6.220130   12.578050   -0.159160
  C     -5.166300   11.628850   -0.309520
  N     -4.521930   11.929250   -1.447500
  N     -5.166310   12.957560   -1.919850
  N     -6.181120   13.391020   -1.223030
  C     -4.782330   13.580760   -3.148520
  C     -8.158240   13.511340    1.004220
  C     -9.376160   13.387600    1.594880
  C    -10.393370   14.429740    1.622060
  C    -10.184970   15.767240    1.416120
  C    -11.204900   16.740440    1.474010
  N    -11.994060   17.573880    1.494880
  C     -8.933980   16.367220    1.155470
  N     -7.956860   16.939640    0.965720
  C    -11.660060   13.812180    1.989970
  C    -11.426360   12.435800    2.267080
  C     -9.999150   12.122340    2.078700
  O     -9.481080   11.038330    2.234210
  C    -12.431480   11.593650    2.646870
  C    -13.744210   12.100050    2.769220
  C    -13.989060   13.475110    2.486480
  C    -12.927560   14.322570    2.094850
  C    -15.304540   13.968080    2.606730
  C    -16.328500   13.145220    2.989470
  C    -16.085630   11.791940    3.269000
  C    -14.820900   11.280650    3.161590
  H     -1.754480   -1.164070   -0.309970
  H      3.123800   -2.197900   -0.334670
  H      2.623020   -4.557690   -0.120950
  H      0.990500   -6.390250    0.080130
  H     -1.424740   -5.907420    0.094780
  H     -2.227130   -3.585680   -0.092960
  H      2.652860    3.226170   -0.004850
  H     -0.621470    3.481290   -1.806770
  H     -2.101350    5.379210   -1.616540
  H      3.632900    6.575210    2.893070
  H      2.237560    7.089880    3.877230
  H      2.891230    8.185680    2.645050
  H     -5.582290    9.995250    2.594380
  H     -7.354910   11.610080    2.851210
  H     -3.798570   13.209120   -3.424770
  H     -4.761760   14.661580   -3.014140
  H     -5.502000   13.338300   -3.932200
  H     -7.960490   14.405460    0.423820
  H    -12.225640   10.553680    2.852950
  H    -13.146480   15.356690    1.881110
  H    -15.486670   15.010900    2.392170
  H    -17.332240   13.532680    3.079530
  H    -16.905560   11.156910    3.569580
  H    -14.627180   10.239620    3.375380

 Total Charge           Charge          ....    0
 Multiplicity           Mult            ....    1
 Number of Electrons    NEL             ....  516
 Basis Dimension        Dim             .... 1202

ORBITAL ENERGIES
----------------

  NO   OCC          E(Eh)            E(eV)
   0   2.0000     -89.051807     -2423.2229
   1   2.0000     -19.216805      -522.9158
   2   2.0000     -19.216333      -522.9030
   3   2.0000     -14.548182      -395.8762
   4   2.0000     -14.545698      -395.8086
   5   2.0000     -14.462767      -393.5519
   6   2.0000     -14.459832      -393.4720
   7   2.0000     -14.456120      -393.3710
   8   2.0000     -14.455688      -393.3593
   9   2.0000     -14.447413      -393.1341
  10   2.0000     -14.444963      -393.0674
  11   2.0000     -14.444008      -393.0414
  12   2.0000     -14.443019      -393.0145
  13   2.0000     -14.433437      -392.7538
  14   2.0000     -14.431817      -392.7097
  15   2.0000     -14.414328      -392.2338
  16   2.0000     -14.413805      -392.2196
  17   2.0000     -14.412898      -392.1949
  18   2.0000     -14.412018      -392.1709
  19   2.0000     -10.383478      -282.5488
  20   2.0000     -10.380227      -282.4603
  21   2.0000     -10.369075      -282.1569
  22   2.0000     -10.368721      -282.1473
  23   2.0000     -10.351730      -281.6849
  24   2.0000     -10.350107      -281.6407
  25   2.0000     -10.348265      -281.5906
  26   2.0000     -10.346660      -281.5469
  27   2.0000     -10.341778      -281.4141
  28   2.0000     -10.341166      -281.3974
  29   2.0000     -10.339258      -281.3455
  30   2.0000     -10.338398      -281.3221
  31   2.0000     -10.327526      -281.0263
  32   2.0000     -10.327163      -281.0164
  33   2.0000     -10.324802      -280.9521
  34   2.0000     -10.323956      -280.9291
  35   2.0000     -10.323837      -280.9259
  36   2.0000     -10.319506      -280.8080
  37   2.0000     -10.316973      -280.7391
  38   2.0000     -10.316499      -280.7262
  39   2.0000     -10.316393      -280.7233
  40   2.0000     -10.315781      -280.7067
  41   2.0000     -10.315333      -280.6945
  42   2.0000     -10.314541      -280.6729
  43   2.0000     -10.310063      -280.5511
  44   2.0000     -10.309504      -280.5359
  45   2.0000     -10.308916      -280.5199
  46   2.0000     -10.308587      -280.5109
  47   2.0000     -10.307670      -280.4860
  48   2.0000     -10.306917      -280.4655
  49   2.0000     -10.302882      -280.3557
  50   2.0000     -10.302397      -280.3425
  51   2.0000     -10.300926      -280.3025
  52   2.0000     -10.300102      -280.2800
  53   2.0000     -10.299874      -280.2738
  54   2.0000     -10.298897      -280.2472
  55   2.0000     -10.298373      -280.2330
  56   2.0000     -10.298128      -280.2263
  57   2.0000     -10.297916      -280.2205
  58   2.0000     -10.297661      -280.2136
  59   2.0000     -10.297132      -280.1992
  60   2.0000     -10.297005      -280.1958
  61   2.0000     -10.296635      -280.1857
  62   2.0000     -10.296498      -280.1820
  63   2.0000     -10.290045      -280.0064
  64   2.0000     -10.288810      -279.9728
  65   2.0000     -10.288412      -279.9619
  66   2.0000     -10.288319      -279.9594
  67   2.0000     -10.288221      -279.9567
  68   2.0000     -10.287351      -279.9331
  69   2.0000     -10.286998      -279.9234
  70   2.0000     -10.286837      -279.9191
  71   2.0000     -10.286536      -279.9109
  72   2.0000     -10.286410      -279.9075
  73   2.0000     -10.286018      -279.8968
  74   2.0000     -10.286000      -279.8963
  75   2.0000     -10.285467      -279.8818
  76   2.0000     -10.285296      -279.8771
  77   2.0000      -8.143041      -221.5834
  78   2.0000      -6.113933      -166.3686
  79   2.0000      -6.106297      -166.1608
  80   2.0000      -6.106080      -166.1549
  81   2.0000      -1.224770       -33.3277
  82   2.0000      -1.222429       -33.2640
  83   2.0000      -1.147457       -31.2239
  84   2.0000      -1.132440       -30.8153
  85   2.0000      -1.132006       -30.8035
  86   2.0000      -1.122557       -30.5463
  87   2.0000      -1.049694       -28.5636
  88   2.0000      -1.017280       -27.6816
  89   2.0000      -1.017088       -27.6764
  90   2.0000      -1.016447       -27.6589
  91   2.0000      -1.008357       -27.4388
  92   2.0000      -1.003636       -27.3103
  93   2.0000      -0.998138       -27.1607
  94   2.0000      -0.997440       -27.1417
  95   2.0000      -0.997035       -27.1307
  96   2.0000      -0.995399       -27.0862
  97   2.0000      -0.993709       -27.0402
  98   2.0000      -0.991823       -26.9889
  99   2.0000      -0.991117       -26.9697
 100   2.0000      -0.984817       -26.7982
 101   2.0000      -0.974762       -26.5246
 102   2.0000      -0.971004       -26.4224
 103   2.0000      -0.970137       -26.3988
 104   2.0000      -0.933200       -25.3937
 105   2.0000      -0.930223       -25.3126
 106   2.0000      -0.925950       -25.1964
 107   2.0000      -0.922094       -25.0915
 108   2.0000      -0.914519       -24.8853
 109   2.0000      -0.910272       -24.7697
 110   2.0000      -0.902381       -24.5550
 111   2.0000      -0.892548       -24.2875
 112   2.0000      -0.884029       -24.0556
 113   2.0000      -0.881159       -23.9776
 114   2.0000      -0.879993       -23.9458
 115   2.0000      -0.869001       -23.6467
 116   2.0000      -0.847619       -23.0649
 117   2.0000      -0.833285       -22.6748
 118   2.0000      -0.832874       -22.6637
 119   2.0000      -0.828552       -22.5460
 120   2.0000      -0.828060       -22.5327
 121   2.0000      -0.822836       -22.3905
 122   2.0000      -0.817140       -22.2355
 123   2.0000      -0.802685       -21.8422
 124   2.0000      -0.793637       -21.5959
 125   2.0000      -0.781391       -21.2627
 126   2.0000      -0.761357       -20.7176
 127   2.0000      -0.760607       -20.6972
 128   2.0000      -0.753682       -20.5087
 129   2.0000      -0.738203       -20.0875
 130   2.0000      -0.734962       -19.9993
 131   2.0000      -0.732971       -19.9452
 132   2.0000      -0.729802       -19.8589
 133   2.0000      -0.713657       -19.4196
 134   2.0000      -0.709225       -19.2990
 135   2.0000      -0.706323       -19.2200
 136   2.0000      -0.703975       -19.1561
 137   2.0000      -0.703361       -19.1394
 138   2.0000      -0.701752       -19.0956
 139   2.0000      -0.695770       -18.9329
 140   2.0000      -0.693877       -18.8814
 141   2.0000      -0.685688       -18.6585
 142   2.0000      -0.676982       -18.4216
 143   2.0000      -0.674188       -18.3456
 144   2.0000      -0.661548       -18.0016
 145   2.0000      -0.654930       -17.8216
 146   2.0000      -0.648180       -17.6379
 147   2.0000      -0.643001       -17.4970
 148   2.0000      -0.631940       -17.1960
 149   2.0000      -0.631408       -17.1815
 150   2.0000      -0.626119       -17.0376
 151   2.0000      -0.622983       -16.9522
 152   2.0000      -0.620815       -16.8932
 153   2.0000      -0.614839       -16.7306
 154   2.0000      -0.609705       -16.5909
 155   2.0000      -0.607291       -16.5252
 156   2.0000      -0.606893       -16.5144
 157   2.0000      -0.606362       -16.5000
 158   2.0000      -0.601909       -16.3788
 159   2.0000      -0.601289       -16.3619
 160   2.0000      -0.594580       -16.1793
 161   2.0000      -0.587985       -15.9999
 162   2.0000      -0.587050       -15.9744
 163   2.0000      -0.579827       -15.7779
 164   2.0000      -0.572884       -15.5890
 165   2.0000      -0.565815       -15.3966
 166   2.0000      -0.560809       -15.2604
 167   2.0000      -0.554689       -15.0938
 168   2.0000      -0.554142       -15.0790
 169   2.0000      -0.551442       -15.0055
 170   2.0000      -0.548306       -14.9202
 171   2.0000      -0.547001       -14.8847
 172   2.0000      -0.546577       -14.8731
 173   2.0000      -0.542329       -14.7575
 174   2.0000      -0.539850       -14.6901
 175   2.0000      -0.536415       -14.5966
 176   2.0000      -0.535808       -14.5801
 177   2.0000      -0.533732       -14.5236
 178   2.0000      -0.525586       -14.3019
 179   2.0000      -0.521409       -14.1883
 180   2.0000      -0.519884       -14.1468
 181   2.0000      -0.519471       -14.1355
 182   2.0000      -0.515106       -14.0167
 183   2.0000      -0.514058       -13.9882
 184   2.0000      -0.512074       -13.9342
 185   2.0000      -0.511322       -13.9138
 186   2.0000      -0.508633       -13.8406
 187   2.0000      -0.507563       -13.8115
 188   2.0000      -0.504625       -13.7315
 189   2.0000      -0.502905       -13.6847
 190   2.0000      -0.501452       -13.6452
 191   2.0000      -0.499974       -13.6050
 192   2.0000      -0.495199       -13.4750
 193   2.0000      -0.494588       -13.4584
 194   2.0000      -0.489307       -13.3147
 195   2.0000      -0.487465       -13.2646
 196   2.0000      -0.485615       -13.2143
 197   2.0000      -0.484521       -13.1845
 198   2.0000      -0.483239       -13.1496
 199   2.0000      -0.480361       -13.0713
 200   2.0000      -0.477818       -13.0021
 201   2.0000      -0.466390       -12.6911
 202   2.0000      -0.465212       -12.6591
 203   2.0000      -0.462700       -12.5907
 204   2.0000      -0.459961       -12.5162
 205   2.0000      -0.456836       -12.4311
 206   2.0000      -0.456081       -12.4106
 207   2.0000      -0.453495       -12.3402
 208   2.0000      -0.448068       -12.1926
 209   2.0000      -0.446740       -12.1564
 210   2.0000      -0.446183       -12.1412
 211   2.0000      -0.445938       -12.1346
 212   2.0000      -0.443056       -12.0562
 213   2.0000      -0.442669       -12.0456
 214   2.0000      -0.442102       -12.0302
 215   2.0000      -0.440733       -11.9930
 216   2.0000      -0.439594       -11.9620
 217   2.0000      -0.436636       -11.8815
 218   2.0000      -0.433395       -11.7933
 219   2.0000      -0.432912       -11.7801
 220   2.0000      -0.431751       -11.7485
 221   2.0000      -0.431232       -11.7344
 222   2.0000      -0.429392       -11.6844
 223   2.0000      -0.425509       -11.5787
 224   2.0000      -0.424501       -11.5513
 225   2.0000      -0.423651       -11.5281
 226   2.0000      -0.418055       -11.3759
 227   2.0000      -0.417696       -11.3661
 228   2.0000      -0.416895       -11.3443
 229   2.0000      -0.416083       -11.3222
 230   2.0000      -0.412708       -11.2303
 231   2.0000      -0.407672       -11.0933
 232   2.0000      -0.406840       -11.0707
 233   2.0000      -0.402040       -10.9401
 234   2.0000      -0.398994       -10.8572
 235   2.0000      -0.396433       -10.7875
 236   2.0000      -0.395138       -10.7522
 237   2.0000      -0.390067       -10.6143
 238   2.0000      -0.383757       -10.4426
 239   2.0000      -0.377624       -10.2757
 240   2.0000      -0.376539       -10.2462
 241   2.0000      -0.375661       -10.2223
 242   2.0000      -0.370408       -10.0793
 243   2.0000      -0.357044        -9.7157
 244   2.0000      -0.349836        -9.5195
 245   2.0000      -0.344539        -9.3754
 246   2.0000      -0.342936        -9.3318
 247   2.0000      -0.341443        -9.2911
 248   2.0000      -0.339826        -9.2471
 249   2.0000      -0.325425        -8.8553
 250   2.0000      -0.322399        -8.7729
 251   2.0000      -0.319979        -8.7071
 252   2.0000      -0.316850        -8.6219
 253   2.0000      -0.313925        -8.5423
 254   2.0000      -0.297784        -8.1031
 255   2.0000      -0.294282        -8.0078
 256   2.0000      -0.286630        -7.7996
 257   2.0000      -0.265946        -7.2368
 258   0.0000      -0.125425        -3.4130
 259   0.0000      -0.091179        -2.4811
 260   0.0000      -0.089051        -2.4232
 261   0.0000      -0.058618        -1.5951
 262   0.0000      -0.058146        -1.5822

MULLIKEN ATOMIC CHARGES
-----------------------
   0 C :    0.291621
   1 C :   -0.333961
   2 C :   -0.184803
   3 N :    0.151188
   4 C :   -0.207286
   5 N :    0.165637
   6 C :    0.054797
   7 C :   -0.011282
   8 C :   -0.077748
   9 C :    0.097374
  10 C :    0.094555
  11 C :   -0.081697
  12 C :   -0.017695
  13 C :    0.036617
  14 C :    0.034230
  15 C :   -0.017157
  16 C :    0.151820
  17 O :   -0.145376
  18 C :   -0.080937
  19 C :   -0.037987
  20 C :    0.023377
  21 C :    0.031113
  22 C :   -0.010813
  23 C :   -0.040742
  24 C :    0.016245
  25 C :   -0.016687
  26 N :   -0.052460
  27 N :   -0.069764
  28 N :   -0.054164
  29 C :    0.139069
  30 C :    0.132899
  31 C :   -0.087826
  32 C :   -0.061034
  33 N :    0.056418
  34 C :   -0.128371
  35 C :   -0.138320
  36 N :    0.073311
  37 C :   -0.190049
  38 N :    0.211309
  39 C :   -0.203348
  40 N :    0.233588
  41 C :    0.118360
  42 C :   -0.017182
  43 C :    0.000146
  44 N :   -0.280219
  45 S :    0.552860
  46 N :   -0.258147
  47 C :   -0.045235
  48 C :    0.008940
  49 C :    0.027636
  50 C :    0.030733
  51 C :   -0.020507
  52 C :    0.005972
  53 N :   -0.033274
  54 N :   -0.075924
  55 N :   -0.057737
  56 C :    0.146650
  57 C :   -0.045821
  58 C :   -0.078181
  59 C :    0.300468
  60 C :   -0.337110
  61 C :   -0.185756
  62 N :    0.151427
  63 C :   -0.204945
  64 N :    0.164933
  65 C :    0.053928
  66 C :   -0.010578
  67 C :    0.152334
  68 O :   -0.145608
  69 C :   -0.080484
  70 C :    0.099148
  71 C :    0.097240
  72 C :   -0.083977
  73 C :   -0.018660
  74 C :    0.037126
  75 C :    0.036050
  76 C :   -0.016536
  77 H :   -0.013535
  78 H :   -0.007110
  79 H :   -0.007889
  80 H :   -0.004954
  81 H :   -0.004042
  82 H :   -0.017586
  83 H :    0.044367
  84 H :   -0.006853
  85 H :   -0.013890
  86 H :    0.056334
  87 H :    0.065819
  88 H :    0.050170
  89 H :   -0.018300
  90 H :   -0.004257
  91 H :    0.048886
  92 H :    0.061151
  93 H :    0.054606
  94 H :    0.042831
  95 H :   -0.014226
  96 H :   -0.008639
  97 H :   -0.008653
  98 H :   -0.004975
  99 H :   -0.004887
 100 H :   -0.018103
Sum of atomic charges:   -0.0000000

LOEWDIN ATOMIC CHARGES
----------------------
   0 C :    0.074794
   1 C :   -0.134270
   2 C :   -0.016770
   3 N :   -0.052659
   4 C :   -0.026008
   5 N :   -0.046274
   6 C :   -0.025860
   7 C :   -0.055440
   8 C :    0.031782
   9 C :   -0.008316
  10 C :   -0.006001
  11 C :    0.019390
  12 C :   -0.005346
  13 C :   -0.013277
  14 C :   -0.012608
  15 C :   -0.009984
  16 C :    0.083613
  17 O :   -0.136226
  18 C :   -0.084674
  19 C :    0.085674
  20 C :   -0.039173
  21 C :    0.027168
  22 C :   -0.000314
  23 C :   -0.008946
  24 C :   -0.043032
  25 C :   -0.041058
  26 N :   -0.094936
  27 N :    0.164274
  28 N :   -0.087035
  29 C :    0.032772
  30 C :   -0.003062
  31 C :   -0.003376
  32 C :   -0.004932
  33 N :    0.003692
  34 C :   -0.027437
  35 C :   -0.031737
  36 N :    0.027472
  37 C :   -0.029766
  38 N :   -0.017324
  39 C :   -0.036732
  40 N :   -0.004290
  41 C :   -0.001825
  42 C :   -0.038274
  43 C :   -0.036391
  44 N :   -0.286156
  45 S :    0.691804
  46 N :   -0.264960
  47 C :   -0.004978
  48 C :    0.002522
  49 C :    0.030532
  50 C :   -0.041076
  51 C :   -0.038627
  52 C :   -0.047866
  53 N :   -0.080088
  54 N :    0.159545
  55 N :   -0.098177
  56 C :    0.033695
  57 C :    0.085435
  58 C :   -0.084938
  59 C :    0.074910
  60 C :   -0.134313
  61 C :   -0.016420
  62 N :   -0.052884
  63 C :   -0.025752
  64 N :   -0.045553
  65 C :   -0.026179
  66 C :   -0.055667
  67 C :    0.083487
  68 O :   -0.136755
  69 C :    0.032066
  70 C :   -0.008178
  71 C :   -0.005836
  72 C :    0.019517
  73 C :   -0.005224
  74 C :   -0.013186
  75 C :   -0.012392
  76 C :   -0.009718
  77 H :    0.038481
  78 H :    0.039084
  79 H :    0.034980
  80 H :    0.033182
  81 H :    0.032926
  82 H :    0.031722
  83 H :    0.050192
  84 H :    0.035339
  85 H :    0.032308
  86 H :    0.044243
  87 H :    0.044475
  88 H :    0.041050
  89 H :    0.032670
  90 H :    0.036646
  91 H :    0.040967
  92 H :    0.044949
  93 H :    0.041246
  94 H :    0.049798
  95 H :    0.038428
  96 H :    0.038841
  97 H :    0.034862
  98 H :    0.033193
  99 H :    0.032889
 100 H :    0.031662

  Mayer bond orders larger than 0.100000
B(  0-C ,  1-C ) :   1.6560 B(  0-C ,  6-C ) :   0.9939 B(  0-C , 18-C ) :   1.0427
B(  1-C ,  2-C ) :   1.1428 B(  1-C ,  4-C ) :   1.1372 B(  2-C ,  3-N ) :   2.9718
B(  4-C ,  5-N ) :   3.0004 B(  6-C ,  7-C ) :   1.2126 B(  6-C , 11-C ) :   1.4484
B(  7-C ,  8-C ) :   1.4709 B(  7-C , 16-C ) :   0.9486 B(  8-C ,  9-C ) :   1.1828
B(  8-C , 77-H ) :   1.0160 B(  9-C , 10-C ) :   1.2572 B(  9-C , 15-C ) :   1.2413
B( 10-C , 11-C ) :   1.2054 B( 10-C , 12-C ) :   1.2400 B( 11-C , 78-H ) :   0.9917
B( 12-C , 13-C ) :   1.4888 B( 12-C , 79-H ) :   0.9978 B( 13-C , 14-C ) :   1.2596
B( 13-C , 80-H ) :   0.9891 B( 14-C , 15-C ) :   1.4905 B( 14-C , 81-H ) :   0.9886
B( 15-C , 82-H ) :   0.9981 B( 16-C , 17-O ) :   2.2218 B( 16-C , 18-C ) :   0.9298
B( 18-C , 19-C ) :   1.6220 B( 19-C , 20-C ) :   1.1214 B( 19-C , 83-H ) :   0.9485
B( 20-C , 21-C ) :   1.4097 B( 20-C , 23-C ) :   0.1066 B( 20-C , 25-C ) :   1.1769
B( 21-C , 22-C ) :   1.2659 B( 21-C , 84-H ) :   0.9815 B( 22-C , 23-C ) :   1.4587
B( 22-C , 85-H ) :   0.9885 B( 23-C , 24-C ) :   1.2272 B( 23-C , 30-C ) :   1.0021
B( 24-C , 25-C ) :   1.2329 B( 24-C , 28-N ) :   1.4335 B( 25-C , 26-N ) :   1.4806
B( 26-N , 27-N ) :   1.2331 B( 26-N , 28-N ) :   0.1632 B( 27-N , 28-N ) :   1.2394
B( 27-N , 29-C ) :   0.9500 B( 29-C , 86-H ) :   0.9654 B( 29-C , 87-H ) :   0.9652
B( 29-C , 88-H ) :   0.9685 B( 30-C , 31-C ) :   1.3186 B( 30-C , 41-C ) :   0.1391
B( 30-C , 43-C ) :   1.2465 B( 31-C , 32-C ) :   1.0905 B( 31-C , 36-N ) :   1.4144
B( 32-C , 33-N ) :   1.4171 B( 32-C , 41-C ) :   1.3208 B( 33-N , 34-C ) :   1.7618
B( 34-C , 35-C ) :   1.1716 B( 34-C , 39-C ) :   1.1464 B( 35-C , 36-N ) :   1.7412
B( 35-C , 37-C ) :   1.1572 B( 37-C , 38-N ) :   3.0037 B( 39-C , 40-N ) :   3.0484
B( 41-C , 42-C ) :   1.2688 B( 41-C , 47-C ) :   0.9707 B( 42-C , 43-C ) :   1.0919
B( 42-C , 46-N ) :   1.4860 B( 43-C , 44-N ) :   1.4919 B( 44-N , 45-S ) :   1.2930
B( 44-N , 46-N ) :   0.1574 B( 45-S , 46-N ) :   1.3143 B( 47-C , 48-C ) :   1.4688
B( 47-C , 50-C ) :   0.1067 B( 47-C , 52-C ) :   1.2424 B( 48-C , 49-C ) :   1.2626
B( 48-C , 89-H ) :   0.9923 B( 49-C , 50-C ) :   1.4170 B( 49-C , 90-H ) :   0.9812
B( 50-C , 51-C ) :   1.1740 B( 50-C , 57-C ) :   1.1188 B( 51-C , 52-C ) :   1.2252
B( 51-C , 55-N ) :   1.4858 B( 52-C , 53-N ) :   1.4534 B( 53-N , 54-N ) :   1.2502
B( 53-N , 55-N ) :   0.1649 B( 54-N , 55-N ) :   1.2098 B( 54-N , 56-C ) :   0.9523
B( 56-C , 91-H ) :   0.9671 B( 56-C , 92-H ) :   0.9688 B( 56-C , 93-H ) :   0.9696
B( 57-C , 58-C ) :   1.6224 B( 57-C , 94-H ) :   0.9462 B( 58-C , 59-C ) :   1.0433
B( 58-C , 67-C ) :   0.9303 B( 59-C , 60-C ) :   1.6525 B( 59-C , 65-C ) :   0.9929
B( 60-C , 61-C ) :   1.1440 B( 60-C , 63-C ) :   1.1377 B( 61-C , 62-N ) :   2.9699
B( 63-C , 64-N ) :   2.9950 B( 65-C , 66-C ) :   1.2115 B( 65-C , 72-C ) :   1.4478
B( 66-C , 67-C ) :   0.9471 B( 66-C , 69-C ) :   1.4729 B( 67-C , 68-O ) :   2.2220
B( 69-C , 70-C ) :   1.1813 B( 69-C , 95-H ) :   1.0152 B( 70-C , 71-C ) :   1.2559
B( 70-C , 76-C ) :   1.2435 B( 71-C , 72-C ) :   1.2077 B( 71-C , 73-C ) :   1.2389
B( 72-C , 96-H ) :   0.9901 B( 73-C , 74-C ) :   1.4918 B( 73-C , 97-H ) :   0.9969
B( 74-C , 75-C ) :   1.2588 B( 74-C , 98-H ) :   0.9882 B( 75-C , 76-C ) :   1.4912
B( 75-C , 99-H ) :   0.9879 B( 76-C ,100-H ) :   0.9971

-----------------------------------------------------------------------------
         ABSORPTION SPECTRUM VIA TRANSITION ELECTRIC DIPOLE MOMENTS
-----------------------------------------------------------------------------
State   Energy  Wavelength   fosc         T2         TX        TY        TZ
        (cm-1)    (nm)                  (au**2)     (au)      (au)      (au)
-----------------------------------------------------------------------------
   0   14102.7    709.1   0.767376735  17.91358   2.83712  -3.10582  -0.46712
   1   19315.6    517.7   0.039575130   0.67451  -0.81257   0.00691  -0.11911
   2   22432.1    445.8   0.929277383  13.63798  -2.33097   2.82354   0.48183
   3   23078.8    433.3   0.085107106   1.21402  -1.07364   0.24141   0.05517
   4   23738.8    421.3   0.039166845   0.54317   0.50693   0.52412   0.10723
   5   25012.3    399.8   0.066745221   0.87850   0.57282  -0.63910  -0.37674
   6   25394.4    393.8   0.024666386   0.31977  -0.16135  -0.37459   0.39169
   7   25716.3    388.9   0.027707331   0.35470   0.47981   0.34845   0.05540
   8   25871.7    386.5   0.003467571   0.04412  -0.13855  -0.15736  -0.01287
   9   26927.7    371.4   0.020784519   0.25411  -0.36705  -0.31236  -0.14769
  10   27581.1    362.6   0.018108414   0.21615   0.36487  -0.28602  -0.03476
  11   27734.9    360.6   0.055443790   0.65811  -0.45921   0.66639   0.05623
  12   28124.1    355.6   0.018836630   0.22050   0.24715  -0.15367   0.36851
  13   28494.9    350.9   0.021418865   0.24746  -0.37192   0.32048   0.08021
  14   28861.8    346.5   0.009065497   0.10341  -0.12817  -0.09081  -0.28059
  15   29330.4    340.9   0.007481005   0.08397   0.26418  -0.08084  -0.08741
  16   29726.7    336.4   0.073916482   0.81860   0.55624   0.57188   0.42679
  17   29966.1    333.7   0.003250432   0.03571   0.17740   0.04173   0.04998
  18   30128.8    331.9   0.207834494   2.27097  -1.06076  -1.06384  -0.11831
  19   30415.4    328.8   0.025553903   0.27659   0.15329   0.50229   0.02836
  20   30873.7    323.9   0.034621599   0.36918   0.06553  -0.60319  -0.03237
  21   31141.0    321.1   0.366559607   3.87514   1.64438   0.73797  -0.79155
  22   31392.2    318.6   0.070727923   0.74173  -0.09895   0.81782  -0.25121
  23   31898.8    313.5   0.081381877   0.83990   0.22620  -0.77969   0.42523
  24   32185.0    310.7   0.009544711   0.09763  -0.23848   0.16383   0.11797
  25   32666.0    306.1   0.204159848   2.05755  -0.28389   0.27983  -1.37792
  26   33036.5    302.7   0.143904593   1.43402   0.68222   0.23311   0.95617
  27   33315.9    300.2   0.158018670   1.56147  -0.26298  -0.22881   1.19998
  28   33728.6    296.5   0.388598046   3.79296   0.21493   1.58135   1.11629
  29   34110.5    293.2   0.238922774   2.30593   1.47466   0.35103   0.08993
  30   34268.7    291.8   0.078534853   0.75447  -0.27571  -0.34258   0.74906
  31   34650.7    288.6   0.425880913   4.04624  -1.68942  -1.06356   0.24684
  32   34826.5    287.1   0.243796956   2.30460  -0.39704  -1.07388   0.99686
  33   35115.6    284.8   0.026459524   0.24806   0.30672  -0.11019   0.37662
  34   35232.7    283.8   0.325484026   3.04130  -1.07719  -1.36392   0.14375
  35   35397.2    282.5   0.225502552   2.09729  -1.32560  -0.52356   0.25685
  36   35549.0    281.3   0.124350246   1.15158   0.01289   1.00170  -0.38472
  37   35744.6    279.8   0.067843584   0.62485   0.35176   0.23499  -0.66775
  38   36102.1    277.0   0.060679094   0.55333  -0.33782   0.12924   0.65000
  39   36318.3    275.3   0.049532877   0.44900  -0.38475   0.52644   0.15435
  40   36472.7    274.2   0.075928132   0.68535   0.76163   0.14927   0.28806
  41   36567.9    273.5   0.032560127   0.29313   0.40405  -0.27828   0.22899
  42   37397.9    267.4   0.083920968   0.73875  -0.32503  -0.52515  -0.59777
  43   37599.4    266.0   0.101472055   0.88847  -0.40344  -0.64450   0.55707
  44   37970.8    263.4   0.043101830   0.37370  -0.31264  -0.52387  -0.03898
  45   38175.1    262.0   0.020095001   0.17329   0.06242   0.10493   0.39798
  46   38594.7    259.1   0.041859342   0.35706   0.33480   0.31676  -0.38030
  47   38602.8    259.0   0.027922141   0.23813   0.09712   0.42907  -0.21116
  48   38802.2    257.7   0.114476538   0.97126   0.31605   0.91650  -0.17722
  49   38907.9    257.0   0.041404804   0.35034  -0.06557   0.54992  -0.20887
  50   39105.7    255.7   0.037395844   0.31482   0.42304   0.25083   0.27007
  51   39279.8    254.6   0.050689182   0.42484  -0.62263   0.19277   0.00150
  52   39583.5    252.6   0.094518403   0.78610  -0.83825   0.17229   0.23186
  53   39966.3    250.2   0.017233796   0.14196   0.15179  -0.34311   0.03454
  54   40249.0    248.5   0.192931687   1.57806   1.03181  -0.54496  -0.46524

FINAL SINGLE POINT ENERGY     -3644.914398486595

DIPOLE MOMENT
-------------
                                X             Y             Z
Electronic contribution:     17.47581      16.23665      -2.09203
Nuclear contribution   :    -20.60346     -18.58318       0.20329
                        -----------------------------------------
Total Dipole Moment    :     -3.12765      -2.34652      -1.88875
                        -----------------------------------------
Magnitude (a.u.)       :      4.34232
Magnitude (Debye)      :     11.03731

Rotational constants in cm-1:     0.001590     0.000274     0.000257
Rotational constants in MHz :    47.675232     8.201939     7.705222

                             ****ORCA TERMINATED NORMALLY****
TOTAL RUN TIME: 0 days 0 hours 11 minutes 9 seconds 356 msec
