                         Program Version 4.2.0 -  RELEASE  -
|  1> # ORCA input file
|  2> # SCF done       -223.947666102158          0.000441272918
|  3> ! CAM-B3LYP def2-SVP def2/J RIJCOSX Grid4 TightSCF
|  4> %maxcore 5000
|  5> %tddft
|  6>     Mode sTDDFT
|  7>     Ethresh 5.0
|  8>     maxcore 5000
|  9> end
| 10>
| 11> %pal
| 12>   nprocs 6
| 13>   end
| 14> * xyz 0 1
| 15>    C       -1.77516        -0.97218         2.80527
| 16>    C       -1.07946         0.21005         2.59643
| 17>    F       -1.53172         1.33505         3.16115
| 18>    C        0.07385         0.25332         1.81292
| 19>    F        0.71431         1.41541         1.64016
| 20>    C        0.56189        -0.89541         1.21027
| 21>    C       -0.12834        -2.07189         1.42172
| 22>    C       -1.29013        -2.12585         2.21024
| 23>    C       -1.77464        -3.50676         2.23872
| 24>    C       -2.84546        -3.95636         2.96483
| 25>    C       -3.67512        -3.12510         3.74828
| 26>    N       -4.38899        -2.50373         4.39693
| 27>    C       -3.26409        -5.30144         3.05490
| 28>    N       -3.65540        -6.37208         3.19259
| 29>    C       -0.87487        -4.30073         1.42589
| 30>    C        0.16070        -3.41559         0.87874
| 31>    O        1.02294        -3.69631         0.06559
| 32>    C       -1.04660        -5.62554         1.09715
| 33>    C       -0.13504        -6.49867         0.49104
| 34>    S       -0.77859        -7.97767        -0.20622
| 35>    C        0.78244        -8.56345        -0.69215
| 36>    C        1.78302        -7.68079        -0.25240
| 37>    C        1.25741        -6.52221         0.38548
| 38>    S        2.49227        -5.49562         0.99797
| 39>    C        3.70286        -6.61850         0.43936
| 40>    C        5.12793        -6.35376         0.67367
| 41>    O        6.01036        -7.12006         0.37694
| 42>    O        5.30157        -5.17262         1.27180
| 43>    C        6.64750        -4.77286         1.53797
| 44>    C        7.29768        -4.16081         0.30606
| 45>    C        3.19452        -7.70601        -0.21035
| 46>    C        0.86813        -9.76197        -1.42426
| 47>    C        1.98563       -10.17165        -2.09182
| 48>    C        2.11901       -11.37482        -2.82141
| 49>    C        3.32473       -11.61889        -3.53375
| 50>    C        3.53649       -12.82300        -4.28640
| 51>    N        4.68417       -13.00034        -4.94307
| 52>    C        5.61677       -12.07734        -4.90790
| 53>    C        5.40265       -10.87743        -4.15995
| 54>    N        4.28503       -10.68410        -3.50195
| 55>    C        6.40299        -9.87120        -4.13407
| 56>    N        7.22592        -9.07554        -4.14571
| 57>    C        6.82333       -12.28794        -5.61922
| 58>    N        7.80662       -12.43226        -6.18823
| 59>    C        2.56844       -13.86092        -4.37200
| 60>    C        1.36483       -13.61145        -3.67150
| 61>    C        1.14446       -12.39853        -2.91438
| 62>    N       -0.06002       -12.39659        -2.34378
| 63>    S       -0.83610       -13.75259        -2.71021
| 64>    N        0.31043       -14.41931        -3.61335
| 65>    C        2.84871       -15.03237        -5.10921
| 66>    S        4.37938       -15.19440        -5.93329
| 67>    C        3.99828       -16.78847        -6.53947
| 68>    C        2.72008       -17.17880        -6.11086
| 69>    C        2.08809       -16.18957        -5.30781
| 70>    S        0.53959       -16.70529        -4.74427
| 71>    C        0.74980       -18.23111        -5.55975
| 72>    C       -0.29024       -19.26241        -5.43027
| 73>    O       -1.30282       -19.12185        -4.79065
| 74>    O        0.05489       -20.37028        -6.09308
| 75>    C       -0.84345       -21.48179        -6.02105
| 76>    C       -1.98395       -21.34484        -7.01858
| 77>    C        1.92570       -18.33773        -6.23995
| 78>    C        4.97988       -17.46416        -7.27963
| 79>    C        4.84516       -18.69766        -7.85559
| 80>    C        5.89853       -19.35353        -8.51260
| 81>    C        5.88538       -20.63725        -8.99221
| 82>    C        6.89214       -21.06575        -9.99593
| 83>    O        7.90846       -20.48950       -10.30220
| 84>    C        6.34858       -22.31788       -10.57364
| 85>    C        5.16189       -22.66705        -9.90393
| 86>    C        4.45564       -23.79616       -10.28530
| 87>    C        4.95790       -24.55350       -11.33345
| 88>    C        6.14147       -24.20647       -11.98656
| 89>    C        6.85252       -23.07755       -11.61047
| 90>    F        6.59239       -24.97088       -12.98682
| 91>    F        4.28737       -25.64188       -11.72465
| 92>    C        4.93113       -21.70683        -8.82280
| 93>    C        4.10376       -21.91574        -7.74765
| 94>    C        4.15998       -21.17659        -6.54675
| 95>    N        4.19023       -20.65163        -5.52628
| 96>    C        3.14799       -22.94908        -7.66726
| 97>    N        2.31332       -23.72967        -7.55851
| 98>    H       -2.66318        -0.95055         3.41520
| 99>    H        1.45077        -0.86575         0.60071
|100>    H       -2.01139        -6.06988         1.30797
|101>    H        7.21532        -5.64759         1.87159
|102>    H        6.56893        -4.04553         2.34828
|103>    H        7.37891        -4.90638        -0.48121
|104>    H        8.29300        -3.80750         0.55894
|105>    H        6.70421        -3.32491        -0.05646
|106>    H        3.82902        -8.48077        -0.59783
|107>    H       -0.02705       -10.36530        -1.48293
|108>    H        2.85681        -9.53514        -2.12080
|109>    H       -1.23733       -21.55065        -5.00212
|110>    H       -0.22403       -22.35302        -6.24413
|111>    H       -2.59175       -20.47695        -6.77418
|112>    H       -2.60678       -22.23340        -6.97765
|113>    H       -1.59221       -21.23268        -8.02676
|114>    H        2.18442       -19.22796        -6.77683
|115>    H        5.93586       -16.96042        -7.35662
|116>    H        3.88609       -19.18619        -7.82550
|117>    H        6.79694       -18.78503        -8.72701
|118>    H        3.53734       -24.10371        -9.81176
|119>    H        7.76797       -22.80851       -12.11291
|120> *
|121>
|122>                          ****END OF INPUT****

CARTESIAN COORDINATES (ANGSTROEM)
---------------------------------
  C     -1.775160   -0.972180    2.805270
  C     -1.079460    0.210050    2.596430
  F     -1.531720    1.335050    3.161150
  C      0.073850    0.253320    1.812920
  F      0.714310    1.415410    1.640160
  C      0.561890   -0.895410    1.210270
  C     -0.128340   -2.071890    1.421720
  C     -1.290130   -2.125850    2.210240
  C     -1.774640   -3.506760    2.238720
  C     -2.845460   -3.956360    2.964830
  C     -3.675120   -3.125100    3.748280
  N     -4.388990   -2.503730    4.396930
  C     -3.264090   -5.301440    3.054900
  N     -3.655400   -6.372080    3.192590
  C     -0.874870   -4.300730    1.425890
  C      0.160700   -3.415590    0.878740
  O      1.022940   -3.696310    0.065590
  C     -1.046600   -5.625540    1.097150
  C     -0.135040   -6.498670    0.491040
  S     -0.778590   -7.977670   -0.206220
  C      0.782440   -8.563450   -0.692150
  C      1.783020   -7.680790   -0.252400
  C      1.257410   -6.522210    0.385480
  S      2.492270   -5.495620    0.997970
  C      3.702860   -6.618500    0.439360
  C      5.127930   -6.353760    0.673670
  O      6.010360   -7.120060    0.376940
  O      5.301570   -5.172620    1.271800
  C      6.647500   -4.772860    1.537970
  C      7.297680   -4.160810    0.306060
  C      3.194520   -7.706010   -0.210350
  C      0.868130   -9.761970   -1.424260
  C      1.985630  -10.171650   -2.091820
  C      2.119010  -11.374820   -2.821410
  C      3.324730  -11.618890   -3.533750
  C      3.536490  -12.823000   -4.286400
  N      4.684170  -13.000340   -4.943070
  C      5.616770  -12.077340   -4.907900
  C      5.402650  -10.877430   -4.159950
  N      4.285030  -10.684100   -3.501950
  C      6.402990   -9.871200   -4.134070
  N      7.225920   -9.075540   -4.145710
  C      6.823330  -12.287940   -5.619220
  N      7.806620  -12.432260   -6.188230
  C      2.568440  -13.860920   -4.372000
  C      1.364830  -13.611450   -3.671500
  C      1.144460  -12.398530   -2.914380
  N     -0.060020  -12.396590   -2.343780
  S     -0.836100  -13.752590   -2.710210
  N      0.310430  -14.419310   -3.613350
  C      2.848710  -15.032370   -5.109210
  S      4.379380  -15.194400   -5.933290
  C      3.998280  -16.788470   -6.539470
  C      2.720080  -17.178800   -6.110860
  C      2.088090  -16.189570   -5.307810
  S      0.539590  -16.705290   -4.744270
  C      0.749800  -18.231110   -5.559750
  C     -0.290240  -19.262410   -5.430270
  O     -1.302820  -19.121850   -4.790650
  O      0.054890  -20.370280   -6.093080
  C     -0.843450  -21.481790   -6.021050
  C     -1.983950  -21.344840   -7.018580
  C      1.925700  -18.337730   -6.239950
  C      4.979880  -17.464160   -7.279630
  C      4.845160  -18.697660   -7.855590
  C      5.898530  -19.353530   -8.512600
  C      5.885380  -20.637250   -8.992210
  C      6.892140  -21.065750   -9.995930
  O      7.908460  -20.489500  -10.302200
  C      6.348580  -22.317880  -10.573640
  C      5.161890  -22.667050   -9.903930
  C      4.455640  -23.796160  -10.285300
  C      4.957900  -24.553500  -11.333450
  C      6.141470  -24.206470  -11.986560
  C      6.852520  -23.077550  -11.610470
  F      6.592390  -24.970880  -12.986820
  F      4.287370  -25.641880  -11.724650
  C      4.931130  -21.706830   -8.822800
  C      4.103760  -21.915740   -7.747650
  C      4.159980  -21.176590   -6.546750
  N      4.190230  -20.651630   -5.526280
  C      3.147990  -22.949080   -7.667260
  N      2.313320  -23.729670   -7.558510
  H     -2.663180   -0.950550    3.415200
  H      1.450770   -0.865750    0.600710
  H     -2.011390   -6.069880    1.307970
  H      7.215320   -5.647590    1.871590
  H      6.568930   -4.045530    2.348280
  H      7.378910   -4.906380   -0.481210
  H      8.293000   -3.807500    0.558940
  H      6.704210   -3.324910   -0.056460
  H      3.829020   -8.480770   -0.597830
  H     -0.027050  -10.365300   -1.482930
  H      2.856810   -9.535140   -2.120800
  H     -1.237330  -21.550650   -5.002120
  H     -0.224030  -22.353020   -6.244130
  H     -2.591750  -20.476950   -6.774180
  H     -2.606780  -22.233400   -6.977650
  H     -1.592210  -21.232680   -8.026760
  H      2.184420  -19.227960   -6.776830
  H      5.935860  -16.960420   -7.356620
  H      3.886090  -19.186190   -7.825500
  H      6.796940  -18.785030   -8.727010
  H      3.537340  -24.103710   -9.811760
  H      7.767970  -22.808510  -12.112910

 Total Charge           Charge          ....    0
 Multiplicity           Mult            ....    1
 Number of Electrons    NEL             ....  604
 Basis Dimension        Dim             .... 1292

ORBITAL ENERGIES
----------------

  NO   OCC          E(Eh)            E(eV)
   0   2.0000     -89.063534     -2423.5420
   1   2.0000     -88.987745     -2421.4796
   2   2.0000     -88.985072     -2421.4069
   3   2.0000     -88.975543     -2421.1476
   4   2.0000     -88.971515     -2421.0380
   5   2.0000     -24.809089      -675.0896
   6   2.0000     -24.808757      -675.0806
   7   2.0000     -24.802106      -674.8996
   8   2.0000     -24.799973      -674.8416
   9   2.0000     -19.265856      -524.2506
  10   2.0000     -19.264183      -524.2051
  11   2.0000     -19.228297      -523.2285
  12   2.0000     -19.221810      -523.0521
  13   2.0000     -19.212111      -522.7881
  14   2.0000     -19.208709      -522.6955
  15   2.0000     -14.484142      -394.1335
  16   2.0000     -14.479154      -393.9978
  17   2.0000     -14.475796      -393.9064
  18   2.0000     -14.471024      -393.7766
  19   2.0000     -14.445070      -393.0703
  20   2.0000     -14.441029      -392.9604
  21   2.0000     -14.431049      -392.6888
  22   2.0000     -14.427510      -392.5925
  23   2.0000     -14.420529      -392.4025
  24   2.0000     -14.418129      -392.3372
  25   2.0000     -10.412334      -283.3340
  26   2.0000     -10.409977      -283.2699
  27   2.0000     -10.400773      -283.0194
  28   2.0000     -10.399229      -282.9774
  29   2.0000     -10.395413      -282.8736
  30   2.0000     -10.394684      -282.8537
  31   2.0000     -10.386632      -282.6346
  32   2.0000     -10.385632      -282.6074
  33   2.0000     -10.379383      -282.4374
  34   2.0000     -10.369679      -282.1733
  35   2.0000     -10.367664      -282.1185
  36   2.0000     -10.367212      -282.1062
  37   2.0000     -10.367166      -282.1049
  38   2.0000     -10.362692      -281.9832
  39   2.0000     -10.358691      -281.8743
  40   2.0000     -10.356879      -281.8250
  41   2.0000     -10.347554      -281.5713
  42   2.0000     -10.347452      -281.5685
  43   2.0000     -10.346445      -281.5411
  44   2.0000     -10.346320      -281.5377
  45   2.0000     -10.343091      -281.4498
  46   2.0000     -10.338455      -281.3237
  47   2.0000     -10.335015      -281.2301
  48   2.0000     -10.333639      -281.1926
  49   2.0000     -10.333519      -281.1893
  50   2.0000     -10.331912      -281.1456
  51   2.0000     -10.331207      -281.1264
  52   2.0000     -10.329746      -281.0867
  53   2.0000     -10.328466      -281.0519
  54   2.0000     -10.327406      -281.0230
  55   2.0000     -10.327333      -281.0210
  56   2.0000     -10.326949      -281.0106
  57   2.0000     -10.326441      -280.9967
  58   2.0000     -10.326113      -280.9878
  59   2.0000     -10.325704      -280.9767
  60   2.0000     -10.323996      -280.9302
  61   2.0000     -10.323165      -280.9076
  62   2.0000     -10.320776      -280.8426
  63   2.0000     -10.317953      -280.7658
  64   2.0000     -10.317543      -280.7546
  65   2.0000     -10.316491      -280.7260
  66   2.0000     -10.314631      -280.6754
  67   2.0000     -10.314500      -280.6718
  68   2.0000     -10.312028      -280.6045
  69   2.0000     -10.311387      -280.5871
  70   2.0000     -10.309950      -280.5480
  71   2.0000     -10.309480      -280.5352
  72   2.0000     -10.308924      -280.5201
  73   2.0000     -10.308786      -280.5163
  74   2.0000     -10.308273      -280.5024
  75   2.0000     -10.307546      -280.4826
  76   2.0000     -10.306615      -280.4573
  77   2.0000     -10.302797      -280.3534
  78   2.0000     -10.301622      -280.3214
  79   2.0000     -10.301179      -280.3093
  80   2.0000     -10.299478      -280.2630
  81   2.0000     -10.262066      -279.2450
  82   2.0000     -10.261732      -279.2359
  83   2.0000      -8.154687      -221.9003
  84   2.0000      -8.080669      -219.8862
  85   2.0000      -8.080371      -219.8781
  86   2.0000      -8.069006      -219.5688
  87   2.0000      -8.065801      -219.4816
  88   2.0000      -6.125865      -166.6932
  89   2.0000      -6.117944      -166.4777
  90   2.0000      -6.117363      -166.4619
  91   2.0000      -6.050250      -164.6357
  92   2.0000      -6.049587      -164.6176
  93   2.0000      -6.045530      -164.5072
  94   2.0000      -6.045490      -164.5062
  95   2.0000      -6.042836      -164.4339
  96   2.0000      -6.042582      -164.4270
  97   2.0000      -6.038738      -164.3224
  98   2.0000      -6.035339      -164.2299
  99   2.0000      -6.034164      -164.1979
 100   2.0000      -6.030826      -164.1071
 101   2.0000      -6.030584      -164.1005
 102   2.0000      -6.027661      -164.0210
 103   2.0000      -1.333022       -36.2734
 104   2.0000      -1.324869       -36.0515
 105   2.0000      -1.317752       -35.8579
 106   2.0000      -1.309602       -35.6361
 107   2.0000      -1.197839       -32.5949
 108   2.0000      -1.196796       -32.5665
 109   2.0000      -1.162629       -31.6367
 110   2.0000      -1.143814       -31.1248
 111   2.0000      -1.142004       -31.0755
 112   2.0000      -1.137017       -30.9398
 113   2.0000      -1.105721       -30.0882
 114   2.0000      -1.103749       -30.0345
 115   2.0000      -1.068930       -29.0871
 116   2.0000      -1.035557       -28.1789
 117   2.0000      -1.033543       -28.1241
 118   2.0000      -1.028615       -27.9900
 119   2.0000      -1.027134       -27.9497
 120   2.0000      -1.023668       -27.8554
 121   2.0000      -1.017573       -27.6896
 122   2.0000      -1.014974       -27.6188
 123   2.0000      -1.014231       -27.5986
 124   2.0000      -1.007698       -27.4209
 125   2.0000      -1.005176       -27.3522
 126   2.0000      -0.997874       -27.1535
 127   2.0000      -0.997079       -27.1319
 128   2.0000      -0.972033       -26.4504
 129   2.0000      -0.969703       -26.3870
 130   2.0000      -0.967755       -26.3340
 131   2.0000      -0.959280       -26.1033
 132   2.0000      -0.943353       -25.6699
 133   2.0000      -0.932819       -25.3833
 134   2.0000      -0.926489       -25.2110
 135   2.0000      -0.917322       -24.9616
 136   2.0000      -0.911789       -24.8111
 137   2.0000      -0.903908       -24.5966
 138   2.0000      -0.891890       -24.2696
 139   2.0000      -0.884123       -24.0582
 140   2.0000      -0.878207       -23.8972
 141   2.0000      -0.875256       -23.8169
 142   2.0000      -0.872201       -23.7338
 143   2.0000      -0.868150       -23.6236
 144   2.0000      -0.858856       -23.3707
 145   2.0000      -0.854146       -23.2425
 146   2.0000      -0.850305       -23.1380
 147   2.0000      -0.837808       -22.7979
 148   2.0000      -0.834043       -22.6955
 149   2.0000      -0.824735       -22.4422
 150   2.0000      -0.822964       -22.3940
 151   2.0000      -0.813990       -22.1498
 152   2.0000      -0.798459       -21.7272
 153   2.0000      -0.785206       -21.3666
 154   2.0000      -0.776290       -21.1239
 155   2.0000      -0.774992       -21.0886
 156   2.0000      -0.764993       -20.8165
 157   2.0000      -0.763866       -20.7859
 158   2.0000      -0.759969       -20.6798
 159   2.0000      -0.750253       -20.4154
 160   2.0000      -0.738436       -20.0939
 161   2.0000      -0.727431       -19.7944
 162   2.0000      -0.725134       -19.7319
 163   2.0000      -0.723703       -19.6930
 164   2.0000      -0.712456       -19.3869
 165   2.0000      -0.710339       -19.3293
 166   2.0000      -0.705584       -19.1999
 167   2.0000      -0.703630       -19.1468
 168   2.0000      -0.697844       -18.9893
 169   2.0000      -0.694991       -18.9117
 170   2.0000      -0.691207       -18.8087
 171   2.0000      -0.688796       -18.7431
 172   2.0000      -0.676503       -18.4086
 173   2.0000      -0.668121       -18.1805
 174   2.0000      -0.662324       -18.0228
 175   2.0000      -0.659309       -17.9407
 176   2.0000      -0.656233       -17.8570
 177   2.0000      -0.651747       -17.7349
 178   2.0000      -0.648454       -17.6453
 179   2.0000      -0.643557       -17.5121
 180   2.0000      -0.640955       -17.4413
 181   2.0000      -0.639832       -17.4107
 182   2.0000      -0.633424       -17.2363
 183   2.0000      -0.632729       -17.2174
 184   2.0000      -0.626861       -17.0578
 185   2.0000      -0.623179       -16.9576
 186   2.0000      -0.616779       -16.7834
 187   2.0000      -0.612988       -16.6803
 188   2.0000      -0.606636       -16.5074
 189   2.0000      -0.600654       -16.3446
 190   2.0000      -0.599897       -16.3240
 191   2.0000      -0.597985       -16.2720
 192   2.0000      -0.597780       -16.2664
 193   2.0000      -0.591108       -16.0849
 194   2.0000      -0.589840       -16.0504
 195   2.0000      -0.587857       -15.9964
 196   2.0000      -0.584717       -15.9110
 197   2.0000      -0.577388       -15.7115
 198   2.0000      -0.576709       -15.6930
 199   2.0000      -0.573066       -15.5939
 200   2.0000      -0.570193       -15.5157
 201   2.0000      -0.568069       -15.4579
 202   2.0000      -0.565950       -15.4003
 203   2.0000      -0.561387       -15.2761
 204   2.0000      -0.557922       -15.1818
 205   2.0000      -0.557603       -15.1731
 206   2.0000      -0.556170       -15.1341
 207   2.0000      -0.553178       -15.0528
 208   2.0000      -0.551715       -15.0129
 209   2.0000      -0.549799       -14.9608
 210   2.0000      -0.547248       -14.8914
 211   2.0000      -0.546054       -14.8589
 212   2.0000      -0.541416       -14.7327
 213   2.0000      -0.538970       -14.6661
 214   2.0000      -0.538091       -14.6422
 215   2.0000      -0.535821       -14.5804
 216   2.0000      -0.534284       -14.5386
 217   2.0000      -0.533249       -14.5105
 218   2.0000      -0.532512       -14.4904
 219   2.0000      -0.525366       -14.2959
 220   2.0000      -0.523705       -14.2507
 221   2.0000      -0.520625       -14.1669
 222   2.0000      -0.519004       -14.1228
 223   2.0000      -0.515959       -14.0400
 224   2.0000      -0.512244       -13.9389
 225   2.0000      -0.510843       -13.9007
 226   2.0000      -0.506555       -13.7841
 227   2.0000      -0.504166       -13.7191
 228   2.0000      -0.503374       -13.6975
 229   2.0000      -0.502770       -13.6811
 230   2.0000      -0.501011       -13.6332
 231   2.0000      -0.498949       -13.5771
 232   2.0000      -0.496695       -13.5157
 233   2.0000      -0.494612       -13.4591
 234   2.0000      -0.490648       -13.3512
 235   2.0000      -0.489806       -13.3283
 236   2.0000      -0.488530       -13.2936
 237   2.0000      -0.487804       -13.2738
 238   2.0000      -0.485658       -13.2154
 239   2.0000      -0.481138       -13.0924
 240   2.0000      -0.472863       -12.8673
 241   2.0000      -0.470564       -12.8047
 242   2.0000      -0.470382       -12.7997
 243   2.0000      -0.469177       -12.7670
 244   2.0000      -0.468412       -12.7461
 245   2.0000      -0.467737       -12.7278
 246   2.0000      -0.467153       -12.7119
 247   2.0000      -0.464442       -12.6381
 248   2.0000      -0.463499       -12.6125
 249   2.0000      -0.462746       -12.5920
 250   2.0000      -0.461747       -12.5648
 251   2.0000      -0.458734       -12.4828
 252   2.0000      -0.458005       -12.4629
 253   2.0000      -0.456789       -12.4299
 254   2.0000      -0.455197       -12.3865
 255   2.0000      -0.454100       -12.3567
 256   2.0000      -0.453633       -12.3440
 257   2.0000      -0.452492       -12.3129
 258   2.0000      -0.450763       -12.2659
 259   2.0000      -0.446980       -12.1629
 260   2.0000      -0.442954       -12.0534
 261   2.0000      -0.442201       -12.0329
 262   2.0000      -0.440499       -11.9866
 263   2.0000      -0.439988       -11.9727
 264   2.0000      -0.437832       -11.9140
 265   2.0000      -0.435226       -11.8431
 266   2.0000      -0.433141       -11.7864
 267   2.0000      -0.432314       -11.7639
 268   2.0000      -0.429518       -11.6878
 269   2.0000      -0.428866       -11.6700
 270   2.0000      -0.426145       -11.5960
 271   2.0000      -0.425712       -11.5842
 272   2.0000      -0.421124       -11.4594
 273   2.0000      -0.419874       -11.4253
 274   2.0000      -0.415985       -11.3195
 275   2.0000      -0.413657       -11.2562
 276   2.0000      -0.411300       -11.1920
 277   2.0000      -0.407409       -11.0862
 278   2.0000      -0.406001       -11.0478
 279   2.0000      -0.400657       -10.9024
 280   2.0000      -0.383477       -10.4349
 281   2.0000      -0.382000       -10.3948
 282   2.0000      -0.381011       -10.3678
 283   2.0000      -0.379815       -10.3353
 284   2.0000      -0.369615       -10.0577
 285   2.0000      -0.367698       -10.0056
 286   2.0000      -0.367412        -9.9978
 287   2.0000      -0.361385        -9.8338
 288   2.0000      -0.361216        -9.8292
 289   2.0000      -0.358941        -9.7673
 290   2.0000      -0.354079        -9.6350
 291   2.0000      -0.351398        -9.5620
 292   2.0000      -0.348749        -9.4899
 293   2.0000      -0.336016        -9.1435
 294   2.0000      -0.331628        -9.0241
 295   2.0000      -0.328684        -8.9439
 296   2.0000      -0.323308        -8.7977
 297   2.0000      -0.322055        -8.7636
 298   2.0000      -0.315693        -8.5905
 299   2.0000      -0.311276        -8.4703
 300   2.0000      -0.280498        -7.6327
 301   2.0000      -0.246216        -6.6999
 302   0.0000      -0.153540        -4.1780
 303   0.0000      -0.105012        -2.8575
 304   0.0000      -0.097806        -2.6614
 305   0.0000      -0.076861        -2.0915
 306   0.0000      -0.074217        -2.0196

MULLIKEN ATOMIC CHARGES
-----------------------
   0 C :   -0.092220
   1 C :    0.234241
   2 F :   -0.165573
   3 C :    0.235920
   4 F :   -0.169101
   5 C :   -0.105725
   6 C :   -0.004646
   7 C :    0.042273
   8 C :    0.304363
   9 C :   -0.345847
  10 C :   -0.192824
  11 N :    0.160856
  12 C :   -0.198897
  13 N :    0.159245
  14 C :   -0.090629
  15 C :    0.127864
  16 O :   -0.166378
  17 C :    0.022138
  18 C :   -0.163288
  19 S :    0.182000
  20 C :   -0.094871
  21 C :    0.118552
  22 C :   -0.000623
  23 S :    0.238194
  24 C :   -0.131901
  25 C :    0.213311
  26 O :   -0.197302
  27 O :   -0.306143
  28 C :    0.169389
  29 C :   -0.027408
  30 C :   -0.024506
  31 C :    0.073721
  32 C :   -0.091851
  33 C :    0.084101
  34 C :   -0.041530
  35 C :   -0.055628
  36 N :   -0.017472
  37 C :   -0.089203
  38 C :   -0.133050
  39 N :    0.057279
  40 C :   -0.219706
  41 N :    0.253004
  42 C :   -0.236359
  43 N :    0.252745
  44 C :    0.185420
  45 C :    0.021139
  46 C :    0.024145
  47 N :   -0.294100
  48 S :    0.575474
  49 N :   -0.317186
  50 C :   -0.235586
  51 S :    0.199247
  52 C :   -0.077759
  53 C :    0.138916
  54 C :   -0.027660
  55 S :    0.211764
  56 C :   -0.135352
  57 C :    0.217899
  58 O :   -0.202030
  59 O :   -0.301997
  60 C :    0.172190
  61 C :   -0.026963
  62 C :    0.020334
  63 C :    0.062647
  64 C :    0.025559
  65 C :    0.027739
  66 C :   -0.108629
  67 C :    0.141884
  68 O :   -0.130652
  69 C :   -0.004242
  70 C :    0.038742
  71 C :   -0.090558
  72 C :    0.236116
  73 C :    0.233343
  74 C :   -0.096241
  75 F :   -0.166199
  76 F :   -0.163196
  77 C :    0.273120
  78 C :   -0.343228
  79 C :   -0.228961
  80 N :    0.177965
  81 C :   -0.155237
  82 N :    0.143277
  83 H :    0.016242
  84 H :    0.009394
  85 H :    0.015720
  86 H :    0.032572
  87 H :    0.026482
  88 H :    0.042584
  89 H :    0.025048
  90 H :    0.027779
  91 H :    0.010707
  92 H :    0.005816
  93 H :    0.006542
  94 H :    0.027917
  95 H :    0.035233
  96 H :    0.034117
  97 H :    0.026645
  98 H :    0.023550
  99 H :   -0.005037
 100 H :    0.004429
 101 H :   -0.006415
 102 H :    0.021200
 103 H :    0.016242
 104 H :    0.015577
Sum of atomic charges:   -0.0000000

LOEWDIN ATOMIC CHARGES
----------------------
   0 C :   -0.018029
   1 C :    0.070967
   2 F :   -0.044381
   3 C :    0.070329
   4 F :   -0.045859
   5 C :   -0.008765
   6 C :   -0.041389
   7 C :   -0.017024
   8 C :    0.076171
   9 C :   -0.137311
  10 C :   -0.020325
  11 N :   -0.047859
  12 C :   -0.022821
  13 N :   -0.048876
  14 C :   -0.107158
  15 C :    0.064529
  16 O :   -0.161155
  17 C :    0.033843
  18 C :   -0.193530
  19 S :    0.481824
  20 C :   -0.130476
  21 C :   -0.074899
  22 C :   -0.159473
  23 S :    0.515280
  24 C :   -0.201322
  25 C :    0.068657
  26 O :   -0.173433
  27 O :   -0.092793
  28 C :    0.086142
  29 C :   -0.067036
  30 C :   -0.017656
  31 C :   -0.028067
  32 C :    0.003121
  33 C :   -0.037496
  34 C :    0.003604
  35 C :   -0.015400
  36 N :   -0.019973
  37 C :   -0.021020
  38 C :   -0.019472
  39 N :    0.003434
  40 C :   -0.037595
  41 N :    0.007022
  42 C :   -0.039780
  43 N :    0.002860
  44 C :   -0.034017
  45 C :   -0.036663
  46 C :   -0.032051
  47 N :   -0.278217
  48 S :    0.691277
  49 N :   -0.283350
  50 C :   -0.174355
  51 S :    0.511939
  52 C :   -0.159526
  53 C :   -0.061555
  54 C :   -0.166475
  55 S :    0.497611
  56 C :   -0.200993
  57 C :    0.067942
  58 O :   -0.178335
  59 O :   -0.084815
  60 C :    0.087533
  61 C :   -0.067643
  62 C :   -0.014911
  63 C :    0.012162
  64 C :   -0.019216
  65 C :    0.067250
  66 C :   -0.091676
  67 C :    0.081701
  68 O :   -0.132882
  69 C :   -0.045929
  70 C :   -0.012872
  71 C :   -0.021341
  72 C :    0.075038
  73 C :    0.070991
  74 C :   -0.003209
  75 F :   -0.043033
  76 F :   -0.041733
  77 C :    0.070456
  78 C :   -0.140349
  79 C :   -0.026232
  80 N :   -0.042358
  81 C :   -0.017279
  82 N :   -0.051572
  83 H :    0.051272
  84 H :    0.051060
  85 H :    0.043670
  86 H :    0.023378
  87 H :    0.024727
  88 H :    0.033982
  89 H :    0.034193
  90 H :    0.028499
  91 H :    0.040243
  92 H :    0.030850
  93 H :    0.034981
  94 H :    0.022421
  95 H :    0.028091
  96 H :    0.030175
  97 H :    0.034887
  98 H :    0.026884
  99 H :    0.031015
 100 H :    0.038656
 101 H :    0.030087
 102 H :    0.047712
 103 H :    0.050914
 104 H :    0.053583

  Mayer bond orders larger than 0.100000
B(  0-C ,  1-C ) :   1.3327 B(  0-C ,  5-C ) :   0.1048 B(  0-C ,  7-C ) :   1.3147
B(  0-C , 83-H ) :   0.9922 B(  1-C ,  2-F ) :   1.1451 B(  1-C ,  3-C ) :   1.2953
B(  3-C ,  4-F ) :   1.1304 B(  3-C ,  5-C ) :   1.3098 B(  5-C ,  6-C ) :   1.3264
B(  5-C , 84-H ) :   1.0202 B(  6-C ,  7-C ) :   1.3415 B(  6-C , 15-C ) :   0.9435
B(  7-C ,  8-C ) :   1.0032 B(  8-C ,  9-C ) :   1.6350 B(  8-C , 14-C ) :   1.0898
B(  9-C , 10-C ) :   1.1402 B(  9-C , 12-C ) :   1.1438 B( 10-C , 11-N ) :   2.9804
B( 12-C , 13-N ) :   2.9803 B( 14-C , 15-C ) :   0.9919 B( 14-C , 17-C ) :   1.5131
B( 15-C , 16-O ) :   2.1625 B( 17-C , 18-C ) :   1.2725 B( 17-C , 85-H ) :   0.9221
B( 18-C , 19-S ) :   1.1000 B( 18-C , 22-C ) :   1.3821 B( 19-S , 20-C ) :   1.1680
B( 20-C , 21-C ) :   1.3048 B( 20-C , 31-C ) :   1.1673 B( 21-C , 22-C ) :   1.2693
B( 21-C , 30-C ) :   1.1533 B( 22-C , 23-S ) :   1.1222 B( 23-S , 24-C ) :   1.0846
B( 24-C , 25-C ) :   0.9479 B( 24-C , 30-C ) :   1.6095 B( 25-C , 26-O ) :   2.1207
B( 25-C , 27-O ) :   1.2435 B( 27-O , 28-C ) :   0.8960 B( 28-C , 29-C ) :   1.1230
B( 28-C , 86-H ) :   0.9465 B( 28-C , 87-H ) :   0.9616 B( 29-C , 88-H ) :   0.9669
B( 29-C , 89-H ) :   0.9642 B( 29-C , 90-H ) :   0.9669 B( 30-C , 91-H ) :   0.9987
B( 31-C , 32-C ) :   1.5377 B( 31-C , 92-H ) :   0.9426 B( 32-C , 33-C ) :   1.2543
B( 32-C , 93-H ) :   0.9546 B( 33-C , 34-C ) :   1.2238 B( 33-C , 44-C ) :   0.1139
B( 33-C , 46-C ) :   1.1601 B( 34-C , 35-C ) :   1.1275 B( 34-C , 39-N ) :   1.4520
B( 35-C , 36-N ) :   1.4044 B( 35-C , 44-C ) :   1.2122 B( 36-N , 37-C ) :   1.6719
B( 37-C , 38-C ) :   1.2241 B( 37-C , 42-C ) :   1.1592 B( 38-C , 39-N ) :   1.7290
B( 38-C , 40-C ) :   1.1645 B( 40-C , 41-N ) :   3.0479 B( 42-C , 43-N ) :   3.0390
B( 44-C , 45-C ) :   1.1753 B( 44-C , 50-C ) :   1.2558 B( 45-C , 46-C ) :   1.1102
B( 45-C , 49-N ) :   1.4905 B( 46-C , 47-N ) :   1.5113 B( 47-N , 48-S ) :   1.2716
B( 47-N , 49-N ) :   0.1414 B( 48-S , 49-N ) :   1.2710 B( 50-C , 51-S ) :   1.1410
B( 50-C , 54-C ) :   1.4007 B( 51-S , 52-C ) :   1.0702 B( 52-C , 53-C ) :   1.3095
B( 52-C , 63-C ) :   1.1969 B( 53-C , 54-C ) :   1.2718 B( 53-C , 62-C ) :   1.1460
B( 54-C , 55-S ) :   1.1036 B( 55-S , 56-C ) :   1.0434 B( 56-C , 57-C ) :   0.9498
B( 56-C , 62-C ) :   1.6191 B( 57-C , 58-O ) :   2.1269 B( 57-C , 59-O ) :   1.2435
B( 59-O , 60-C ) :   0.8930 B( 60-C , 61-C ) :   1.1189 B( 60-C , 94-H ) :   0.9465
B( 60-C , 95-H ) :   0.9590 B( 61-C , 96-H ) :   0.9679 B( 61-C , 97-H ) :   0.9649
B( 61-C , 98-H ) :   0.9671 B( 62-C , 99-H ) :   0.9919 B( 63-C , 64-C ) :   1.5821
B( 63-C ,100-H ) :   0.9621 B( 64-C , 65-C ) :   1.1849 B( 64-C ,101-H ) :   0.9543
B( 65-C , 66-C ) :   1.5648 B( 65-C ,102-H ) :   0.9614 B( 66-C , 67-C ) :   0.9452
B( 66-C , 77-C ) :   1.0604 B( 67-C , 68-O ) :   2.2779 B( 67-C , 69-C ) :   0.9295
B( 69-C , 70-C ) :   1.3390 B( 69-C , 74-C ) :   1.3283 B( 70-C , 71-C ) :   1.3184
B( 70-C , 77-C ) :   1.0237 B( 71-C , 72-C ) :   1.3364 B( 71-C , 74-C ) :   0.1038
B( 71-C ,103-H ) :   0.9932 B( 72-C , 73-C ) :   1.2901 B( 72-C , 76-F ) :   1.1457
B( 73-C , 74-C ) :   1.3199 B( 73-C , 75-F ) :   1.1339 B( 74-C ,104-H ) :   1.0190
B( 77-C , 78-C ) :   1.6226 B( 78-C , 79-C ) :   1.1705 B( 78-C , 81-C ) :   1.1299
B( 79-C , 80-N ) :   2.9897 B( 81-C , 82-N ) :   2.9497

-----------------------------------------------------------------------------
         ABSORPTION SPECTRUM VIA TRANSITION ELECTRIC DIPOLE MOMENTS
-----------------------------------------------------------------------------
State   Energy  Wavelength   fosc         T2         TX        TY        TZ
        (cm-1)    (nm)                  (au**2)     (au)      (au)      (au)
-----------------------------------------------------------------------------
   0    6480.8   1543.0   0.797176458  40.49506   1.44978  -5.29298  -3.22142
   1   14277.6    700.4   0.004311183   0.09941  -0.26131  -0.14700   0.09755
   2   16986.6    588.7   0.484964873   9.39894  -0.92934   2.56369   1.40098
   3   17882.6    559.2   0.825977616  15.20592  -1.75458   2.85583   1.99289
   4   20316.8    492.2   0.011749372   0.19039   0.43050   0.02981  -0.06458
   5   21704.6    460.7   0.062672857   0.95061  -0.17319  -0.95336  -0.10823
   6   22203.1    450.4   0.066313010   0.98324   0.58727  -0.69249  -0.39851
   7   22667.1    441.2   0.032021901   0.46508   0.05475  -0.55953  -0.38601
   8   23378.5    427.7   0.036088372   0.50819  -0.22182   0.51889   0.43559
   9   23465.9    426.2   0.030113151   0.42247   0.55582   0.31170   0.12795
  10   24018.3    416.3   0.013365519   0.18320  -0.36779   0.12163  -0.18203
  11   24341.1    410.8   0.000383250   0.00518  -0.00042  -0.04828  -0.05341
  12   24553.7    407.3   0.015257523   0.20457  -0.11596   0.39667   0.18378
  13   24953.7    400.7   0.055091042   0.72681   0.46932   0.70399   0.10459
  14   26021.3    384.3   0.098815347   1.25017  -0.18709   0.56428   0.94697
  15   26232.7    381.2   0.088168569   1.10649  -0.78497   0.46016   0.52779
  16   26734.4    374.0   0.122115553   1.50375   0.75741  -0.77822  -0.56960
  17   27060.1    369.5   0.055465201   0.67479  -0.24333  -0.78444  -0.01545
  18   27780.5    360.0   0.009303203   0.11025   0.03831   0.23943   0.22683
  19   28382.3    352.3   0.002616566   0.03035  -0.07197  -0.01368   0.15806
  20   28903.9    346.0   0.025494260   0.29038   0.31603   0.40987   0.15002
  21   29423.8    339.9   0.068292479   0.76410  -0.60780   0.62713  -0.03712
  22   30589.5    326.9   0.318989324   3.43305  -1.69028  -0.48820   0.58109
  23   30777.9    324.9   0.132463881   1.41688  -0.76176  -0.13581   0.90452
  24   31014.0    322.4   0.028467269   0.30218  -0.19004  -0.50640   0.09812
  25   31317.0    319.3   0.042101308   0.44258  -0.61864   0.24169   0.03808
  26   31527.9    317.2   0.035010165   0.36557   0.27932  -0.12531  -0.52140
  27   31570.7    316.7   0.069360144   0.72327   0.71589   0.35648   0.28930
  28   31650.8    315.9   0.092693232   0.96414   0.76631   0.61038   0.06591
  29   31715.4    315.3   0.085862793   0.89127  -0.85862  -0.28728   0.26742
  30   32038.1    312.1   0.099235487   1.01971   0.81411   0.53530  -0.26530
  31   32118.6    311.3   0.025141741   0.25770   0.47132  -0.03786  -0.18472
  32   32137.1    311.2   0.040547159   0.41536  -0.54514   0.04688   0.34057
  33   32303.1    309.6   0.076955883   0.78428  -0.67508  -0.55289   0.15119
  34   32764.6    305.2   0.006966452   0.07000  -0.16587  -0.17999   0.10045
  35   32860.2    304.3   0.007258696   0.07272   0.21298  -0.12000   0.11385
  36   33332.6    300.0   0.171318418   1.69204  -0.74069  -1.06886   0.03085
  37   33515.3    298.4   0.044162351   0.43380  -0.49846  -0.40237  -0.15306
  38   33902.5    295.0   0.065759874   0.63856  -0.62772   0.19983   0.45233
  39   34013.2    294.0   0.037991480   0.36772   0.37578   0.38078  -0.28551
  40   34116.3    293.1   0.003649422   0.03522  -0.14780   0.08548  -0.07786
  41   34515.1    289.7   0.095711101   0.91291  -0.42929  -0.80728   0.27733
  42   34857.8    286.9   0.065323605   0.61694  -0.60660   0.37464   0.32960
  43   35321.4    283.1   0.075535859   0.70403  -0.58979  -0.57611  -0.15581
  44   35583.2    281.0   0.350740201   3.24501   1.36861  -0.37035  -1.11120
  45   35714.7    280.0   0.080598975   0.74295  -0.09471   0.63051   0.58003
  46   35770.6    279.6   0.453904128   4.17747   1.60719   0.78950  -0.98544
  47   36020.2    277.6   0.000158325   0.00145   0.00050   0.03784   0.00382
  48   36380.1    274.9   0.457303941   4.13825  -1.02103   0.54360   1.67340
  49   36875.0    271.2   0.068213528   0.60900  -0.42222  -0.60810   0.24686
  50   37246.0    268.5   0.001655994   0.01464   0.01283  -0.12022  -0.00428
  51   37435.7    267.1   0.034671357   0.30490   0.18998  -0.23380  -0.46276
  52   37452.9    267.0   0.039714724   0.34909   0.25762   0.52041   0.10910
  53   37599.7    266.0   0.033596458   0.29416   0.46546  -0.25260   0.11705
  54   37737.1    265.0   0.110062114   0.96016   0.54785  -0.76847  -0.26358
  55   37962.6    263.4   0.008912599   0.07729  -0.11872   0.24657   0.04897
  56   38016.9    263.0   0.010522945   0.09112  -0.21712  -0.20850  -0.02259
  57   38319.5    261.0   0.002147166   0.01845   0.07201   0.11226   0.02566
  58   38461.4    260.0   0.003823360   0.03273   0.16757   0.01646   0.06615
  59   38622.7    258.9   0.049009069   0.41774  -0.00155  -0.64623   0.01132
  60   38829.7    257.5   0.000192850   0.00164  -0.01536  -0.03696  -0.00573
  61   39162.5    255.3   0.022898711   0.19249  -0.16785  -0.29970  -0.27295
  62   39242.2    254.8   0.027152506   0.22779   0.15254  -0.40462  -0.20201
  63   39571.3    252.7   0.021195923   0.17634  -0.34709  -0.22598   0.06929
  64   39805.1    251.2   0.110864352   0.91691  -0.73225  -0.58114   0.20738
  65   39882.7    250.7   0.010675788   0.08812  -0.10690  -0.26707   0.07327
  66   40079.1    249.5   0.241934069   1.98726  -1.12138  -0.82687   0.21460
  67   40165.4    249.0   0.054995034   0.45076   0.55803   0.37253  -0.02427

FINAL SINGLE POINT ENERGY     -5607.419174368334

DIPOLE MOMENT
-------------
                                X             Y             Z
Electronic contribution:     -8.72065      14.08027      -2.88147
Nuclear contribution   :      8.92776     -15.13759       0.97784
                        -----------------------------------------
Total Dipole Moment    :      0.20711      -1.05733      -1.90363
                        -----------------------------------------
Magnitude (a.u.)       :      2.18738
Magnitude (Debye)      :      5.55988

Rotational constants in cm-1:     0.001629     0.000180     0.000165
Rotational constants in MHz :    48.823875     5.386483     4.940330

                             ****ORCA TERMINATED NORMALLY****
TOTAL RUN TIME: 0 days 0 hours 12 minutes 17 seconds 457 msec
