                         Program Version 4.2.0 -  RELEASE  -
|  1> # ORCA input file
|  2> # SCF done       -218.269218498582          0.000208727073
|  3> ! CAM-B3LYP def2-SVP def2/J RIJCOSX Grid4 TightSCF
|  4> %maxcore 5000
|  5> %tddft
|  6>     Mode sTDDFT
|  7>     Ethresh 5.0
|  8>     maxcore 5000
|  9> end
| 10>
| 11> %pal
| 12>   nprocs 6
| 13>   end
| 14> * xyz 0 1
| 15>    C       -3.82642        -2.51089         4.14319
| 16>    C       -2.56488        -2.97267         3.90396
| 17>    C       -2.35602        -4.28446         4.44722
| 18>    C       -3.44100        -4.78065         5.09139
| 19>    S       -4.74799        -3.65686         5.03228
| 20>    C       -0.99501        -4.75284         4.14921
| 21>    O       -0.50747        -5.80801         4.47357
| 22>    C       -0.40796        -3.66146         3.31454
| 23>    C       -1.31784        -2.52155         3.32074
| 24>    C       -0.96027        -1.24642         2.97522
| 25>    N       -1.86847        -0.15116         2.84337
| 26>    O       -1.42113         0.96203         3.00812
| 27>    O       -3.02666        -0.40740         2.57983
| 28>    N        0.43355        -0.85522         2.79723
| 29>    O        1.20474        -1.18138         3.66890
| 30>    O        0.70563        -0.23602         1.79884
| 31>    C        0.65844        -3.74550         2.45788
| 32>    C        1.68694        -4.70281         2.33130
| 33>    C        2.56340        -4.69206         1.25958
| 34>    C        3.51410        -5.74450         1.42107
| 35>    C        3.15999        -6.38013         2.68939
| 36>    C        2.08938        -5.78312         3.23696
| 37>    F        3.84189        -7.41327         3.19570
| 38>    C        4.52891        -6.10387         0.56340
| 39>    C        5.46708        -7.16403         0.69407
| 40>    C        6.27775        -7.19361        -0.42568
| 41>    C        5.86542        -6.10053        -1.31881
| 42>    C        4.84354        -5.46990        -0.72590
| 43>    F        4.17510        -4.42066        -1.20794
| 44>    C        7.29835        -8.13013        -0.68345
| 45>    C        8.01436        -8.16878        -1.84669
| 46>    C        8.99935        -9.14000        -2.12379
| 47>    O        9.30773       -10.05884        -1.19040
| 48>    C       10.23484       -10.89890        -1.69324
| 49>    C       10.55180       -10.51413        -3.01790
| 50>    C        9.76260        -9.37795        -3.28635
| 51>    C        9.72424        -8.57533        -4.54198
| 52>    F        8.89274        -7.53062        -4.49380
| 53>    F       10.92862        -8.06402        -4.86459
| 54>    F        9.33157        -9.30192        -5.60810
| 55>    O       11.44845       -11.22839        -3.69390
| 56>    C       11.82351       -10.91155        -5.02387
| 57>    C       10.78362       -11.97574        -0.98074
| 58>    C       10.53047       -12.27067         0.33035
| 59>    C       11.11057       -13.35546         1.01366
| 60>    C       11.00113       -13.62325         2.36837
| 61>    C       11.75500       -14.78455         2.67741
| 62>    C       12.31462       -15.23170         1.39324
| 63>    C       11.95469       -14.39555         0.41084
| 64>    F       13.07693       -16.32077         1.26236
| 65>    C       11.98004       -15.36866         3.90558
| 66>    C       12.76688       -16.51765         4.19744
| 67>    C       12.77114       -16.72969         5.56497
| 68>    C       11.95464       -15.68457         6.19201
| 69>    C       11.49376       -14.89951         5.20585
| 70>    F       10.70453       -13.83025         5.34120
| 71>    C       13.47095       -17.76676         6.21188
| 72>    C       13.53449       -17.95385         7.56467
| 73>    C       14.31004       -18.97782         8.13517
| 74>    C       14.62157       -19.17871         9.45342
| 75>    C       14.40824       -18.36131        10.62846
| 76>    C       14.33063       -16.99072        10.66029
| 77>    N       14.00630       -16.24141        11.83756
| 78>    O       14.52027       -15.15336        11.96513
| 79>    O       13.24392       -16.75318        12.63386
| 80>    N       14.66370       -16.15990         9.52549
| 81>    O       13.98210       -15.17619         9.34682
| 82>    O       15.58521       -16.51340         8.82426
| 83>    C       14.50794       -19.25399        11.77276
| 84>    C       14.33315       -19.21982        13.12509
| 85>    S       14.78562       -20.71125        13.85050
| 86>    C       15.21673       -21.40787        12.33266
| 87>    C       15.00977       -20.52474        11.32557
| 88>    C       15.14650       -20.51542         9.86422
| 89>    O       15.53744       -21.39154         9.13193
| 90>    H       -4.28307        -1.59417         3.82764
| 91>    H       -3.55453        -5.72079         5.59281
| 92>    H        0.72760        -2.96859         1.70212
| 93>    H        2.53320        -4.01021         0.43162
| 94>    H        1.60028        -6.03299         4.15584
| 95>    H        5.52038        -7.83732         1.52707
| 96>    H        6.30831        -5.85639        -2.26346
| 97>    H        7.49514        -8.86768         0.08259
| 98>    H        7.81300        -7.44131        -2.61294
| 99>    H       12.54391       -11.67929        -5.30053
|100>    H       12.30182        -9.93269        -5.08345
|101>    H       10.97166       -10.95691        -5.70407
|102>    H       11.47431       -12.57349        -1.55535
|103>    H        9.86754       -11.62778         0.89324
|104>    H       10.45392       -13.03730         3.08056
|105>    H       12.21469       -14.47317        -0.62563
|106>    H       13.27974       -17.11802         3.47172
|107>    H       11.78231       -15.56247         7.24262
|108>    H       14.04106       -18.43008         5.57335
|109>    H       12.96607       -17.30042         8.21004
|110>    H       14.68248       -19.74609         7.46508
|111>    H       13.93373       -18.43734        13.73918
|112>    H       15.59304       -22.40985        12.28224
|113> *
|114>
|115>                          ****END OF INPUT****

CARTESIAN COORDINATES (ANGSTROEM)
---------------------------------
  C     -3.826420   -2.510890    4.143190
  C     -2.564880   -2.972670    3.903960
  C     -2.356020   -4.284460    4.447220
  C     -3.441000   -4.780650    5.091390
  S     -4.747990   -3.656860    5.032280
  C     -0.995010   -4.752840    4.149210
  O     -0.507470   -5.808010    4.473570
  C     -0.407960   -3.661460    3.314540
  C     -1.317840   -2.521550    3.320740
  C     -0.960270   -1.246420    2.975220
  N     -1.868470   -0.151160    2.843370
  O     -1.421130    0.962030    3.008120
  O     -3.026660   -0.407400    2.579830
  N      0.433550   -0.855220    2.797230
  O      1.204740   -1.181380    3.668900
  O      0.705630   -0.236020    1.798840
  C      0.658440   -3.745500    2.457880
  C      1.686940   -4.702810    2.331300
  C      2.563400   -4.692060    1.259580
  C      3.514100   -5.744500    1.421070
  C      3.159990   -6.380130    2.689390
  C      2.089380   -5.783120    3.236960
  F      3.841890   -7.413270    3.195700
  C      4.528910   -6.103870    0.563400
  C      5.467080   -7.164030    0.694070
  C      6.277750   -7.193610   -0.425680
  C      5.865420   -6.100530   -1.318810
  C      4.843540   -5.469900   -0.725900
  F      4.175100   -4.420660   -1.207940
  C      7.298350   -8.130130   -0.683450
  C      8.014360   -8.168780   -1.846690
  C      8.999350   -9.140000   -2.123790
  O      9.307730  -10.058840   -1.190400
  C     10.234840  -10.898900   -1.693240
  C     10.551800  -10.514130   -3.017900
  C      9.762600   -9.377950   -3.286350
  C      9.724240   -8.575330   -4.541980
  F      8.892740   -7.530620   -4.493800
  F     10.928620   -8.064020   -4.864590
  F      9.331570   -9.301920   -5.608100
  O     11.448450  -11.228390   -3.693900
  C     11.823510  -10.911550   -5.023870
  C     10.783620  -11.975740   -0.980740
  C     10.530470  -12.270670    0.330350
  C     11.110570  -13.355460    1.013660
  C     11.001130  -13.623250    2.368370
  C     11.755000  -14.784550    2.677410
  C     12.314620  -15.231700    1.393240
  C     11.954690  -14.395550    0.410840
  F     13.076930  -16.320770    1.262360
  C     11.980040  -15.368660    3.905580
  C     12.766880  -16.517650    4.197440
  C     12.771140  -16.729690    5.564970
  C     11.954640  -15.684570    6.192010
  C     11.493760  -14.899510    5.205850
  F     10.704530  -13.830250    5.341200
  C     13.470950  -17.766760    6.211880
  C     13.534490  -17.953850    7.564670
  C     14.310040  -18.977820    8.135170
  C     14.621570  -19.178710    9.453420
  C     14.408240  -18.361310   10.628460
  C     14.330630  -16.990720   10.660290
  N     14.006300  -16.241410   11.837560
  O     14.520270  -15.153360   11.965130
  O     13.243920  -16.753180   12.633860
  N     14.663700  -16.159900    9.525490
  O     13.982100  -15.176190    9.346820
  O     15.585210  -16.513400    8.824260
  C     14.507940  -19.253990   11.772760
  C     14.333150  -19.219820   13.125090
  S     14.785620  -20.711250   13.850500
  C     15.216730  -21.407870   12.332660
  C     15.009770  -20.524740   11.325570
  C     15.146500  -20.515420    9.864220
  O     15.537440  -21.391540    9.131930
  H     -4.283070   -1.594170    3.827640
  H     -3.554530   -5.720790    5.592810
  H      0.727600   -2.968590    1.702120
  H      2.533200   -4.010210    0.431620
  H      1.600280   -6.032990    4.155840
  H      5.520380   -7.837320    1.527070
  H      6.308310   -5.856390   -2.263460
  H      7.495140   -8.867680    0.082590
  H      7.813000   -7.441310   -2.612940
  H     12.543910  -11.679290   -5.300530
  H     12.301820   -9.932690   -5.083450
  H     10.971660  -10.956910   -5.704070
  H     11.474310  -12.573490   -1.555350
  H      9.867540  -11.627780    0.893240
  H     10.453920  -13.037300    3.080560
  H     12.214690  -14.473170   -0.625630
  H     13.279740  -17.118020    3.471720
  H     11.782310  -15.562470    7.242620
  H     14.041060  -18.430080    5.573350
  H     12.966070  -17.300420    8.210040
  H     14.682480  -19.746090    7.465080
  H     13.933730  -18.437340   13.739180
  H     15.593040  -22.409850   12.282240

 Total Charge           Charge          ....    0
 Multiplicity           Mult            ....    1
 Number of Electrons    NEL             ....  542
 Basis Dimension        Dim             .... 1173

ORBITAL ENERGIES
----------------

  NO   OCC          E(Eh)            E(eV)
   0   2.0000     -88.984751     -2421.3982
   1   2.0000     -88.978552     -2421.2295
   2   2.0000     -24.829402      -675.6424
   3   2.0000     -24.821036      -675.4147
   4   2.0000     -24.820758      -675.4072
   5   2.0000     -24.806629      -675.0227
   6   2.0000     -24.800826      -674.8648
   7   2.0000     -24.791261      -674.6045
   8   2.0000     -24.790209      -674.5759
   9   2.0000     -19.326779      -525.9084
  10   2.0000     -19.286359      -524.8085
  11   2.0000     -19.255818      -523.9774
  12   2.0000     -19.254036      -523.9290
  13   2.0000     -19.250236      -523.8256
  14   2.0000     -19.249857      -523.8152
  15   2.0000     -19.249011      -523.7922
  16   2.0000     -19.248457      -523.7771
  17   2.0000     -19.246319      -523.7190
  18   2.0000     -19.246122      -523.7136
  19   2.0000     -19.219769      -522.9965
  20   2.0000     -19.208735      -522.6962
  21   2.0000     -14.662404      -398.9843
  22   2.0000     -14.661885      -398.9702
  23   2.0000     -14.656808      -398.8320
  24   2.0000     -14.656351      -398.8196
  25   2.0000     -10.549061      -287.0545
  26   2.0000     -10.381050      -282.4827
  27   2.0000     -10.378611      -282.4164
  28   2.0000     -10.376741      -282.3655
  29   2.0000     -10.374423      -282.3024
  30   2.0000     -10.369015      -282.1552
  31   2.0000     -10.367445      -282.1125
  32   2.0000     -10.363708      -282.0108
  33   2.0000     -10.363252      -281.9984
  34   2.0000     -10.356612      -281.8177
  35   2.0000     -10.356551      -281.8161
  36   2.0000     -10.356402      -281.8120
  37   2.0000     -10.351958      -281.6911
  38   2.0000     -10.348024      -281.5841
  39   2.0000     -10.344553      -281.4896
  40   2.0000     -10.327073      -281.0140
  41   2.0000     -10.326589      -281.0008
  42   2.0000     -10.324712      -280.9497
  43   2.0000     -10.322832      -280.8985
  44   2.0000     -10.321347      -280.8581
  45   2.0000     -10.317219      -280.7458
  46   2.0000     -10.317089      -280.7423
  47   2.0000     -10.316736      -280.7327
  48   2.0000     -10.315667      -280.7036
  49   2.0000     -10.313434      -280.6428
  50   2.0000     -10.311760      -280.5972
  51   2.0000     -10.310721      -280.5690
  52   2.0000     -10.308960      -280.5211
  53   2.0000     -10.308131      -280.4985
  54   2.0000     -10.307998      -280.4949
  55   2.0000     -10.307656      -280.4856
  56   2.0000     -10.307160      -280.4721
  57   2.0000     -10.306769      -280.4614
  58   2.0000     -10.303407      -280.3700
  59   2.0000     -10.303059      -280.3605
  60   2.0000     -10.302549      -280.3466
  61   2.0000     -10.296972      -280.1949
  62   2.0000     -10.295290      -280.1491
  63   2.0000     -10.294138      -280.1177
  64   2.0000     -10.293234      -280.0931
  65   2.0000     -10.292387      -280.0701
  66   2.0000     -10.292139      -280.0633
  67   2.0000     -10.291839      -280.0552
  68   2.0000     -10.287311      -279.9320
  69   2.0000     -10.284190      -279.8471
  70   2.0000     -10.283437      -279.8265
  71   2.0000     -10.282019      -279.7880
  72   2.0000     -10.275050      -279.5983
  73   2.0000     -10.273528      -279.5569
  74   2.0000     -10.271610      -279.5047
  75   2.0000      -8.080582      -219.8838
  76   2.0000      -8.074465      -219.7174
  77   2.0000      -6.049728      -164.6215
  78   2.0000      -6.045044      -164.4940
  79   2.0000      -6.043639      -164.4558
  80   2.0000      -6.043492      -164.4518
  81   2.0000      -6.038961      -164.3285
  82   2.0000      -6.037299      -164.2833
  83   2.0000      -1.415470       -38.5169
  84   2.0000      -1.344399       -36.5830
  85   2.0000      -1.338661       -36.4268
  86   2.0000      -1.327051       -36.1109
  87   2.0000      -1.321577       -35.9619
  88   2.0000      -1.320591       -35.9351
  89   2.0000      -1.318851       -35.8878
  90   2.0000      -1.314183       -35.7607
  91   2.0000      -1.311968       -35.7005
  92   2.0000      -1.304276       -35.4912
  93   2.0000      -1.303579       -35.4722
  94   2.0000      -1.248534       -33.9744
  95   2.0000      -1.189956       -32.3803
  96   2.0000      -1.159170       -31.5426
  97   2.0000      -1.152627       -31.3646
  98   2.0000      -1.150840       -31.3159
  99   2.0000      -1.145115       -31.1602
 100   2.0000      -1.137931       -30.9647
 101   2.0000      -1.125779       -30.6340
 102   2.0000      -1.022572       -27.8256
 103   2.0000      -1.015759       -27.6402
 104   2.0000      -1.004784       -27.3416
 105   2.0000      -0.996611       -27.1192
 106   2.0000      -0.986915       -26.8553
 107   2.0000      -0.981033       -26.6953
 108   2.0000      -0.978571       -26.6283
 109   2.0000      -0.976679       -26.5768
 110   2.0000      -0.953254       -25.9393
 111   2.0000      -0.943477       -25.6733
 112   2.0000      -0.937798       -25.5188
 113   2.0000      -0.936754       -25.4904
 114   2.0000      -0.916478       -24.9386
 115   2.0000      -0.911896       -24.8140
 116   2.0000      -0.893330       -24.3087
 117   2.0000      -0.879524       -23.9331
 118   2.0000      -0.864590       -23.5267
 119   2.0000      -0.856626       -23.3100
 120   2.0000      -0.849217       -23.1084
 121   2.0000      -0.844317       -22.9750
 122   2.0000      -0.843663       -22.9573
 123   2.0000      -0.837053       -22.7774
 124   2.0000      -0.824350       -22.4317
 125   2.0000      -0.822529       -22.3821
 126   2.0000      -0.813637       -22.1402
 127   2.0000      -0.812945       -22.1214
 128   2.0000      -0.808423       -21.9983
 129   2.0000      -0.804931       -21.9033
 130   2.0000      -0.802320       -21.8322
 131   2.0000      -0.793591       -21.5947
 132   2.0000      -0.785763       -21.3817
 133   2.0000      -0.780184       -21.2299
 134   2.0000      -0.769864       -20.9491
 135   2.0000      -0.757027       -20.5998
 136   2.0000      -0.746035       -20.3007
 137   2.0000      -0.742241       -20.1974
 138   2.0000      -0.734908       -19.9979
 139   2.0000      -0.712993       -19.4015
 140   2.0000      -0.710009       -19.3203
 141   2.0000      -0.703656       -19.1475
 142   2.0000      -0.696848       -18.9622
 143   2.0000      -0.691870       -18.8267
 144   2.0000      -0.686725       -18.6867
 145   2.0000      -0.683213       -18.5912
 146   2.0000      -0.681651       -18.5487
 147   2.0000      -0.681077       -18.5330
 148   2.0000      -0.678003       -18.4494
 149   2.0000      -0.674675       -18.3588
 150   2.0000      -0.669506       -18.2182
 151   2.0000      -0.667336       -18.1591
 152   2.0000      -0.663216       -18.0470
 153   2.0000      -0.661053       -17.9882
 154   2.0000      -0.651286       -17.7224
 155   2.0000      -0.648228       -17.6392
 156   2.0000      -0.647766       -17.6266
 157   2.0000      -0.645742       -17.5715
 158   2.0000      -0.638915       -17.3858
 159   2.0000      -0.636407       -17.3175
 160   2.0000      -0.635007       -17.2794
 161   2.0000      -0.634152       -17.2561
 162   2.0000      -0.630234       -17.1495
 163   2.0000      -0.627379       -17.0719
 164   2.0000      -0.626094       -17.0369
 165   2.0000      -0.625435       -17.0190
 166   2.0000      -0.622514       -16.9395
 167   2.0000      -0.622193       -16.9307
 168   2.0000      -0.620553       -16.8861
 169   2.0000      -0.615966       -16.7613
 170   2.0000      -0.605486       -16.4761
 171   2.0000      -0.604333       -16.4447
 172   2.0000      -0.604051       -16.4371
 173   2.0000      -0.600047       -16.3281
 174   2.0000      -0.593309       -16.1448
 175   2.0000      -0.589277       -16.0350
 176   2.0000      -0.587406       -15.9841
 177   2.0000      -0.584143       -15.8953
 178   2.0000      -0.581939       -15.8354
 179   2.0000      -0.576928       -15.6990
 180   2.0000      -0.575539       -15.6612
 181   2.0000      -0.574704       -15.6385
 182   2.0000      -0.570035       -15.5114
 183   2.0000      -0.569394       -15.4940
 184   2.0000      -0.567325       -15.4377
 185   2.0000      -0.565120       -15.3777
 186   2.0000      -0.564055       -15.3487
 187   2.0000      -0.559425       -15.2227
 188   2.0000      -0.559308       -15.2195
 189   2.0000      -0.558319       -15.1926
 190   2.0000      -0.557341       -15.1660
 191   2.0000      -0.555746       -15.1226
 192   2.0000      -0.553413       -15.0591
 193   2.0000      -0.550652       -14.9840
 194   2.0000      -0.548790       -14.9333
 195   2.0000      -0.548083       -14.9141
 196   2.0000      -0.542820       -14.7709
 197   2.0000      -0.537088       -14.6149
 198   2.0000      -0.535768       -14.5790
 199   2.0000      -0.531208       -14.4549
 200   2.0000      -0.530671       -14.4403
 201   2.0000      -0.529032       -14.3957
 202   2.0000      -0.527899       -14.3649
 203   2.0000      -0.522843       -14.2273
 204   2.0000      -0.521522       -14.1913
 205   2.0000      -0.513079       -13.9616
 206   2.0000      -0.512650       -13.9499
 207   2.0000      -0.509990       -13.8775
 208   2.0000      -0.506245       -13.7756
 209   2.0000      -0.505320       -13.7505
 210   2.0000      -0.498649       -13.5689
 211   2.0000      -0.496808       -13.5188
 212   2.0000      -0.494027       -13.4432
 213   2.0000      -0.493186       -13.4203
 214   2.0000      -0.490091       -13.3361
 215   2.0000      -0.489220       -13.3124
 216   2.0000      -0.485216       -13.2034
 217   2.0000      -0.483010       -13.1434
 218   2.0000      -0.482324       -13.1247
 219   2.0000      -0.478059       -13.0087
 220   2.0000      -0.477267       -12.9871
 221   2.0000      -0.475760       -12.9461
 222   2.0000      -0.473454       -12.8833
 223   2.0000      -0.472106       -12.8467
 224   2.0000      -0.467845       -12.7307
 225   2.0000      -0.466222       -12.6866
 226   2.0000      -0.463784       -12.6202
 227   2.0000      -0.462248       -12.5784
 228   2.0000      -0.460207       -12.5229
 229   2.0000      -0.458717       -12.4823
 230   2.0000      -0.457197       -12.4410
 231   2.0000      -0.451366       -12.2823
 232   2.0000      -0.448764       -12.2115
 233   2.0000      -0.446288       -12.1441
 234   2.0000      -0.444611       -12.0985
 235   2.0000      -0.441797       -12.0219
 236   2.0000      -0.440094       -11.9756
 237   2.0000      -0.437112       -11.8944
 238   2.0000      -0.428878       -11.6704
 239   2.0000      -0.427494       -11.6327
 240   2.0000      -0.422509       -11.4970
 241   2.0000      -0.412020       -11.2116
 242   2.0000      -0.410824       -11.1791
 243   2.0000      -0.408710       -11.1216
 244   2.0000      -0.400148       -10.8886
 245   2.0000      -0.395844       -10.7715
 246   2.0000      -0.392292       -10.6748
 247   2.0000      -0.391057       -10.6412
 248   2.0000      -0.387410       -10.5419
 249   2.0000      -0.383902       -10.4465
 250   2.0000      -0.380906       -10.3650
 251   2.0000      -0.378331       -10.2949
 252   2.0000      -0.376271       -10.2388
 253   2.0000      -0.374511       -10.1910
 254   2.0000      -0.370991       -10.0952
 255   2.0000      -0.365744        -9.9524
 256   2.0000      -0.358209        -9.7474
 257   2.0000      -0.343961        -9.3596
 258   2.0000      -0.341403        -9.2901
 259   2.0000      -0.338035        -9.1984
 260   2.0000      -0.334250        -9.0954
 261   2.0000      -0.331097        -9.0096
 262   2.0000      -0.324924        -8.8416
 263   2.0000      -0.319867        -8.7040
 264   2.0000      -0.317385        -8.6365
 265   2.0000      -0.315301        -8.5798
 266   2.0000      -0.310215        -8.4414
 267   2.0000      -0.295311        -8.0358
 268   2.0000      -0.285183        -7.7602
 269   2.0000      -0.273301        -7.4369
 270   2.0000      -0.242410        -6.5963
 271   0.0000      -0.136501        -3.7144
 272   0.0000      -0.117792        -3.2053
 273   0.0000      -0.084428        -2.2974
 274   0.0000      -0.078588        -2.1385
 275   0.0000      -0.052437        -1.4269

MULLIKEN ATOMIC CHARGES
-----------------------
   0 C :   -0.130336
   1 C :    0.067042
   2 C :    0.003995
   3 C :   -0.128418
   4 S :    0.156801
   5 C :    0.177299
   6 O :   -0.139488
   7 C :   -0.078059
   8 C :    0.189997
   9 C :    0.057288
  10 N :    0.260584
  11 O :   -0.224360
  12 O :   -0.250679
  13 N :    0.197646
  14 O :   -0.204896
  15 O :   -0.205132
  16 C :   -0.026901
  17 C :    0.077043
  18 C :   -0.057776
  19 C :    0.009269
  20 C :    0.247573
  21 C :   -0.044287
  22 F :   -0.177417
  23 C :    0.016575
  24 C :   -0.076336
  25 C :    0.112441
  26 C :   -0.074573
  27 C :    0.263103
  28 F :   -0.166919
  29 C :    0.014869
  30 C :   -0.051796
  31 C :    0.149358
  32 O :   -0.189008
  33 C :    0.107816
  34 C :    0.166676
  35 C :   -0.163691
  36 C :    0.517566
  37 F :   -0.142152
  38 F :   -0.160580
  39 F :   -0.160852
  40 O :   -0.288995
  41 C :    0.173298
  42 C :   -0.027450
  43 C :   -0.002099
  44 C :    0.117729
  45 C :   -0.084090
  46 C :    0.019849
  47 C :    0.260704
  48 C :   -0.077807
  49 F :   -0.171457
  50 C :   -0.001454
  51 C :   -0.059447
  52 C :    0.096252
  53 C :   -0.062606
  54 C :    0.252709
  55 F :   -0.173919
  56 C :    0.022792
  57 C :    0.003096
  58 C :    0.040698
  59 C :   -0.118095
  60 C :    0.209314
  61 C :    0.051827
  62 N :    0.252932
  63 O :   -0.219678
  64 O :   -0.249342
  65 N :    0.206740
  66 O :   -0.218216
  67 O :   -0.208135
  68 C :    0.045165
  69 C :   -0.135060
  70 S :    0.149424
  71 C :   -0.129430
  72 C :    0.012773
  73 C :    0.159803
  74 O :   -0.141508
  75 H :    0.058421
  76 H :    0.040758
  77 H :    0.013905
  78 H :    0.007223
  79 H :    0.009564
  80 H :   -0.003489
  81 H :   -0.007499
  82 H :    0.003246
  83 H :    0.013066
  84 H :    0.044761
  85 H :    0.041647
  86 H :    0.041015
  87 H :    0.012627
  88 H :   -0.004824
  89 H :   -0.011733
  90 H :   -0.013445
  91 H :   -0.006918
  92 H :   -0.004498
  93 H :    0.001125
  94 H :    0.006454
  95 H :    0.018091
  96 H :    0.056686
  97 H :    0.038211
Sum of atomic charges:   -0.0000000

LOEWDIN ATOMIC CHARGES
----------------------
   0 C :   -0.147366
   1 C :   -0.064459
   2 C :   -0.089146
   3 C :   -0.141264
   4 S :    0.490324
   5 C :    0.085668
   6 O :   -0.130231
   7 C :   -0.086131
   8 C :    0.057270
   9 C :   -0.066445
  10 N :    0.279248
  11 O :   -0.189637
  12 O :   -0.203832
  13 N :    0.267926
  14 O :   -0.181642
  15 O :   -0.178392
  16 C :    0.068791
  17 C :   -0.018824
  18 C :    0.008799
  19 C :   -0.009912
  20 C :    0.064997
  21 C :   -0.035814
  22 F :   -0.053312
  23 C :    0.020974
  24 C :   -0.046777
  25 C :    0.009652
  26 C :   -0.053800
  27 C :    0.085216
  28 F :   -0.043135
  29 C :    0.008125
  30 C :   -0.033607
  31 C :    0.064768
  32 O :    0.034884
  33 C :    0.003429
  34 C :    0.043376
  35 C :   -0.154718
  36 C :    0.173667
  37 F :   -0.041603
  38 F :   -0.059559
  39 F :   -0.061322
  40 O :   -0.078691
  41 C :    0.078877
  42 C :   -0.014573
  43 C :   -0.014525
  44 C :    0.013006
  45 C :   -0.061876
  46 C :    0.015969
  47 C :    0.086004
  48 C :   -0.057748
  49 F :   -0.047004
  50 C :   -0.015880
  51 C :   -0.015206
  52 C :   -0.019421
  53 C :   -0.050773
  54 C :    0.078074
  55 F :   -0.049748
  56 C :    0.048957
  57 C :   -0.043234
  58 C :    0.075411
  59 C :   -0.096777
  60 C :    0.056523
  61 C :   -0.077149
  62 N :    0.277969
  63 O :   -0.186235
  64 O :   -0.203953
  65 N :    0.271927
  66 O :   -0.190125
  67 O :   -0.178634
  68 C :   -0.062778
  69 C :   -0.151911
  70 S :    0.483553
  71 C :   -0.143126
  72 C :   -0.090321
  73 C :    0.080029
  74 O :   -0.142416
  75 H :    0.030891
  76 H :    0.036202
  77 H :    0.040500
  78 H :    0.030284
  79 H :    0.034548
  80 H :    0.028777
  81 H :    0.032711
  82 H :    0.038413
  83 H :    0.034851
  84 H :    0.033475
  85 H :    0.020069
  86 H :    0.019426
  87 H :    0.042216
  88 H :    0.035725
  89 H :    0.025786
  90 H :    0.030043
  91 H :    0.026274
  92 H :    0.033482
  93 H :    0.040000
  94 H :    0.025549
  95 H :    0.045550
  96 H :    0.029525
  97 H :    0.035325

  Mayer bond orders larger than 0.100000
B(  0-C ,  1-C ) :   1.5429 B(  0-C ,  4-S ) :   1.1881 B(  0-C , 75-H ) :   0.9488
B(  1-C ,  2-C ) :   1.2212 B(  1-C ,  8-C ) :   1.0171 B(  2-C ,  3-C ) :   1.5528
B(  2-C ,  5-C ) :   0.9632 B(  3-C ,  4-S ) :   1.1846 B(  3-C , 76-H ) :   0.9703
B(  5-C ,  6-O ) :   2.2067 B(  5-C ,  7-C ) :   0.9339 B(  7-C ,  8-C ) :   1.0783
B(  7-C , 16-C ) :   1.5447 B(  8-C ,  9-C ) :   1.6067 B(  9-C , 10-N ) :   0.9473
B(  9-C , 13-N ) :   0.8773 B( 10-N , 11-O ) :   1.5338 B( 10-N , 12-O ) :   1.4930
B( 11-O , 12-O ) :   0.2622 B( 13-N , 14-O ) :   1.5407 B( 13-N , 15-O ) :   1.5236
B( 14-O , 15-O ) :   0.2851 B( 16-C , 17-C ) :   1.1924 B( 16-C , 77-H ) :   0.9564
B( 17-C , 18-C ) :   1.4662 B( 17-C , 21-C ) :   1.0387 B( 18-C , 19-C ) :   1.1023
B( 18-C , 78-H ) :   1.0193 B( 19-C , 20-C ) :   1.0354 B( 19-C , 23-C ) :   1.4541
B( 20-C , 21-C ) :   1.6335 B( 20-C , 22-F ) :   1.1236 B( 21-C , 79-H ) :   1.0080
B( 23-C , 24-C ) :   1.1364 B( 23-C , 27-C ) :   1.0055 B( 24-C , 25-C ) :   1.4856
B( 24-C , 80-H ) :   1.0241 B( 25-C , 26-C ) :   1.0059 B( 25-C , 29-C ) :   1.1461
B( 26-C , 27-C ) :   1.6848 B( 26-C , 81-H ) :   1.0101 B( 27-C , 28-F ) :   1.1337
B( 29-C , 30-C ) :   1.5569 B( 29-C , 82-H ) :   0.9945 B( 30-C , 31-C ) :   1.1979
B( 30-C , 83-H ) :   0.9555 B( 31-C , 32-O ) :   1.1840 B( 31-C , 33-C ) :   0.1098
B( 31-C , 35-C ) :   1.3527 B( 32-O , 33-C ) :   1.1246 B( 33-C , 34-C ) :   1.3265
B( 33-C , 42-C ) :   1.2141 B( 34-C , 35-C ) :   1.2673 B( 34-C , 40-O ) :   1.2488
B( 35-C , 36-C ) :   0.9426 B( 36-C , 37-F ) :   1.1513 B( 36-C , 38-F ) :   1.1572
B( 36-C , 39-F ) :   1.1592 B( 40-O , 41-C ) :   0.9128 B( 41-C , 84-H ) :   0.9770
B( 41-C , 85-H ) :   0.9665 B( 41-C , 86-H ) :   0.9652 B( 42-C , 43-C ) :   1.5163
B( 42-C , 87-H ) :   0.9569 B( 43-C , 44-C ) :   1.1629 B( 43-C , 88-H ) :   0.9949
B( 44-C , 45-C ) :   1.4680 B( 44-C , 48-C ) :   1.0077 B( 45-C , 46-C ) :   1.1526
B( 45-C , 89-H ) :   1.0253 B( 46-C , 47-C ) :   1.0077 B( 46-C , 50-C ) :   1.4356
B( 47-C , 48-C ) :   1.6813 B( 47-C , 49-F ) :   1.1280 B( 48-C , 90-H ) :   1.0105
B( 50-C , 51-C ) :   1.1230 B( 50-C , 54-C ) :   1.0362 B( 51-C , 52-C ) :   1.4781
B( 51-C , 91-H ) :   1.0213 B( 52-C , 53-C ) :   1.0278 B( 52-C , 56-C ) :   1.1418
B( 53-C , 54-C ) :   1.6620 B( 53-C , 92-H ) :   1.0092 B( 54-C , 55-F ) :   1.1290
B( 56-C , 57-C ) :   1.5710 B( 56-C , 93-H ) :   0.9899 B( 57-C , 58-C ) :   1.1690
B( 57-C , 94-H ) :   0.9554 B( 58-C , 59-C ) :   1.5806 B( 58-C , 95-H ) :   0.9542
B( 59-C , 60-C ) :   1.0805 B( 59-C , 73-C ) :   0.9495 B( 60-C , 61-C ) :   1.5692
B( 60-C , 68-C ) :   1.0208 B( 61-C , 62-N ) :   0.9336 B( 61-C , 65-N ) :   0.9057
B( 62-N , 63-O ) :   1.5393 B( 62-N , 64-O ) :   1.4905 B( 63-O , 64-O ) :   0.2653
B( 65-N , 66-O ) :   1.5110 B( 65-N , 67-O ) :   1.5302 B( 66-O , 67-O ) :   0.2749
B( 68-C , 69-C ) :   1.5513 B( 68-C , 72-C ) :   1.2192 B( 69-C , 70-S ) :   1.1841
B( 69-C , 96-H ) :   0.9475 B( 70-S , 71-C ) :   1.1804 B( 71-C , 72-C ) :   1.5622
B( 71-C , 97-H ) :   0.9706 B( 72-C , 73-C ) :   0.9338 B( 73-C , 74-O ) :   2.2552

-----------------------------------------------------------------------------
         ABSORPTION SPECTRUM VIA TRANSITION ELECTRIC DIPOLE MOMENTS
-----------------------------------------------------------------------------
State   Energy  Wavelength   fosc         T2         TX        TY        TZ
        (cm-1)    (nm)                  (au**2)     (au)      (au)      (au)
-----------------------------------------------------------------------------
   0   10022.1    997.8   1.331547372  43.73963  -4.35626   4.53724  -2.04353
   1   13895.3    719.7   0.727997967  17.24799  -1.17939  -0.28674   3.97175
   2   15630.8    639.8   0.019824649   0.41754   0.50432  -0.18656  -0.35832
   3   16274.1    614.5   0.060997728   1.23394   0.08894   0.00354   1.10725
   4   18205.8    549.3   0.006840240   0.12369   0.04473  -0.34621  -0.04272
   5   20539.7    486.9   0.444832738   7.12981   1.54471  -1.38839   1.67810
   6   21491.5    465.3   0.294693091   4.51419  -0.95306   1.53991   1.11110
   7   23015.8    434.5   0.466238544   6.66894   1.52115  -0.60066  -1.99856
   8   23984.2    416.9   0.076619350   1.05169  -0.48572   0.25806   0.86555
   9   24597.2    406.6   0.093168227   1.24698   0.27692  -0.30984   1.03648
  10   24812.1    403.0   0.092970296   1.23355   0.44951  -0.44298   0.91393
  11   26266.2    380.7   0.184310283   2.31008  -1.20343   0.89036   0.26284
  12   26381.2    379.1   0.254356063   3.17411  -0.68983  -0.85080   1.40513
  13   26520.6    377.1   0.017898575   0.22218  -0.21298  -0.22576  -0.35476
  14   26686.6    374.7   0.332098149   4.09684   1.01217   0.60251  -1.64600
  15   26998.6    370.4   0.095377427   1.16300  -0.59470   0.83986   0.32244
  16   27142.5    368.4   0.046186873   0.56020   0.71447  -0.12492  -0.18473
  17   28113.1    355.7   0.030523152   0.35743  -0.07192  -0.44794   0.38937
  18   28788.6    347.4   0.044957376   0.51411  -0.56363  -0.12832   0.42422
  19   29291.1    341.4   0.286742126   3.22279   0.08969  -1.04416   1.45756
  20   29576.0    338.1   0.055486098   0.61762   0.34041  -0.26726   0.65598
  21   29707.5    336.6   0.044302427   0.49095  -0.69049   0.08268  -0.08569
  22   30167.5    331.5   0.007671569   0.08372   0.12904  -0.15456  -0.20779
  23   30556.6    327.3   0.062435781   0.67267  -0.45848   0.67642  -0.07022
  24   30752.1    325.2   0.004832716   0.05174   0.02404   0.20151  -0.10273
  25   31044.8    322.1   0.173806439   1.84311   1.06201  -0.84085   0.09071
  26   31604.1    316.4   0.042860088   0.44646   0.29208  -0.60075   0.01582
  27   32161.4    310.9   0.076940096   0.78758   0.85073  -0.23198  -0.10013
  28   32402.8    308.6   0.177624932   1.80467   0.34264   1.02436  -0.79871
  29   32605.5    306.7   0.078250833   0.79008   0.14320  -0.78198   0.39760
  30   33047.4    302.6   0.068092010   0.67832   0.56328   0.19228  -0.56927
  31   33257.0    300.7   0.035556209   0.35197   0.39686  -0.21602  -0.38446
  32   33461.2    298.9   0.015953832   0.15696  -0.22734   0.26314  -0.18984
  33   33744.0    296.3   0.014227670   0.13881  -0.17928  -0.27061  -0.18285
  34   33912.7    294.9   0.006859460   0.06659   0.14695  -0.10813  -0.18249
  35   34056.9    293.6   0.057575229   0.55655   0.11449   0.68197  -0.27993
  36   34141.4    292.9   0.097973753   0.94472  -0.77251  -0.48988   0.32859
  37   34519.1    289.7   0.046928006   0.44756   0.45672   0.29246  -0.39170
  38   34632.5    288.7   0.081093371   0.77086  -0.45587  -0.48579   0.57189
  39   34901.2    286.5   0.140562266   1.32588   0.11381  -1.00858   0.54379
  40   35088.8    285.0   0.035964618   0.33743   0.34455   0.00074  -0.46767
  41   35631.2    280.7   0.039178611   0.36199   0.12879  -0.58714   0.02591
  42   35874.2    278.8   0.016423762   0.15072   0.15618  -0.02318  -0.35467
  43   36100.7    277.0   0.033211829   0.30287  -0.09633   0.31519  -0.44073
  44   36226.3    276.0   0.012615892   0.11465   0.08479  -0.19891   0.26057
  45   36492.8    274.0   0.020511973   0.18504   0.03150   0.42848   0.02132
  46   36638.4    272.9   0.000219027   0.00197   0.04183  -0.00908   0.01167
  47   36692.5    272.5   0.024277870   0.21783   0.32790  -0.32188  -0.08187
  48   36962.7    270.5   0.008331864   0.07421  -0.18016  -0.19851  -0.04840
  49   36980.8    270.4   0.004921682   0.04381   0.12233  -0.15133  -0.07712
  50   37113.1    269.4   0.006335047   0.05619  -0.11748  -0.08426   0.18786
  51   37346.4    267.8   0.035558806   0.31345   0.28073  -0.18581  -0.44734
  52   37524.4    266.5   0.014973238   0.13136  -0.24793  -0.00818   0.26425
  53   37668.3    265.5   0.038738312   0.33856  -0.35388   0.36633   0.28130
  54   37731.8    265.0   0.004915094   0.04288  -0.04139  -0.14206   0.14488
  55   37858.9    264.1   0.046993961   0.40865   0.11391   0.44799  -0.44156
  56   37980.0    263.3   0.018573383   0.16099   0.17675   0.19806  -0.30087
  57   38074.9    262.6   0.067905193   0.58714  -0.40972   0.14021   0.63215
  58   38213.5    261.7   0.009155254   0.07887   0.18802  -0.09059   0.18792
  59   38665.7    258.6   0.078292465   0.66661  -0.14697  -0.13678   0.79139
  60   38705.8    258.4   0.008061710   0.06857  -0.05033  -0.02302  -0.25594
  61   39012.0    256.3   0.122008841   1.02960   0.13964   0.69004  -0.73072
  62   39577.9    252.7   0.049875970   0.41487   0.17434   0.06731  -0.61640
  63   39731.5    251.7   0.059066733   0.48942   0.02162   0.38979  -0.58053
  64   39922.2    250.5   0.027031336   0.22291  -0.29389   0.09705   0.35654
  65   39990.2    250.1   0.056497679   0.46511   0.29417   0.09893  -0.60728

FINAL SINGLE POINT ENERGY     -4530.814206800100

DIPOLE MOMENT
-------------
                                X             Y             Z
Electronic contribution:    -14.36526      24.36364      -6.57828
Nuclear contribution   :     13.99087     -26.80098       3.54567
                        -----------------------------------------
Total Dipole Moment    :     -0.37438      -2.43734      -3.03260
                        -----------------------------------------
Magnitude (a.u.)       :      3.90864
Magnitude (Debye)      :      9.93498

Rotational constants in cm-1:     0.000714     0.000184     0.000150
Rotational constants in MHz :    21.409877     5.513509     4.509301

                             ****ORCA TERMINATED NORMALLY****
TOTAL RUN TIME: 0 days 0 hours 10 minutes 29 seconds 243 msec
