                         Program Version 4.2.0 -  RELEASE  -
|  1> # ORCA input file
|  2> # SCF done       -178.092085278822          0.000702476873
|  3> ! CAM-B3LYP def2-SVP def2/J RIJCOSX Grid4 TightSCF
|  4> %maxcore 5000
|  5> %tddft
|  6>     Mode sTDDFT
|  7>     Ethresh 5.0
|  8>     maxcore 5000
|  9> end
| 10>
| 11> %pal
| 12>   nprocs 6
| 13>   end
| 14> * xyz 0 1
| 15>    C       -6.31422         0.56773        -4.83372
| 16>    C       -7.39749         0.23871        -5.63674
| 17>    C       -7.52821        -1.03112        -6.17751
| 18>    C       -6.57265        -2.00845        -5.93843
| 19>    C       -5.48990        -1.69130        -5.13750
| 20>    C       -5.35945        -0.40163        -4.57634
| 21>    C       -4.14409        -0.36268        -3.76747
| 22>    C       -3.65818         0.74362        -3.11139
| 23>    C       -4.26416         2.01521        -3.14722
| 24>    N       -4.70019         3.07782        -3.12858
| 25>    C       -2.48175         0.78754        -2.33865
| 26>    N       -1.53648         0.89989        -1.69359
| 27>    C       -3.59413        -1.70186        -3.77030
| 28>    C       -4.32265        -2.47269        -4.75370
| 29>    C       -3.85601        -3.57886        -5.42535
| 30>    C       -2.54592        -4.07581        -5.28207
| 31>    N       -1.46887        -4.47206        -5.23031
| 32>    C       -4.59712        -4.29285        -6.38339
| 33>    N       -5.16669        -4.94284        -7.14082
| 34>    C       -2.60321        -2.13748        -2.90505
| 35>    C       -2.34601        -3.41976        -2.43767
| 36>    C       -1.21662        -3.81063        -1.67226
| 37>    C       -1.26078        -5.17110        -1.26721
| 38>    C       -0.19982        -5.71134        -0.52373
| 39>    C        0.86542        -4.91345        -0.19731
| 40>    C        0.90635        -3.56960        -0.59627
| 41>    C       -0.11352        -3.01680        -1.32784
| 42>    C       -2.43762        -5.83541        -1.68889
| 43>    S       -3.45820        -4.75654        -2.57939
| 44>    C       -2.78658        -7.17438        -1.47450
| 45>    C       -3.95270        -7.73972        -1.91160
| 46>    C       -4.31947        -9.08740        -1.75445
| 47>    N       -5.54690        -9.54113        -2.20120
| 48>    C       -5.63921       -10.86971        -1.94720
| 49>    C       -6.46173       -11.97740        -2.06524
| 50>    C       -5.74210       -13.05797        -1.52107
| 51>    N       -4.51127       -12.60849        -1.08261
| 52>    C       -4.42375       -11.27520        -1.32082
| 53>    C       -3.60555       -10.16530        -1.19490
| 54>    C       -6.10471       -14.41343        -1.40418
| 55>    C       -7.33573       -14.92373        -1.70524
| 56>    C       -7.67975       -16.27888        -1.59726
| 57>    C       -8.96533       -16.85017        -1.75853
| 58>    C       -8.97470       -18.25679        -1.55438
| 59>    C      -10.17961       -18.96720        -1.66235
| 60>    C      -11.33343       -18.29115        -1.96341
| 61>    C      -11.32505       -16.90311        -2.16623
| 62>    C      -10.16254       -16.18465        -2.06616
| 63>    C       -7.69241       -18.78003        -1.25848
| 64>    S       -6.51123       -17.50074        -1.22211
| 65>    C       -7.34482       -20.10312        -1.00361
| 66>    C       -6.05920       -20.53807        -0.77646
| 67>    C       -5.76065       -21.87071        -0.50218
| 68>    C       -4.51478       -22.39457        -0.21323
| 69>    C       -4.16295       -23.79487        -0.35089
| 70>    C       -5.01655       -24.86486        -0.46169
| 71>    C       -6.42378       -24.80014        -0.42514
| 72>    N       -7.57234       -24.83103        -0.40283
| 73>    C       -4.59541       -26.20368        -0.59369
| 74>    N       -4.32791       -27.31511        -0.70455
| 75>    C       -2.70579       -23.86671        -0.36286
| 76>    C       -2.18619       -22.57419        -0.12770
| 77>    C       -0.81947       -22.35529        -0.11734
| 78>    C        0.02664       -23.43177        -0.34207
| 79>    C       -0.48126       -24.70293        -0.56212
| 80>    C       -1.84943       -24.93459        -0.57342
| 81>    C       -3.30318       -21.66756         0.10561
| 82>    C       -3.20888       -20.44306         0.72256
| 83>    C       -1.99238       -19.78513         0.98985
| 84>    N       -1.04616       -19.17000         1.20503
| 85>    C       -4.29216       -19.72648         1.27131
| 86>    N       -5.11163       -19.11253         1.79224
| 87>    H       -6.23049         1.56090        -4.42452
| 88>    H       -8.14890         0.98642        -5.84030
| 89>    H       -8.38250        -1.26511        -6.79451
| 90>    H       -6.68352        -2.99328        -6.36290
| 91>    H       -1.98777        -1.37104        -2.45424
| 92>    H       -0.22664        -6.74466        -0.21484
| 93>    H        1.68646        -5.31921         0.37400
| 94>    H        1.75740        -2.96476        -0.32312
| 95>    H       -0.06950        -1.98290        -1.63182
| 96>    H       -2.07404        -7.78290        -0.93834
| 97>    H       -4.66197        -7.10608        -2.43108
| 98>    H       -6.23547        -8.96327        -2.65193
| 99>    H       -7.44129       -12.02929        -2.49410
|100>    H       -3.81913       -13.18965        -0.64135
|101>    H       -2.62312       -10.11272        -0.77266
|102>    H       -5.34541       -15.08986        -1.03113
|103>    H       -8.11589       -14.25159        -2.03024
|104>    H      -10.19402       -20.03446        -1.50747
|105>    H      -12.26530       -18.82938        -2.04664
|106>    H      -12.25021       -16.39984        -2.40268
|107>    H      -10.16368       -15.11697        -2.22096
|108>    H       -8.14832       -20.82647        -0.96127
|109>    H       -5.26069       -19.81377        -0.85510
|110>    H       -6.57895       -22.56979        -0.60630
|111>    H       -0.41154       -21.37148         0.04895
|112>    H        1.09442       -23.27383        -0.34514
|113>    H        0.19475       -25.52724        -0.73113
|114>    H       -2.22537       -25.92898        -0.74889
|115> *
|116>
|117>                          ****END OF INPUT****

CARTESIAN COORDINATES (ANGSTROEM)
---------------------------------
  C     -6.314220    0.567730   -4.833720
  C     -7.397490    0.238710   -5.636740
  C     -7.528210   -1.031120   -6.177510
  C     -6.572650   -2.008450   -5.938430
  C     -5.489900   -1.691300   -5.137500
  C     -5.359450   -0.401630   -4.576340
  C     -4.144090   -0.362680   -3.767470
  C     -3.658180    0.743620   -3.111390
  C     -4.264160    2.015210   -3.147220
  N     -4.700190    3.077820   -3.128580
  C     -2.481750    0.787540   -2.338650
  N     -1.536480    0.899890   -1.693590
  C     -3.594130   -1.701860   -3.770300
  C     -4.322650   -2.472690   -4.753700
  C     -3.856010   -3.578860   -5.425350
  C     -2.545920   -4.075810   -5.282070
  N     -1.468870   -4.472060   -5.230310
  C     -4.597120   -4.292850   -6.383390
  N     -5.166690   -4.942840   -7.140820
  C     -2.603210   -2.137480   -2.905050
  C     -2.346010   -3.419760   -2.437670
  C     -1.216620   -3.810630   -1.672260
  C     -1.260780   -5.171100   -1.267210
  C     -0.199820   -5.711340   -0.523730
  C      0.865420   -4.913450   -0.197310
  C      0.906350   -3.569600   -0.596270
  C     -0.113520   -3.016800   -1.327840
  C     -2.437620   -5.835410   -1.688890
  S     -3.458200   -4.756540   -2.579390
  C     -2.786580   -7.174380   -1.474500
  C     -3.952700   -7.739720   -1.911600
  C     -4.319470   -9.087400   -1.754450
  N     -5.546900   -9.541130   -2.201200
  C     -5.639210  -10.869710   -1.947200
  C     -6.461730  -11.977400   -2.065240
  C     -5.742100  -13.057970   -1.521070
  N     -4.511270  -12.608490   -1.082610
  C     -4.423750  -11.275200   -1.320820
  C     -3.605550  -10.165300   -1.194900
  C     -6.104710  -14.413430   -1.404180
  C     -7.335730  -14.923730   -1.705240
  C     -7.679750  -16.278880   -1.597260
  C     -8.965330  -16.850170   -1.758530
  C     -8.974700  -18.256790   -1.554380
  C    -10.179610  -18.967200   -1.662350
  C    -11.333430  -18.291150   -1.963410
  C    -11.325050  -16.903110   -2.166230
  C    -10.162540  -16.184650   -2.066160
  C     -7.692410  -18.780030   -1.258480
  S     -6.511230  -17.500740   -1.222110
  C     -7.344820  -20.103120   -1.003610
  C     -6.059200  -20.538070   -0.776460
  C     -5.760650  -21.870710   -0.502180
  C     -4.514780  -22.394570   -0.213230
  C     -4.162950  -23.794870   -0.350890
  C     -5.016550  -24.864860   -0.461690
  C     -6.423780  -24.800140   -0.425140
  N     -7.572340  -24.831030   -0.402830
  C     -4.595410  -26.203680   -0.593690
  N     -4.327910  -27.315110   -0.704550
  C     -2.705790  -23.866710   -0.362860
  C     -2.186190  -22.574190   -0.127700
  C     -0.819470  -22.355290   -0.117340
  C      0.026640  -23.431770   -0.342070
  C     -0.481260  -24.702930   -0.562120
  C     -1.849430  -24.934590   -0.573420
  C     -3.303180  -21.667560    0.105610
  C     -3.208880  -20.443060    0.722560
  C     -1.992380  -19.785130    0.989850
  N     -1.046160  -19.170000    1.205030
  C     -4.292160  -19.726480    1.271310
  N     -5.111630  -19.112530    1.792240
  H     -6.230490    1.560900   -4.424520
  H     -8.148900    0.986420   -5.840300
  H     -8.382500   -1.265110   -6.794510
  H     -6.683520   -2.993280   -6.362900
  H     -1.987770   -1.371040   -2.454240
  H     -0.226640   -6.744660   -0.214840
  H      1.686460   -5.319210    0.374000
  H      1.757400   -2.964760   -0.323120
  H     -0.069500   -1.982900   -1.631820
  H     -2.074040   -7.782900   -0.938340
  H     -4.661970   -7.106080   -2.431080
  H     -6.235470   -8.963270   -2.651930
  H     -7.441290  -12.029290   -2.494100
  H     -3.819130  -13.189650   -0.641350
  H     -2.623120  -10.112720   -0.772660
  H     -5.345410  -15.089860   -1.031130
  H     -8.115890  -14.251590   -2.030240
  H    -10.194020  -20.034460   -1.507470
  H    -12.265300  -18.829380   -2.046640
  H    -12.250210  -16.399840   -2.402680
  H    -10.163680  -15.116970   -2.220960
  H     -8.148320  -20.826470   -0.961270
  H     -5.260690  -19.813770   -0.855100
  H     -6.578950  -22.569790   -0.606300
  H     -0.411540  -21.371480    0.048950
  H      1.094420  -23.273830   -0.345140
  H      0.194750  -25.527240   -0.731130
  H     -2.225370  -25.928980   -0.748890

 Total Charge           Charge          ....    0
 Multiplicity           Mult            ....    1
 Number of Electrons    NEL             ....  490
 Basis Dimension        Dim             .... 1156

ORBITAL ENERGIES
----------------

  NO   OCC          E(Eh)            E(eV)
   0   2.0000     -88.986076     -2421.4342
   1   2.0000     -88.981841     -2421.3190
   2   2.0000     -14.487951      -394.2372
   3   2.0000     -14.487685      -394.2300
   4   2.0000     -14.415358      -392.2618
   5   2.0000     -14.414710      -392.2442
   6   2.0000     -14.413553      -392.2127
   7   2.0000     -14.411725      -392.1630
   8   2.0000     -14.410799      -392.1378
   9   2.0000     -14.410602      -392.1324
  10   2.0000     -14.407244      -392.0410
  11   2.0000     -14.405812      -392.0021
  12   2.0000     -10.343513      -281.4613
  13   2.0000     -10.341538      -281.4075
  14   2.0000     -10.340807      -281.3877
  15   2.0000     -10.340316      -281.3743
  16   2.0000     -10.338728      -281.3311
  17   2.0000     -10.338709      -281.3306
  18   2.0000     -10.338686      -281.3299
  19   2.0000     -10.337885      -281.3082
  20   2.0000     -10.334468      -281.2152
  21   2.0000     -10.333947      -281.2010
  22   2.0000     -10.333050      -281.1766
  23   2.0000     -10.332617      -281.1648
  24   2.0000     -10.328604      -281.0556
  25   2.0000     -10.327602      -281.0283
  26   2.0000     -10.321936      -280.8742
  27   2.0000     -10.321531      -280.8631
  28   2.0000     -10.318958      -280.7931
  29   2.0000     -10.317955      -280.7658
  30   2.0000     -10.317788      -280.7613
  31   2.0000     -10.317378      -280.7501
  32   2.0000     -10.317298      -280.7480
  33   2.0000     -10.317118      -280.7430
  34   2.0000     -10.315399      -280.6963
  35   2.0000     -10.315246      -280.6921
  36   2.0000     -10.314680      -280.6767
  37   2.0000     -10.314149      -280.6623
  38   2.0000     -10.314005      -280.6583
  39   2.0000     -10.310617      -280.5661
  40   2.0000     -10.310219      -280.5553
  41   2.0000     -10.309856      -280.5454
  42   2.0000     -10.308692      -280.5138
  43   2.0000     -10.308141      -280.4988
  44   2.0000     -10.305306      -280.4216
  45   2.0000     -10.305271      -280.4207
  46   2.0000     -10.304328      -280.3950
  47   2.0000     -10.303937      -280.3844
  48   2.0000     -10.302449      -280.3439
  49   2.0000     -10.300802      -280.2991
  50   2.0000     -10.300232      -280.2836
  51   2.0000     -10.299900      -280.2745
  52   2.0000     -10.298892      -280.2471
  53   2.0000     -10.298270      -280.2302
  54   2.0000     -10.297557      -280.2108
  55   2.0000     -10.295797      -280.1629
  56   2.0000     -10.295232      -280.1475
  57   2.0000     -10.294974      -280.1405
  58   2.0000     -10.294650      -280.1317
  59   2.0000     -10.293779      -280.1080
  60   2.0000     -10.293093      -280.0893
  61   2.0000     -10.292800      -280.0813
  62   2.0000     -10.292188      -280.0647
  63   2.0000     -10.291919      -280.0574
  64   2.0000     -10.291565      -280.0477
  65   2.0000     -10.290326      -280.0140
  66   2.0000     -10.290289      -280.0130
  67   2.0000     -10.289563      -279.9932
  68   2.0000     -10.289372      -279.9880
  69   2.0000     -10.288286      -279.9585
  70   2.0000     -10.286611      -279.9129
  71   2.0000     -10.286551      -279.9113
  72   2.0000      -8.080997      -219.8951
  73   2.0000      -8.076405      -219.7701
  74   2.0000      -6.049927      -164.6269
  75   2.0000      -6.045989      -164.5197
  76   2.0000      -6.045510      -164.5067
  77   2.0000      -6.043708      -164.4577
  78   2.0000      -6.041505      -164.3977
  79   2.0000      -6.038855      -164.3256
  80   2.0000      -1.121237       -30.5104
  81   2.0000      -1.084415       -29.5084
  82   2.0000      -1.027155       -27.9503
  83   2.0000      -1.025257       -27.8987
  84   2.0000      -1.019988       -27.7553
  85   2.0000      -1.014594       -27.6085
  86   2.0000      -1.011214       -27.5165
  87   2.0000      -1.006232       -27.3810
  88   2.0000      -1.000470       -27.2242
  89   2.0000      -0.996035       -27.1035
  90   2.0000      -0.993124       -27.0243
  91   2.0000      -0.990995       -26.9663
  92   2.0000      -0.987587       -26.8736
  93   2.0000      -0.986941       -26.8560
  94   2.0000      -0.955290       -25.9948
  95   2.0000      -0.952647       -25.9229
  96   2.0000      -0.950722       -25.8705
  97   2.0000      -0.948665       -25.8145
  98   2.0000      -0.941074       -25.6079
  99   2.0000      -0.931312       -25.3423
 100   2.0000      -0.931134       -25.3374
 101   2.0000      -0.926202       -25.2033
 102   2.0000      -0.918235       -24.9865
 103   2.0000      -0.904854       -24.6223
 104   2.0000      -0.897113       -24.4117
 105   2.0000      -0.889811       -24.2130
 106   2.0000      -0.885891       -24.1063
 107   2.0000      -0.881643       -23.9907
 108   2.0000      -0.875326       -23.8188
 109   2.0000      -0.859695       -23.3935
 110   2.0000      -0.858763       -23.3681
 111   2.0000      -0.856001       -23.2930
 112   2.0000      -0.855052       -23.2672
 113   2.0000      -0.849016       -23.1029
 114   2.0000      -0.845363       -23.0035
 115   2.0000      -0.834881       -22.7183
 116   2.0000      -0.818845       -22.2819
 117   2.0000      -0.804594       -21.8941
 118   2.0000      -0.794690       -21.6246
 119   2.0000      -0.783814       -21.3287
 120   2.0000      -0.778709       -21.1897
 121   2.0000      -0.765425       -20.8283
 122   2.0000      -0.752523       -20.4772
 123   2.0000      -0.733285       -19.9537
 124   2.0000      -0.725799       -19.7500
 125   2.0000      -0.723293       -19.6818
 126   2.0000      -0.722799       -19.6684
 127   2.0000      -0.716710       -19.5027
 128   2.0000      -0.709666       -19.3110
 129   2.0000      -0.708892       -19.2899
 130   2.0000      -0.704719       -19.1764
 131   2.0000      -0.704147       -19.1608
 132   2.0000      -0.701207       -19.0808
 133   2.0000      -0.692909       -18.8550
 134   2.0000      -0.684329       -18.6215
 135   2.0000      -0.676450       -18.4071
 136   2.0000      -0.672768       -18.3069
 137   2.0000      -0.666799       -18.1445
 138   2.0000      -0.658164       -17.9096
 139   2.0000      -0.657472       -17.8907
 140   2.0000      -0.654924       -17.8214
 141   2.0000      -0.652871       -17.7655
 142   2.0000      -0.651696       -17.7335
 143   2.0000      -0.647223       -17.6118
 144   2.0000      -0.638654       -17.3786
 145   2.0000      -0.630665       -17.1613
 146   2.0000      -0.624084       -16.9822
 147   2.0000      -0.614299       -16.7159
 148   2.0000      -0.601039       -16.3551
 149   2.0000      -0.593604       -16.1528
 150   2.0000      -0.588895       -16.0247
 151   2.0000      -0.582489       -15.8503
 152   2.0000      -0.577459       -15.7135
 153   2.0000      -0.575407       -15.6576
 154   2.0000      -0.573552       -15.6071
 155   2.0000      -0.572741       -15.5851
 156   2.0000      -0.570533       -15.5250
 157   2.0000      -0.567504       -15.4426
 158   2.0000      -0.565570       -15.3899
 159   2.0000      -0.563524       -15.3343
 160   2.0000      -0.556114       -15.1326
 161   2.0000      -0.553539       -15.0626
 162   2.0000      -0.550524       -14.9805
 163   2.0000      -0.541506       -14.7351
 164   2.0000      -0.537246       -14.6192
 165   2.0000      -0.535754       -14.5786
 166   2.0000      -0.534882       -14.5549
 167   2.0000      -0.532801       -14.4982
 168   2.0000      -0.531221       -14.4553
 169   2.0000      -0.529442       -14.4069
 170   2.0000      -0.527596       -14.3566
 171   2.0000      -0.526601       -14.3296
 172   2.0000      -0.524275       -14.2662
 173   2.0000      -0.523647       -14.2492
 174   2.0000      -0.521412       -14.1884
 175   2.0000      -0.518258       -14.1025
 176   2.0000      -0.516278       -14.0486
 177   2.0000      -0.514073       -13.9886
 178   2.0000      -0.505051       -13.7431
 179   2.0000      -0.503324       -13.6961
 180   2.0000      -0.502482       -13.6732
 181   2.0000      -0.501178       -13.6377
 182   2.0000      -0.495188       -13.4748
 183   2.0000      -0.491742       -13.3810
 184   2.0000      -0.490464       -13.3462
 185   2.0000      -0.486201       -13.2302
 186   2.0000      -0.481078       -13.0908
 187   2.0000      -0.477961       -13.0060
 188   2.0000      -0.473240       -12.8775
 189   2.0000      -0.472634       -12.8610
 190   2.0000      -0.469352       -12.7717
 191   2.0000      -0.463668       -12.6170
 192   2.0000      -0.457178       -12.4404
 193   2.0000      -0.455043       -12.3823
 194   2.0000      -0.454051       -12.3554
 195   2.0000      -0.452625       -12.3166
 196   2.0000      -0.451168       -12.2769
 197   2.0000      -0.449556       -12.2330
 198   2.0000      -0.448307       -12.1991
 199   2.0000      -0.448176       -12.1955
 200   2.0000      -0.446684       -12.1549
 201   2.0000      -0.446159       -12.1406
 202   2.0000      -0.444600       -12.0982
 203   2.0000      -0.443884       -12.0787
 204   2.0000      -0.443645       -12.0722
 205   2.0000      -0.442242       -12.0340
 206   2.0000      -0.442022       -12.0280
 207   2.0000      -0.439891       -11.9700
 208   2.0000      -0.439729       -11.9656
 209   2.0000      -0.437431       -11.9031
 210   2.0000      -0.434948       -11.8355
 211   2.0000      -0.431912       -11.7529
 212   2.0000      -0.430410       -11.7120
 213   2.0000      -0.429338       -11.6829
 214   2.0000      -0.425796       -11.5865
 215   2.0000      -0.424456       -11.5500
 216   2.0000      -0.423873       -11.5342
 217   2.0000      -0.423456       -11.5228
 218   2.0000      -0.420959       -11.4549
 219   2.0000      -0.419069       -11.4035
 220   2.0000      -0.414914       -11.2904
 221   2.0000      -0.414049       -11.2668
 222   2.0000      -0.408833       -11.1249
 223   2.0000      -0.404570       -11.0089
 224   2.0000      -0.403652       -10.9839
 225   2.0000      -0.401994       -10.9388
 226   2.0000      -0.399903       -10.8819
 227   2.0000      -0.395522       -10.7627
 228   2.0000      -0.383579       -10.4377
 229   2.0000      -0.377991       -10.2857
 230   2.0000      -0.373203       -10.1554
 231   2.0000      -0.372468       -10.1354
 232   2.0000      -0.345679        -9.4064
 233   2.0000      -0.338867        -9.2210
 234   2.0000      -0.337857        -9.1936
 235   2.0000      -0.331613        -9.0236
 236   2.0000      -0.330194        -8.9850
 237   2.0000      -0.326667        -8.8891
 238   2.0000      -0.322650        -8.7798
 239   2.0000      -0.320935        -8.7331
 240   2.0000      -0.305889        -8.3237
 241   2.0000      -0.299969        -8.1626
 242   2.0000      -0.281595        -7.6626
 243   2.0000      -0.252313        -6.8658
 244   2.0000      -0.227461        -6.1895
 245   0.0000      -0.125737        -3.4215
 246   0.0000      -0.101648        -2.7660
 247   0.0000      -0.081424        -2.2157
 248   0.0000      -0.077670        -2.1135
 249   0.0000      -0.058281        -1.5859

MULLIKEN ATOMIC CHARGES
-----------------------
   0 C :   -0.034798
   1 C :    0.042889
   2 C :    0.046305
   3 C :   -0.038956
   4 C :    0.004421
   5 C :    0.004177
   6 C :    0.311405
   7 C :   -0.361626
   8 C :   -0.188550
   9 N :    0.144348
  10 C :   -0.181737
  11 N :    0.135974
  12 C :   -0.083261
  13 C :    0.220702
  14 C :   -0.347478
  15 C :   -0.215688
  16 N :    0.169687
  17 C :   -0.176744
  18 N :    0.139242
  19 C :    0.009063
  20 C :   -0.121366
  21 C :    0.148985
  22 C :    0.103199
  23 C :   -0.025913
  24 C :    0.028878
  25 C :    0.043011
  26 C :   -0.032298
  27 C :   -0.034813
  28 S :    0.149123
  29 C :   -0.030440
  30 C :    0.023359
  31 C :    0.103545
  32 N :   -0.032149
  33 C :    0.128017
  34 C :   -0.161730
  35 C :    0.106601
  36 N :   -0.032541
  37 C :    0.124337
  38 C :   -0.152450
  39 C :    0.015706
  40 C :   -0.026504
  41 C :   -0.049939
  42 C :    0.099270
  43 C :    0.135517
  44 C :   -0.039977
  45 C :    0.039410
  46 C :    0.027738
  47 C :   -0.030215
  48 C :   -0.082534
  49 S :    0.157021
  50 C :    0.010262
  51 C :   -0.025115
  52 C :    0.027682
  53 C :   -0.066785
  54 C :    0.307643
  55 C :   -0.353332
  56 C :   -0.184603
  57 N :    0.140292
  58 C :   -0.188562
  59 N :    0.150579
  60 C :    0.007740
  61 C :    0.004933
  62 C :   -0.035022
  63 C :    0.044116
  64 C :    0.045039
  65 C :   -0.033527
  66 C :    0.252277
  67 C :   -0.349652
  68 C :   -0.183397
  69 N :    0.140212
  70 C :   -0.225197
  71 N :    0.170515
  72 H :    0.001719
  73 H :   -0.001093
  74 H :   -0.002613
  75 H :   -0.002015
  76 H :    0.007838
  77 H :   -0.025501
  78 H :   -0.007413
  79 H :    0.001369
  80 H :    0.002762
  81 H :   -0.007608
  82 H :   -0.005249
  83 H :    0.130365
  84 H :   -0.024681
  85 H :    0.131792
  86 H :   -0.020969
  87 H :   -0.006257
  88 H :   -0.008036
  89 H :   -0.013165
  90 H :   -0.001952
  91 H :   -0.007354
  92 H :   -0.023437
  93 H :    0.015401
  94 H :    0.020660
  95 H :    0.003042
  96 H :    0.000711
  97 H :    0.001254
  98 H :    0.001247
  99 H :    0.002858
Sum of atomic charges:    0.0000000

LOEWDIN ATOMIC CHARGES
----------------------
   0 C :    0.002147
   1 C :   -0.004778
   2 C :   -0.002664
   3 C :   -0.005070
   4 C :   -0.010534
   5 C :   -0.013057
   6 C :    0.078994
   7 C :   -0.152019
   8 C :   -0.019774
   9 N :   -0.061389
  10 C :   -0.018367
  11 N :   -0.064836
  12 C :   -0.093255
  13 C :    0.058362
  14 C :   -0.160814
  15 C :   -0.038556
  16 N :   -0.057324
  17 C :   -0.020928
  18 N :   -0.067058
  19 C :    0.034149
  20 C :   -0.188738
  21 C :    0.000522
  22 C :   -0.051226
  23 C :   -0.003556
  24 C :   -0.022841
  25 C :    0.005709
  26 C :   -0.009502
  27 C :   -0.107082
  28 S :    0.494442
  29 C :   -0.055010
  30 C :    0.001619
  31 C :    0.001407
  32 N :    0.075106
  33 C :   -0.002098
  34 C :   -0.081767
  35 C :    0.009864
  36 N :    0.074327
  37 C :   -0.006731
  38 C :   -0.070496
  39 C :   -0.013204
  40 C :   -0.045627
  41 C :   -0.132427
  42 C :   -0.048857
  43 C :   -0.017400
  44 C :   -0.014337
  45 C :   -0.004312
  46 C :   -0.021963
  47 C :   -0.007768
  48 C :   -0.185868
  49 S :    0.492893
  50 C :    0.026663
  51 C :   -0.053858
  52 C :    0.054253
  53 C :   -0.080172
  54 C :    0.078131
  55 C :   -0.144837
  56 C :   -0.019952
  57 N :   -0.059041
  58 C :   -0.019542
  59 N :   -0.056489
  60 C :   -0.012753
  61 C :   -0.011001
  62 C :   -0.002023
  63 C :   -0.000585
  64 C :   -0.001927
  65 C :    0.002867
  66 C :    0.073029
  67 C :   -0.149387
  68 C :   -0.019917
  69 N :   -0.062462
  70 C :   -0.026868
  71 N :   -0.058875
  72 H :    0.040447
  73 H :    0.035257
  74 H :    0.034504
  75 H :    0.038068
  76 H :    0.047437
  77 H :    0.028515
  78 H :    0.032451
  79 H :    0.036552
  80 H :    0.038384
  81 H :    0.034778
  82 H :    0.027790
  83 H :    0.094944
  84 H :    0.027650
  85 H :    0.095740
  86 H :    0.029373
  87 H :    0.028056
  88 H :    0.034529
  89 H :    0.032716
  90 H :    0.034810
  91 H :    0.032479
  92 H :    0.028767
  93 H :    0.044149
  94 H :    0.023197
  95 H :    0.043769
  96 H :    0.039239
  97 H :    0.035926
  98 H :    0.036226
  99 H :    0.040684

  Mayer bond orders larger than 0.100000
B(  0-C ,  1-C ) :   1.3609 B(  0-C ,  5-C ) :   1.3933 B(  0-C , 72-H ) :   0.9825
B(  1-C ,  2-C ) :   1.3885 B(  1-C , 73-H ) :   0.9852 B(  2-C ,  3-C ) :   1.3544
B(  2-C , 74-H ) :   0.9860 B(  3-C ,  4-C ) :   1.3925 B(  3-C , 75-H ) :   0.9852
B(  4-C ,  5-C ) :   1.3201 B(  4-C , 13-C ) :   1.0070 B(  5-C ,  6-C ) :   0.9837
B(  6-C ,  7-C ) :   1.5876 B(  6-C , 12-C ) :   1.1212 B(  7-C ,  8-C ) :   1.1540
B(  7-C , 10-C ) :   1.1467 B(  8-C ,  9-N ) :   2.9676 B( 10-C , 11-N ) :   2.9676
B( 12-C , 13-C ) :   1.0764 B( 12-C , 19-C ) :   1.4118 B( 13-C , 14-C ) :   1.5883
B( 14-C , 15-C ) :   1.1555 B( 14-C , 17-C ) :   1.1484 B( 15-C , 16-N ) :   3.0257
B( 17-C , 18-N ) :   2.9825 B( 19-C , 20-C ) :   1.3749 B( 19-C , 76-H ) :   0.9253
B( 20-C , 21-C ) :   1.2040 B( 20-C , 28-S ) :   1.0723 B( 21-C , 22-C ) :   1.2505
B( 21-C , 26-C ) :   1.2681 B( 22-C , 23-C ) :   1.2439 B( 22-C , 27-C ) :   1.2246
B( 23-C , 24-C ) :   1.5133 B( 23-C , 77-H ) :   0.9903 B( 24-C , 25-C ) :   1.2544
B( 24-C , 78-H ) :   0.9849 B( 25-C , 26-C ) :   1.5003 B( 25-C , 79-H ) :   0.9845
B( 26-C , 80-H ) :   0.9874 B( 27-C , 28-S ) :   1.1783 B( 27-C , 29-C ) :   1.2602
B( 29-C , 30-C ) :   1.5420 B( 29-C , 81-H ) :   0.9706 B( 30-C , 31-C ) :   1.1819
B( 30-C , 82-H ) :   0.9608 B( 31-C , 32-N ) :   1.1580 B( 31-C , 38-C ) :   1.3478
B( 32-N , 33-C ) :   1.1809 B( 32-N , 83-H ) :   0.9346 B( 33-C , 34-C ) :   1.2918
B( 33-C , 37-C ) :   1.2656 B( 34-C , 35-C ) :   1.3616 B( 34-C , 84-H ) :   1.0294
B( 35-C , 36-N ) :   1.1687 B( 35-C , 39-C ) :   1.1627 B( 36-N , 37-C ) :   1.1705
B( 36-N , 85-H ) :   0.9343 B( 37-C , 38-C ) :   1.3049 B( 38-C , 86-H ) :   1.0293
B( 39-C , 40-C ) :   1.5725 B( 39-C , 87-H ) :   0.9628 B( 40-C , 41-C ) :   1.2380
B( 40-C , 88-H ) :   0.9701 B( 41-C , 42-C ) :   1.2462 B( 41-C , 49-S ) :   1.1783
B( 42-C , 43-C ) :   1.2404 B( 42-C , 47-C ) :   1.2389 B( 43-C , 44-C ) :   1.2514
B( 43-C , 48-C ) :   1.2333 B( 44-C , 45-C ) :   1.5151 B( 44-C , 89-H ) :   0.9928
B( 45-C , 46-C ) :   1.2451 B( 45-C , 90-H ) :   0.9856 B( 46-C , 47-C ) :   1.5224
B( 46-C , 91-H ) :   0.9854 B( 47-C , 92-H ) :   0.9914 B( 48-C , 49-S ) :   1.0920
B( 48-C , 50-C ) :   1.2909 B( 50-C , 51-C ) :   1.4586 B( 50-C , 93-H ) :   0.9809
B( 51-C , 52-C ) :   1.2814 B( 51-C , 94-H ) :   0.9674 B( 52-C , 53-C ) :   1.4321
B( 52-C , 95-H ) :   0.9492 B( 53-C , 54-C ) :   1.0896 B( 53-C , 66-C ) :   1.0667
B( 54-C , 55-C ) :   1.6010 B( 54-C , 60-C ) :   0.9906 B( 55-C , 56-C ) :   1.1459
B( 55-C , 58-C ) :   1.1497 B( 56-C , 57-N ) :   2.9623 B( 58-C , 59-N ) :   2.9715
B( 60-C , 61-C ) :   1.3132 B( 60-C , 65-C ) :   1.3909 B( 61-C , 62-C ) :   1.3887
B( 61-C , 66-C ) :   1.0085 B( 62-C , 63-C ) :   1.3580 B( 62-C , 96-H ) :   0.9852
B( 63-C , 64-C ) :   1.3845 B( 63-C , 97-H ) :   0.9869 B( 64-C , 65-C ) :   1.3625
B( 64-C , 98-H ) :   0.9859 B( 65-C , 99-H ) :   0.9835 B( 66-C , 67-C ) :   1.5934
B( 67-C , 68-C ) :   1.1437 B( 67-C , 70-C ) :   1.1570 B( 68-C , 69-N ) :   2.9804
B( 70-C , 71-N ) :   3.0180

-----------------------------------------------------------------------------
         ABSORPTION SPECTRUM VIA TRANSITION ELECTRIC DIPOLE MOMENTS
-----------------------------------------------------------------------------
State   Energy  Wavelength   fosc         T2         TX        TY        TZ
        (cm-1)    (nm)                  (au**2)     (au)      (au)      (au)
-----------------------------------------------------------------------------
   0    8830.8   1132.4   1.859012966  69.30375   0.32218   8.16141  -1.60975
   1   13593.8    735.6   0.078178433   1.89331  -0.99108   0.78028   0.54977
   2   16694.9    599.0   0.007219138   0.14236  -0.19236  -0.31801  -0.06501
   3   18463.0    541.6   0.296895389   5.29392  -0.66633  -2.04731  -0.81145
   4   18644.9    536.3   0.067899240   1.19889  -0.61858  -0.88067  -0.20166
   5   20160.5    496.0   0.538439293   8.79248  -2.61970  -1.05550  -0.90310
   6   22356.2    447.3   0.232625141   3.42558  -1.73203   0.24591  -0.60431
   7   24023.5    416.3   0.006076157   0.08327   0.00665   0.16826  -0.23433
   8   24622.9    406.1   0.246144347   3.29099  -1.71858   0.09454  -0.57317
   9   25104.9    398.3   0.057376077   0.75240   0.78611  -0.35096   0.10608
  10   26852.5    372.4   0.043411060   0.53222   0.26163   0.45572   0.50605
  11   26950.8    371.0   0.053652007   0.65538  -0.48487   0.64759   0.03020
  12   27100.9    369.0   0.156122344   1.89652  -0.50228  -1.18414  -0.49198
  13   27527.9    363.3   0.180157693   2.15454   1.38187   0.21063   0.44790
  14   28103.4    355.8   0.025544147   0.29923  -0.49886   0.11546  -0.19247
  15   29049.0    344.2   0.002757291   0.03125   0.11519  -0.13408  -0.00146
  16   29433.9    339.7   0.155490049   1.73912  -1.15686   0.07760  -0.62832
  17   29930.5    334.1   0.082128569   0.90335   0.92351   0.07555   0.21160
  18   30163.8    331.5   0.090785918   0.99085  -0.79292   0.60029  -0.04214
  19   30663.2    326.1   0.062174073   0.66753  -0.23736  -0.74895  -0.22417
  20   31166.1    320.9   0.234287057   2.47481  -0.35331  -1.48994  -0.36065
  21   31342.4    319.1   0.036484441   0.38322  -0.25668   0.02711  -0.56267
  22   31624.9    316.2   0.030625314   0.31881   0.07636  -0.41749  -0.37240
  23   31785.0    314.6   0.732039414   7.58207  -0.07815  -2.51195  -1.12519
  24   32163.0    310.9   0.304228819   3.11401  -1.20052  -1.27539  -0.21480
  25   32210.4    310.5   0.003899248   0.03985  -0.17897   0.08780   0.01072
  26   32711.5    305.7   0.061377312   0.61771   0.58737   0.50173   0.14483
  27   33161.3    301.6   0.045424364   0.45095  -0.64494   0.12050  -0.14315
  28   33729.3    296.5   0.026033041   0.25409  -0.07785   0.39514   0.30315
  29   33942.0    294.6   0.049877691   0.48378   0.14284   0.67971   0.03691
  30   34170.4    292.7   0.246091214   2.37094  -1.38567   0.12944  -0.65887
  31   34378.2    290.9   0.332602671   3.18506  -1.63595   0.70254   0.12311
  32   34687.2    288.3   0.063892186   0.60639  -0.42472  -0.32164  -0.56794
  33   35167.5    284.4   0.042812890   0.40078  -0.38890   0.07451  -0.49395
  34   36062.5    277.3   0.049867610   0.45524  -0.62782   0.24539  -0.02941
  35   36870.0    271.2   0.167078073   1.49184  -1.19867   0.20869  -0.10713
  36   37690.1    265.3   0.001185453   0.01035   0.00682  -0.09341   0.03978
  37   37874.9    264.0   0.008617309   0.07490   0.22959  -0.03802  -0.14403
  38   37939.4    263.6   0.003283732   0.02849   0.09156   0.12471   0.06751
  39   38151.7    262.1   0.011697343   0.10094  -0.08777   0.16800   0.25497
  40   38562.6    259.3   0.139240549   1.18871  -0.96541  -0.02768  -0.50588
  41   38916.2    257.0   0.030284002   0.25619  -0.47798   0.16164  -0.03993
  42   39015.5    256.3   0.039096268   0.32989   0.53718  -0.06470  -0.19274
  43   39151.1    255.4   0.044382599   0.37320   0.53363   0.29717  -0.01165
  44   39375.8    254.0   0.022556862   0.18859   0.40707  -0.11905   0.09335
  45   39642.1    252.3   0.017603782   0.14619  -0.28275   0.24251  -0.08621
  46   39743.4    251.6   0.048531268   0.40201  -0.40696   0.47872   0.08495
  47   39990.8    250.1   0.067005779   0.55160   0.05278  -0.57870  -0.46252
  48   40106.0    249.3   0.107263223   0.88047   0.88643   0.15825   0.26394
  49   40248.7    248.5   0.045185597   0.36959  -0.59173  -0.08419  -0.11117

FINAL SINGLE POINT ENERGY     -3643.018481063857

DIPOLE MOMENT
-------------
                                X             Y             Z
Electronic contribution:      6.45188       5.73779      -0.86695
Nuclear contribution   :     -8.03206      -6.40118       0.83269
                        -----------------------------------------
Total Dipole Moment    :     -1.58017      -0.66339      -0.03426
                        -----------------------------------------
Magnitude (a.u.)       :      1.71412
Magnitude (Debye)      :      4.35695

Rotational constants in cm-1:     0.001940     0.000211     0.000196
Rotational constants in MHz :    58.149956     6.316742     5.862588

                             ****ORCA TERMINATED NORMALLY****
TOTAL RUN TIME: 0 days 0 hours 10 minutes 41 seconds 982 msec
