                         Program Version 4.2.0 -  RELEASE  -
|  1> # ORCA input file
|  2> # SCF done       -188.402662596996          0.000607557321
|  3> ! CAM-B3LYP def2-SVP def2/J RIJCOSX Grid4 TightSCF
|  4> %maxcore 5000
|  5> %tddft
|  6>     Mode sTDDFT
|  7>     Ethresh 5.0
|  8>     maxcore 5000
|  9> end
| 10>
| 11> %pal
| 12>   nprocs 6
| 13>   end
| 14> * xyz 0 1
| 15>    C       -4.27098         3.32882        -6.02062
| 16>    C       -5.45344         3.35430        -6.74583
| 17>    C       -6.68356         3.28691        -6.11031
| 18>    C       -6.76682         3.13263        -4.73447
| 19>    C       -5.59306         3.05272        -4.00629
| 20>    C       -4.34100         3.19528        -4.64495
| 21>    C       -3.29492         3.14964        -3.63082
| 22>    C       -1.98361         3.49436        -3.83031
| 23>    C       -1.47536         3.90338        -5.08074
| 24>    N       -1.02309         4.23866        -6.08105
| 25>    C       -1.00040         3.55824        -2.82171
| 26>    N       -0.16414         3.64264        -2.03894
| 27>    C       -3.93059         2.71412        -2.39232
| 28>    C       -5.36391         2.84281        -2.58570
| 29>    C       -6.32134         2.88321        -1.60465
| 30>    C       -6.03169         2.93121        -0.22696
| 31>    N       -5.84784         3.02820         0.90185
| 32>    C       -7.70570         2.92912        -1.85761
| 33>    N       -8.84390         2.90030        -2.00533
| 34>    C       -3.23297         2.18523        -1.33073
| 35>    C       -3.65299         1.35820        -0.25412
| 36>    C       -2.91970         1.46910         0.99276
| 37>    C       -1.84610         2.22994         1.29178
| 38>    S       -1.40751         2.15541         3.05615
| 39>    F       -0.82693         1.81178         4.80643
| 40>    C       -2.61480         0.89426         3.25956
| 41>    C       -3.34980         0.68193         2.14599
| 42>    C       -4.45210        -0.21464         2.01131
| 43>    C       -5.07622        -0.33677         0.82000
| 44>    C       -4.68388         0.41049        -0.33536
| 45>    C       -5.30540         0.13890        -1.59355
| 46>    C       -6.59366        -0.23390        -1.80291
| 47>    C       -7.18787        -0.24312        -3.09156
| 48>    N       -6.45147        -0.16244        -4.25895
| 49>    C       -7.30106         0.09704        -5.28516
| 50>    C       -7.34948         0.44057        -6.63020
| 51>    C       -8.69081         0.74135        -6.90150
| 52>    N       -9.44695         0.52894        -5.76824
| 53>    C       -8.61574         0.16841        -4.75469
| 54>    C       -8.54737        -0.07103        -3.38648
| 55>    C       -9.25909         1.32681        -8.06842
| 56>    C       -8.52647         1.93723        -9.02735
| 57>    C       -9.07005         2.64685       -10.15915
| 58>    C      -10.18506         2.09242       -10.88722
| 59>    C      -10.76711         0.87804       -10.76360
| 60>    S      -12.22596         0.69374       -11.83844
| 61>    F      -13.52570         0.43302       -13.15850
| 62>    C      -11.79144         2.21377       -12.61023
| 63>    C      -10.76106         2.84139       -12.00380
| 64>    C      -10.17515         4.09004       -12.37389
| 65>    C       -9.08993         4.54348       -11.71311
| 66>    C       -8.51717         3.84959       -10.59267
| 67>    C       -7.46335         4.48564        -9.85091
| 68>    C       -6.60157         5.41293       -10.34199
| 69>    C       -5.53511         6.03940        -9.64529
| 70>    C       -5.35198         6.32362        -8.31736
| 71>    C       -4.04524         6.65172        -7.74396
| 72>    C       -2.89435         6.97963        -8.40681
| 73>    C       -2.72568         7.06187        -9.80613
| 74>    N       -2.49587         7.15375       -10.92764
| 75>    C       -1.69074         7.35664        -7.76737
| 76>    N       -0.69244         7.71218        -7.32851
| 77>    C       -4.18475         6.57506        -6.29651
| 78>    C       -5.54152         6.34691        -5.97890
| 79>    C       -5.94290         6.23332        -4.65718
| 80>    C       -4.98352         6.32752        -3.66068
| 81>    C       -3.64912         6.54445        -3.97281
| 82>    C       -3.23703         6.67714        -5.28996
| 83>    C       -6.30759         6.31142        -7.21747
| 84>    C       -7.66743         6.46396        -7.30113
| 85>    C       -8.53765         6.39844        -6.19394
| 86>    N       -9.30690         6.29596        -5.34777
| 87>    C       -8.37663         6.75192        -8.48349
| 88>    N       -9.01357         7.03793        -9.39475
| 89>    H       -3.32522         3.40186        -6.53158
| 90>    H       -5.40002         3.43817        -7.82169
| 91>    H       -7.59717         3.34799        -6.68186
| 92>    H       -7.72995         3.06580        -4.25753
| 93>    H       -2.17328         2.40362        -1.31874
| 94>    H       -1.34983         2.93495         0.65205
| 95>    H       -0.30427         1.43277         2.77207
| 96>    H       -2.73562         0.47125         4.23621
| 97>    H       -4.75882        -0.79168         2.86968
| 98>    H       -5.88591        -1.04070         0.70135
| 99>    H       -4.69578         0.36335        -2.46070
|100>    H       -7.26854        -0.37104        -0.97078
|101>    H       -5.46160        -0.31788        -4.33013
|102>    H       -6.54006         0.47833        -7.33029
|103>    H      -10.42985         0.72894        -5.69050
|104>    H       -9.34100        -0.06184        -2.66771
|105>    H      -10.33911         1.38264        -8.10434
|106>    H       -7.45150         1.95338        -8.91539
|107>    H      -10.52176         0.12197       -10.04237
|108>    H      -11.56087        -0.19227       -12.60660
|109>    H      -12.39858         2.54762       -13.42673
|110>    H      -10.61606         4.64959       -13.18351
|111>    H       -8.66801         5.49958       -11.97674
|112>    H       -7.34594         4.16933        -8.82388
|113>    H       -6.62383         5.62919       -11.40186
|114>    H       -4.70360         6.29498       -10.29037
|115>    H       -6.97504         6.06586        -4.39657
|116>    H       -5.28282         6.23438        -2.62705
|117>    H       -2.91959         6.61948        -3.17996
|118>    H       -2.19785         6.84950        -5.51472
|119> *
|120>
|121>                          ****END OF INPUT****

CARTESIAN COORDINATES (ANGSTROEM)
---------------------------------
  C     -4.270980    3.328820   -6.020620
  C     -5.453440    3.354300   -6.745830
  C     -6.683560    3.286910   -6.110310
  C     -6.766820    3.132630   -4.734470
  C     -5.593060    3.052720   -4.006290
  C     -4.341000    3.195280   -4.644950
  C     -3.294920    3.149640   -3.630820
  C     -1.983610    3.494360   -3.830310
  C     -1.475360    3.903380   -5.080740
  N     -1.023090    4.238660   -6.081050
  C     -1.000400    3.558240   -2.821710
  N     -0.164140    3.642640   -2.038940
  C     -3.930590    2.714120   -2.392320
  C     -5.363910    2.842810   -2.585700
  C     -6.321340    2.883210   -1.604650
  C     -6.031690    2.931210   -0.226960
  N     -5.847840    3.028200    0.901850
  C     -7.705700    2.929120   -1.857610
  N     -8.843900    2.900300   -2.005330
  C     -3.232970    2.185230   -1.330730
  C     -3.652990    1.358200   -0.254120
  C     -2.919700    1.469100    0.992760
  C     -1.846100    2.229940    1.291780
  S     -1.407510    2.155410    3.056150
  F     -0.826930    1.811780    4.806430
  C     -2.614800    0.894260    3.259560
  C     -3.349800    0.681930    2.145990
  C     -4.452100   -0.214640    2.011310
  C     -5.076220   -0.336770    0.820000
  C     -4.683880    0.410490   -0.335360
  C     -5.305400    0.138900   -1.593550
  C     -6.593660   -0.233900   -1.802910
  C     -7.187870   -0.243120   -3.091560
  N     -6.451470   -0.162440   -4.258950
  C     -7.301060    0.097040   -5.285160
  C     -7.349480    0.440570   -6.630200
  C     -8.690810    0.741350   -6.901500
  N     -9.446950    0.528940   -5.768240
  C     -8.615740    0.168410   -4.754690
  C     -8.547370   -0.071030   -3.386480
  C     -9.259090    1.326810   -8.068420
  C     -8.526470    1.937230   -9.027350
  C     -9.070050    2.646850  -10.159150
  C    -10.185060    2.092420  -10.887220
  C    -10.767110    0.878040  -10.763600
  S    -12.225960    0.693740  -11.838440
  F    -13.525700    0.433020  -13.158500
  C    -11.791440    2.213770  -12.610230
  C    -10.761060    2.841390  -12.003800
  C    -10.175150    4.090040  -12.373890
  C     -9.089930    4.543480  -11.713110
  C     -8.517170    3.849590  -10.592670
  C     -7.463350    4.485640   -9.850910
  C     -6.601570    5.412930  -10.341990
  C     -5.535110    6.039400   -9.645290
  C     -5.351980    6.323620   -8.317360
  C     -4.045240    6.651720   -7.743960
  C     -2.894350    6.979630   -8.406810
  C     -2.725680    7.061870   -9.806130
  N     -2.495870    7.153750  -10.927640
  C     -1.690740    7.356640   -7.767370
  N     -0.692440    7.712180   -7.328510
  C     -4.184750    6.575060   -6.296510
  C     -5.541520    6.346910   -5.978900
  C     -5.942900    6.233320   -4.657180
  C     -4.983520    6.327520   -3.660680
  C     -3.649120    6.544450   -3.972810
  C     -3.237030    6.677140   -5.289960
  C     -6.307590    6.311420   -7.217470
  C     -7.667430    6.463960   -7.301130
  C     -8.537650    6.398440   -6.193940
  N     -9.306900    6.295960   -5.347770
  C     -8.376630    6.751920   -8.483490
  N     -9.013570    7.037930   -9.394750
  H     -3.325220    3.401860   -6.531580
  H     -5.400020    3.438170   -7.821690
  H     -7.597170    3.347990   -6.681860
  H     -7.729950    3.065800   -4.257530
  H     -2.173280    2.403620   -1.318740
  H     -1.349830    2.934950    0.652050
  H     -0.304270    1.432770    2.772070
  H     -2.735620    0.471250    4.236210
  H     -4.758820   -0.791680    2.869680
  H     -5.885910   -1.040700    0.701350
  H     -4.695780    0.363350   -2.460700
  H     -7.268540   -0.371040   -0.970780
  H     -5.461600   -0.317880   -4.330130
  H     -6.540060    0.478330   -7.330290
  H    -10.429850    0.728940   -5.690500
  H     -9.341000   -0.061840   -2.667710
  H    -10.339110    1.382640   -8.104340
  H     -7.451500    1.953380   -8.915390
  H    -10.521760    0.121970  -10.042370
  H    -11.560870   -0.192270  -12.606600
  H    -12.398580    2.547620  -13.426730
  H    -10.616060    4.649590  -13.183510
  H     -8.668010    5.499580  -11.976740
  H     -7.345940    4.169330   -8.823880
  H     -6.623830    5.629190  -11.401860
  H     -4.703600    6.294980  -10.290370
  H     -6.975040    6.065860   -4.396570
  H     -5.282820    6.234380   -2.627050
  H     -2.919590    6.619480   -3.179960
  H     -2.197850    6.849500   -5.514720

 Total Charge           Charge          ....    0
 Multiplicity           Mult            ....    1
 Number of Electrons    NEL             ....  510
 Basis Dimension        Dim             .... 1194

ORBITAL ENERGIES
----------------

  NO   OCC          E(Eh)            E(eV)
   0   2.0000     -89.053889     -2423.2795
   1   2.0000     -89.046847     -2423.0879
   2   2.0000     -24.626383      -670.1179
   3   2.0000     -24.618440      -669.9018
   4   2.0000     -14.487709      -394.2306
   5   2.0000     -14.484059      -394.1313
   6   2.0000     -14.438267      -392.8852
   7   2.0000     -14.434819      -392.7914
   8   2.0000     -14.434482      -392.7822
   9   2.0000     -14.432372      -392.7248
  10   2.0000     -14.432122      -392.7180
  11   2.0000     -14.432016      -392.7151
  12   2.0000     -14.429010      -392.6333
  13   2.0000     -14.420867      -392.4117
  14   2.0000     -10.364265      -282.0260
  15   2.0000     -10.362652      -281.9821
  16   2.0000     -10.362021      -281.9649
  17   2.0000     -10.360156      -281.9142
  18   2.0000     -10.358406      -281.8666
  19   2.0000     -10.357563      -281.8436
  20   2.0000     -10.353709      -281.7387
  21   2.0000     -10.353543      -281.7342
  22   2.0000     -10.340412      -281.3769
  23   2.0000     -10.338179      -281.3162
  24   2.0000     -10.337354      -281.2937
  25   2.0000     -10.336642      -281.2743
  26   2.0000     -10.334349      -281.2119
  27   2.0000     -10.334082      -281.2047
  28   2.0000     -10.333877      -281.1991
  29   2.0000     -10.333459      -281.1877
  30   2.0000     -10.333256      -281.1822
  31   2.0000     -10.333116      -281.1784
  32   2.0000     -10.331484      -281.1340
  33   2.0000     -10.330794      -281.1152
  34   2.0000     -10.330325      -281.1024
  35   2.0000     -10.328369      -281.0492
  36   2.0000     -10.325800      -280.9793
  37   2.0000     -10.325399      -280.9684
  38   2.0000     -10.323420      -280.9146
  39   2.0000     -10.322775      -280.8970
  40   2.0000     -10.322519      -280.8900
  41   2.0000     -10.322209      -280.8816
  42   2.0000     -10.321507      -280.8625
  43   2.0000     -10.320326      -280.8303
  44   2.0000     -10.319246      -280.8010
  45   2.0000     -10.318660      -280.7850
  46   2.0000     -10.318295      -280.7751
  47   2.0000     -10.316320      -280.7213
  48   2.0000     -10.316211      -280.7184
  49   2.0000     -10.314208      -280.6639
  50   2.0000     -10.313440      -280.6430
  51   2.0000     -10.312241      -280.6103
  52   2.0000     -10.311934      -280.6020
  53   2.0000     -10.311435      -280.5884
  54   2.0000     -10.311306      -280.5849
  55   2.0000     -10.310515      -280.5634
  56   2.0000     -10.310197      -280.5547
  57   2.0000     -10.309935      -280.5476
  58   2.0000     -10.309129      -280.5257
  59   2.0000     -10.308506      -280.5087
  60   2.0000     -10.308286      -280.5027
  61   2.0000     -10.308173      -280.4996
  62   2.0000     -10.307203      -280.4733
  63   2.0000     -10.306774      -280.4616
  64   2.0000     -10.306055      -280.4420
  65   2.0000     -10.306035      -280.4415
  66   2.0000     -10.305571      -280.4289
  67   2.0000     -10.305172      -280.4180
  68   2.0000     -10.299526      -280.2643
  69   2.0000     -10.299084      -280.2523
  70   2.0000     -10.296576      -280.1841
  71   2.0000     -10.296378      -280.1787
  72   2.0000     -10.292854      -280.0828
  73   2.0000     -10.287036      -279.9245
  74   2.0000      -8.134273      -221.3448
  75   2.0000      -8.127398      -221.1578
  76   2.0000      -6.104412      -166.1095
  77   2.0000      -6.100969      -166.0158
  78   2.0000      -6.097390      -165.9184
  79   2.0000      -6.097375      -165.9180
  80   2.0000      -6.094135      -165.8299
  81   2.0000      -6.090513      -165.7313
  82   2.0000      -1.119001       -30.4496
  83   2.0000      -1.110023       -30.2053
  84   2.0000      -1.101851       -29.9829
  85   2.0000      -1.082414       -29.4540
  86   2.0000      -1.050259       -28.5790
  87   2.0000      -1.043913       -28.4063
  88   2.0000      -1.032416       -28.0935
  89   2.0000      -1.026632       -27.9361
  90   2.0000      -1.021491       -27.7962
  91   2.0000      -1.015509       -27.6334
  92   2.0000      -1.015163       -27.6240
  93   2.0000      -1.013788       -27.5866
  94   2.0000      -1.012516       -27.5520
  95   2.0000      -1.010180       -27.4884
  96   2.0000      -1.007538       -27.4165
  97   2.0000      -1.001909       -27.2633
  98   2.0000      -0.977106       -26.5884
  99   2.0000      -0.972781       -26.4707
 100   2.0000      -0.966008       -26.2864
 101   2.0000      -0.965159       -26.2633
 102   2.0000      -0.952994       -25.9323
 103   2.0000      -0.948077       -25.7985
 104   2.0000      -0.935871       -25.4663
 105   2.0000      -0.926425       -25.2093
 106   2.0000      -0.925201       -25.1760
 107   2.0000      -0.918563       -24.9954
 108   2.0000      -0.907973       -24.7072
 109   2.0000      -0.902649       -24.5623
 110   2.0000      -0.900434       -24.5021
 111   2.0000      -0.890912       -24.2429
 112   2.0000      -0.886288       -24.1171
 113   2.0000      -0.880824       -23.9685
 114   2.0000      -0.876076       -23.8392
 115   2.0000      -0.872912       -23.7531
 116   2.0000      -0.868391       -23.6301
 117   2.0000      -0.857014       -23.3205
 118   2.0000      -0.848228       -23.0814
 119   2.0000      -0.825305       -22.4577
 120   2.0000      -0.820605       -22.3298
 121   2.0000      -0.813272       -22.1302
 122   2.0000      -0.805798       -21.9269
 123   2.0000      -0.803643       -21.8682
 124   2.0000      -0.799340       -21.7511
 125   2.0000      -0.787113       -21.4184
 126   2.0000      -0.766283       -20.8516
 127   2.0000      -0.746054       -20.3012
 128   2.0000      -0.735988       -20.0272
 129   2.0000      -0.731251       -19.8984
 130   2.0000      -0.729025       -19.8378
 131   2.0000      -0.726486       -19.7687
 132   2.0000      -0.723403       -19.6848
 133   2.0000      -0.720676       -19.6106
 134   2.0000      -0.720231       -19.5985
 135   2.0000      -0.720006       -19.5924
 136   2.0000      -0.714934       -19.4543
 137   2.0000      -0.704784       -19.1782
 138   2.0000      -0.691975       -18.8296
 139   2.0000      -0.685383       -18.6502
 140   2.0000      -0.684600       -18.6289
 141   2.0000      -0.681667       -18.5491
 142   2.0000      -0.674803       -18.3623
 143   2.0000      -0.672436       -18.2979
 144   2.0000      -0.671600       -18.2752
 145   2.0000      -0.668718       -18.1967
 146   2.0000      -0.665038       -18.0966
 147   2.0000      -0.661304       -17.9950
 148   2.0000      -0.645332       -17.5604
 149   2.0000      -0.637087       -17.3360
 150   2.0000      -0.634399       -17.2629
 151   2.0000      -0.625731       -17.0270
 152   2.0000      -0.616101       -16.7650
 153   2.0000      -0.612401       -16.6643
 154   2.0000      -0.608540       -16.5592
 155   2.0000      -0.599874       -16.3234
 156   2.0000      -0.597572       -16.2608
 157   2.0000      -0.593662       -16.1544
 158   2.0000      -0.593005       -16.1365
 159   2.0000      -0.586604       -15.9623
 160   2.0000      -0.580444       -15.7947
 161   2.0000      -0.579473       -15.7683
 162   2.0000      -0.577581       -15.7168
 163   2.0000      -0.571330       -15.5467
 164   2.0000      -0.569202       -15.4888
 165   2.0000      -0.565662       -15.3924
 166   2.0000      -0.563196       -15.3253
 167   2.0000      -0.559997       -15.2383
 168   2.0000      -0.557108       -15.1597
 169   2.0000      -0.554905       -15.0997
 170   2.0000      -0.553175       -15.0527
 171   2.0000      -0.550279       -14.9738
 172   2.0000      -0.547579       -14.9004
 173   2.0000      -0.545941       -14.8558
 174   2.0000      -0.544472       -14.8158
 175   2.0000      -0.543740       -14.7959
 176   2.0000      -0.537332       -14.6216
 177   2.0000      -0.533512       -14.5176
 178   2.0000      -0.530374       -14.4322
 179   2.0000      -0.529509       -14.4087
 180   2.0000      -0.525741       -14.3061
 181   2.0000      -0.522684       -14.2229
 182   2.0000      -0.520497       -14.1635
 183   2.0000      -0.517039       -14.0693
 184   2.0000      -0.514652       -14.0044
 185   2.0000      -0.511985       -13.9318
 186   2.0000      -0.508248       -13.8301
 187   2.0000      -0.507101       -13.7989
 188   2.0000      -0.501483       -13.6460
 189   2.0000      -0.500422       -13.6172
 190   2.0000      -0.497324       -13.5329
 191   2.0000      -0.496038       -13.4979
 192   2.0000      -0.492605       -13.4045
 193   2.0000      -0.488173       -13.2839
 194   2.0000      -0.487316       -13.2605
 195   2.0000      -0.482373       -13.1260
 196   2.0000      -0.481236       -13.0951
 197   2.0000      -0.479333       -13.0433
 198   2.0000      -0.478250       -13.0138
 199   2.0000      -0.476079       -12.9548
 200   2.0000      -0.473473       -12.8838
 201   2.0000      -0.473249       -12.8778
 202   2.0000      -0.470710       -12.8087
 203   2.0000      -0.468878       -12.7588
 204   2.0000      -0.468650       -12.7526
 205   2.0000      -0.466772       -12.7015
 206   2.0000      -0.465949       -12.6791
 207   2.0000      -0.464915       -12.6510
 208   2.0000      -0.462738       -12.5917
 209   2.0000      -0.460250       -12.5240
 210   2.0000      -0.459192       -12.4952
 211   2.0000      -0.457916       -12.4605
 212   2.0000      -0.456271       -12.4158
 213   2.0000      -0.452518       -12.3136
 214   2.0000      -0.449808       -12.2399
 215   2.0000      -0.448888       -12.2149
 216   2.0000      -0.447770       -12.1844
 217   2.0000      -0.445431       -12.1208
 218   2.0000      -0.443927       -12.0799
 219   2.0000      -0.441472       -12.0131
 220   2.0000      -0.439437       -11.9577
 221   2.0000      -0.437695       -11.9103
 222   2.0000      -0.435186       -11.8420
 223   2.0000      -0.433765       -11.8034
 224   2.0000      -0.432510       -11.7692
 225   2.0000      -0.429132       -11.6773
 226   2.0000      -0.427159       -11.6236
 227   2.0000      -0.423539       -11.5251
 228   2.0000      -0.422039       -11.4843
 229   2.0000      -0.418077       -11.3764
 230   2.0000      -0.414190       -11.2707
 231   2.0000      -0.408202       -11.1077
 232   2.0000      -0.401919       -10.9368
 233   2.0000      -0.397810       -10.8249
 234   2.0000      -0.390869       -10.6361
 235   2.0000      -0.386824       -10.5260
 236   2.0000      -0.386160       -10.5080
 237   2.0000      -0.376581       -10.2473
 238   2.0000      -0.365509        -9.9460
 239   2.0000      -0.363930        -9.9030
 240   2.0000      -0.357490        -9.7278
 241   2.0000      -0.356423        -9.6987
 242   2.0000      -0.351512        -9.5651
 243   2.0000      -0.349525        -9.5111
 244   2.0000      -0.339219        -9.2306
 245   2.0000      -0.336350        -9.1525
 246   2.0000      -0.333685        -9.0800
 247   2.0000      -0.319351        -8.6900
 248   2.0000      -0.319125        -8.6838
 249   2.0000      -0.314130        -8.5479
 250   2.0000      -0.310403        -8.4465
 251   2.0000      -0.306539        -8.3413
 252   2.0000      -0.289882        -7.8881
 253   2.0000      -0.277713        -7.5570
 254   2.0000      -0.250033        -6.8037
 255   0.0000      -0.121113        -3.2957
 256   0.0000      -0.115148        -3.1333
 257   0.0000      -0.102255        -2.7825
 258   0.0000      -0.095870        -2.6088
 259   0.0000      -0.075327        -2.0498

MULLIKEN ATOMIC CHARGES
-----------------------
   0 C :   -0.039950
   1 C :    0.010886
   2 C :    0.073502
   3 C :   -0.038550
   4 C :    0.023741
   5 C :    0.002025
   6 C :    0.292865
   7 C :   -0.356696
   8 C :   -0.191885
   9 N :    0.172046
  10 C :   -0.179145
  11 N :    0.160591
  12 C :   -0.079931
  13 C :    0.233209
  14 C :   -0.334219
  15 C :   -0.201580
  16 N :    0.194238
  17 C :   -0.181994
  18 N :    0.152209
  19 C :   -0.051444
  20 C :    0.076245
  21 C :    0.112531
  22 C :   -0.254440
  23 S :    0.539354
  24 F :   -0.543529
  25 C :   -0.187491
  26 C :    0.137384
  27 C :    0.054109
  28 C :    0.001963
  29 C :    0.050462
  30 C :   -0.049346
  31 C :    0.065556
  32 C :    0.037009
  33 N :   -0.047631
  34 C :    0.103204
  35 C :   -0.122312
  36 C :    0.046831
  37 N :   -0.031776
  38 C :    0.103596
  39 C :   -0.115817
  40 C :    0.040635
  41 C :   -0.111437
  42 C :    0.119074
  43 C :    0.086850
  44 C :   -0.253388
  45 S :    0.532421
  46 F :   -0.540420
  47 C :   -0.199463
  48 C :    0.146017
  49 C :    0.017290
  50 C :    0.013040
  51 C :    0.053481
  52 C :   -0.007141
  53 C :    0.007030
  54 C :    0.017167
  55 C :   -0.058545
  56 C :    0.296059
  57 C :   -0.336094
  58 C :   -0.185085
  59 N :    0.159142
  60 C :   -0.189345
  61 N :    0.173703
  62 C :    0.021603
  63 C :    0.003223
  64 C :   -0.025935
  65 C :    0.036061
  66 C :    0.041843
  67 C :   -0.035333
  68 C :    0.251749
  69 C :   -0.346761
  70 C :   -0.190500
  71 N :    0.165728
  72 C :   -0.204594
  73 N :    0.186928
  74 H :    0.001614
  75 H :   -0.000314
  76 H :    0.010669
  77 H :    0.005580
  78 H :    0.020387
  79 H :    0.025948
  80 H :    0.115968
  81 H :    0.052553
  82 H :   -0.006124
  83 H :   -0.010837
  84 H :   -0.013031
  85 H :    0.005569
  86 H :    0.133521
  87 H :   -0.024589
  88 H :    0.131947
  89 H :   -0.013903
  90 H :   -0.002100
  91 H :    0.005849
  92 H :    0.016929
  93 H :    0.113604
  94 H :    0.052380
  95 H :   -0.010240
  96 H :    0.002096
  97 H :   -0.012364
  98 H :    0.014107
  99 H :    0.022731
 100 H :    0.009198
 101 H :    0.005772
 102 H :    0.008582
 103 H :    0.017674
Sum of atomic charges:   -0.0000000

LOEWDIN ATOMIC CHARGES
----------------------
   0 C :    0.002241
   1 C :   -0.018231
   2 C :    0.006991
   3 C :    0.003164
   4 C :   -0.007574
   5 C :   -0.021077
   6 C :    0.079659
   7 C :   -0.138667
   8 C :   -0.016971
   9 N :   -0.044121
  10 C :   -0.021053
  11 N :   -0.045128
  12 C :   -0.064317
  13 C :    0.052441
  14 C :   -0.126389
  15 C :   -0.017558
  16 N :   -0.035996
  17 C :   -0.015585
  18 N :   -0.048095
  19 C :    0.058157
  20 C :   -0.038974
  21 C :   -0.038157
  22 C :   -0.200060
  23 S :    0.859817
  24 F :   -0.544924
  25 C :   -0.145014
  26 C :   -0.026477
  27 C :    0.027595
  28 C :   -0.009418
  29 C :    0.018084
  30 C :   -0.041970
  31 C :    0.000660
  32 C :   -0.010205
  33 N :    0.070492
  34 C :   -0.010060
  35 C :   -0.082273
  36 C :   -0.001300
  37 N :    0.078300
  38 C :   -0.021948
  39 C :   -0.054296
  40 C :   -0.014862
  41 C :   -0.027706
  42 C :    0.007773
  43 C :   -0.045257
  44 C :   -0.190360
  45 S :    0.850092
  46 F :   -0.541140
  47 C :   -0.159816
  48 C :   -0.023846
  49 C :   -0.007505
  50 C :    0.008437
  51 C :   -0.034126
  52 C :    0.034293
  53 C :   -0.033998
  54 C :    0.053566
  55 C :   -0.055742
  56 C :    0.071820
  57 C :   -0.121052
  58 C :   -0.022305
  59 N :   -0.040590
  60 C :   -0.017768
  61 N :   -0.033632
  62 C :   -0.012382
  63 C :   -0.011453
  64 C :    0.003362
  65 C :   -0.002158
  66 C :   -0.003705
  67 C :    0.006792
  68 C :    0.067868
  69 C :   -0.136832
  70 C :   -0.021685
  71 N :   -0.045347
  72 C :   -0.014608
  73 N :   -0.038444
  74 H :    0.039451
  75 H :    0.029530
  76 H :    0.031580
  77 H :    0.040504
  78 H :    0.044616
  79 H :    0.020018
  80 H :    0.024751
  81 H :    0.037792
  82 H :    0.040221
  83 H :    0.034293
  84 H :    0.023496
  85 H :    0.040410
  86 H :    0.088410
  87 H :    0.025309
  88 H :    0.095635
  89 H :    0.033507
  90 H :    0.033687
  91 H :    0.028914
  92 H :    0.016858
  93 H :    0.023625
  94 H :    0.037524
  95 H :    0.037911
  96 H :    0.036628
  97 H :    0.026870
  98 H :    0.040710
  99 H :    0.050595
 100 H :    0.038968
 101 H :    0.037290
 102 H :    0.038460
 103 H :    0.042990

  Mayer bond orders larger than 0.100000
B(  0-C ,  1-C ) :   1.3527 B(  0-C ,  5-C ) :   1.3815 B(  0-C , 74-H ) :   0.9869
B(  1-C ,  2-C ) :   1.3457 B(  1-C , 75-H ) :   0.9787 B(  2-C ,  3-C ) :   1.3646
B(  2-C , 76-H ) :   0.9625 B(  3-C ,  4-C ) :   1.3923 B(  3-C , 77-H ) :   0.9839
B(  4-C ,  5-C ) :   1.3132 B(  4-C , 13-C ) :   1.0070 B(  5-C ,  6-C ) :   0.9827
B(  6-C ,  7-C ) :   1.6347 B(  6-C , 12-C ) :   1.0476 B(  7-C ,  8-C ) :   1.1534
B(  7-C , 10-C ) :   1.1447 B(  8-C ,  9-N ) :   2.9569 B( 10-C , 11-N ) :   2.9653
B( 12-C , 13-C ) :   1.0482 B( 12-C , 19-C ) :   1.5472 B( 13-C , 14-C ) :   1.6211
B( 14-C , 15-C ) :   1.1708 B( 14-C , 17-C ) :   1.1481 B( 15-C , 16-N ) :   3.0061
B( 17-C , 18-N ) :   2.9272 B( 19-C , 20-C ) :   1.1939 B( 19-C , 78-H ) :   0.9207
B( 20-C , 21-C ) :   1.0533 B( 20-C , 29-C ) :   1.3921 B( 21-C , 22-C ) :   1.6553
B( 21-C , 26-C ) :   1.0930 B( 22-C , 23-S ) :   0.8923 B( 22-C , 79-H ) :   0.9292
B( 23-S , 24-F ) :   0.4826 B( 23-S , 25-C ) :   1.0495 B( 23-S , 80-H ) :   0.8860
B( 25-C , 26-C ) :   1.5326 B( 25-C , 81-H ) :   0.9929 B( 26-C , 27-C ) :   1.0823
B( 27-C , 28-C ) :   1.6190 B( 27-C , 82-H ) :   0.9990 B( 28-C , 29-C ) :   1.1298
B( 28-C , 83-H ) :   0.9878 B( 29-C , 30-C ) :   1.2074 B( 30-C , 31-C ) :   1.5821
B( 30-C , 84-H ) :   0.9310 B( 31-C , 32-C ) :   1.1824 B( 31-C , 85-H ) :   0.9651
B( 32-C , 33-N ) :   1.1777 B( 32-C , 39-C ) :   1.3490 B( 33-N , 34-C ) :   1.1688
B( 33-N , 86-H ) :   0.9272 B( 34-C , 35-C ) :   1.2827 B( 34-C , 38-C ) :   1.3111
B( 35-C , 36-C ) :   1.3866 B( 35-C , 87-H ) :   1.0296 B( 36-C , 37-N ) :   1.1888
B( 36-C , 40-C ) :   1.1095 B( 37-N , 38-C ) :   1.1570 B( 37-N , 88-H ) :   0.9335
B( 38-C , 39-C ) :   1.2731 B( 39-C , 89-H ) :   1.0388 B( 40-C , 41-C ) :   1.6940
B( 40-C , 90-H ) :   0.9668 B( 41-C , 42-C ) :   1.0911 B( 41-C , 91-H ) :   0.9566
B( 42-C , 43-C ) :   1.0827 B( 42-C , 51-C ) :   1.4836 B( 43-C , 44-C ) :   1.6065
B( 43-C , 48-C ) :   1.0959 B( 44-C , 45-S ) :   0.8960 B( 44-C , 92-H ) :   0.9433
B( 45-S , 46-F ) :   0.4896 B( 45-S , 47-C ) :   1.0414 B( 45-S , 93-H ) :   0.8850
B( 47-C , 48-C ) :   1.5322 B( 47-C , 94-H ) :   0.9925 B( 48-C , 49-C ) :   1.0870
B( 49-C , 50-C ) :   1.6533 B( 49-C , 95-H ) :   1.0021 B( 50-C , 51-C ) :   1.1093
B( 50-C , 96-H ) :   0.9781 B( 51-C , 52-C ) :   1.1446 B( 52-C , 53-C ) :   1.6275
B( 52-C , 97-H ) :   0.9559 B( 53-C , 54-C ) :   1.1985 B( 53-C , 98-H ) :   0.9506
B( 54-C , 55-C ) :   1.5969 B( 54-C , 99-H ) :   0.9139 B( 55-C , 56-C ) :   1.0482
B( 55-C , 68-C ) :   1.0232 B( 56-C , 57-C ) :   1.6456 B( 56-C , 62-C ) :   0.9991
B( 57-C , 58-C ) :   1.1371 B( 57-C , 60-C ) :   1.1485 B( 58-C , 59-N ) :   2.9619
B( 60-C , 61-N ) :   2.9737 B( 62-C , 63-C ) :   1.3129 B( 62-C , 67-C ) :   1.3819
B( 63-C , 64-C ) :   1.3945 B( 63-C , 68-C ) :   0.9992 B( 64-C , 65-C ) :   1.3560
B( 64-C ,100-H ) :   0.9720 B( 65-C , 66-C ) :   1.3680 B( 65-C ,101-H ) :   0.9896
B( 66-C , 67-C ) :   1.3671 B( 66-C ,102-H ) :   0.9850 B( 67-C ,103-H ) :   0.9748
B( 68-C , 69-C ) :   1.6359 B( 69-C , 70-C ) :   1.1362 B( 69-C , 72-C ) :   1.1706
B( 70-C , 71-N ) :   2.9763 B( 72-C , 73-N ) :   2.9988

-----------------------------------------------------------------------------
         ABSORPTION SPECTRUM VIA TRANSITION ELECTRIC DIPOLE MOMENTS
-----------------------------------------------------------------------------
State   Energy  Wavelength   fosc         T2         TX        TY        TZ
        (cm-1)    (nm)                  (au**2)     (au)      (au)      (au)
-----------------------------------------------------------------------------
   0   11819.5    846.1   0.149880050   4.17466  -1.09446   0.37736  -1.68357
   1   13710.1    729.4   0.163106133   3.91656  -0.58761  -1.88973   0.01387
   2   14911.8    670.6   0.154238564   3.40517  -1.15283  -1.43178   0.16177
   3   18838.9    530.8   0.358495712   6.26477  -0.09488  -1.44642   2.04050
   4   19444.9    514.3   0.015887355   0.26898   0.34494  -0.37292   0.10453
   5   20295.4    492.7   0.541048415   8.77634  -1.78386  -0.81062  -2.22196
   6   21755.4    459.7   0.028684067   0.43406  -0.24346   0.23759   0.56421
   7   22472.5    445.0   0.050079053   0.73364  -0.14404   0.23534  -0.81087
   8   23260.4    429.9   0.425426308   6.02120  -1.28780   0.22964  -2.07606
   9   23925.7    418.0   0.027832136   0.38296  -0.08238  -0.61190   0.04193
  10   24106.5    414.8   0.092793894   1.26725  -0.13323   0.14901  -1.10783
  11   24498.6    408.2   0.129794095   1.74417  -1.07876  -0.36656  -0.66789
  12   25143.5    397.7   0.065302266   0.85503   0.85325   0.33426   0.12352
  13   25423.2    393.3   0.029341946   0.37996  -0.53667  -0.06186  -0.29684
  14   25675.7    389.5   0.027935790   0.35819  -0.54546  -0.16197  -0.18556
  15   25819.3    387.3   0.056591622   0.72158  -0.30780  -0.72019   0.32889
  16   26074.7    383.5   0.021358099   0.26966   0.49541  -0.14459  -0.05765
  17   26531.3    376.9   0.061937472   0.76855   0.74950   0.44500  -0.09365
  18   26723.8    374.2   0.186246802   2.29439   1.11288   0.77177   0.67843
  19   27508.1    363.5   0.002364509   0.02830   0.09584   0.13200   0.04110
  20   27846.5    359.1   0.122750418   1.45120   1.14727   0.17234   0.32447
  21   28534.9    350.4   0.059375790   0.68503   0.00545   0.26258  -0.78489
  22   28577.5    349.9   0.017178074   0.19789   0.43703  -0.06055  -0.05681
  23   28764.0    347.7   0.046293346   0.52984   0.60652  -0.20825   0.34440
  24   29057.2    344.1   0.029544384   0.33473  -0.18674   0.13698   0.53019
  25   29324.5    341.0   0.075063394   0.84270   0.09553  -0.45455  -0.79181
  26   29532.0    338.6   0.137865283   1.53687  -1.12462   0.04519  -0.51967
  27   29778.0    335.8   0.011819859   0.13068  -0.25533  -0.23785  -0.09439
  28   30083.9    332.4   0.011748468   0.12856   0.21540  -0.15143  -0.24338
  29   30210.7    331.0   0.015961878   0.17394   0.38625  -0.15532  -0.02505
  30   30772.3    325.0   0.622551801   6.66027  -0.66347  -0.57466   2.42690
  31   31084.0    321.7   0.147001286   1.55690  -0.74329  -0.65370   0.75967
  32   31130.2    321.2   0.243772333   2.57797  -1.56019  -0.27596  -0.26002
  33   31353.4    318.9   0.105093463   1.10348  -0.45847  -0.29580   0.89766
  34   31615.1    316.3   0.064250633   0.66905  -0.78934   0.19809  -0.08217
  35   32037.7    312.1   0.106900868   1.09849  -1.01282  -0.09861   0.25093
  36   32092.3    311.6   0.076855579   0.78841  -0.85528   0.23458  -0.04320
  37   32212.3    310.4   0.058412650   0.59698  -0.16822   0.06507  -0.75130
  38   32473.9    307.9   0.033864873   0.34331  -0.01451  -0.54092   0.22473
  39   32878.4    304.2   0.139068501   1.39250  -0.54276   0.06478  -1.04581
  40   33066.9    302.4   0.054934448   0.54692   0.23990  -0.09181   0.69350
  41   33280.5    300.5   0.019945813   0.19731   0.42118  -0.09806  -0.10146
  42   33440.8    299.0   0.042344010   0.41686  -0.21510  -0.04206   0.60731
  43   33559.6    298.0   0.141675168   1.38980   0.86615   0.33744   0.72506
  44   33792.5    295.9   0.377505141   3.67771   1.54063   0.27894   1.10741
  45   33816.0    295.7   0.006660775   0.06485  -0.11885   0.09192  -0.20560
  46   34130.5    293.0   0.071659631   0.69121  -0.75313  -0.31716   0.15302
  47   34437.7    290.4   0.030606642   0.29259   0.44556  -0.28712  -0.10780
  48   34622.4    288.8   0.018813890   0.17889   0.41393   0.08656   0.00811
  49   34647.1    288.6   0.028049504   0.26652  -0.13739   0.07727  -0.49161
  50   34941.3    286.2   0.020212647   0.19044  -0.11152  -0.01512  -0.42163
  51   34990.3    285.8   0.011087647   0.10432   0.02742  -0.08947  -0.30913
  52   35172.5    284.3   0.082891364   0.77586   0.58138   0.10834   0.65278
  53   35212.7    284.0   0.002409351   0.02253  -0.14716  -0.02477   0.01598
  54   35382.1    282.6   0.081511781   0.75842   0.79711  -0.19792   0.28959
  55   35937.4    278.3   0.211737462   1.93966  -0.79482  -0.32329  -1.09700
  56   36139.5    276.7   0.039420374   0.35910  -0.16174  -0.24352   0.52310
  57   36179.0    276.4   0.029478076   0.26824   0.41526   0.26298   0.16322
  58   36278.6    275.6   0.125612424   1.13987   0.79266   0.42155   0.57781
  59   36466.6    274.2   0.033701081   0.30425   0.08060  -0.22870   0.49542
  60   36834.3    271.5   0.088228185   0.78855   0.31240   0.28735  -0.77999
  61   37122.5    269.4   0.079701036   0.70681   0.48621  -0.14606   0.67013
  62   37258.6    268.4   0.044157429   0.39017  -0.42680  -0.02401   0.45545
  63   37614.9    265.9   0.119004311   1.04155  -0.20130  -0.02873  -1.00010
  64   37762.7    264.8   0.057775228   0.50368   0.69985   0.07482   0.09105
  65   37855.0    264.2   0.086811394   0.75497   0.59640   0.10921   0.62238
  66   38150.8    262.1   0.013085948   0.11292  -0.30638   0.13802  -0.00172
  67   38187.2    261.9   0.022928748   0.19767   0.17671   0.01065  -0.40784
  68   38293.3    261.1   0.071437315   0.61416   0.13365  -0.23877   0.73436
  69   38550.0    259.4   0.042515181   0.36307   0.49888   0.05938   0.33267
  70   38796.1    257.8   0.003814986   0.03237   0.14710  -0.04654   0.09256
  71   38894.5    257.1   0.040301016   0.34112  -0.51404   0.07796   0.26608
  72   39241.0    254.8   0.070839919   0.59431  -0.35109  -0.30430   0.61518
  73   39699.0    251.9   0.026171372   0.21703   0.00182   0.01341   0.46567
  74   39973.4    250.2   0.005035782   0.04147  -0.13490  -0.01817  -0.15148

FINAL SINGLE POINT ENERGY     -3843.404887888003

DIPOLE MOMENT
-------------
                                X             Y             Z
Electronic contribution:      9.45985      10.52527       7.63825
Nuclear contribution   :    -10.88606     -13.94373      -8.29912
                        -----------------------------------------
Total Dipole Moment    :     -1.42622      -3.41845      -0.66086
                        -----------------------------------------
Magnitude (a.u.)       :      3.76253
Magnitude (Debye)      :      9.56360

Rotational constants in cm-1:     0.001572     0.000601     0.000480
Rotational constants in MHz :    47.120769    18.016911    14.385155

                             ****ORCA TERMINATED NORMALLY****
TOTAL RUN TIME: 0 days 0 hours 29 minutes 56 seconds 140 msec
