                         Program Version 4.2.0 -  RELEASE  -
|  1> # ORCA input file
|  2> # SCF done       -160.655042582206          0.000446840498
|  3> ! CAM-B3LYP def2-SVP def2/J RIJCOSX Grid4 TightSCF
|  4> %maxcore 5000
|  5> %tddft
|  6>     Mode sTDDFT
|  7>     Ethresh 5.0
|  8>     maxcore 5000
|  9> end
| 10>
| 11> %pal
| 12>   nprocs 6
| 13>   end
| 14> * xyz 0 1
| 15>    C        2.82802        -0.71578        -9.78227
| 16>    C        1.67608        -0.90676       -10.49302
| 17>    F        1.04409         0.15489       -11.02881
| 18>    C        1.11624        -2.17594       -10.69032
| 19>    C        1.74269        -3.26550       -10.15159
| 20>    C        2.93198        -3.12636        -9.40766
| 21>    C        3.48742        -1.82693        -9.22164
| 22>    C        4.68495        -1.66237        -8.48692
| 23>    C        5.29922        -2.76130        -7.95087
| 24>    C        4.72888        -4.05580        -8.12325
| 25>    C        3.58115        -4.24481        -8.83702
| 26>    C        5.55471        -5.04900        -7.40841
| 27>    O        5.41229        -6.25038        -7.37616
| 28>    C        6.57783        -4.25008        -6.67709
| 29>    C        6.53093        -2.89733        -7.18097
| 30>    C        7.54764        -1.97885        -7.14020
| 31>    C        7.45933        -0.68352        -7.68537
| 32>    N        7.43336         0.39087        -8.08992
| 33>    C        8.82281        -2.24989        -6.60772
| 34>    N        9.88473        -2.43417        -6.21127
| 35>    C        7.26939        -4.82904        -5.65990
| 36>    C        8.00196        -4.22299        -4.59626
| 37>    C        8.98309        -4.94360        -3.91059
| 38>    N        9.73877        -4.49635        -2.92370
| 39>    C        9.59317        -3.26634        -2.45080
| 40>    C        8.58429        -2.43341        -3.01005
| 41>    C        7.78223        -2.91169        -4.10004
| 42>    N        6.87267        -2.01522        -4.47849
| 43>    S        7.03209        -0.69578        -3.56411
| 44>    N        8.24533        -1.20066        -2.63885
| 45>    C       10.39183        -2.75005        -1.37143
| 46>    C       11.43575        -3.32985        -0.75367
| 47>    C       12.03412        -4.64242        -1.11873
| 48>    C       12.14647        -2.58613         0.35548
| 49>    N       13.36064        -1.98365        -0.14608
| 50>    C       14.53933        -2.62545        -0.19754
| 51>    C       15.62124        -2.18028        -0.90125
| 52>    C       16.85968        -2.83319        -0.91216
| 53>    C       17.96682        -2.36864        -1.58369
| 54>    C       19.23596        -2.97992        -1.68862
| 55>    C       20.14115        -2.26776        -2.42089
| 56>    C       19.63356        -1.05046        -2.92128
| 57>    S       17.96688        -0.84117        -2.45547
| 58>    C       20.28511        -0.08041        -3.66750
| 59>    C       21.60403        -0.07651        -4.16081
| 60>    C       21.92646         1.05501        -4.85082
| 61>    C       20.88043         2.00926        -4.92899
| 62>    S       19.46183         1.39975        -4.10417
| 63>    C       20.97123         3.22935        -5.55533
| 64>    C       19.99347         4.23683        -5.63788
| 65>    S       20.35440         5.71013        -6.53316
| 66>    C       18.83152         6.44284        -6.21280
| 67>    C       18.05615         5.60494        -5.44842
| 68>    C       18.71016         4.37198        -5.13119
| 69>    O       17.90681         3.59492        -4.37320
| 70>    C       16.76199         4.30449        -4.20401
| 71>    N       15.73424         3.71893        -3.43433
| 72>    O       14.72412         4.38416        -3.28077
| 73>    O       15.91465         2.60817        -2.97858
| 74>    C       16.78134         5.52619        -4.82474
| 75>    H        3.23260         0.27596        -9.65330
| 76>    H        0.20558        -2.26552       -11.26106
| 77>    H        1.33031        -4.25375       -10.28983
| 78>    H        5.08177        -0.66814        -8.35592
| 79>    H        3.16956        -5.23508        -8.96335
| 80>    H        7.19983        -5.91230        -5.61916
| 81>    H        9.19637        -5.96088        -4.21410
| 82>    H       10.06757        -1.76954        -1.04541
| 83>    H       11.96197        -5.33152        -0.27706
| 84>    H       13.09239        -4.51454        -1.35265
| 85>    H       11.52005        -5.06725        -1.97369
| 86>    H       12.41440        -3.27459         1.16146
| 87>    H       11.51116        -1.79510         0.76121
| 88>    H       13.23965        -1.20347        -0.77801
| 89>    H       14.61621        -3.51434         0.41543
| 90>    H       15.52943        -1.27213        -1.48222
| 91>    H       16.95929        -3.76410        -0.36859
| 92>    H       19.44328        -3.92764        -1.22290
| 93>    H       21.15358        -2.58004        -2.60433
| 94>    H       22.27728        -0.89976        -4.00070
| 95>    H       22.88506         1.24036        -5.30240
| 96>    H       21.91014         3.45409        -6.04349
| 97>    H       18.61052         7.41649        -6.59560
| 98>    H       15.99104         6.24757        -4.82295
| 99> *
|100>
|101>                          ****END OF INPUT****

CARTESIAN COORDINATES (ANGSTROEM)
---------------------------------
  C      2.828020   -0.715780   -9.782270
  C      1.676080   -0.906760  -10.493020
  F      1.044090    0.154890  -11.028810
  C      1.116240   -2.175940  -10.690320
  C      1.742690   -3.265500  -10.151590
  C      2.931980   -3.126360   -9.407660
  C      3.487420   -1.826930   -9.221640
  C      4.684950   -1.662370   -8.486920
  C      5.299220   -2.761300   -7.950870
  C      4.728880   -4.055800   -8.123250
  C      3.581150   -4.244810   -8.837020
  C      5.554710   -5.049000   -7.408410
  O      5.412290   -6.250380   -7.376160
  C      6.577830   -4.250080   -6.677090
  C      6.530930   -2.897330   -7.180970
  C      7.547640   -1.978850   -7.140200
  C      7.459330   -0.683520   -7.685370
  N      7.433360    0.390870   -8.089920
  C      8.822810   -2.249890   -6.607720
  N      9.884730   -2.434170   -6.211270
  C      7.269390   -4.829040   -5.659900
  C      8.001960   -4.222990   -4.596260
  C      8.983090   -4.943600   -3.910590
  N      9.738770   -4.496350   -2.923700
  C      9.593170   -3.266340   -2.450800
  C      8.584290   -2.433410   -3.010050
  C      7.782230   -2.911690   -4.100040
  N      6.872670   -2.015220   -4.478490
  S      7.032090   -0.695780   -3.564110
  N      8.245330   -1.200660   -2.638850
  C     10.391830   -2.750050   -1.371430
  C     11.435750   -3.329850   -0.753670
  C     12.034120   -4.642420   -1.118730
  C     12.146470   -2.586130    0.355480
  N     13.360640   -1.983650   -0.146080
  C     14.539330   -2.625450   -0.197540
  C     15.621240   -2.180280   -0.901250
  C     16.859680   -2.833190   -0.912160
  C     17.966820   -2.368640   -1.583690
  C     19.235960   -2.979920   -1.688620
  C     20.141150   -2.267760   -2.420890
  C     19.633560   -1.050460   -2.921280
  S     17.966880   -0.841170   -2.455470
  C     20.285110   -0.080410   -3.667500
  C     21.604030   -0.076510   -4.160810
  C     21.926460    1.055010   -4.850820
  C     20.880430    2.009260   -4.928990
  S     19.461830    1.399750   -4.104170
  C     20.971230    3.229350   -5.555330
  C     19.993470    4.236830   -5.637880
  S     20.354400    5.710130   -6.533160
  C     18.831520    6.442840   -6.212800
  C     18.056150    5.604940   -5.448420
  C     18.710160    4.371980   -5.131190
  O     17.906810    3.594920   -4.373200
  C     16.761990    4.304490   -4.204010
  N     15.734240    3.718930   -3.434330
  O     14.724120    4.384160   -3.280770
  O     15.914650    2.608170   -2.978580
  C     16.781340    5.526190   -4.824740
  H      3.232600    0.275960   -9.653300
  H      0.205580   -2.265520  -11.261060
  H      1.330310   -4.253750  -10.289830
  H      5.081770   -0.668140   -8.355920
  H      3.169560   -5.235080   -8.963350
  H      7.199830   -5.912300   -5.619160
  H      9.196370   -5.960880   -4.214100
  H     10.067570   -1.769540   -1.045410
  H     11.961970   -5.331520   -0.277060
  H     13.092390   -4.514540   -1.352650
  H     11.520050   -5.067250   -1.973690
  H     12.414400   -3.274590    1.161460
  H     11.511160   -1.795100    0.761210
  H     13.239650   -1.203470   -0.778010
  H     14.616210   -3.514340    0.415430
  H     15.529430   -1.272130   -1.482220
  H     16.959290   -3.764100   -0.368590
  H     19.443280   -3.927640   -1.222900
  H     21.153580   -2.580040   -2.604330
  H     22.277280   -0.899760   -4.000700
  H     22.885060    1.240360   -5.302400
  H     21.910140    3.454090   -6.043490
  H     18.610520    7.416490   -6.595600
  H     15.991040    6.247570   -4.822950

 Total Charge           Charge          ....    0
 Multiplicity           Mult            ....    1
 Number of Electrons    NEL             ....  442
 Basis Dimension        Dim             ....  976

ORBITAL ENERGIES
----------------

  NO   OCC          E(Eh)            E(eV)
   0   2.0000     -89.040120     -2422.9048
   1   2.0000     -88.956054     -2420.6173
   2   2.0000     -88.922439     -2419.7026
   3   2.0000     -88.918430     -2419.5935
   4   2.0000     -24.784696      -674.4259
   5   2.0000     -19.291079      -524.9370
   6   2.0000     -19.232390      -523.3399
   7   2.0000     -19.229805      -523.2696
   8   2.0000     -19.214033      -522.8404
   9   2.0000     -14.643384      -398.4667
  10   2.0000     -14.458787      -393.4436
  11   2.0000     -14.448867      -393.1737
  12   2.0000     -14.443387      -393.0245
  13   2.0000     -14.421935      -392.4408
  14   2.0000     -14.414628      -392.2420
  15   2.0000     -14.414282      -392.2325
  16   2.0000     -10.372971      -282.2629
  17   2.0000     -10.368612      -282.1443
  18   2.0000     -10.365024      -282.0466
  19   2.0000     -10.347238      -281.5626
  20   2.0000     -10.339501      -281.3521
  21   2.0000     -10.339072      -281.3404
  22   2.0000     -10.336424      -281.2684
  23   2.0000     -10.334542      -281.2172
  24   2.0000     -10.332243      -281.1546
  25   2.0000     -10.327777      -281.0331
  26   2.0000     -10.321970      -280.8751
  27   2.0000     -10.318787      -280.7885
  28   2.0000     -10.317651      -280.7575
  29   2.0000     -10.317027      -280.7406
  30   2.0000     -10.316011      -280.7129
  31   2.0000     -10.306075      -280.4426
  32   2.0000     -10.305010      -280.4136
  33   2.0000     -10.303882      -280.3829
  34   2.0000     -10.303857      -280.3822
  35   2.0000     -10.301936      -280.3299
  36   2.0000     -10.299959      -280.2761
  37   2.0000     -10.299016      -280.2505
  38   2.0000     -10.297691      -280.2144
  39   2.0000     -10.297464      -280.2082
  40   2.0000     -10.296852      -280.1916
  41   2.0000     -10.296090      -280.1708
  42   2.0000     -10.293462      -280.0994
  43   2.0000     -10.292813      -280.0817
  44   2.0000     -10.291752      -280.0528
  45   2.0000     -10.290532      -280.0196
  46   2.0000     -10.288547      -279.9656
  47   2.0000     -10.287977      -279.9501
  48   2.0000     -10.282028      -279.7882
  49   2.0000     -10.280311      -279.7415
  50   2.0000     -10.279771      -279.7268
  51   2.0000     -10.279251      -279.7126
  52   2.0000     -10.273351      -279.5521
  53   2.0000     -10.269879      -279.4576
  54   2.0000     -10.267960      -279.4054
  55   2.0000     -10.265227      -279.3310
  56   2.0000     -10.264001      -279.2977
  57   2.0000     -10.260559      -279.2040
  58   2.0000     -10.260160      -279.1932
  59   2.0000     -10.254567      -279.0410
  60   2.0000      -8.131590      -221.2718
  61   2.0000      -8.051090      -219.0813
  62   2.0000      -8.018887      -218.2050
  63   2.0000      -8.014673      -218.0903
  64   2.0000      -6.102759      -166.0645
  65   2.0000      -6.095004      -165.8535
  66   2.0000      -6.094079      -165.8283
  67   2.0000      -6.020445      -163.8246
  68   2.0000      -6.016204      -163.7092
  69   2.0000      -6.013311      -163.6305
  70   2.0000      -5.988590      -162.9578
  71   2.0000      -5.984565      -162.8483
  72   2.0000      -5.984431      -162.8447
  73   2.0000      -5.980280      -162.7317
  74   2.0000      -5.979789      -162.7183
  75   2.0000      -5.975463      -162.6006
  76   2.0000      -1.313845       -35.7515
  77   2.0000      -1.299187       -35.3527
  78   2.0000      -1.213516       -33.0214
  79   2.0000      -1.139395       -31.0045
  80   2.0000      -1.129408       -30.7328
  81   2.0000      -1.128581       -30.7103
  82   2.0000      -1.058815       -28.8118
  83   2.0000      -1.045910       -28.4607
  84   2.0000      -1.018216       -27.7071
  85   2.0000      -0.999428       -27.1958
  86   2.0000      -0.996173       -27.1072
  87   2.0000      -0.990959       -26.9654
  88   2.0000      -0.978150       -26.6168
  89   2.0000      -0.974471       -26.5167
  90   2.0000      -0.972661       -26.4675
  91   2.0000      -0.951734       -25.8980
  92   2.0000      -0.933751       -25.4087
  93   2.0000      -0.924000       -25.1433
  94   2.0000      -0.920764       -25.0553
  95   2.0000      -0.917104       -24.9557
  96   2.0000      -0.897818       -24.4309
  97   2.0000      -0.890954       -24.2441
  98   2.0000      -0.885611       -24.0987
  99   2.0000      -0.881887       -23.9974
 100   2.0000      -0.877674       -23.8827
 101   2.0000      -0.859707       -23.3938
 102   2.0000      -0.852529       -23.1985
 103   2.0000      -0.834683       -22.7129
 104   2.0000      -0.832663       -22.6579
 105   2.0000      -0.823139       -22.3988
 106   2.0000      -0.813045       -22.1241
 107   2.0000      -0.804609       -21.8945
 108   2.0000      -0.798490       -21.7280
 109   2.0000      -0.785780       -21.3822
 110   2.0000      -0.781597       -21.2683
 111   2.0000      -0.770471       -20.9656
 112   2.0000      -0.761019       -20.7084
 113   2.0000      -0.758128       -20.6297
 114   2.0000      -0.743411       -20.2292
 115   2.0000      -0.734252       -19.9800
 116   2.0000      -0.725819       -19.7505
 117   2.0000      -0.715190       -19.4613
 118   2.0000      -0.709460       -19.3054
 119   2.0000      -0.707376       -19.2487
 120   2.0000      -0.692821       -18.8526
 121   2.0000      -0.689201       -18.7541
 122   2.0000      -0.680480       -18.5168
 123   2.0000      -0.676085       -18.3972
 124   2.0000      -0.662700       -18.0330
 125   2.0000      -0.650900       -17.7119
 126   2.0000      -0.648850       -17.6561
 127   2.0000      -0.637342       -17.3430
 128   2.0000      -0.635321       -17.2880
 129   2.0000      -0.631529       -17.1848
 130   2.0000      -0.627958       -17.0876
 131   2.0000      -0.627827       -17.0840
 132   2.0000      -0.617882       -16.8134
 133   2.0000      -0.614819       -16.7301
 134   2.0000      -0.611481       -16.6392
 135   2.0000      -0.608074       -16.5465
 136   2.0000      -0.604640       -16.4531
 137   2.0000      -0.600094       -16.3294
 138   2.0000      -0.594099       -16.1663
 139   2.0000      -0.592524       -16.1234
 140   2.0000      -0.580233       -15.7889
 141   2.0000      -0.575528       -15.6609
 142   2.0000      -0.574455       -15.6317
 143   2.0000      -0.570303       -15.5187
 144   2.0000      -0.569305       -15.4916
 145   2.0000      -0.564276       -15.3547
 146   2.0000      -0.559598       -15.2274
 147   2.0000      -0.556956       -15.1556
 148   2.0000      -0.555110       -15.1053
 149   2.0000      -0.550058       -14.9678
 150   2.0000      -0.549772       -14.9600
 151   2.0000      -0.548239       -14.9183
 152   2.0000      -0.544965       -14.8292
 153   2.0000      -0.535794       -14.5797
 154   2.0000      -0.532656       -14.4943
 155   2.0000      -0.530118       -14.4252
 156   2.0000      -0.522425       -14.2159
 157   2.0000      -0.519842       -14.1456
 158   2.0000      -0.516235       -14.0475
 159   2.0000      -0.509919       -13.8756
 160   2.0000      -0.508739       -13.8435
 161   2.0000      -0.504298       -13.7227
 162   2.0000      -0.502298       -13.6682
 163   2.0000      -0.498415       -13.5626
 164   2.0000      -0.497393       -13.5348
 165   2.0000      -0.493044       -13.4164
 166   2.0000      -0.489010       -13.3066
 167   2.0000      -0.487623       -13.2689
 168   2.0000      -0.481405       -13.0997
 169   2.0000      -0.479146       -13.0382
 170   2.0000      -0.477813       -13.0020
 171   2.0000      -0.476705       -12.9718
 172   2.0000      -0.472894       -12.8681
 173   2.0000      -0.467626       -12.7248
 174   2.0000      -0.466723       -12.7002
 175   2.0000      -0.462988       -12.5985
 176   2.0000      -0.458569       -12.4783
 177   2.0000      -0.457241       -12.4422
 178   2.0000      -0.457067       -12.4374
 179   2.0000      -0.454589       -12.3700
 180   2.0000      -0.453171       -12.3314
 181   2.0000      -0.451962       -12.2985
 182   2.0000      -0.446952       -12.1622
 183   2.0000      -0.446538       -12.1509
 184   2.0000      -0.441849       -12.0233
 185   2.0000      -0.441351       -12.0098
 186   2.0000      -0.436702       -11.8833
 187   2.0000      -0.430299       -11.7090
 188   2.0000      -0.427526       -11.6336
 189   2.0000      -0.426294       -11.6000
 190   2.0000      -0.422940       -11.5088
 191   2.0000      -0.417621       -11.3641
 192   2.0000      -0.417541       -11.3619
 193   2.0000      -0.413307       -11.2467
 194   2.0000      -0.411602       -11.2003
 195   2.0000      -0.407408       -11.0861
 196   2.0000      -0.399493       -10.8708
 197   2.0000      -0.399193       -10.8626
 198   2.0000      -0.392612       -10.6835
 199   2.0000      -0.382529       -10.4091
 200   2.0000      -0.379727       -10.3329
 201   2.0000      -0.379305       -10.3214
 202   2.0000      -0.371279       -10.1030
 203   2.0000      -0.369767       -10.0619
 204   2.0000      -0.367641       -10.0040
 205   2.0000      -0.365422        -9.9436
 206   2.0000      -0.361122        -9.8266
 207   2.0000      -0.359016        -9.7693
 208   2.0000      -0.345954        -9.4139
 209   2.0000      -0.344127        -9.3642
 210   2.0000      -0.336623        -9.1600
 211   2.0000      -0.331911        -9.0318
 212   2.0000      -0.317561        -8.6413
 213   2.0000      -0.309292        -8.4163
 214   2.0000      -0.305343        -8.3088
 215   2.0000      -0.301413        -8.2019
 216   2.0000      -0.297408        -8.0929
 217   2.0000      -0.292084        -7.9480
 218   2.0000      -0.285013        -7.7556
 219   2.0000      -0.247110        -6.7242
 220   2.0000      -0.182794        -4.9741
 221   0.0000      -0.105564        -2.8725
 222   0.0000      -0.065332        -1.7778
 223   0.0000      -0.059287        -1.6133
 224   0.0000      -0.050740        -1.3807
 225   0.0000      -0.044220        -1.2033

MULLIKEN ATOMIC CHARGES
-----------------------
   0 C :   -0.100113
   1 C :    0.305441
   2 F :   -0.191646
   3 C :   -0.029703
   4 C :   -0.010389
   5 C :    0.100162
   6 C :    0.104823
   7 C :   -0.091657
   8 C :    0.043382
   9 C :    0.011782
  10 C :   -0.081367
  11 C :    0.135342
  12 O :   -0.144135
  13 C :   -0.118202
  14 C :    0.326228
  15 C :   -0.325830
  16 C :   -0.192459
  17 N :    0.155514
  18 C :   -0.210300
  19 N :    0.168494
  20 C :    0.012464
  21 C :    0.019237
  22 C :    0.015236
  23 N :   -0.056415
  24 C :    0.007522
  25 C :    0.013587
  26 C :    0.046918
  27 N :   -0.289364
  28 S :    0.536907
  29 N :   -0.249156
  30 C :   -0.024834
  31 C :   -0.160333
  32 C :    0.103617
  33 C :    0.203480
  34 N :   -0.136646
  35 C :    0.046609
  36 C :   -0.030331
  37 C :   -0.001109
  38 C :   -0.043757
  39 C :    0.043098
  40 C :    0.008385
  41 C :   -0.037237
  42 S :    0.077920
  43 C :   -0.054098
  44 C :    0.035387
  45 C :    0.017547
  46 C :   -0.024945
  47 S :    0.083507
  48 C :    0.028232
  49 C :   -0.218091
  50 S :    0.131624
  51 C :   -0.152496
  52 C :    0.135146
  53 C :    0.180166
  54 O :   -0.190023
  55 C :    0.246682
  56 N :    0.273842
  57 O :   -0.258754
  58 O :   -0.234876
  59 C :   -0.087946
  60 H :   -0.002908
  61 H :    0.003278
  62 H :   -0.009589
  63 H :   -0.007108
  64 H :   -0.012382
  65 H :    0.022298
  66 H :    0.007040
  67 H :   -0.014144
  68 H :    0.018214
  69 H :    0.033437
  70 H :    0.036011
  71 H :    0.016869
  72 H :    0.019626
  73 H :    0.130534
  74 H :    0.003833
  75 H :    0.003927
  76 H :   -0.025700
  77 H :   -0.022680
  78 H :   -0.023298
  79 H :   -0.021178
  80 H :   -0.024640
  81 H :   -0.033606
  82 H :    0.022387
  83 H :    0.007710
Sum of atomic charges:   -0.0000000

LOEWDIN ATOMIC CHARGES
----------------------
   0 C :   -0.042729
   1 C :    0.093844
   2 F :   -0.066185
   3 C :   -0.037741
   4 C :    0.004765
   5 C :   -0.019382
   6 C :    0.004028
   7 C :    0.009366
   8 C :   -0.013111
   9 C :   -0.059765
  10 C :    0.034747
  11 C :    0.085300
  12 O :   -0.143596
  13 C :   -0.080231
  14 C :    0.076960
  15 C :   -0.133098
  16 C :   -0.019805
  17 N :   -0.054005
  18 C :   -0.019297
  19 N :   -0.054638
  20 C :    0.071055
  21 C :   -0.075947
  22 C :    0.062488
  23 N :   -0.065601
  24 C :    0.053638
  25 C :   -0.061355
  26 C :   -0.034153
  27 N :   -0.284233
  28 S :    0.665985
  29 N :   -0.261040
  30 C :   -0.067765
  31 C :    0.023393
  32 C :   -0.058398
  33 C :    0.048175
  34 N :    0.013042
  35 C :    0.042642
  36 C :   -0.118030
  37 C :   -0.030175
  38 C :   -0.179133
  39 C :   -0.026100
  40 C :   -0.054703
  41 C :   -0.164068
  42 S :    0.377721
  43 C :   -0.207122
  44 C :   -0.028171
  45 C :   -0.055375
  46 C :   -0.136417
  47 S :    0.392572
  48 C :   -0.115178
  49 C :   -0.190123
  50 S :    0.459376
  51 C :   -0.206988
  52 C :   -0.080815
  53 C :    0.000569
  54 O :   -0.001328
  55 C :    0.023231
  56 N :    0.273829
  57 O :   -0.219126
  58 O :   -0.197098
  59 C :   -0.012075
  60 H :    0.042912
  61 H :    0.041796
  62 H :    0.035556
  63 H :    0.038555
  64 H :    0.039441
  65 H :    0.048144
  66 H :    0.029624
  67 H :    0.032117
  68 H :    0.037352
  69 H :    0.039811
  70 H :    0.032236
  71 H :    0.031921
  72 H :    0.030753
  73 H :    0.086932
  74 H :    0.026430
  75 H :    0.023803
  76 H :    0.028837
  77 H :    0.029474
  78 H :    0.027702
  79 H :    0.028655
  80 H :    0.027701
  81 H :    0.028717
  82 H :    0.024351
  83 H :    0.044556

  Mayer bond orders larger than 0.100000
B(  0-C ,  1-C ) :   1.4409 B(  0-C ,  6-C ) :   1.2007 B(  0-C , 60-H ) :   1.0072
B(  1-C ,  2-F ) :   1.0877 B(  1-C ,  3-C ) :   1.2553 B(  3-C ,  4-C ) :   1.4591
B(  3-C , 61-H ) :   0.9930 B(  4-C ,  5-C ) :   1.2353 B(  4-C , 62-H ) :   0.9973
B(  5-C ,  6-C ) :   1.2571 B(  5-C , 10-C ) :   1.1904 B(  6-C ,  7-C ) :   1.2016
B(  7-C ,  8-C ) :   1.4595 B(  7-C , 63-H ) :   0.9954 B(  8-C ,  9-C ) :   1.2152
B(  8-C , 14-C ) :   1.0045 B(  9-C , 10-C ) :   1.4697 B(  9-C , 11-C ) :   0.9211
B( 10-C , 64-H ) :   1.0154 B( 11-C , 12-O ) :   2.2690 B( 11-C , 13-C ) :   0.9360
B( 13-C , 14-C ) :   1.0379 B( 13-C , 20-C ) :   1.6728 B( 14-C , 15-C ) :   1.6429
B( 15-C , 16-C ) :   1.1486 B( 15-C , 18-C ) :   1.1660 B( 16-C , 17-N ) :   2.9834
B( 18-C , 19-N ) :   3.0055 B( 20-C , 21-C ) :   1.0811 B( 20-C , 65-H ) :   0.9428
B( 21-C , 22-C ) :   1.3854 B( 21-C , 26-C ) :   1.1895 B( 22-C , 23-N ) :   1.4603
B( 22-C , 66-H ) :   0.9801 B( 23-N , 24-C ) :   1.5844 B( 24-C , 25-C ) :   1.1316
B( 24-C , 30-C ) :   1.1441 B( 25-C , 26-C ) :   1.1847 B( 25-C , 29-N ) :   1.5638
B( 26-C , 27-N ) :   1.5201 B( 27-N , 28-S ) :   1.2453 B( 27-N , 29-N ) :   0.1403
B( 28-S , 29-N ) :   1.2888 B( 30-C , 31-C ) :   1.7055 B( 30-C , 67-H ) :   0.9602
B( 31-C , 32-C ) :   1.0882 B( 31-C , 33-C ) :   1.0268 B( 32-C , 68-H ) :   0.9351
B( 32-C , 69-H ) :   0.9318 B( 32-C , 70-H ) :   0.9194 B( 33-C , 34-N ) :   1.0200
B( 33-C , 71-H ) :   0.9299 B( 33-C , 72-H ) :   0.9426 B( 34-N , 35-C ) :   1.2345
B( 34-N , 73-H ) :   0.9341 B( 35-C , 36-C ) :   1.5713 B( 35-C , 74-H ) :   0.9649
B( 36-C , 37-C ) :   1.1894 B( 36-C , 75-H ) :   0.9634 B( 37-C , 38-C ) :   1.5638
B( 37-C , 76-H ) :   0.9790 B( 38-C , 39-C ) :   1.1590 B( 38-C , 42-S ) :   1.0147
B( 39-C , 40-C ) :   1.5714 B( 39-C , 77-H ) :   0.9978 B( 40-C , 41-C ) :   1.2015
B( 40-C , 78-H ) :   0.9943 B( 41-C , 42-S ) :   1.0692 B( 41-C , 43-C ) :   1.4774
B( 43-C , 44-C ) :   1.2062 B( 43-C , 47-S ) :   1.0234 B( 44-C , 45-C ) :   1.5727
B( 44-C , 79-H ) :   0.9925 B( 45-C , 46-C ) :   1.1533 B( 45-C , 80-H ) :   0.9992
B( 46-C , 47-S ) :   1.0592 B( 46-C , 48-C ) :   1.5769 B( 48-C , 49-C ) :   1.1601
B( 48-C , 81-H ) :   0.9417 B( 49-C , 50-S ) :   1.1345 B( 49-C , 51-C ) :   0.1076
B( 49-C , 53-C ) :   1.4240 B( 50-S , 51-C ) :   1.1630 B( 51-C , 52-C ) :   1.4324
B( 51-C , 82-H ) :   0.9772 B( 52-C , 53-C ) :   1.2299 B( 52-C , 59-C ) :   1.0656
B( 53-C , 54-O ) :   1.0851 B( 54-O , 55-C ) :   1.1265 B( 55-C , 56-N ) :   0.9206
B( 55-C , 59-C ) :   1.5671 B( 56-N , 57-O ) :   1.5249 B( 56-N , 58-O ) :   1.5132
B( 57-O , 58-O ) :   0.2764 B( 59-C , 83-H ) :   1.0260

-----------------------------------------------------------------------------
         ABSORPTION SPECTRUM VIA TRANSITION ELECTRIC DIPOLE MOMENTS
-----------------------------------------------------------------------------
State   Energy  Wavelength   fosc         T2         TX        TY        TZ
        (cm-1)    (nm)                  (au**2)     (au)      (au)      (au)
-----------------------------------------------------------------------------
   0    6847.6   1460.4   0.115513168   5.55354   2.17402   0.89189   0.17814
   1   11541.2    866.5   0.183550851   5.23579  -0.50948  -1.96594   1.05418
   2   15543.3    643.4   0.780196425  16.52482  -2.34411  -2.78800   1.80472
   3   16797.1    595.3   0.061061302   1.19676  -0.26869  -0.89079   0.57537
   4   20004.2    499.9   0.297240101   4.89173  -1.27717   0.79121  -1.62313
   5   21231.2    471.0   0.006137862   0.09517   0.20914   0.00680   0.22669
   6   22371.2    447.0   0.340279795   5.00751  -1.05589   0.53492  -1.89907
   7   24337.5    410.9   0.010182322   0.13774   0.06163   0.36252  -0.05017
   8   24894.0    401.7   0.362477398   4.79360   1.58809  -0.21629   1.49158
   9   26362.0    379.3   0.043664878   0.54529   0.55329  -0.48658  -0.04900
  10   26582.7    376.2   0.004254244   0.05269   0.04081  -0.21487  -0.06965
  11   27270.7    366.7   0.029157372   0.35199  -0.44973  -0.13618  -0.36219
  12   27563.9    362.8   0.061599414   0.73572   0.83747  -0.18469  -0.01567
  13   28875.1    346.3   0.017670848   0.20147  -0.39918  -0.05066   0.19890
  14   28919.3    345.8   0.460448064   5.24165  -2.22755   0.41315   0.33010
  15   29696.2    336.7   0.378384672   4.19477  -1.72036   0.98955   0.50589
  16   30151.9    331.7   0.012107550   0.13220   0.23573   0.17225   0.21669
  17   30445.5    328.5   0.072455166   0.78347  -0.88426  -0.02141   0.03298
  18   31396.2    318.5   0.023583448   0.24729   0.34907   0.23268  -0.26702
  19   31749.8    315.0   0.199994102   2.07373   1.03081   0.17468   0.99028
  20   32419.6    308.5   0.001236817   0.01256  -0.10386   0.03118   0.02828
  21   32589.1    306.9   0.040398489   0.40810   0.61732  -0.02163  -0.16293
  22   33072.5    302.4   0.022651124   0.22547   0.41717  -0.02493  -0.22543
  23   33250.6    300.7   0.026279070   0.26019   0.24477  -0.43996  -0.08190
  24   33838.7    295.5   0.512184727   4.98297   1.90025   0.14364   1.16250
  25   34298.4    291.6   0.031792887   0.30516   0.50359   0.21001   0.08634
  26   34416.8    290.6   0.044091395   0.42175  -0.43408   0.48299  -0.00682
  27   34845.7    287.0   0.071948212   0.67975  -0.57055   0.59207  -0.06064
  28   35090.5    285.0   0.053016829   0.49739   0.57802   0.10921  -0.38904
  29   35318.2    283.1   0.002575487   0.02401   0.13225   0.07672  -0.02514
  30   35369.1    282.7   0.024670349   0.22963  -0.11917   0.06578  -0.45946
  31   35605.5    280.9   0.058817792   0.54384   0.61667   0.32862   0.23573
  32   35897.3    278.6   0.035806965   0.32838  -0.54057  -0.02815   0.18807
  33   36013.0    277.7   0.013515959   0.12356  -0.18661   0.05031  -0.29360
  34   36044.6    277.4   0.227959532   2.08206   0.88488   0.69807  -0.90097
  35   36492.1    274.0   0.223752873   2.01858  -1.20911  -0.51887   0.53610
  36   36591.6    273.3   0.108198837   0.97346  -0.59190   0.42681  -0.66404
  37   37272.3    268.3   0.070873705   0.62600   0.42098   0.55279   0.37841
  38   37333.8    267.9   0.284925462   2.51249  -1.27435  -0.84987  -0.40774
  39   37700.6    265.2   0.028031651   0.24478   0.37572   0.12440  -0.29688
  40   38574.1    259.2   0.012569913   0.10728   0.04032  -0.31573  -0.07725
  41   39080.7    255.9   0.056932293   0.47959  -0.06704   0.31395  -0.61362
  42   39502.2    253.2   0.035472477   0.29563   0.31029  -0.38033   0.23387
  43   39615.8    252.4   0.019461103   0.16172  -0.25404   0.18263   0.25266
  44   39819.5    251.1   0.069313874   0.57306  -0.35353  -0.64534   0.17782
  45   40122.1    249.2   0.078545021   0.64448   0.64607  -0.47405   0.04849
  46   40245.9    248.5   0.077989031   0.63795  -0.13089   0.69743  -0.36661

FINAL SINGLE POINT ENERGY     -4064.079816774035

DIPOLE MOMENT
-------------
                                X             Y             Z
Electronic contribution:    -23.86264      25.80482     -27.37312
Nuclear contribution   :     22.33820     -27.18171      28.61881
                        -----------------------------------------
Total Dipole Moment    :     -1.52444      -1.37690       1.24569
                        -----------------------------------------
Magnitude (a.u.)       :      2.40240
Magnitude (Debye)      :      6.10641

Rotational constants in cm-1:     0.001632     0.000390     0.000341
Rotational constants in MHz :    48.931504    11.692050    10.209494

                             ****ORCA TERMINATED NORMALLY****
TOTAL RUN TIME: 0 days 0 hours 7 minutes 58 seconds 192 msec
