                         Program Version 4.2.0 -  RELEASE  -
|  1> # ORCA input file
|  2> # SCF done       -205.976849102233          0.000441742374
|  3> ! CAM-B3LYP def2-SVP def2/J RIJCOSX Grid4 TightSCF
|  4> %maxcore 5000
|  5> %tddft
|  6>     Mode sTDDFT
|  7>     Ethresh 5.0
|  8>     maxcore 5000
|  9> end
| 10>
| 11> %pal
| 12>   nprocs 6
| 13>   end
| 14> * xyz 0 1
| 15>    C       -6.59877        -0.84209        -4.14603
| 16>    C       -6.06002        -2.06272        -3.83375
| 17>    C       -6.14174        -3.20007        -4.66478
| 18>    N       -6.17369        -4.15692        -5.29806
| 19>    C       -5.34178        -2.35890        -2.65628
| 20>    N       -4.74739        -2.67728        -1.72635
| 21>    C       -7.31914        -0.51953        -5.36932
| 22>    C       -7.65536         0.85637        -5.35325
| 23>    C       -8.34798         1.46203        -6.37365
| 24>    C       -8.72345         0.67405        -7.46599
| 25>    C       -8.38388        -0.70061        -7.47381
| 26>    C       -7.68735        -1.31379        -6.44090
| 27>    S       -8.94681        -1.48949        -8.91591
| 28>    C       -9.61937         0.01661        -9.48170
| 29>    C       -9.43400         1.05789        -8.63575
| 30>   Br      -10.50342         0.07205       -11.13441
| 31>    C       -7.15441         1.47731        -4.11153
| 32>    O       -7.30044         2.63461        -3.78318
| 33>    C       -6.51457         0.37233        -3.34725
| 34>    C       -6.10113         0.45413        -2.05735
| 35>    C       -5.93057         1.68388        -1.32183
| 36>    C       -5.26736         2.76930        -1.92012
| 37>    C       -5.06985         3.96029        -1.26193
| 38>    C       -5.59207         4.15519         0.01584
| 39>    C       -6.25608         3.11331         0.61599
| 40>    C       -6.38285         1.86147        -0.01006
| 41>    N       -7.05627         0.99369         0.82613
| 42>    C       -7.43326        -0.36746         0.56108
| 43>    C       -7.45230         1.61788         1.98675
| 44>    O       -8.02496         1.08000         2.90001
| 45>    C       -7.04934         3.08297         1.88377
| 46>    C       -8.34413         3.91783         1.69495
| 47>    C       -8.97545         3.50015         0.36180
| 48>    O       -9.41713         2.41078         0.07302
| 49>    N       -8.91525         4.56773        -0.48224
| 50>    C       -9.31315         4.49900        -1.86254
| 51>    C       -8.36614         5.67857         0.14136
| 52>    C       -8.13527         6.93361        -0.37557
| 53>    C       -7.56363         7.91179         0.45320
| 54>    C       -7.26930         7.59096         1.78351
| 55>    C       -7.50499         6.32461         2.29423
| 56>    C       -8.04954         5.36415         1.46990
| 57>    C       -7.30274         9.21496        -0.11366
| 58>    C       -6.57076        10.20076         0.44267
| 59>    C       -6.33030        11.46367        -0.16740
| 60>    S       -7.04965        11.85787        -1.70036
| 61>    C       -6.26191        13.38373        -1.71141
| 62>    C       -5.46967        13.59718        -0.62986
| 63>    C       -4.74027        14.88466        -0.43167
| 64>    C       -5.49579        12.49074         0.28256
| 65>    C       -4.79552        12.40522         1.52808
| 66>    C       -3.64223        13.03901         1.86236
| 67>    C       -3.01761        12.89116         3.12032
| 68>    C       -1.81606        13.46812         3.42395
| 69>    C       -1.15964        13.33338         4.65310
| 70>    C        0.06880        13.88934         4.92767
| 71>    C        0.80737        13.79923         6.13052
| 72>    C        2.00957        14.44216         6.09833
| 73>    C        2.28256        15.07444         4.86598
| 74>    S        0.96333        14.83475         3.74825
| 75>    C        3.40474        15.79450         4.49452
| 76>    C        4.56247        16.07899         5.24823
| 77>    C        5.49107        16.80872         4.56953
| 78>    C        5.11603        17.14299         3.24175
| 79>    S        3.52870        16.48925         2.89383
| 80>    C        5.89028        17.86144         2.36514
| 81>    C        5.58888        18.23301         1.04144
| 82>    S        6.79212        19.11646         0.10751
| 83>    C        5.81737        19.22626        -1.30418
| 84>    C        4.60610        18.61420        -1.09040
| 85>    C        4.48366        18.06000         0.22383
| 86>    O        3.27392        17.47959         0.37859
| 87>    C        2.63078        17.65043        -0.80468
| 88>    N        1.32344        17.13061        -0.92450
| 89>    O        0.76995        17.29731        -1.99804
| 90>    O        0.83930        16.55853         0.02962
| 91>    C        3.37357        18.32603        -1.73696
| 92>    H       -8.59052         2.51227        -6.33042
| 93>    H       -7.45770        -2.36487        -6.49121
| 94>    H       -9.78378         2.05588        -8.82709
| 95>    H       -5.86964        -0.46046        -1.53174
| 96>    H       -4.87137         2.63793        -2.91479
| 97>    H       -4.52768         4.75780        -1.74505
| 98>    H       -5.47959         5.10403         0.51686
| 99>    H       -6.56542        -1.03001         0.55460
|100>    H       -7.96357        -0.43060        -0.39063
|101>    H       -8.10395        -0.66942         1.36614
|102>    H       -6.51901         3.42509         2.77363
|103>    H       -9.01615         3.71729         2.53294
|104>    H       -9.85848         3.56593        -1.99838
|105>    H       -8.43836         4.49039        -2.51631
|106>    H       -9.95858         5.34111        -2.11356
|107>    H       -8.36924         7.16754        -1.40235
|108>    H       -6.85488         8.34440         2.43390
|109>    H       -7.26441         6.09685         3.32201
|110>    H       -7.72255         9.38569        -1.09756
|111>    H       -6.10185        10.04553         1.40323
|112>    H       -6.43853        14.05260        -2.53104
|113>    H       -5.17294        15.65455        -1.06674
|114>    H       -3.68940        14.78285        -0.70114
|115>    H       -4.80304        15.20564         0.60599
|116>    H       -5.22345        11.73587         2.26443
|117>    H       -3.12828        13.65643         1.14288
|118>    H       -3.51592        12.28595         3.86787
|119>    H       -1.32222        14.06571         2.66712
|120>    H       -1.63391        12.75495         5.43570
|121>    H        0.42873        13.26092         6.98186
|122>    H        2.70143        14.47666         6.92085
|123>    H        4.68168        15.74042         6.26196
|124>    H        6.43690        17.12066         4.97620
|125>    H        6.85869        18.18220         2.72546
|126>    H        6.18646        19.72069        -2.17766
|127>    H        3.06576        18.57160        -2.73193
|128> *
|129>
|130>                          ****END OF INPUT****

CARTESIAN COORDINATES (ANGSTROEM)
---------------------------------
  C     -6.598770   -0.842090   -4.146030
  C     -6.060020   -2.062720   -3.833750
  C     -6.141740   -3.200070   -4.664780
  N     -6.173690   -4.156920   -5.298060
  C     -5.341780   -2.358900   -2.656280
  N     -4.747390   -2.677280   -1.726350
  C     -7.319140   -0.519530   -5.369320
  C     -7.655360    0.856370   -5.353250
  C     -8.347980    1.462030   -6.373650
  C     -8.723450    0.674050   -7.465990
  C     -8.383880   -0.700610   -7.473810
  C     -7.687350   -1.313790   -6.440900
  S     -8.946810   -1.489490   -8.915910
  C     -9.619370    0.016610   -9.481700
  C     -9.434000    1.057890   -8.635750
  Br   -10.503420    0.072050  -11.134410
  C     -7.154410    1.477310   -4.111530
  O     -7.300440    2.634610   -3.783180
  C     -6.514570    0.372330   -3.347250
  C     -6.101130    0.454130   -2.057350
  C     -5.930570    1.683880   -1.321830
  C     -5.267360    2.769300   -1.920120
  C     -5.069850    3.960290   -1.261930
  C     -5.592070    4.155190    0.015840
  C     -6.256080    3.113310    0.615990
  C     -6.382850    1.861470   -0.010060
  N     -7.056270    0.993690    0.826130
  C     -7.433260   -0.367460    0.561080
  C     -7.452300    1.617880    1.986750
  O     -8.024960    1.080000    2.900010
  C     -7.049340    3.082970    1.883770
  C     -8.344130    3.917830    1.694950
  C     -8.975450    3.500150    0.361800
  O     -9.417130    2.410780    0.073020
  N     -8.915250    4.567730   -0.482240
  C     -9.313150    4.499000   -1.862540
  C     -8.366140    5.678570    0.141360
  C     -8.135270    6.933610   -0.375570
  C     -7.563630    7.911790    0.453200
  C     -7.269300    7.590960    1.783510
  C     -7.504990    6.324610    2.294230
  C     -8.049540    5.364150    1.469900
  C     -7.302740    9.214960   -0.113660
  C     -6.570760   10.200760    0.442670
  C     -6.330300   11.463670   -0.167400
  S     -7.049650   11.857870   -1.700360
  C     -6.261910   13.383730   -1.711410
  C     -5.469670   13.597180   -0.629860
  C     -4.740270   14.884660   -0.431670
  C     -5.495790   12.490740    0.282560
  C     -4.795520   12.405220    1.528080
  C     -3.642230   13.039010    1.862360
  C     -3.017610   12.891160    3.120320
  C     -1.816060   13.468120    3.423950
  C     -1.159640   13.333380    4.653100
  C      0.068800   13.889340    4.927670
  C      0.807370   13.799230    6.130520
  C      2.009570   14.442160    6.098330
  C      2.282560   15.074440    4.865980
  S      0.963330   14.834750    3.748250
  C      3.404740   15.794500    4.494520
  C      4.562470   16.078990    5.248230
  C      5.491070   16.808720    4.569530
  C      5.116030   17.142990    3.241750
  S      3.528700   16.489250    2.893830
  C      5.890280   17.861440    2.365140
  C      5.588880   18.233010    1.041440
  S      6.792120   19.116460    0.107510
  C      5.817370   19.226260   -1.304180
  C      4.606100   18.614200   -1.090400
  C      4.483660   18.060000    0.223830
  O      3.273920   17.479590    0.378590
  C      2.630780   17.650430   -0.804680
  N      1.323440   17.130610   -0.924500
  O      0.769950   17.297310   -1.998040
  O      0.839300   16.558530    0.029620
  C      3.373570   18.326030   -1.736960
  H     -8.590520    2.512270   -6.330420
  H     -7.457700   -2.364870   -6.491210
  H     -9.783780    2.055880   -8.827090
  H     -5.869640   -0.460460   -1.531740
  H     -4.871370    2.637930   -2.914790
  H     -4.527680    4.757800   -1.745050
  H     -5.479590    5.104030    0.516860
  H     -6.565420   -1.030010    0.554600
  H     -7.963570   -0.430600   -0.390630
  H     -8.103950   -0.669420    1.366140
  H     -6.519010    3.425090    2.773630
  H     -9.016150    3.717290    2.532940
  H     -9.858480    3.565930   -1.998380
  H     -8.438360    4.490390   -2.516310
  H     -9.958580    5.341110   -2.113560
  H     -8.369240    7.167540   -1.402350
  H     -6.854880    8.344400    2.433900
  H     -7.264410    6.096850    3.322010
  H     -7.722550    9.385690   -1.097560
  H     -6.101850   10.045530    1.403230
  H     -6.438530   14.052600   -2.531040
  H     -5.172940   15.654550   -1.066740
  H     -3.689400   14.782850   -0.701140
  H     -4.803040   15.205640    0.605990
  H     -5.223450   11.735870    2.264430
  H     -3.128280   13.656430    1.142880
  H     -3.515920   12.285950    3.867870
  H     -1.322220   14.065710    2.667120
  H     -1.633910   12.754950    5.435700
  H      0.428730   13.260920    6.981860
  H      2.701430   14.476660    6.920850
  H      4.681680   15.740420    6.261960
  H      6.436900   17.120660    4.976200
  H      6.858690   18.182200    2.725460
  H      6.186460   19.720690   -2.177660
  H      3.065760   18.571600   -2.731930

 Total Charge           Charge          ....    0
 Multiplicity           Mult            ....    1
 Number of Electrons    NEL             ....  594
 Basis Dimension        Dim             .... 1296

ORBITAL ENERGIES
----------------

  NO   OCC          E(Eh)            E(eV)
   0   2.0000    -482.887773    -13140.0443
   1   2.0000     -88.978247     -2421.2212
   2   2.0000     -88.972353     -2421.0608
   3   2.0000     -88.943544     -2420.2769
   4   2.0000     -88.936916     -2420.0965
   5   2.0000     -88.935778     -2420.0656
   6   2.0000     -62.565503     -1702.4939
   7   2.0000     -56.399459     -1534.7073
   8   2.0000     -56.396732     -1534.6331
   9   2.0000     -56.396701     -1534.6322
  10   2.0000     -19.306061      -525.3446
  11   2.0000     -19.243558      -523.6438
  12   2.0000     -19.240466      -523.5597
  13   2.0000     -19.219830      -522.9982
  14   2.0000     -19.186907      -522.1023
  15   2.0000     -19.186892      -522.1019
  16   2.0000     -14.654463      -398.7682
  17   2.0000     -14.449707      -393.1965
  18   2.0000     -14.447714      -393.1423
  19   2.0000     -14.418673      -392.3520
  20   2.0000     -14.417041      -392.3076
  21   2.0000     -10.386049      -282.6188
  22   2.0000     -10.371408      -282.2203
  23   2.0000     -10.369674      -282.1732
  24   2.0000     -10.368912      -282.1524
  25   2.0000     -10.361739      -281.9572
  26   2.0000     -10.344778      -281.4957
  27   2.0000     -10.344776      -281.4957
  28   2.0000     -10.343637      -281.4647
  29   2.0000     -10.328612      -281.0558
  30   2.0000     -10.323926      -280.9283
  31   2.0000     -10.321400      -280.8596
  32   2.0000     -10.319759      -280.8149
  33   2.0000     -10.318292      -280.7750
  34   2.0000     -10.317385      -280.7503
  35   2.0000     -10.312013      -280.6041
  36   2.0000     -10.310981      -280.5761
  37   2.0000     -10.310885      -280.5734
  38   2.0000     -10.310506      -280.5631
  39   2.0000     -10.309163      -280.5266
  40   2.0000     -10.308476      -280.5079
  41   2.0000     -10.306978      -280.4671
  42   2.0000     -10.305886      -280.4374
  43   2.0000     -10.304191      -280.3913
  44   2.0000     -10.300639      -280.2946
  45   2.0000     -10.299955      -280.2760
  46   2.0000     -10.299336      -280.2592
  47   2.0000     -10.299197      -280.2554
  48   2.0000     -10.296932      -280.1938
  49   2.0000     -10.296197      -280.1738
  50   2.0000     -10.295215      -280.1470
  51   2.0000     -10.294218      -280.1199
  52   2.0000     -10.294128      -280.1175
  53   2.0000     -10.293404      -280.0978
  54   2.0000     -10.292209      -280.0652
  55   2.0000     -10.287337      -279.9327
  56   2.0000     -10.285326      -279.8780
  57   2.0000     -10.283718      -279.8342
  58   2.0000     -10.283258      -279.8217
  59   2.0000     -10.282749      -279.8078
  60   2.0000     -10.281172      -279.7649
  61   2.0000     -10.280520      -279.7472
  62   2.0000     -10.279620      -279.7227
  63   2.0000     -10.278624      -279.6956
  64   2.0000     -10.278017      -279.6791
  65   2.0000     -10.277839      -279.6742
  66   2.0000     -10.277724      -279.6711
  67   2.0000     -10.275999      -279.6242
  68   2.0000     -10.274385      -279.5802
  69   2.0000     -10.273921      -279.5676
  70   2.0000     -10.273796      -279.5642
  71   2.0000     -10.272073      -279.5173
  72   2.0000     -10.271924      -279.5133
  73   2.0000     -10.271474      -279.5010
  74   2.0000     -10.270920      -279.4860
  75   2.0000     -10.270217      -279.4668
  76   2.0000     -10.268814      -279.4286
  77   2.0000     -10.267494      -279.3927
  78   2.0000     -10.267028      -279.3800
  79   2.0000     -10.264995      -279.3247
  80   2.0000     -10.258644      -279.1519
  81   2.0000      -8.794945      -239.3226
  82   2.0000      -8.074172      -219.7094
  83   2.0000      -8.067292      -219.5222
  84   2.0000      -8.039575      -218.7680
  85   2.0000      -8.033232      -218.5953
  86   2.0000      -8.032068      -218.5637
  87   2.0000      -6.631285      -180.4465
  88   2.0000      -6.616663      -180.0485
  89   2.0000      -6.616453      -180.0429
  90   2.0000      -6.043869      -164.4620
  91   2.0000      -6.039582      -164.3454
  92   2.0000      -6.036636      -164.2652
  93   2.0000      -6.035408      -164.2318
  94   2.0000      -6.032351      -164.1486
  95   2.0000      -6.029582      -164.0733
  96   2.0000      -6.008795      -163.5076
  97   2.0000      -6.004646      -163.3947
  98   2.0000      -6.002944      -163.3484
  99   2.0000      -6.001826      -163.3180
 100   2.0000      -6.001811      -163.3176
 101   2.0000      -5.998894      -163.2382
 102   2.0000      -5.997685      -163.2053
 103   2.0000      -5.994161      -163.1094
 104   2.0000      -5.992826      -163.0731
 105   2.0000      -2.747102       -74.7524
 106   2.0000      -2.743078       -74.6430
 107   2.0000      -2.742904       -74.6382
 108   2.0000      -2.731277       -74.3218
 109   2.0000      -2.731270       -74.3216
 110   2.0000      -1.325060       -36.0567
 111   2.0000      -1.228088       -33.4180
 112   2.0000      -1.140624       -31.0380
 113   2.0000      -1.135612       -30.9016
 114   2.0000      -1.134734       -30.8777
 115   2.0000      -1.126238       -30.6465
 116   2.0000      -1.056519       -28.7493
 117   2.0000      -1.054185       -28.6858
 118   2.0000      -1.025545       -27.9065
 119   2.0000      -1.015938       -27.6451
 120   2.0000      -0.996442       -27.1146
 121   2.0000      -0.994538       -27.0627
 122   2.0000      -0.991986       -26.9933
 123   2.0000      -0.988534       -26.8994
 124   2.0000      -0.976748       -26.5787
 125   2.0000      -0.967778       -26.3346
 126   2.0000      -0.957236       -26.0477
 127   2.0000      -0.951915       -25.9029
 128   2.0000      -0.944109       -25.6905
 129   2.0000      -0.934024       -25.4161
 130   2.0000      -0.928277       -25.2597
 131   2.0000      -0.910995       -24.7894
 132   2.0000      -0.910956       -24.7884
 133   2.0000      -0.902625       -24.5617
 134   2.0000      -0.896734       -24.4014
 135   2.0000      -0.889992       -24.2179
 136   2.0000      -0.888711       -24.1830
 137   2.0000      -0.883845       -24.0507
 138   2.0000      -0.873352       -23.7651
 139   2.0000      -0.871685       -23.7198
 140   2.0000      -0.862411       -23.4674
 141   2.0000      -0.850187       -23.1348
 142   2.0000      -0.842375       -22.9222
 143   2.0000      -0.840027       -22.8583
 144   2.0000      -0.835791       -22.7430
 145   2.0000      -0.832845       -22.6629
 146   2.0000      -0.827951       -22.5297
 147   2.0000      -0.822033       -22.3687
 148   2.0000      -0.815211       -22.1830
 149   2.0000      -0.809523       -22.0282
 150   2.0000      -0.801781       -21.8176
 151   2.0000      -0.796553       -21.6753
 152   2.0000      -0.792424       -21.5629
 153   2.0000      -0.783254       -21.3134
 154   2.0000      -0.770780       -20.9740
 155   2.0000      -0.761168       -20.7124
 156   2.0000      -0.759782       -20.6747
 157   2.0000      -0.753108       -20.4931
 158   2.0000      -0.740699       -20.1554
 159   2.0000      -0.728934       -19.8353
 160   2.0000      -0.713972       -19.4282
 161   2.0000      -0.711564       -19.3626
 162   2.0000      -0.706785       -19.2326
 163   2.0000      -0.699313       -19.0293
 164   2.0000      -0.697394       -18.9770
 165   2.0000      -0.693008       -18.8577
 166   2.0000      -0.691835       -18.8258
 167   2.0000      -0.688492       -18.7348
 168   2.0000      -0.676078       -18.3970
 169   2.0000      -0.670947       -18.2574
 170   2.0000      -0.664569       -18.0838
 171   2.0000      -0.663994       -18.0682
 172   2.0000      -0.656285       -17.8584
 173   2.0000      -0.650900       -17.7119
 174   2.0000      -0.649667       -17.6783
 175   2.0000      -0.645190       -17.5565
 176   2.0000      -0.639252       -17.3949
 177   2.0000      -0.634088       -17.2544
 178   2.0000      -0.629035       -17.1169
 179   2.0000      -0.626661       -17.0523
 180   2.0000      -0.622608       -16.9420
 181   2.0000      -0.617575       -16.8051
 182   2.0000      -0.615088       -16.7374
 183   2.0000      -0.611519       -16.6403
 184   2.0000      -0.606038       -16.4911
 185   2.0000      -0.604308       -16.4441
 186   2.0000      -0.601544       -16.3688
 187   2.0000      -0.597259       -16.2522
 188   2.0000      -0.595954       -16.2167
 189   2.0000      -0.592457       -16.1216
 190   2.0000      -0.589149       -16.0315
 191   2.0000      -0.585683       -15.9373
 192   2.0000      -0.579445       -15.7675
 193   2.0000      -0.573257       -15.5991
 194   2.0000      -0.571884       -15.5617
 195   2.0000      -0.567942       -15.4545
 196   2.0000      -0.564394       -15.3580
 197   2.0000      -0.560080       -15.2405
 198   2.0000      -0.552791       -15.0422
 199   2.0000      -0.550813       -14.9884
 200   2.0000      -0.548573       -14.9274
 201   2.0000      -0.547365       -14.8946
 202   2.0000      -0.542649       -14.7662
 203   2.0000      -0.539684       -14.6856
 204   2.0000      -0.537874       -14.6363
 205   2.0000      -0.536477       -14.5983
 206   2.0000      -0.530685       -14.4407
 207   2.0000      -0.529213       -14.4006
 208   2.0000      -0.527952       -14.3663
 209   2.0000      -0.523836       -14.2543
 210   2.0000      -0.521618       -14.1939
 211   2.0000      -0.520935       -14.1754
 212   2.0000      -0.517787       -14.0897
 213   2.0000      -0.516024       -14.0417
 214   2.0000      -0.513055       -13.9609
 215   2.0000      -0.510725       -13.8975
 216   2.0000      -0.510569       -13.8933
 217   2.0000      -0.509444       -13.8627
 218   2.0000      -0.503961       -13.7135
 219   2.0000      -0.501784       -13.6542
 220   2.0000      -0.500062       -13.6074
 221   2.0000      -0.495012       -13.4700
 222   2.0000      -0.493595       -13.4314
 223   2.0000      -0.492281       -13.3956
 224   2.0000      -0.491930       -13.3861
 225   2.0000      -0.490560       -13.3488
 226   2.0000      -0.485724       -13.2172
 227   2.0000      -0.483077       -13.1452
 228   2.0000      -0.478675       -13.0254
 229   2.0000      -0.478131       -13.0106
 230   2.0000      -0.475245       -12.9321
 231   2.0000      -0.471949       -12.8424
 232   2.0000      -0.471131       -12.8201
 233   2.0000      -0.470455       -12.8017
 234   2.0000      -0.468128       -12.7384
 235   2.0000      -0.466089       -12.6829
 236   2.0000      -0.463578       -12.6146
 237   2.0000      -0.462903       -12.5962
 238   2.0000      -0.461801       -12.5662
 239   2.0000      -0.457858       -12.4590
 240   2.0000      -0.457021       -12.4362
 241   2.0000      -0.455322       -12.3899
 242   2.0000      -0.453186       -12.3318
 243   2.0000      -0.451375       -12.2825
 244   2.0000      -0.450064       -12.2469
 245   2.0000      -0.449712       -12.2373
 246   2.0000      -0.447135       -12.1672
 247   2.0000      -0.445979       -12.1357
 248   2.0000      -0.445487       -12.1223
 249   2.0000      -0.443225       -12.0608
 250   2.0000      -0.442347       -12.0369
 251   2.0000      -0.440112       -11.9761
 252   2.0000      -0.437709       -11.9107
 253   2.0000      -0.432829       -11.7779
 254   2.0000      -0.430233       -11.7072
 255   2.0000      -0.429258       -11.6807
 256   2.0000      -0.427394       -11.6300
 257   2.0000      -0.425566       -11.5802
 258   2.0000      -0.421735       -11.4760
 259   2.0000      -0.420126       -11.4322
 260   2.0000      -0.418757       -11.3950
 261   2.0000      -0.416063       -11.3217
 262   2.0000      -0.413750       -11.2587
 263   2.0000      -0.411105       -11.1867
 264   2.0000      -0.409875       -11.1533
 265   2.0000      -0.404424       -11.0049
 266   2.0000      -0.399172       -10.8620
 267   2.0000      -0.396041       -10.7768
 268   2.0000      -0.390920       -10.6375
 269   2.0000      -0.390114       -10.6155
 270   2.0000      -0.385373       -10.4865
 271   2.0000      -0.381650       -10.3852
 272   2.0000      -0.379274       -10.3206
 273   2.0000      -0.377646       -10.2763
 274   2.0000      -0.377123       -10.2620
 275   2.0000      -0.375247       -10.2110
 276   2.0000      -0.369875       -10.0648
 277   2.0000      -0.363698        -9.8967
 278   2.0000      -0.354830        -9.6554
 279   2.0000      -0.350134        -9.5276
 280   2.0000      -0.339200        -9.2301
 281   2.0000      -0.335620        -9.1327
 282   2.0000      -0.333214        -9.0672
 283   2.0000      -0.329761        -8.9732
 284   2.0000      -0.326915        -8.8958
 285   2.0000      -0.321114        -8.7380
 286   2.0000      -0.318375        -8.6634
 287   2.0000      -0.318196        -8.6585
 288   2.0000      -0.315776        -8.5927
 289   2.0000      -0.302038        -8.2189
 290   2.0000      -0.295047        -8.0286
 291   2.0000      -0.292649        -7.9634
 292   2.0000      -0.284863        -7.7515
 293   2.0000      -0.272288        -7.4093
 294   2.0000      -0.264331        -7.1928
 295   2.0000      -0.243802        -6.6342
 296   2.0000      -0.199323        -5.4238
 297   0.0000      -0.087278        -2.3749
 298   0.0000      -0.081159        -2.2085
 299   0.0000      -0.060446        -1.6448
 300   0.0000      -0.059239        -1.6120
 301   0.0000      -0.035704        -0.9715

MULLIKEN ATOMIC CHARGES
-----------------------
   0 C :    0.306998
   1 C :   -0.349306
   2 C :   -0.182418
   3 N :    0.150986
   4 C :   -0.190006
   5 N :    0.153919
   6 C :    0.017729
   7 C :   -0.018462
   8 C :   -0.070847
   9 C :    0.119986
  10 C :   -0.091662
  11 C :   -0.019115
  12 S :    0.189615
  13 C :   -0.122429
  14 C :    0.038822
  15 Br:    0.026223
  16 C :    0.145216
  17 O :   -0.140535
  18 C :   -0.088993
  19 C :   -0.058831
  20 C :   -0.020727
  21 C :    0.055827
  22 C :    0.002251
  23 C :    0.008926
  24 C :   -0.087382
  25 C :    0.185923
  26 N :   -0.221923
  27 C :    0.115126
  28 C :    0.142886
  29 O :   -0.185016
  30 C :    0.024898
  31 C :    0.048645
  32 C :    0.096913
  33 O :   -0.208517
  34 N :   -0.216597
  35 C :    0.118439
  36 C :    0.240456
  37 C :   -0.168043
  38 C :    0.136879
  39 C :   -0.033052
  40 C :   -0.035103
  41 C :   -0.030082
  42 C :   -0.025504
  43 C :    0.038417
  44 C :   -0.122604
  45 S :    0.095613
  46 C :   -0.114345
  47 C :   -0.084243
  48 C :    0.110010
  49 C :    0.134799
  50 C :   -0.061953
  51 C :    0.017338
  52 C :    0.012275
  53 C :    0.002342
  54 C :   -0.007453
  55 C :   -0.025015
  56 C :    0.041121
  57 C :    0.019727
  58 C :   -0.048124
  59 S :    0.086799
  60 C :   -0.042024
  61 C :    0.034773
  62 C :    0.027500
  63 C :   -0.028731
  64 S :    0.094003
  65 C :    0.038514
  66 C :   -0.229648
  67 S :    0.143537
  68 C :   -0.143506
  69 C :    0.127359
  70 C :    0.197469
  71 O :   -0.192591
  72 C :    0.247588
  73 N :    0.273060
  74 O :   -0.255354
  75 O :   -0.229954
  76 C :   -0.081481
  77 H :   -0.012755
  78 H :   -0.005245
  79 H :   -0.002970
  80 H :    0.033485
  81 H :   -0.024508
  82 H :   -0.017598
  83 H :   -0.014213
  84 H :    0.051807
  85 H :    0.042644
  86 H :    0.057380
  87 H :    0.033868
  88 H :    0.050236
  89 H :    0.047149
  90 H :    0.055714
  91 H :    0.024402
  92 H :   -0.044036
  93 H :   -0.032024
  94 H :   -0.029751
  95 H :   -0.016205
  96 H :   -0.021953
  97 H :    0.012194
  98 H :    0.006674
  99 H :    0.045416
 100 H :    0.029776
 101 H :   -0.014803
 102 H :   -0.013421
 103 H :   -0.020152
 104 H :    0.009324
 105 H :   -0.019277
 106 H :   -0.014683
 107 H :   -0.014940
 108 H :   -0.016126
 109 H :   -0.017087
 110 H :   -0.025594
 111 H :    0.029498
 112 H :    0.010442
Sum of atomic charges:   -0.0000000

LOEWDIN ATOMIC CHARGES
----------------------
   0 C :    0.077410
   1 C :   -0.139235
   2 C :   -0.017915
   3 N :   -0.051464
   4 C :   -0.021210
   5 N :   -0.050469
   6 C :   -0.021735
   7 C :   -0.050815
   8 C :    0.021657
   9 C :   -0.031372
  10 C :   -0.143111
  11 C :   -0.008158
  12 S :    0.434724
  13 C :   -0.270240
  14 C :   -0.070566
  15 Br:    0.139009
  16 C :    0.087763
  17 O :   -0.135041
  18 C :   -0.096616
  19 C :    0.087611
  20 C :   -0.072343
  21 C :    0.025478
  22 C :   -0.045638
  23 C :    0.006031
  24 C :   -0.053406
  25 C :    0.060838
  26 N :    0.000234
  27 C :    0.032374
  28 C :    0.083140
  29 O :   -0.178654
  30 C :   -0.018129
  31 C :   -0.017170
  32 C :    0.077654
  33 O :   -0.199908
  34 N :   -0.001520
  35 C :    0.032423
  36 C :    0.038499
  37 C :   -0.054527
  38 C :   -0.011215
  39 C :   -0.036644
  40 C :   -0.016250
  41 C :   -0.048080
  42 C :   -0.031015
  43 C :   -0.030024
  44 C :   -0.168415
  45 S :    0.425723
  46 C :   -0.188273
  47 C :   -0.054151
  48 C :   -0.045147
  49 C :   -0.057422
  50 C :   -0.022408
  51 C :   -0.025162
  52 C :   -0.017638
  53 C :   -0.034664
  54 C :   -0.051816
  55 C :   -0.148059
  56 C :   -0.031697
  57 C :   -0.036145
  58 C :   -0.173547
  59 S :    0.384165
  60 C :   -0.188357
  61 C :   -0.029724
  62 C :   -0.040800
  63 C :   -0.140826
  64 S :    0.397966
  65 C :   -0.095993
  66 C :   -0.195280
  67 S :    0.469325
  68 C :   -0.195146
  69 C :   -0.080871
  70 C :    0.007962
  71 O :   -0.001193
  72 C :    0.025303
  73 N :    0.273477
  74 O :   -0.215475
  75 O :   -0.193249
  76 C :   -0.009645
  77 H :    0.040043
  78 H :    0.041504
  79 H :    0.038976
  80 H :    0.042399
  81 H :    0.029616
  82 H :    0.029652
  83 H :    0.035759
  84 H :    0.028237
  85 H :    0.030851
  86 H :    0.043331
  87 H :    0.046336
  88 H :    0.052345
  89 H :    0.038216
  90 H :    0.031390
  91 H :    0.023835
  92 H :    0.027124
  93 H :    0.023739
  94 H :    0.029346
  95 H :    0.018986
  96 H :    0.028470
  97 H :    0.020801
  98 H :    0.032447
  99 H :    0.037439
 100 H :    0.035387
 101 H :    0.024908
 102 H :    0.030555
 103 H :    0.025069
 104 H :    0.025604
 105 H :    0.031312
 106 H :    0.032634
 107 H :    0.030827
 108 H :    0.030871
 109 H :    0.030971
 110 H :    0.032108
 111 H :    0.027583
 112 H :    0.046140

  Mayer bond orders larger than 0.100000
B(  0-C ,  1-C ) :   1.6484 B(  0-C ,  6-C ) :   1.0130 B(  0-C , 18-C ) :   1.0433
B(  1-C ,  2-C ) :   1.1372 B(  1-C ,  4-C ) :   1.1477 B(  2-C ,  3-N ) :   2.9709
B(  4-C ,  5-N ) :   2.9650 B(  6-C ,  7-C ) :   1.2703 B(  6-C , 11-C ) :   1.4020
B(  7-C ,  8-C ) :   1.4223 B(  7-C , 16-C ) :   0.9481 B(  8-C ,  9-C ) :   1.2462
B(  8-C , 77-H ) :   1.0162 B(  9-C , 10-C ) :   1.3024 B(  9-C , 14-C ) :   1.1638
B( 10-C , 11-C ) :   1.3364 B( 10-C , 12-S ) :   1.0867 B( 11-C , 78-H ) :   0.9794
B( 12-S , 13-C ) :   1.0872 B( 13-C , 14-C ) :   1.6173 B( 13-C , 15-Br) :   1.0198
B( 14-C , 79-H ) :   1.0000 B( 16-C , 17-O ) :   2.1899 B( 16-C , 18-C ) :   0.9326
B( 18-C , 19-C ) :   1.6780 B( 19-C , 20-C ) :   1.0504 B( 19-C , 80-H ) :   0.9309
B( 20-C , 21-C ) :   1.3060 B( 20-C , 25-C ) :   1.3689 B( 21-C , 22-C ) :   1.4362
B( 21-C , 81-H ) :   0.9878 B( 22-C , 23-C ) :   1.2843 B( 22-C , 82-H ) :   0.9940
B( 23-C , 24-C ) :   1.4820 B( 23-C , 83-H ) :   0.9980 B( 24-C , 25-C ) :   1.3143
B( 24-C , 30-C ) :   0.9486 B( 25-C , 26-N ) :   1.1035 B( 26-N , 27-C ) :   0.9560
B( 26-N , 28-C ) :   1.0941 B( 27-C , 84-H ) :   0.9692 B( 27-C , 85-H ) :   0.9595
B( 27-C , 86-H ) :   0.9463 B( 28-C , 29-O ) :   2.1827 B( 28-C , 30-C ) :   0.9300
B( 30-C , 31-C ) :   1.0309 B( 30-C , 87-H ) :   0.8887 B( 31-C , 32-C ) :   0.9056
B( 31-C , 41-C ) :   0.9846 B( 31-C , 88-H ) :   0.8813 B( 32-C , 33-O ) :   2.1081
B( 32-C , 34-N ) :   1.1528 B( 34-N , 35-C ) :   0.9570 B( 34-N , 36-C ) :   1.0450
B( 35-C , 89-H ) :   0.9585 B( 35-C , 90-H ) :   0.9689 B( 35-C , 91-H ) :   0.9664
B( 36-C , 37-C ) :   1.3457 B( 36-C , 41-C ) :   1.3514 B( 37-C , 38-C ) :   1.2630
B( 37-C , 92-H ) :   1.0185 B( 38-C , 39-C ) :   1.3707 B( 38-C , 42-C ) :   1.0686
B( 39-C , 40-C ) :   1.3560 B( 39-C , 93-H ) :   0.9868 B( 40-C , 41-C ) :   1.4144
B( 40-C , 94-H ) :   1.0043 B( 42-C , 43-C ) :   1.6902 B( 42-C , 95-H ) :   0.9801
B( 43-C , 44-C ) :   1.1623 B( 43-C , 96-H ) :   0.9608 B( 44-C , 45-S ) :   1.1271
B( 44-C , 49-C ) :   1.4147 B( 45-S , 46-C ) :   1.1313 B( 46-C , 47-C ) :   1.6165
B( 46-C , 97-H ) :   0.9652 B( 47-C , 48-C ) :   1.0910 B( 47-C , 49-C ) :   1.2183
B( 48-C , 98-H ) :   0.9462 B( 48-C , 99-H ) :   0.9405 B( 48-C ,100-H ) :   0.9467
B( 49-C , 50-C ) :   1.0934 B( 50-C , 51-C ) :   1.6436 B( 50-C ,101-H ) :   0.9642
B( 51-C , 52-C ) :   1.1418 B( 51-C ,102-H ) :   0.9857 B( 52-C , 53-C ) :   1.5975
B( 52-C ,103-H ) :   0.9927 B( 53-C , 54-C ) :   1.1577 B( 53-C ,104-H ) :   0.9750
B( 54-C , 55-C ) :   1.5511 B( 54-C ,105-H ) :   0.9828 B( 55-C , 56-C ) :   1.1505
B( 55-C , 59-S ) :   1.0326 B( 56-C , 57-C ) :   1.5794 B( 56-C ,106-H ) :   0.9990
B( 57-C , 58-C ) :   1.1959 B( 57-C ,107-H ) :   0.9940 B( 58-C , 59-S ) :   1.0563
B( 58-C , 60-C ) :   1.4927 B( 60-C , 61-C ) :   1.1923 B( 60-C , 64-S ) :   1.0339
B( 61-C , 62-C ) :   1.5866 B( 61-C ,108-H ) :   0.9927 B( 62-C , 63-C ) :   1.1451
B( 62-C ,109-H ) :   0.9997 B( 63-C , 64-S ) :   1.0509 B( 63-C , 65-C ) :   1.5933
B( 65-C , 66-C ) :   1.1560 B( 65-C ,110-H ) :   0.9429 B( 66-C , 67-S ) :   1.1355
B( 66-C , 68-C ) :   0.1085 B( 66-C , 70-C ) :   1.4228 B( 67-S , 68-C ) :   1.1755
B( 68-C , 69-C ) :   1.4310 B( 68-C ,111-H ) :   0.9766 B( 69-C , 70-C ) :   1.2339
B( 69-C , 76-C ) :   1.0627 B( 70-C , 71-O ) :   1.0854 B( 71-O , 72-C ) :   1.1239
B( 72-C , 73-N ) :   0.9180 B( 72-C , 76-C ) :   1.5727 B( 73-N , 74-O ) :   1.5279
B( 73-N , 75-O ) :   1.5146 B( 74-O , 75-O ) :   0.2790 B( 76-C ,112-H ) :   1.0261

-----------------------------------------------------------------------------
         ABSORPTION SPECTRUM VIA TRANSITION ELECTRIC DIPOLE MOMENTS
-----------------------------------------------------------------------------
State   Energy  Wavelength   fosc         T2         TX        TY        TZ
        (cm-1)    (nm)                  (au**2)     (au)      (au)      (au)
-----------------------------------------------------------------------------
   0   12456.3    802.8   0.835441571  22.08011  -3.74119  -2.70651   0.87086
   1   14974.1    667.8   0.682508591  15.00528  -3.25678  -2.08414  -0.23454
   2   18267.0    547.4   0.000621266   0.01120  -0.01752   0.06735   0.07971
   3   21521.5    464.7   0.001531242   0.02342  -0.09129   0.03640  -0.11732
   4   22191.3    450.6   0.407139932   6.03998  -0.11836  -1.26612  -2.10307
   5   23790.4    420.3   0.675215352   9.34363   1.58084   1.15899   2.34548
   6   24005.9    416.6   0.031517316   0.43222   0.29480   0.23159   0.54008
   7   24838.1    402.6   0.018909840   0.25064  -0.09127  -0.18646  -0.45556
   8   25894.2    386.2   0.015616711   0.19855   0.12578   0.32582  -0.27671
   9   26403.3    378.7   0.084512968   1.05376  -0.63644  -0.74404  -0.30838
  10   26708.9    374.4   0.105681902   1.30263  -0.05637  -1.06959  -0.39423
  11   27504.9    363.6   0.007013707   0.08395   0.20885  -0.05604  -0.19284
  12   28778.7    347.5   0.008279263   0.09471   0.16933   0.25164   0.05212
  13   28862.2    346.5   0.151781379   1.73127   0.51685  -0.49770   1.10292
  14   28898.7    346.0   1.007620017  11.47872   1.52324  -1.01953   2.84939
  15   29472.2    339.3   0.040253507   0.44964   0.13181  -0.60842  -0.24918
  16   30450.4    328.4   0.006117908   0.06614   0.05493   0.03014   0.24943
  17   30616.2    326.6   0.011525900   0.12394   0.27167  -0.14268   0.17255
  18   30677.3    326.0   0.029793807   0.31973   0.25105  -0.41367   0.29254
  19   31362.5    318.9   0.194229221   2.03882   0.15834   1.34683  -0.44700
  20   32247.3    310.1   0.031275282   0.31929   0.20901   0.49881  -0.16368
  21   32266.6    309.9   0.299554996   3.05632   0.50802   1.51885  -0.70095
  22   32511.4    307.6   0.000056558   0.00057   0.01528   0.01818  -0.00290
  23   32758.1    305.3   0.098536978   0.99027   0.57946   0.18986   0.78642
  24   32963.9    303.4   0.071023528   0.70931   0.28987   0.78899   0.05277
  25   33624.7    297.4   0.000201477   0.00197   0.03849   0.01946   0.01061
  26   33823.3    295.7   0.160075521   1.55806   0.10271   0.96274   0.78781
  27   33957.3    294.5   0.630312131   6.11079   1.27571  -1.17819   1.75933
  28   34220.5    292.2   0.022381563   0.21532  -0.14760  -0.26803  -0.34884
  29   34393.4    290.8   0.067323627   0.64442   0.05777   0.55271  -0.57931
  30   34919.0    286.4   0.006534375   0.06161   0.07428   0.23389   0.03721
  31   35175.3    284.3   0.164013121   1.53503   1.04675   0.64599  -0.14844
  32   35446.9    282.1   0.003334907   0.03097  -0.17017  -0.00564   0.04455
  33   35955.0    278.1   0.099674551   0.91264   0.42927   0.21191   0.82672
  34   36065.3    277.3   0.016702333   0.15246   0.26969   0.23163  -0.16147
  35   36203.3    276.2   0.011185770   0.10172  -0.29597  -0.01488   0.11788
  36   36269.1    275.7   0.366792041   3.32935  -1.54013  -0.28392  -0.93633
  37   36612.6    273.1   0.015010374   0.13497  -0.30799   0.02792  -0.19832
  38   36684.4    272.6   0.004916147   0.04412   0.18860  -0.07810   0.04950
  39   37448.0    267.0   0.013715923   0.12058   0.15248   0.18047   0.25447
  40   37553.8    266.3   0.049188128   0.43120  -0.09150   0.60382  -0.24131
  41   37807.7    264.5   0.097820812   0.85178   0.42225   0.70574  -0.41882
  42   37844.5    264.2   0.002009131   0.01748   0.06446   0.06983  -0.09190
  43   38226.5    261.6   0.042684507   0.36761   0.55047   0.18391   0.17541
  44   38368.4    260.6   0.000159020   0.00136   0.01512   0.01771   0.02867
  45   38482.0    259.9   0.037417826   0.32011   0.49040   0.22923   0.16452
  46   38705.8    258.4   0.100559966   0.85531  -0.76844  -0.02718   0.51387
  47   39191.9    255.2   0.167970071   1.41095  -0.19291  -0.76888  -0.88463
  48   39463.9    253.4   0.039931116   0.33311  -0.50824  -0.09370  -0.25695
  49   39678.1    252.0   0.133225469   1.10538  -0.79173  -0.48030  -0.49785
  50   39984.3    250.1   0.002053910   0.01691  -0.08005   0.00276   0.10245
  51   40280.2    248.3   0.006381907   0.05216   0.03196   0.09688  -0.20434

FINAL SINGLE POINT ENERGY     -7593.495266263323

DIPOLE MOMENT
-------------
                                X             Y             Z
Electronic contribution:    -50.81012     -99.64666    -145.80550
Nuclear contribution   :     52.15662     103.39593     145.11078
                        -----------------------------------------
Total Dipole Moment    :      1.34650       3.74927      -0.69472
                        -----------------------------------------
Magnitude (a.u.)       :      4.04385
Magnitude (Debye)      :     10.27865

Rotational constants in cm-1:     0.000918     0.000159     0.000151
Rotational constants in MHz :    27.526739     4.759115     4.518015

                             ****ORCA TERMINATED NORMALLY****
TOTAL RUN TIME: 0 days 0 hours 11 minutes 59 seconds 766 msec
