                         Program Version 4.2.0 -  RELEASE  -
|  1> # ORCA input file
|  2> # SCF done       -184.025380636154          0.000910681329
|  3> ! CAM-B3LYP def2-SVP def2/J RIJCOSX Grid4 TightSCF
|  4> %maxcore 5000
|  5> %tddft
|  6>     Mode sTDDFT
|  7>     Ethresh 5.0
|  8>     maxcore 5000
|  9> end
| 10>
| 11> %pal
| 12>   nprocs 6
| 13>   end
| 14> * xyz 0 1
| 15>    C       -4.10755         0.61741         2.22779
| 16>    C       -3.36404        -0.29328         1.51752
| 17>    C       -2.65245        -1.36142         2.10043
| 18>    N       -2.04793        -2.24793         2.51034
| 19>    C       -3.20168        -0.31315         0.11742
| 20>    N       -3.01735        -0.41098        -1.01255
| 21>    C       -4.27358         0.61238         3.67926
| 22>    C       -5.12892         1.68015         4.04222
| 23>    C       -5.47748         1.94256         5.34407
| 24>    C       -4.95433         1.11153         6.34032
| 25>    C       -4.09952         0.04761         5.96934
| 26>    C       -3.74870        -0.21862         4.65130
| 27>    S       -3.56230        -0.85349         7.35553
| 28>    C       -4.48129         0.19837         8.39912
| 29>    C       -5.15646         1.17362         7.74658
| 30>   Br       -4.46306        -0.09027        10.25283
| 31>    C       -5.53983         2.41366         2.82643
| 32>    O       -6.28059         3.37604         2.79237
| 33>    C       -4.86429         1.73205         1.70120
| 34>    C       -4.93718         2.12787         0.38807
| 35>    C       -5.66682         3.23304        -0.07763
| 36>    C       -5.66375         3.59987        -1.39367
| 37>    C       -6.35554         4.71771        -1.89048
| 38>    O       -7.10740         5.50727        -1.07672
| 39>    C       -7.62728         6.51368        -1.81452
| 40>    C       -7.20789         6.38013        -3.13730
| 41>    C       -6.39913         5.23220        -3.19084
| 42>    O       -5.77998         4.71899        -4.26769
| 43>    O       -7.48214         7.15538        -4.22197
| 44>    C       -8.46318         7.50090        -1.23319
| 45>    C       -8.85824         7.49426         0.06516
| 46>    C       -9.70398         8.46801         0.67670
| 47>    C      -10.03037         9.63316         0.08096
| 48>    N      -10.86677        10.58978         0.58476
| 49>    C      -11.23416        11.70218        -0.10998
| 50>    S      -11.65770        13.15964         0.73154
| 51>    C      -11.77855        13.98610        -0.79202
| 52>    N      -12.17405        15.32489        -0.76642
| 53>    O      -12.27330        15.90996        -1.82940
| 54>    O      -12.39812        15.80753         0.33275
| 55>    C      -11.50339        13.18505        -1.86897
| 56>    C      -11.21738        11.85842        -1.50204
| 57>    C      -11.03581        10.76711        -2.43168
| 58>    C      -10.36568        10.84946        -3.60376
| 59>    C      -10.20703         9.75124        -4.48099
| 60>    C       -9.38685         9.75859        -5.57758
| 61>    C       -9.18966         8.70622        -6.51251
| 62>    C       -8.29369         8.99485        -7.49355
| 63>    C       -7.71739        10.28217        -7.38222
| 64>    S       -8.37090        11.13014        -5.99952
| 65>    C       -6.75945        10.87054        -8.18237
| 66>    C       -6.13839        10.35765        -9.34517
| 67>    C       -5.22499        11.20241        -9.89277
| 68>    C       -5.06078        12.42674        -9.18742
| 69>    S       -6.13508        12.45953        -7.80362
| 70>    C       -4.20369        13.43279        -9.54811
| 71>    C       -3.96117        14.64488        -8.86971
| 72>    S       -2.94445        15.86712        -9.62275
| 73>    C       -3.07392        16.97435        -8.31827
| 74>    C       -3.86009        16.44633        -7.32242
| 75>    C       -4.35446        15.14108        -7.63838
| 76>    O       -5.09278        14.65819        -6.61681
| 77>    C       -5.08575        15.62976        -5.66764
| 78>    N       -5.79343        15.37531        -4.46812
| 79>    O       -5.76097        16.25084        -3.62424
| 80>    O       -6.37698        14.31754        -4.36312
| 81>    C       -4.36346        16.73614        -6.02392
| 82>    H       -6.13212         2.76489         5.58697
| 83>    H       -3.09236        -1.04128         4.42269
| 84>    H       -5.77144         1.90769         8.23442
| 85>    H       -4.38536         1.56573        -0.35431
| 86>    H       -6.23510         3.81669         0.63047
| 87>    H       -5.10141         3.03686        -2.12591
| 88>    H       -5.97049         5.28481        -5.02788
| 89>    H       -8.01954         7.91339        -3.96510
| 90>    H       -8.79187         8.27838        -1.90934
| 91>    H       -8.53236         6.67111         0.68424
| 92>    H      -10.08764         8.24022         1.66120
| 93>    H       -9.60850         9.89406        -0.87613
| 94>    H      -11.13354        10.52939         1.55904
| 95>    H      -11.55128        13.53870        -2.88263
| 96>    H      -11.47166         9.81880        -2.13910
| 97>    H       -9.87574        11.77437        -3.87779
| 98>    H      -10.76179         8.84523        -4.26941
| 99>    H       -9.72308         7.77584        -6.42868
|100>    H       -8.02462         8.32073        -8.28676
|101>    H       -6.38455         9.38962        -9.74337
|102>    H       -4.65273        10.99104       -10.77876
|103>    H       -3.64628        13.29426       -10.46482
|104>    H       -2.57367        17.91893        -8.36024
|105>    H       -4.22113        17.61590        -5.43151
|106> *
|107>
|108>                          ****END OF INPUT****

CARTESIAN COORDINATES (ANGSTROEM)
---------------------------------
  C     -4.107550    0.617410    2.227790
  C     -3.364040   -0.293280    1.517520
  C     -2.652450   -1.361420    2.100430
  N     -2.047930   -2.247930    2.510340
  C     -3.201680   -0.313150    0.117420
  N     -3.017350   -0.410980   -1.012550
  C     -4.273580    0.612380    3.679260
  C     -5.128920    1.680150    4.042220
  C     -5.477480    1.942560    5.344070
  C     -4.954330    1.111530    6.340320
  C     -4.099520    0.047610    5.969340
  C     -3.748700   -0.218620    4.651300
  S     -3.562300   -0.853490    7.355530
  C     -4.481290    0.198370    8.399120
  C     -5.156460    1.173620    7.746580
  Br    -4.463060   -0.090270   10.252830
  C     -5.539830    2.413660    2.826430
  O     -6.280590    3.376040    2.792370
  C     -4.864290    1.732050    1.701200
  C     -4.937180    2.127870    0.388070
  C     -5.666820    3.233040   -0.077630
  C     -5.663750    3.599870   -1.393670
  C     -6.355540    4.717710   -1.890480
  O     -7.107400    5.507270   -1.076720
  C     -7.627280    6.513680   -1.814520
  C     -7.207890    6.380130   -3.137300
  C     -6.399130    5.232200   -3.190840
  O     -5.779980    4.718990   -4.267690
  O     -7.482140    7.155380   -4.221970
  C     -8.463180    7.500900   -1.233190
  C     -8.858240    7.494260    0.065160
  C     -9.703980    8.468010    0.676700
  C    -10.030370    9.633160    0.080960
  N    -10.866770   10.589780    0.584760
  C    -11.234160   11.702180   -0.109980
  S    -11.657700   13.159640    0.731540
  C    -11.778550   13.986100   -0.792020
  N    -12.174050   15.324890   -0.766420
  O    -12.273300   15.909960   -1.829400
  O    -12.398120   15.807530    0.332750
  C    -11.503390   13.185050   -1.868970
  C    -11.217380   11.858420   -1.502040
  C    -11.035810   10.767110   -2.431680
  C    -10.365680   10.849460   -3.603760
  C    -10.207030    9.751240   -4.480990
  C     -9.386850    9.758590   -5.577580
  C     -9.189660    8.706220   -6.512510
  C     -8.293690    8.994850   -7.493550
  C     -7.717390   10.282170   -7.382220
  S     -8.370900   11.130140   -5.999520
  C     -6.759450   10.870540   -8.182370
  C     -6.138390   10.357650   -9.345170
  C     -5.224990   11.202410   -9.892770
  C     -5.060780   12.426740   -9.187420
  S     -6.135080   12.459530   -7.803620
  C     -4.203690   13.432790   -9.548110
  C     -3.961170   14.644880   -8.869710
  S     -2.944450   15.867120   -9.622750
  C     -3.073920   16.974350   -8.318270
  C     -3.860090   16.446330   -7.322420
  C     -4.354460   15.141080   -7.638380
  O     -5.092780   14.658190   -6.616810
  C     -5.085750   15.629760   -5.667640
  N     -5.793430   15.375310   -4.468120
  O     -5.760970   16.250840   -3.624240
  O     -6.376980   14.317540   -4.363120
  C     -4.363460   16.736140   -6.023920
  H     -6.132120    2.764890    5.586970
  H     -3.092360   -1.041280    4.422690
  H     -5.771440    1.907690    8.234420
  H     -4.385360    1.565730   -0.354310
  H     -6.235100    3.816690    0.630470
  H     -5.101410    3.036860   -2.125910
  H     -5.970490    5.284810   -5.027880
  H     -8.019540    7.913390   -3.965100
  H     -8.791870    8.278380   -1.909340
  H     -8.532360    6.671110    0.684240
  H    -10.087640    8.240220    1.661200
  H     -9.608500    9.894060   -0.876130
  H    -11.133540   10.529390    1.559040
  H    -11.551280   13.538700   -2.882630
  H    -11.471660    9.818800   -2.139100
  H     -9.875740   11.774370   -3.877790
  H    -10.761790    8.845230   -4.269410
  H     -9.723080    7.775840   -6.428680
  H     -8.024620    8.320730   -8.286760
  H     -6.384550    9.389620   -9.743370
  H     -4.652730   10.991040  -10.778760
  H     -3.646280   13.294260  -10.464820
  H     -2.573670   17.918930   -8.360240
  H     -4.221130   17.615900   -5.431510

 Total Charge           Charge          ....    0
 Multiplicity           Mult            ....    1
 Number of Electrons    NEL             ....  528
 Basis Dimension        Dim             .... 1096

ORBITAL ENERGIES
----------------

  NO   OCC          E(Eh)            E(eV)
   0   2.0000    -482.878007    -13139.7786
   1   2.0000     -88.983612     -2421.3672
   2   2.0000     -88.983608     -2421.3671
   3   2.0000     -88.965746     -2420.8810
   4   2.0000     -88.951588     -2420.4958
   5   2.0000     -88.949276     -2420.4329
   6   2.0000     -62.555735     -1702.2281
   7   2.0000     -56.389673     -1534.4410
   8   2.0000     -56.386978     -1534.3677
   9   2.0000     -56.386940     -1534.3667
  10   2.0000     -19.315868      -525.6115
  11   2.0000     -19.292805      -524.9839
  12   2.0000     -19.270784      -524.3847
  13   2.0000     -19.269604      -524.3526
  14   2.0000     -19.250093      -523.8217
  15   2.0000     -19.248120      -523.7680
  16   2.0000     -19.232102      -523.3321
  17   2.0000     -19.231811      -523.3242
  18   2.0000     -19.200134      -522.4622
  19   2.0000     -14.661751      -398.9665
  20   2.0000     -14.644022      -398.4841
  21   2.0000     -14.488208      -394.2442
  22   2.0000     -14.401066      -391.8729
  23   2.0000     -14.399520      -391.8308
  24   2.0000     -10.394455      -282.8475
  25   2.0000     -10.369070      -282.1567
  26   2.0000     -10.356149      -281.8051
  27   2.0000     -10.351649      -281.6827
  28   2.0000     -10.350701      -281.6569
  29   2.0000     -10.349576      -281.6263
  30   2.0000     -10.345960      -281.5279
  31   2.0000     -10.342801      -281.4419
  32   2.0000     -10.339627      -281.3556
  33   2.0000     -10.333620      -281.1921
  34   2.0000     -10.332079      -281.1501
  35   2.0000     -10.327630      -281.0291
  36   2.0000     -10.325148      -280.9616
  37   2.0000     -10.323410      -280.9143
  38   2.0000     -10.321227      -280.8549
  39   2.0000     -10.320659      -280.8394
  40   2.0000     -10.319374      -280.8045
  41   2.0000     -10.319041      -280.7954
  42   2.0000     -10.317964      -280.7661
  43   2.0000     -10.317503      -280.7535
  44   2.0000     -10.314021      -280.6588
  45   2.0000     -10.307821      -280.4901
  46   2.0000     -10.306883      -280.4645
  47   2.0000     -10.304875      -280.4099
  48   2.0000     -10.303618      -280.3757
  49   2.0000     -10.301198      -280.3099
  50   2.0000     -10.300004      -280.2774
  51   2.0000     -10.299371      -280.2601
  52   2.0000     -10.298376      -280.2331
  53   2.0000     -10.296996      -280.1955
  54   2.0000     -10.296606      -280.1849
  55   2.0000     -10.296268      -280.1757
  56   2.0000     -10.295004      -280.1413
  57   2.0000     -10.294947      -280.1397
  58   2.0000     -10.294636      -280.1313
  59   2.0000     -10.294460      -280.1265
  60   2.0000     -10.292797      -280.0813
  61   2.0000     -10.291360      -280.0421
  62   2.0000     -10.291215      -280.0382
  63   2.0000     -10.290907      -280.0298
  64   2.0000     -10.289241      -279.9845
  65   2.0000     -10.288684      -279.9693
  66   2.0000     -10.287706      -279.9427
  67   2.0000     -10.281947      -279.7860
  68   2.0000     -10.278363      -279.6885
  69   2.0000     -10.275628      -279.6141
  70   2.0000     -10.265516      -279.3389
  71   2.0000      -8.785172      -239.0567
  72   2.0000      -8.079473      -219.8536
  73   2.0000      -8.078561      -219.8288
  74   2.0000      -8.061675      -219.3693
  75   2.0000      -8.048091      -218.9997
  76   2.0000      -8.045509      -218.9294
  77   2.0000      -6.621426      -180.1782
  78   2.0000      -6.606921      -179.7835
  79   2.0000      -6.606750      -179.7788
  80   2.0000      -6.049174      -164.6064
  81   2.0000      -6.047899      -164.5717
  82   2.0000      -6.044783      -164.4869
  83   2.0000      -6.043559      -164.4536
  84   2.0000      -6.040910      -164.3815
  85   2.0000      -6.040795      -164.3784
  86   2.0000      -6.031376      -164.1221
  87   2.0000      -6.027105      -164.0059
  88   2.0000      -6.022907      -163.8916
  89   2.0000      -6.017864      -163.7544
  90   2.0000      -6.015276      -163.6840
  91   2.0000      -6.013797      -163.6437
  92   2.0000      -6.011126      -163.5711
  93   2.0000      -6.008842      -163.5089
  94   2.0000      -6.006253      -163.4385
  95   2.0000      -2.737294       -74.4856
  96   2.0000      -2.733238       -74.3752
  97   2.0000      -2.733109       -74.3717
  98   2.0000      -2.721572       -74.0577
  99   2.0000      -2.721565       -74.0575
 100   2.0000      -1.333046       -36.2740
 101   2.0000      -1.312762       -35.7221
 102   2.0000      -1.238048       -33.6890
 103   2.0000      -1.215361       -33.0717
 104   2.0000      -1.168965       -31.8092
 105   2.0000      -1.151481       -31.3334
 106   2.0000      -1.149110       -31.2689
 107   2.0000      -1.131837       -30.7989
 108   2.0000      -1.114046       -30.3147
 109   2.0000      -1.091787       -29.7090
 110   2.0000      -1.010315       -27.4921
 111   2.0000      -1.007018       -27.4024
 112   2.0000      -1.002969       -27.2922
 113   2.0000      -1.002028       -27.2666
 114   2.0000      -0.999835       -27.2069
 115   2.0000      -0.982222       -26.7276
 116   2.0000      -0.979464       -26.6526
 117   2.0000      -0.975077       -26.5332
 118   2.0000      -0.942598       -25.6494
 119   2.0000      -0.933187       -25.3933
 120   2.0000      -0.928569       -25.2676
 121   2.0000      -0.927031       -25.2258
 122   2.0000      -0.913000       -24.8440
 123   2.0000      -0.907540       -24.6954
 124   2.0000      -0.898218       -24.4418
 125   2.0000      -0.896476       -24.3943
 126   2.0000      -0.895461       -24.3667
 127   2.0000      -0.889220       -24.1969
 128   2.0000      -0.881454       -23.9856
 129   2.0000      -0.874427       -23.7944
 130   2.0000      -0.873002       -23.7556
 131   2.0000      -0.861016       -23.4294
 132   2.0000      -0.857373       -23.3303
 133   2.0000      -0.842806       -22.9339
 134   2.0000      -0.834975       -22.7208
 135   2.0000      -0.832481       -22.6530
 136   2.0000      -0.822433       -22.3795
 137   2.0000      -0.817687       -22.2504
 138   2.0000      -0.802505       -21.8373
 139   2.0000      -0.799600       -21.7582
 140   2.0000      -0.786981       -21.4149
 141   2.0000      -0.773730       -21.0543
 142   2.0000      -0.766244       -20.8505
 143   2.0000      -0.748830       -20.3767
 144   2.0000      -0.742047       -20.1921
 145   2.0000      -0.739901       -20.1337
 146   2.0000      -0.720656       -19.6100
 147   2.0000      -0.716635       -19.5006
 148   2.0000      -0.712408       -19.3856
 149   2.0000      -0.708995       -19.2927
 150   2.0000      -0.698245       -19.0002
 151   2.0000      -0.687528       -18.7086
 152   2.0000      -0.678875       -18.4731
 153   2.0000      -0.677264       -18.4293
 154   2.0000      -0.675063       -18.3694
 155   2.0000      -0.669791       -18.2259
 156   2.0000      -0.664952       -18.0943
 157   2.0000      -0.658723       -17.9248
 158   2.0000      -0.650030       -17.6882
 159   2.0000      -0.648053       -17.6344
 160   2.0000      -0.646791       -17.6001
 161   2.0000      -0.644593       -17.5403
 162   2.0000      -0.641218       -17.4484
 163   2.0000      -0.635941       -17.3048
 164   2.0000      -0.632310       -17.2060
 165   2.0000      -0.628799       -17.1105
 166   2.0000      -0.625198       -17.0125
 167   2.0000      -0.624870       -17.0036
 168   2.0000      -0.623189       -16.9578
 169   2.0000      -0.612466       -16.6660
 170   2.0000      -0.610469       -16.6117
 171   2.0000      -0.607370       -16.5274
 172   2.0000      -0.598301       -16.2806
 173   2.0000      -0.593548       -16.1513
 174   2.0000      -0.591597       -16.0982
 175   2.0000      -0.588488       -16.0136
 176   2.0000      -0.584318       -15.9001
 177   2.0000      -0.582655       -15.8549
 178   2.0000      -0.574786       -15.6407
 179   2.0000      -0.574258       -15.6263
 180   2.0000      -0.570253       -15.5174
 181   2.0000      -0.565500       -15.3880
 182   2.0000      -0.562438       -15.3047
 183   2.0000      -0.557930       -15.1821
 184   2.0000      -0.554620       -15.0920
 185   2.0000      -0.546664       -14.8755
 186   2.0000      -0.541231       -14.7276
 187   2.0000      -0.538061       -14.6414
 188   2.0000      -0.536543       -14.6001
 189   2.0000      -0.535454       -14.5704
 190   2.0000      -0.525617       -14.3028
 191   2.0000      -0.525460       -14.2985
 192   2.0000      -0.524508       -14.2726
 193   2.0000      -0.522794       -14.2259
 194   2.0000      -0.516174       -14.0458
 195   2.0000      -0.513550       -13.9744
 196   2.0000      -0.509161       -13.8550
 197   2.0000      -0.508039       -13.8244
 198   2.0000      -0.506698       -13.7880
 199   2.0000      -0.501369       -13.6429
 200   2.0000      -0.497318       -13.5327
 201   2.0000      -0.496261       -13.5040
 202   2.0000      -0.495796       -13.4913
 203   2.0000      -0.494775       -13.4635
 204   2.0000      -0.490211       -13.3393
 205   2.0000      -0.487203       -13.2575
 206   2.0000      -0.485258       -13.2046
 207   2.0000      -0.482743       -13.1361
 208   2.0000      -0.480863       -13.0850
 209   2.0000      -0.479297       -13.0423
 210   2.0000      -0.479066       -13.0361
 211   2.0000      -0.477534       -12.9944
 212   2.0000      -0.476198       -12.9580
 213   2.0000      -0.470626       -12.8064
 214   2.0000      -0.467206       -12.7133
 215   2.0000      -0.465103       -12.6561
 216   2.0000      -0.460577       -12.5329
 217   2.0000      -0.458827       -12.4853
 218   2.0000      -0.457703       -12.4547
 219   2.0000      -0.453219       -12.3327
 220   2.0000      -0.448130       -12.1942
 221   2.0000      -0.445619       -12.1259
 222   2.0000      -0.444159       -12.0862
 223   2.0000      -0.440299       -11.9811
 224   2.0000      -0.436888       -11.8883
 225   2.0000      -0.435150       -11.8410
 226   2.0000      -0.432129       -11.7588
 227   2.0000      -0.429797       -11.6954
 228   2.0000      -0.427524       -11.6335
 229   2.0000      -0.427096       -11.6219
 230   2.0000      -0.426158       -11.5963
 231   2.0000      -0.422875       -11.5070
 232   2.0000      -0.412967       -11.2374
 233   2.0000      -0.409291       -11.1374
 234   2.0000      -0.409265       -11.1367
 235   2.0000      -0.408231       -11.1085
 236   2.0000      -0.400182       -10.8895
 237   2.0000      -0.396280       -10.7833
 238   2.0000      -0.393138       -10.6978
 239   2.0000      -0.393065       -10.6958
 240   2.0000      -0.386664       -10.5217
 241   2.0000      -0.381047       -10.3688
 242   2.0000      -0.380137       -10.3441
 243   2.0000      -0.377282       -10.2664
 244   2.0000      -0.376437       -10.2434
 245   2.0000      -0.372588       -10.1386
 246   2.0000      -0.367584       -10.0025
 247   2.0000      -0.361024        -9.8240
 248   2.0000      -0.360322        -9.8049
 249   2.0000      -0.355186        -9.6651
 250   2.0000      -0.346931        -9.4405
 251   2.0000      -0.346654        -9.4329
 252   2.0000      -0.332135        -9.0379
 253   2.0000      -0.331183        -9.0120
 254   2.0000      -0.324925        -8.8417
 255   2.0000      -0.322114        -8.7652
 256   2.0000      -0.319829        -8.7030
 257   2.0000      -0.308155        -8.3853
 258   2.0000      -0.304215        -8.2781
 259   2.0000      -0.287459        -7.8222
 260   2.0000      -0.282571        -7.6891
 261   2.0000      -0.271949        -7.4001
 262   2.0000      -0.233606        -6.3567
 263   2.0000      -0.219467        -5.9720
 264   0.0000      -0.089988        -2.4487
 265   0.0000      -0.085141        -2.3168
 266   0.0000      -0.066890        -1.8202
 267   0.0000      -0.056615        -1.5406
 268   0.0000      -0.046836        -1.2745

MULLIKEN ATOMIC CHARGES
-----------------------
   0 C :    0.334370
   1 C :   -0.365793
   2 C :   -0.186908
   3 N :    0.138615
   4 C :   -0.190414
   5 N :    0.135986
   6 C :    0.011613
   7 C :   -0.009577
   8 C :   -0.078515
   9 C :    0.119785
  10 C :   -0.091240
  11 C :   -0.025052
  12 S :    0.180379
  13 C :   -0.123937
  14 C :    0.036215
  15 Br:    0.015449
  16 C :    0.138835
  17 O :   -0.163741
  18 C :   -0.078200
  19 C :   -0.031595
  20 C :   -0.007742
  21 C :   -0.000189
  22 C :    0.071506
  23 O :   -0.213404
  24 C :    0.117928
  25 C :    0.063477
  26 C :    0.113161
  27 O :   -0.158386
  28 O :   -0.207463
  29 C :   -0.061610
  30 C :    0.024061
  31 C :   -0.020966
  32 C :    0.051828
  33 N :   -0.024148
  34 C :   -0.099385
  35 S :    0.173299
  36 C :   -0.014435
  37 N :    0.278785
  38 O :   -0.252111
  39 O :   -0.270827
  40 C :    0.015971
  41 C :    0.079774
  42 C :   -0.085128
  43 C :    0.013660
  44 C :   -0.065435
  45 C :   -0.030729
  46 C :    0.032157
  47 C :    0.034371
  48 C :   -0.054509
  49 S :    0.090043
  50 C :   -0.039420
  51 C :    0.034294
  52 C :    0.036027
  53 C :   -0.032662
  54 S :    0.101016
  55 C :    0.047253
  56 C :   -0.231266
  57 S :    0.152784
  58 C :   -0.134525
  59 C :    0.124757
  60 C :    0.195166
  61 O :   -0.191816
  62 C :    0.247797
  63 N :    0.269643
  64 O :   -0.244339
  65 O :   -0.232311
  66 C :   -0.074685
  67 H :   -0.016640
  68 H :   -0.008949
  69 H :   -0.006441
  70 H :    0.005064
  71 H :    0.026353
  72 H :    0.021703
  73 H :    0.197991
  74 H :    0.205018
  75 H :   -0.038976
  76 H :    0.016926
  77 H :   -0.014631
  78 H :    0.061431
  79 H :    0.136709
  80 H :    0.012626
  81 H :    0.021142
  82 H :    0.018022
  83 H :   -0.010121
  84 H :   -0.010479
  85 H :   -0.011810
  86 H :   -0.012935
  87 H :   -0.010720
  88 H :   -0.018792
  89 H :    0.034724
  90 H :    0.015245
Sum of atomic charges:   -0.0000000

LOEWDIN ATOMIC CHARGES
----------------------
   0 C :    0.076500
   1 C :   -0.153522
   2 C :   -0.018368
   3 N :   -0.066388
   4 C :   -0.019946
   5 N :   -0.064367
   6 C :   -0.019111
   7 C :   -0.048460
   8 C :    0.016689
   9 C :   -0.035225
  10 C :   -0.145669
  11 C :   -0.012525
  12 S :    0.427675
  13 C :   -0.274335
  14 C :   -0.071534
  15 Br:    0.130315
  16 C :    0.082441
  17 O :   -0.156357
  18 C :   -0.113868
  19 C :    0.067484
  20 C :   -0.048246
  21 C :    0.026051
  22 C :   -0.013974
  23 O :    0.009596
  24 C :    0.017926
  25 C :   -0.029779
  26 C :    0.020521
  27 O :   -0.031842
  28 O :   -0.061533
  29 C :   -0.073138
  30 C :    0.006214
  31 C :   -0.093954
  32 C :    0.046497
  33 N :    0.039866
  34 C :   -0.107450
  35 S :    0.450780
  36 C :   -0.210669
  37 N :    0.274106
  38 O :   -0.217798
  39 O :   -0.236343
  40 C :    0.007355
  41 C :   -0.105610
  42 C :   -0.032885
  43 C :   -0.033251
  44 C :   -0.085174
  45 C :   -0.148251
  46 C :   -0.041789
  47 C :   -0.023145
  48 C :   -0.182085
  49 S :    0.378468
  50 C :   -0.175910
  51 C :   -0.032406
  52 C :   -0.028567
  53 C :   -0.144939
  54 S :    0.402001
  55 C :   -0.079959
  56 C :   -0.201503
  57 S :    0.477989
  58 C :   -0.185198
  59 C :   -0.080646
  60 C :    0.012170
  61 O :   -0.000822
  62 C :    0.027440
  63 N :    0.272376
  64 O :   -0.206289
  65 O :   -0.194169
  66 C :   -0.007633
  67 H :    0.038226
  68 H :    0.040183
  69 H :    0.037333
  70 H :    0.040082
  71 H :    0.032849
  72 H :    0.047424
  73 H :    0.107691
  74 H :    0.093647
  75 H :    0.022932
  76 H :    0.040104
  77 H :    0.027807
  78 H :    0.037218
  79 H :    0.094924
  80 H :    0.047498
  81 H :    0.031868
  82 H :    0.028212
  83 H :    0.030753
  84 H :    0.033175
  85 H :    0.033023
  86 H :    0.031966
  87 H :    0.033790
  88 H :    0.034860
  89 H :    0.030284
  90 H :    0.048322

  Mayer bond orders larger than 0.100000
B(  0-C ,  1-C ) :   1.5995 B(  0-C ,  6-C ) :   0.9940 B(  0-C , 18-C ) :   1.0953
B(  1-C ,  2-C ) :   1.1455 B(  1-C ,  4-C ) :   1.1516 B(  2-C ,  3-N ) :   2.9640
B(  4-C ,  5-N ) :   2.9593 B(  6-C ,  7-C ) :   1.2807 B(  6-C , 11-C ) :   1.4140
B(  7-C ,  8-C ) :   1.4277 B(  7-C , 16-C ) :   0.9378 B(  8-C ,  9-C ) :   1.2411
B(  8-C , 67-H ) :   1.0163 B(  9-C , 10-C ) :   1.3137 B(  9-C , 14-C ) :   1.1594
B( 10-C , 11-C ) :   1.3261 B( 10-C , 12-S ) :   1.0822 B( 11-C , 68-H ) :   0.9791
B( 12-S , 13-C ) :   1.0858 B( 13-C , 14-C ) :   1.6209 B( 13-C , 15-Br) :   1.0139
B( 14-C , 69-H ) :   1.0002 B( 16-C , 17-O ) :   2.1913 B( 16-C , 18-C ) :   0.9631
B( 18-C , 19-C ) :   1.4657 B( 19-C , 20-C ) :   1.2092 B( 19-C , 70-H ) :   0.9619
B( 20-C , 21-C ) :   1.4529 B( 20-C , 71-H ) :   0.9937 B( 21-C , 22-C ) :   1.2146
B( 21-C , 72-H ) :   0.9793 B( 22-C , 23-O ) :   1.1002 B( 22-C , 24-C ) :   0.1053
B( 22-C , 26-C ) :   1.3230 B( 23-O , 24-C ) :   1.1469 B( 24-C , 25-C ) :   1.2886
B( 24-C , 29-C ) :   1.1748 B( 25-C , 26-C ) :   1.2554 B( 25-C , 28-O ) :   1.2390
B( 26-C , 27-O ) :   1.2979 B( 27-O , 73-H ) :   0.9498 B( 28-O , 74-H ) :   0.9313
B( 29-C , 30-C ) :   1.6760 B( 29-C , 75-H ) :   0.9400 B( 30-C , 31-C ) :   1.1333
B( 30-C , 76-H ) :   0.9835 B( 31-C , 32-C ) :   1.6804 B( 31-C , 77-H ) :   0.9755
B( 32-C , 33-N ) :   1.1385 B( 32-C , 78-H ) :   0.9405 B( 33-N , 34-C ) :   1.1871
B( 33-N , 79-H ) :   0.9153 B( 34-C , 35-S ) :   1.1365 B( 34-C , 41-C ) :   1.3775
B( 35-S , 36-C ) :   1.0810 B( 36-C , 37-N ) :   0.9764 B( 36-C , 40-C ) :   1.4739
B( 37-N , 38-O ) :   1.5342 B( 37-N , 39-O ) :   1.5051 B( 38-O , 39-O ) :   0.2556
B( 40-C , 41-C ) :   1.2602 B( 40-C , 80-H ) :   1.0070 B( 41-C , 42-C ) :   1.0222
B( 42-C , 43-C ) :   1.6997 B( 42-C , 81-H ) :   0.9747 B( 43-C , 44-C ) :   1.1235
B( 43-C , 82-H ) :   0.9741 B( 44-C , 45-C ) :   1.5685 B( 44-C , 83-H ) :   0.9847
B( 45-C , 46-C ) :   1.1238 B( 45-C , 49-S ) :   1.0407 B( 46-C , 47-C ) :   1.5971
B( 46-C , 84-H ) :   0.9996 B( 47-C , 48-C ) :   1.1846 B( 47-C , 85-H ) :   0.9943
B( 48-C , 49-S ) :   1.0381 B( 48-C , 50-C ) :   1.5165 B( 50-C , 51-C ) :   1.1753
B( 50-C , 54-S ) :   1.0444 B( 51-C , 52-C ) :   1.6050 B( 51-C , 86-H ) :   0.9932
B( 52-C , 53-C ) :   1.1321 B( 52-C , 87-H ) :   1.0000 B( 53-C , 54-S ) :   1.0438
B( 53-C , 55-C ) :   1.6132 B( 55-C , 56-C ) :   1.1449 B( 55-C , 88-H ) :   0.9459
B( 56-C , 57-S ) :   1.1321 B( 56-C , 58-C ) :   0.1084 B( 56-C , 60-C ) :   1.4289
B( 57-S , 58-C ) :   1.1879 B( 58-C , 59-C ) :   1.4300 B( 58-C , 89-H ) :   0.9758
B( 59-C , 60-C ) :   1.2354 B( 59-C , 66-C ) :   1.0629 B( 60-C , 61-O ) :   1.0917
B( 61-O , 62-C ) :   1.1200 B( 62-C , 63-N ) :   0.9114 B( 62-C , 66-C ) :   1.5827
B( 63-N , 64-O ) :   1.5370 B( 63-N , 65-O ) :   1.5142 B( 64-O , 65-O ) :   0.2812
B( 66-C , 90-H ) :   1.0259

-----------------------------------------------------------------------------
         ABSORPTION SPECTRUM VIA TRANSITION ELECTRIC DIPOLE MOMENTS
-----------------------------------------------------------------------------
State   Energy  Wavelength   fosc         T2         TX        TY        TZ
        (cm-1)    (nm)                  (au**2)     (au)      (au)      (au)
-----------------------------------------------------------------------------
   0   14314.0    698.6   1.067064558  24.54170   1.89087   3.51937  -2.92922
   1   16377.5    610.6   0.789958041  15.87937  -2.09285   2.94071  -1.68866
   2   17487.6    571.8   0.573208501  10.79090   2.93892  -1.34111  -0.59586
   3   18737.1    533.7   0.083753297   1.47155  -1.08073   0.46389  -0.29728
   4   19248.7    519.5   0.196497732   3.36072  -0.44384  -1.52800   0.91046
   5   22931.1    436.1   0.082025028   1.17760  -0.29014   1.04462   0.04670
   6   24196.9    413.3   0.010368353   0.14107   0.30696  -0.21425  -0.03064
   7   25035.6    399.4   0.002363975   0.03109  -0.01578   0.17029   0.04287
   8   25669.0    389.6   0.006004222   0.07701   0.18351  -0.05937  -0.19951
   9   26004.6    384.5   0.082951518   1.05014   0.43780  -0.66538  -0.64478
  10   26729.3    374.1   0.096131921   1.18401   0.05867  -1.08102  -0.10934
  11   27738.1    360.5   0.236097018   2.80214   0.02427   1.46283   0.81343
  12   28402.9    352.1   0.327078079   3.79110   0.14243  -0.29361  -1.91953
  13   28545.8    350.3   0.004062322   0.04685   0.02192  -0.00750  -0.21521
  14   28763.6    347.7   0.249035352   2.85032   0.26016  -0.36256  -1.62825
  15   29731.3    336.3   0.193140509   2.13863   0.08424  -1.21093  -0.81559
  16   30268.1    330.4   0.081870554   0.89047  -0.25524   0.27896   0.86458
  17   30463.5    328.3   0.066148069   0.71485   0.34328  -0.55144  -0.54122
  18   31052.4    322.0   0.152748451   1.61941  -0.45739   0.79567   0.88154
  19   31828.3    314.2   0.000699361   0.00723  -0.00203  -0.07529   0.03952
  20   32024.2    312.3   0.089182505   0.91681   0.10544   0.44135  -0.84315
  21   32231.6    310.3   0.145910043   1.49032   0.37295  -0.13926  -1.15405
  22   32519.8    307.5   0.008632042   0.08739  -0.09989   0.11503  -0.25333
  23   32703.5    305.8   0.000424408   0.00427  -0.02016  -0.06212  -0.00269
  24   32964.3    303.4   0.140467968   1.40284   0.14020  -0.82776  -0.83547
  25   33095.0    302.2   0.004704266   0.04680   0.13116   0.16547  -0.04705
  26   33699.1    296.7   0.873837723   8.53666  -0.95366   1.14130   2.51488
  27   34021.2    293.9   0.280449820   2.71382  -0.10573  -0.47708   1.57323
  28   34309.9    291.5   0.006754406   0.06481  -0.03973  -0.21010   0.13816
  29   34587.3    289.1   0.078832053   0.75035   0.34721  -0.57243  -0.54965
  30   34965.8    286.0   0.029050688   0.27352  -0.16678  -0.19402   0.45614
  31   35112.4    284.8   0.029870353   0.28006   0.03969  -0.30139  -0.43318
  32   35584.9    281.0   0.053849881   0.49819   0.32449  -0.09998  -0.61879
  33   35640.6    280.6   0.000138699   0.00128  -0.01495  -0.01757  -0.02737
  34   35784.5    279.5   0.022156689   0.20384  -0.29680   0.25833   0.22139
  35   36198.2    276.3   0.356492283   3.24219  -0.85453  -0.01079   1.58488
  36   36658.7    272.8   0.009368794   0.08414  -0.04686   0.27652  -0.07400
  37   37023.1    270.1   0.094424194   0.83963   0.35565  -0.13298  -0.83394
  38   37484.7    266.8   0.070767582   0.62152   0.12832   0.38063  -0.67836
  39   38097.4    262.5   0.021692525   0.18745  -0.13861   0.39725  -0.10213
  40   38324.0    260.9   0.027440564   0.23572  -0.26533  -0.27288   0.30142
  41   38891.6    257.1   0.133732791   1.13203  -0.32252  -0.71106   0.72277
  42   38985.6    256.5   0.182607451   1.54202  -0.63577   0.97700  -0.42812
  43   39217.3    255.0   0.024801985   0.20820  -0.30039  -0.29213   0.18062
  44   39380.2    253.9   0.136267443   1.13917   0.68049   0.12714  -0.81237
  45   39741.5    251.6   0.044205334   0.36619  -0.09496   0.24418   0.54548
  46   39980.5    250.1   0.040410032   0.33275   0.00381   0.32905   0.47377
  47   40066.7    249.6   0.065557729   0.53866  -0.42325  -0.06947   0.59556

FINAL SINGLE POINT ENERGY     -7316.771001677031

DIPOLE MOMENT
-------------
                                X             Y             Z
Electronic contribution:     36.22373     -81.00569     137.45701
Nuclear contribution   :    -36.97189      83.55771    -140.20076
                        -----------------------------------------
Total Dipole Moment    :     -0.74816       2.55203      -2.74375
                        -----------------------------------------
Magnitude (a.u.)       :      3.82110
Magnitude (Debye)      :      9.71245

Rotational constants in cm-1:     0.001059     0.000244     0.000220
Rotational constants in MHz :    31.743733     7.324865     6.583220

                             ****ORCA TERMINATED NORMALLY****
TOTAL RUN TIME: 0 days 0 hours 8 minutes 34 seconds 780 msec
