                         Program Version 4.2.0 -  RELEASE  -
|  1> # ORCA input file
|  2> # SCF done       -205.863197763214          0.000453403227
|  3> ! CAM-B3LYP def2-SVP def2/J RIJCOSX Grid4 TightSCF
|  4> %maxcore 5000
|  5> %tddft
|  6>     Mode sTDDFT
|  7>     Ethresh 5.0
|  8>     maxcore 5000
|  9> end
| 10>
| 11> %pal
| 12>   nprocs 6
| 13>   end
| 14> * xyz 0 1
| 15>    C      -12.59837         0.16217        -0.54002
| 16>    C      -12.17772        -1.13549        -0.68744
| 17>    C      -12.97887        -2.26369        -0.41447
| 18>    N      -13.57770        -3.22236        -0.21210
| 19>    C      -10.90397        -1.54071        -1.13686
| 20>    N       -9.89512        -1.95717        -1.49486
| 21>    C      -13.92214         0.56970        -0.07749
| 22>    C      -13.99342         1.98395        -0.08892
| 23>    C      -15.11514         2.67474         0.29942
| 24>    C      -16.22384         1.93385         0.72134
| 25>    C      -16.14561         0.52096         0.72711
| 26>    C      -15.01013        -0.17712         0.33417
| 27>    S      -17.62773        -0.19879         1.27910
| 28>    C      -18.32248         1.38594         1.49181
| 29>    C      -17.48938         2.40332         1.16764
| 30>   Br      -20.08225         1.54826         2.12066
| 31>    C      -12.71383         2.53272        -0.57470
| 32>    O      -12.47400         3.70764        -0.77578
| 33>    C      -11.83498         1.36432        -0.80596
| 34>    C      -10.52573         1.44248        -1.20866
| 35>    C       -9.83347         2.65535        -1.36716
| 36>    C       -8.57433         2.75440        -1.88294
| 37>    C       -7.94359         4.00753        -2.02188
| 38>    O       -8.54032         5.11760        -1.51689
| 39>    C       -7.79643         6.19989        -1.84250
| 40>    C       -6.68384         5.78404        -2.57144
| 41>    C       -6.76634         4.38163        -2.67594
| 42>    O       -5.90485         3.55712        -3.29195
| 43>    O       -5.66863         6.51479        -3.10027
| 44>    C       -8.23736         7.48618        -1.44120
| 45>    C       -9.25609         7.65828        -0.55698
| 46>    C       -9.80718         8.91339        -0.21345
| 47>    C      -10.70795         9.07726         0.79274
| 48>    C      -11.39500        10.27969         1.08714
| 49>    S      -11.92315        10.61923         2.69805
| 50>    C      -12.63834        12.13875         2.26293
| 51>    C      -12.43776        12.39773         0.89619
| 52>    C      -11.77339        11.32140         0.22539
| 53>    C      -11.64707        11.34148        -1.17742
| 54>    C      -12.05767        12.44306        -1.86880
| 55>    F      -11.94844        12.47127        -3.20515
| 56>    C      -12.57405        13.57028        -1.19208
| 57>    F      -12.87376        14.67243        -1.89079
| 58>    C      -12.77181        13.55265         0.15814
| 59>    C      -13.41145        12.80772         3.24703
| 60>    C      -14.32493        13.76850         2.98545
| 61>    N      -15.14566        14.34360         3.91777
| 62>    C      -16.21355        15.12194         3.59429
| 63>    S      -16.72245        16.35782         4.69808
| 64>    C      -17.88173        16.91007         3.53044
| 65>    N      -18.69691        17.99426         3.89341
| 66>    O      -19.50602        18.39034         3.08010
| 67>    O      -18.51314        18.46052         5.00282
| 68>    C      -17.86143        16.20034         2.36632
| 69>    C      -16.93658        15.13132         2.38823
| 70>    C      -16.85943        14.20458         1.29606
| 71>    C      -16.52051        12.88777         1.27541
| 72>    C      -16.10908        12.26304        -0.01722
| 73>    O      -16.22591        12.74476        -1.11950
| 74>    C      -15.46393        10.98923         0.35176
| 75>    C      -14.84659        10.07342        -0.45166
| 76>    C      -14.30289         8.90250         0.12375
| 77>    C      -14.41314         8.70616         1.53096
| 78>    C      -13.87847         7.53678         2.10437
| 79>    C      -13.27911         6.60862         1.29847
| 80>    C      -13.16473         6.77616        -0.08893
| 81>    C      -13.66869         7.91366        -0.65751
| 82>    F      -12.77181         5.49330         1.85229
| 83>    C      -15.05213         9.67373         2.33932
| 84>    C      -15.57233        10.79869         1.75913
| 85>    C      -16.30946        11.91993         2.32998
| 86>    C      -16.88230        11.93671         3.57903
| 87>    C      -17.85232        12.87000         3.98645
| 88>    N      -18.67397        13.58312         4.35406
| 89>    C      -16.60255        10.98963         4.58283
| 90>    N      -16.36387        10.28229         5.45551
| 91>    H      -15.13720         3.75324         0.28130
| 92>    H      -15.00244        -1.25376         0.35880
| 93>    H      -17.75511         3.44220         1.23946
| 94>    H       -9.97768         0.53132        -1.40849
| 95>    H      -10.33810         3.56525        -1.07929
| 96>    H       -8.03095         1.89188        -2.23979
| 97>    H       -5.18748         4.08320        -3.67061
| 98>    H       -5.80447         7.45086        -2.91994
| 99>    H       -7.73544         8.34262        -1.87137
|100>    H       -9.68897         6.77963        -0.10003
|101>    H       -9.47043         9.77387        -0.77462
|102>    H      -10.89618         8.24424         1.45758
|103>    H      -11.25729        10.49155        -1.71109
|104>    H      -13.14188        14.44566         0.63033
|105>    H      -13.31780        12.43115         4.25769
|106>    H      -14.48795        14.12847         1.98599
|107>    H      -14.90065        14.26248         4.89673
|108>    H      -18.52557        16.40615         1.54618
|109>    H      -17.08684        14.62896         0.32261
|110>    H      -14.78320        10.23465        -1.51730
|111>    H      -13.95006         7.37469         3.16872
|112>    H      -12.69914         5.99417        -0.66782
|113>    H      -13.59531         8.06569        -1.72373
|114>    H      -15.10926         9.50016         3.40186
|115> *
|116>
|117>                          ****END OF INPUT****

CARTESIAN COORDINATES (ANGSTROEM)
---------------------------------
  C    -12.598370    0.162170   -0.540020
  C    -12.177720   -1.135490   -0.687440
  C    -12.978870   -2.263690   -0.414470
  N    -13.577700   -3.222360   -0.212100
  C    -10.903970   -1.540710   -1.136860
  N     -9.895120   -1.957170   -1.494860
  C    -13.922140    0.569700   -0.077490
  C    -13.993420    1.983950   -0.088920
  C    -15.115140    2.674740    0.299420
  C    -16.223840    1.933850    0.721340
  C    -16.145610    0.520960    0.727110
  C    -15.010130   -0.177120    0.334170
  S    -17.627730   -0.198790    1.279100
  C    -18.322480    1.385940    1.491810
  C    -17.489380    2.403320    1.167640
  Br   -20.082250    1.548260    2.120660
  C    -12.713830    2.532720   -0.574700
  O    -12.474000    3.707640   -0.775780
  C    -11.834980    1.364320   -0.805960
  C    -10.525730    1.442480   -1.208660
  C     -9.833470    2.655350   -1.367160
  C     -8.574330    2.754400   -1.882940
  C     -7.943590    4.007530   -2.021880
  O     -8.540320    5.117600   -1.516890
  C     -7.796430    6.199890   -1.842500
  C     -6.683840    5.784040   -2.571440
  C     -6.766340    4.381630   -2.675940
  O     -5.904850    3.557120   -3.291950
  O     -5.668630    6.514790   -3.100270
  C     -8.237360    7.486180   -1.441200
  C     -9.256090    7.658280   -0.556980
  C     -9.807180    8.913390   -0.213450
  C    -10.707950    9.077260    0.792740
  C    -11.395000   10.279690    1.087140
  S    -11.923150   10.619230    2.698050
  C    -12.638340   12.138750    2.262930
  C    -12.437760   12.397730    0.896190
  C    -11.773390   11.321400    0.225390
  C    -11.647070   11.341480   -1.177420
  C    -12.057670   12.443060   -1.868800
  F    -11.948440   12.471270   -3.205150
  C    -12.574050   13.570280   -1.192080
  F    -12.873760   14.672430   -1.890790
  C    -12.771810   13.552650    0.158140
  C    -13.411450   12.807720    3.247030
  C    -14.324930   13.768500    2.985450
  N    -15.145660   14.343600    3.917770
  C    -16.213550   15.121940    3.594290
  S    -16.722450   16.357820    4.698080
  C    -17.881730   16.910070    3.530440
  N    -18.696910   17.994260    3.893410
  O    -19.506020   18.390340    3.080100
  O    -18.513140   18.460520    5.002820
  C    -17.861430   16.200340    2.366320
  C    -16.936580   15.131320    2.388230
  C    -16.859430   14.204580    1.296060
  C    -16.520510   12.887770    1.275410
  C    -16.109080   12.263040   -0.017220
  O    -16.225910   12.744760   -1.119500
  C    -15.463930   10.989230    0.351760
  C    -14.846590   10.073420   -0.451660
  C    -14.302890    8.902500    0.123750
  C    -14.413140    8.706160    1.530960
  C    -13.878470    7.536780    2.104370
  C    -13.279110    6.608620    1.298470
  C    -13.164730    6.776160   -0.088930
  C    -13.668690    7.913660   -0.657510
  F    -12.771810    5.493300    1.852290
  C    -15.052130    9.673730    2.339320
  C    -15.572330   10.798690    1.759130
  C    -16.309460   11.919930    2.329980
  C    -16.882300   11.936710    3.579030
  C    -17.852320   12.870000    3.986450
  N    -18.673970   13.583120    4.354060
  C    -16.602550   10.989630    4.582830
  N    -16.363870   10.282290    5.455510
  H    -15.137200    3.753240    0.281300
  H    -15.002440   -1.253760    0.358800
  H    -17.755110    3.442200    1.239460
  H     -9.977680    0.531320   -1.408490
  H    -10.338100    3.565250   -1.079290
  H     -8.030950    1.891880   -2.239790
  H     -5.187480    4.083200   -3.670610
  H     -5.804470    7.450860   -2.919940
  H     -7.735440    8.342620   -1.871370
  H     -9.688970    6.779630   -0.100030
  H     -9.470430    9.773870   -0.774620
  H    -10.896180    8.244240    1.457580
  H    -11.257290   10.491550   -1.711090
  H    -13.141880   14.445660    0.630330
  H    -13.317800   12.431150    4.257690
  H    -14.487950   14.128470    1.985990
  H    -14.900650   14.262480    4.896730
  H    -18.525570   16.406150    1.546180
  H    -17.086840   14.628960    0.322610
  H    -14.783200   10.234650   -1.517300
  H    -13.950060    7.374690    3.168720
  H    -12.699140    5.994170   -0.667820
  H    -13.595310    8.065690   -1.723730
  H    -15.109260    9.500160    3.401860

 Total Charge           Charge          ....    0
 Multiplicity           Mult            ....    1
 Number of Electrons    NEL             ....  568
 Basis Dimension        Dim             .... 1214

ORBITAL ENERGIES
----------------

  NO   OCC          E(Eh)            E(eV)
   0   2.0000    -482.883460    -13139.9270
   1   2.0000     -88.992292     -2421.6034
   2   2.0000     -88.987060     -2421.4610
   3   2.0000     -88.973073     -2421.0804
   4   2.0000     -62.561157     -1702.3756
   5   2.0000     -56.395112     -1534.5890
   6   2.0000     -56.392392     -1534.5150
   7   2.0000     -56.392359     -1534.5141
   8   2.0000     -24.800488      -674.8556
   9   2.0000     -24.799447      -674.8272
  10   2.0000     -24.790086      -674.5725
  11   2.0000     -19.303461      -525.2739
  12   2.0000     -19.285401      -524.7824
  13   2.0000     -19.279276      -524.6158
  14   2.0000     -19.242720      -523.6210
  15   2.0000     -19.242083      -523.6037
  16   2.0000     -19.220587      -523.0188
  17   2.0000     -19.216439      -522.9059
  18   2.0000     -14.654153      -398.7598
  19   2.0000     -14.504807      -394.6959
  20   2.0000     -14.422900      -392.4671
  21   2.0000     -14.418654      -392.3515
  22   2.0000     -14.411182      -392.1482
  23   2.0000     -14.409411      -392.1000
  24   2.0000     -10.386393      -282.6281
  25   2.0000     -10.382982      -282.5353
  26   2.0000     -10.382483      -282.5217
  27   2.0000     -10.373200      -282.2691
  28   2.0000     -10.371784      -282.2306
  29   2.0000     -10.365987      -282.0728
  30   2.0000     -10.362446      -281.9765
  31   2.0000     -10.358195      -281.8608
  32   2.0000     -10.356518      -281.8152
  33   2.0000     -10.356084      -281.8034
  34   2.0000     -10.350828      -281.6604
  35   2.0000     -10.347605      -281.5727
  36   2.0000     -10.345576      -281.5174
  37   2.0000     -10.344904      -281.4992
  38   2.0000     -10.344802      -281.4964
  39   2.0000     -10.336089      -281.2593
  40   2.0000     -10.335264      -281.2368
  41   2.0000     -10.330662      -281.1116
  42   2.0000     -10.327105      -281.0148
  43   2.0000     -10.326205      -280.9903
  44   2.0000     -10.324472      -280.9432
  45   2.0000     -10.322737      -280.8959
  46   2.0000     -10.321312      -280.8572
  47   2.0000     -10.318372      -280.7772
  48   2.0000     -10.316378      -280.7229
  49   2.0000     -10.314421      -280.6697
  50   2.0000     -10.314278      -280.6658
  51   2.0000     -10.312908      -280.6285
  52   2.0000     -10.311233      -280.5829
  53   2.0000     -10.309600      -280.5385
  54   2.0000     -10.309480      -280.5352
  55   2.0000     -10.309390      -280.5328
  56   2.0000     -10.309054      -280.5236
  57   2.0000     -10.308912      -280.5198
  58   2.0000     -10.306652      -280.4583
  59   2.0000     -10.305262      -280.4204
  60   2.0000     -10.305114      -280.4164
  61   2.0000     -10.304852      -280.4093
  62   2.0000     -10.304677      -280.4045
  63   2.0000     -10.304552      -280.4011
  64   2.0000     -10.304227      -280.3923
  65   2.0000     -10.304101      -280.3888
  66   2.0000     -10.304001      -280.3861
  67   2.0000     -10.302033      -280.3326
  68   2.0000     -10.301132      -280.3081
  69   2.0000     -10.299824      -280.2725
  70   2.0000     -10.298728      -280.2426
  71   2.0000     -10.298330      -280.2318
  72   2.0000     -10.296329      -280.1774
  73   2.0000     -10.294562      -280.1293
  74   2.0000     -10.293962      -280.1130
  75   2.0000     -10.293451      -280.0990
  76   2.0000     -10.291601      -280.0487
  77   2.0000     -10.289877      -280.0018
  78   2.0000     -10.288871      -279.9744
  79   2.0000     -10.277689      -279.6701
  80   2.0000      -8.790570      -239.2036
  81   2.0000      -8.088221      -220.0917
  82   2.0000      -8.081408      -219.9063
  83   2.0000      -8.069060      -219.5703
  84   2.0000      -6.626883      -180.3266
  85   2.0000      -6.612309      -179.9301
  86   2.0000      -6.612089      -179.9241
  87   2.0000      -6.057965      -164.8456
  88   2.0000      -6.053516      -164.7246
  89   2.0000      -6.050430      -164.6406
  90   2.0000      -6.049432      -164.6134
  91   2.0000      -6.046377      -164.5303
  92   2.0000      -6.044236      -164.4720
  93   2.0000      -6.038766      -164.3232
  94   2.0000      -6.034461      -164.2060
  95   2.0000      -6.030285      -164.0924
  96   2.0000      -2.742728       -74.6334
  97   2.0000      -2.738657       -74.5226
  98   2.0000      -2.738534       -74.5193
  99   2.0000      -2.726928       -74.2035
 100   2.0000      -2.726913       -74.2031
 101   2.0000      -1.324882       -36.0519
 102   2.0000      -1.322664       -35.9915
 103   2.0000      -1.308030       -35.5933
 104   2.0000      -1.304633       -35.5009
 105   2.0000      -1.227833       -33.4110
 106   2.0000      -1.181384       -32.1471
 107   2.0000      -1.165301       -31.7094
 108   2.0000      -1.144456       -31.1422
 109   2.0000      -1.136244       -30.9188
 110   2.0000      -1.130102       -30.7516
 111   2.0000      -1.107622       -30.1399
 112   2.0000      -1.024663       -27.8825
 113   2.0000      -1.022113       -27.8131
 114   2.0000      -1.019302       -27.7366
 115   2.0000      -1.014103       -27.5952
 116   2.0000      -1.009261       -27.4634
 117   2.0000      -1.005037       -27.3484
 118   2.0000      -0.999460       -27.1967
 119   2.0000      -0.989290       -26.9199
 120   2.0000      -0.985328       -26.8121
 121   2.0000      -0.980806       -26.6891
 122   2.0000      -0.960313       -26.1314
 123   2.0000      -0.945859       -25.7381
 124   2.0000      -0.940353       -25.5883
 125   2.0000      -0.935207       -25.4483
 126   2.0000      -0.931248       -25.3405
 127   2.0000      -0.921324       -25.0705
 128   2.0000      -0.917342       -24.9622
 129   2.0000      -0.908660       -24.7259
 130   2.0000      -0.904855       -24.6224
 131   2.0000      -0.902190       -24.5498
 132   2.0000      -0.894517       -24.3411
 133   2.0000      -0.889129       -24.1944
 134   2.0000      -0.887269       -24.1438
 135   2.0000      -0.882840       -24.0233
 136   2.0000      -0.874169       -23.7873
 137   2.0000      -0.868580       -23.6353
 138   2.0000      -0.854192       -23.2438
 139   2.0000      -0.853175       -23.2161
 140   2.0000      -0.850713       -23.1491
 141   2.0000      -0.837775       -22.7970
 142   2.0000      -0.827446       -22.5159
 143   2.0000      -0.824805       -22.4441
 144   2.0000      -0.807015       -21.9600
 145   2.0000      -0.799684       -21.7605
 146   2.0000      -0.782422       -21.2908
 147   2.0000      -0.773893       -21.0587
 148   2.0000      -0.764053       -20.7909
 149   2.0000      -0.758929       -20.6515
 150   2.0000      -0.753498       -20.5037
 151   2.0000      -0.751652       -20.4535
 152   2.0000      -0.744903       -20.2698
 153   2.0000      -0.735342       -20.0097
 154   2.0000      -0.727530       -19.7971
 155   2.0000      -0.720538       -19.6068
 156   2.0000      -0.714406       -19.4400
 157   2.0000      -0.712879       -19.3984
 158   2.0000      -0.709046       -19.2941
 159   2.0000      -0.692638       -18.8476
 160   2.0000      -0.689464       -18.7613
 161   2.0000      -0.688544       -18.7362
 162   2.0000      -0.685041       -18.6409
 163   2.0000      -0.680532       -18.5182
 164   2.0000      -0.678756       -18.4699
 165   2.0000      -0.668001       -18.1772
 166   2.0000      -0.662139       -18.0177
 167   2.0000      -0.661256       -17.9937
 168   2.0000      -0.653765       -17.7898
 169   2.0000      -0.651532       -17.7291
 170   2.0000      -0.645576       -17.5670
 171   2.0000      -0.638900       -17.3854
 172   2.0000      -0.635994       -17.3063
 173   2.0000      -0.635225       -17.2853
 174   2.0000      -0.632523       -17.2118
 175   2.0000      -0.631611       -17.1870
 176   2.0000      -0.623576       -16.9684
 177   2.0000      -0.622401       -16.9364
 178   2.0000      -0.617404       -16.8004
 179   2.0000      -0.612636       -16.6707
 180   2.0000      -0.610077       -16.6010
 181   2.0000      -0.605334       -16.4720
 182   2.0000      -0.603101       -16.4112
 183   2.0000      -0.596989       -16.2449
 184   2.0000      -0.594122       -16.1669
 185   2.0000      -0.589659       -16.0454
 186   2.0000      -0.587549       -15.9880
 187   2.0000      -0.586333       -15.9549
 188   2.0000      -0.583440       -15.8762
 189   2.0000      -0.575992       -15.6735
 190   2.0000      -0.573335       -15.6012
 191   2.0000      -0.567957       -15.4549
 192   2.0000      -0.565543       -15.3892
 193   2.0000      -0.563960       -15.3461
 194   2.0000      -0.562116       -15.2959
 195   2.0000      -0.559605       -15.2276
 196   2.0000      -0.556989       -15.1564
 197   2.0000      -0.552614       -15.0374
 198   2.0000      -0.550098       -14.9689
 199   2.0000      -0.549243       -14.9457
 200   2.0000      -0.547448       -14.8968
 201   2.0000      -0.546761       -14.8781
 202   2.0000      -0.540989       -14.7210
 203   2.0000      -0.538607       -14.6562
 204   2.0000      -0.536466       -14.5980
 205   2.0000      -0.534448       -14.5431
 206   2.0000      -0.530231       -14.4283
 207   2.0000      -0.526824       -14.3356
 208   2.0000      -0.524873       -14.2825
 209   2.0000      -0.522531       -14.2188
 210   2.0000      -0.521398       -14.1880
 211   2.0000      -0.519441       -14.1347
 212   2.0000      -0.516560       -14.0563
 213   2.0000      -0.512441       -13.9442
 214   2.0000      -0.509469       -13.8634
 215   2.0000      -0.508556       -13.8385
 216   2.0000      -0.506441       -13.7810
 217   2.0000      -0.505684       -13.7603
 218   2.0000      -0.503893       -13.7116
 219   2.0000      -0.501444       -13.6450
 220   2.0000      -0.499935       -13.6039
 221   2.0000      -0.496654       -13.5147
 222   2.0000      -0.495144       -13.4735
 223   2.0000      -0.491047       -13.3621
 224   2.0000      -0.490742       -13.3538
 225   2.0000      -0.488331       -13.2882
 226   2.0000      -0.488056       -13.2807
 227   2.0000      -0.485950       -13.2234
 228   2.0000      -0.484546       -13.1852
 229   2.0000      -0.477537       -12.9944
 230   2.0000      -0.474538       -12.9128
 231   2.0000      -0.473250       -12.8778
 232   2.0000      -0.470474       -12.8023
 233   2.0000      -0.463779       -12.6201
 234   2.0000      -0.462894       -12.5960
 235   2.0000      -0.460075       -12.5193
 236   2.0000      -0.458235       -12.4692
 237   2.0000      -0.456493       -12.4218
 238   2.0000      -0.454623       -12.3709
 239   2.0000      -0.450700       -12.2642
 240   2.0000      -0.448172       -12.1954
 241   2.0000      -0.447254       -12.1704
 242   2.0000      -0.445115       -12.1122
 243   2.0000      -0.444373       -12.0920
 244   2.0000      -0.443007       -12.0548
 245   2.0000      -0.440819       -11.9953
 246   2.0000      -0.439551       -11.9608
 247   2.0000      -0.438546       -11.9334
 248   2.0000      -0.436654       -11.8820
 249   2.0000      -0.435389       -11.8475
 250   2.0000      -0.433083       -11.7848
 251   2.0000      -0.429712       -11.6931
 252   2.0000      -0.424575       -11.5533
 253   2.0000      -0.422953       -11.5091
 254   2.0000      -0.421655       -11.4738
 255   2.0000      -0.419426       -11.4132
 256   2.0000      -0.418021       -11.3749
 257   2.0000      -0.408468       -11.1150
 258   2.0000      -0.404132       -10.9970
 259   2.0000      -0.403080       -10.9684
 260   2.0000      -0.400019       -10.8851
 261   2.0000      -0.389576       -10.6009
 262   2.0000      -0.386094       -10.5062
 263   2.0000      -0.384744       -10.4694
 264   2.0000      -0.383392       -10.4326
 265   2.0000      -0.375441       -10.2163
 266   2.0000      -0.372899       -10.1471
 267   2.0000      -0.371212       -10.1012
 268   2.0000      -0.367635       -10.0038
 269   2.0000      -0.356234        -9.6936
 270   2.0000      -0.351446        -9.5633
 271   2.0000      -0.342774        -9.3274
 272   2.0000      -0.336110        -9.1460
 273   2.0000      -0.334319        -9.0973
 274   2.0000      -0.331922        -9.0320
 275   2.0000      -0.327782        -8.9194
 276   2.0000      -0.314309        -8.5528
 277   2.0000      -0.313198        -8.5225
 278   2.0000      -0.311333        -8.4718
 279   2.0000      -0.300149        -8.1675
 280   2.0000      -0.296770        -8.0755
 281   2.0000      -0.290708        -7.9106
 282   2.0000      -0.267177        -7.2702
 283   2.0000      -0.236972        -6.4483
 284   0.0000      -0.104236        -2.8364
 285   0.0000      -0.094079        -2.5600
 286   0.0000      -0.077843        -2.1182
 287   0.0000      -0.062690        -1.7059
 288   0.0000      -0.058460        -1.5908

MULLIKEN ATOMIC CHARGES
-----------------------
   0 C :    0.328164
   1 C :   -0.359763
   2 C :   -0.186454
   3 N :    0.144439
   4 C :   -0.189790
   5 N :    0.144789
   6 C :    0.016301
   7 C :   -0.002039
   8 C :   -0.074215
   9 C :    0.121923
  10 C :   -0.091546
  11 C :   -0.027631
  12 S :    0.186123
  13 C :   -0.121479
  14 C :    0.033319
  15 Br:    0.022299
  16 C :    0.153185
  17 O :   -0.170725
  18 C :   -0.078918
  19 C :   -0.015644
  20 C :   -0.008211
  21 C :    0.005339
  22 C :    0.071010
  23 O :   -0.216857
  24 C :    0.119811
  25 C :    0.070553
  26 C :    0.110570
  27 O :   -0.155919
  28 O :   -0.196074
  29 C :   -0.067137
  30 C :    0.024830
  31 C :   -0.011193
  32 C :    0.032464
  33 C :   -0.131837
  34 S :    0.167669
  35 C :   -0.156138
  36 C :    0.127895
  37 C :    0.139015
  38 C :   -0.143413
  39 C :    0.233197
  40 F :   -0.174389
  41 C :    0.243048
  42 F :   -0.169707
  43 C :   -0.141941
  44 C :    0.050972
  45 C :    0.057800
  46 N :   -0.022895
  47 C :   -0.123673
  48 S :    0.200171
  49 C :    0.019332
  50 N :    0.278255
  51 O :   -0.241204
  52 O :   -0.258369
  53 C :    0.009405
  54 C :    0.088979
  55 C :   -0.014577
  56 C :   -0.173898
  57 C :    0.149217
  58 O :   -0.138109
  59 C :    0.011951
  60 C :   -0.090072
  61 C :    0.117297
  62 C :    0.111576
  63 C :   -0.126416
  64 C :    0.293825
  65 C :   -0.038150
  66 C :   -0.012968
  67 F :   -0.188858
  68 C :   -0.110992
  69 C :    0.075354
  70 C :    0.294024
  71 C :   -0.350633
  72 C :   -0.213342
  73 N :    0.174461
  74 C :   -0.185355
  75 N :    0.141701
  76 H :   -0.021310
  77 H :   -0.007120
  78 H :   -0.003641
  79 H :    0.008509
  80 H :    0.029557
  81 H :    0.021124
  82 H :    0.200422
  83 H :    0.195459
  84 H :   -0.021647
  85 H :    0.019514
  86 H :    0.000383
  87 H :    0.005795
  88 H :   -0.009760
  89 H :   -0.003182
  90 H :   -0.009661
  91 H :    0.038372
  92 H :    0.145612
  93 H :    0.019124
  94 H :    0.029563
  95 H :   -0.013190
  96 H :   -0.005560
  97 H :    0.019431
  98 H :   -0.011441
  99 H :   -0.016087
Sum of atomic charges:   -0.0000000

LOEWDIN ATOMIC CHARGES
----------------------
   0 C :    0.075265
   1 C :   -0.146299
   2 C :   -0.018311
   3 N :   -0.059109
   4 C :   -0.020083
   5 N :   -0.057666
   6 C :   -0.019017
   7 C :   -0.049869
   8 C :    0.019410
   9 C :   -0.033612
  10 C :   -0.144037
  11 C :   -0.010785
  12 S :    0.432452
  13 C :   -0.272065
  14 C :   -0.071275
  15 Br:    0.135981
  16 C :    0.093198
  17 O :   -0.156505
  18 C :   -0.104995
  19 C :    0.068319
  20 C :   -0.043154
  21 C :    0.024218
  22 C :   -0.006739
  23 O :    0.011985
  24 C :    0.007041
  25 C :   -0.024033
  26 C :    0.016318
  27 O :   -0.030221
  28 O :   -0.057865
  29 C :   -0.057619
  30 C :   -0.003819
  31 C :   -0.030916
  32 C :   -0.030841
  33 C :   -0.180958
  34 S :    0.504079
  35 C :   -0.175068
  36 C :   -0.046817
  37 C :   -0.039162
  38 C :   -0.041061
  39 C :    0.061869
  40 F :   -0.052765
  41 C :    0.069196
  42 F :   -0.047981
  43 C :   -0.048497
  44 C :   -0.071481
  45 C :    0.025490
  46 N :    0.052784
  47 C :   -0.093090
  48 S :    0.472435
  49 C :   -0.194506
  50 N :    0.274680
  51 O :   -0.205977
  52 O :   -0.223566
  53 C :    0.017623
  54 C :   -0.112382
  55 C :    0.054541
  56 C :   -0.095121
  57 C :    0.081508
  58 O :   -0.142040
  59 C :   -0.062630
  60 C :    0.035667
  61 C :   -0.020617
  62 C :   -0.002819
  63 C :   -0.053768
  64 C :    0.088137
  65 C :   -0.034456
  66 C :    0.003922
  67 F :   -0.061814
  68 C :   -0.001549
  69 C :   -0.016297
  70 C :    0.059113
  71 C :   -0.154206
  72 C :   -0.025895
  73 N :   -0.055520
  74 C :   -0.021355
  75 N :   -0.061610
  76 H :    0.038034
  77 H :    0.040940
  78 H :    0.038417
  79 H :    0.041366
  80 H :    0.031096
  81 H :    0.047220
  82 H :    0.109273
  83 H :    0.102313
  84 H :    0.026956
  85 H :    0.037173
  86 H :    0.028316
  87 H :    0.032305
  88 H :    0.040623
  89 H :    0.038325
  90 H :    0.032239
  91 H :    0.030916
  92 H :    0.099317
  93 H :    0.050772
  94 H :    0.049060
  95 H :    0.038646
  96 H :    0.041062
  97 H :    0.042553
  98 H :    0.034922
  99 H :    0.034770

  Mayer bond orders larger than 0.100000
B(  0-C ,  1-C ) :   1.6152 B(  0-C ,  6-C ) :   0.9967 B(  0-C , 18-C ) :   1.0801
B(  1-C ,  2-C ) :   1.1453 B(  1-C ,  4-C ) :   1.1488 B(  2-C ,  3-N ) :   2.9652
B(  4-C ,  5-N ) :   2.9602 B(  6-C ,  7-C ) :   1.2765 B(  6-C , 11-C ) :   1.4119
B(  7-C ,  8-C ) :   1.4180 B(  7-C , 16-C ) :   0.9493 B(  8-C ,  9-C ) :   1.2471
B(  8-C , 76-H ) :   1.0175 B(  9-C , 10-C ) :   1.3072 B(  9-C , 14-C ) :   1.1601
B( 10-C , 11-C ) :   1.3252 B( 10-C , 12-S ) :   1.0869 B( 11-C , 77-H ) :   0.9812
B( 12-S , 13-C ) :   1.0864 B( 13-C , 14-C ) :   1.6185 B( 13-C , 15-Br) :   1.0176
B( 14-C , 78-H ) :   1.0011 B( 16-C , 17-O ) :   2.1103 B( 16-C , 18-C ) :   0.9715
B( 18-C , 19-C ) :   1.4930 B( 19-C , 20-C ) :   1.1923 B( 19-C , 79-H ) :   0.9614
B( 20-C , 21-C ) :   1.4921 B( 20-C , 80-H ) :   0.9834 B( 21-C , 22-C ) :   1.2036
B( 21-C , 81-H ) :   0.9819 B( 22-C , 23-O ) :   1.1043 B( 22-C , 24-C ) :   0.1042
B( 22-C , 26-C ) :   1.3348 B( 23-O , 24-C ) :   1.1349 B( 24-C , 25-C ) :   1.2917
B( 24-C , 29-C ) :   1.1406 B( 25-C , 26-C ) :   1.2460 B( 25-C , 28-O ) :   1.2396
B( 26-C , 27-O ) :   1.3049 B( 27-O , 82-H ) :   0.9485 B( 28-O , 83-H ) :   0.9551
B( 29-C , 30-C ) :   1.6269 B( 29-C , 84-H ) :   0.9671 B( 30-C , 31-C ) :   1.1415
B( 30-C , 85-H ) :   0.9910 B( 31-C , 32-C ) :   1.6340 B( 31-C , 86-H ) :   0.9828
B( 32-C , 33-C ) :   1.1325 B( 32-C , 87-H ) :   0.9570 B( 33-C , 34-S ) :   1.1594
B( 33-C , 37-C ) :   1.3411 B( 34-S , 35-C ) :   1.1606 B( 35-C , 36-C ) :   1.3427
B( 35-C , 44-C ) :   1.1792 B( 36-C , 37-C ) :   1.2436 B( 36-C , 43-C ) :   1.1451
B( 37-C , 38-C ) :   1.1542 B( 38-C , 39-C ) :   1.4869 B( 38-C , 43-C ) :   0.1086
B( 38-C , 88-H ) :   1.0011 B( 39-C , 40-F ) :   1.1336 B( 39-C , 41-C ) :   1.1569
B( 41-C , 42-F ) :   1.1397 B( 41-C , 43-C ) :   1.4947 B( 43-C , 89-H ) :   0.9889
B( 44-C , 45-C ) :   1.6518 B( 44-C , 90-H ) :   0.9463 B( 45-C , 46-N ) :   1.1306
B( 45-C , 91-H ) :   0.9425 B( 46-N , 47-C ) :   1.2120 B( 46-N , 92-H ) :   0.9076
B( 47-C , 48-S ) :   1.1539 B( 47-C , 54-C ) :   1.3391 B( 48-S , 49-C ) :   1.0725
B( 49-C , 50-N ) :   0.9594 B( 49-C , 53-C ) :   1.5240 B( 50-N , 51-O ) :   1.5471
B( 50-N , 52-O ) :   1.5154 B( 51-O , 52-O ) :   0.2642 B( 53-C , 54-C ) :   1.1931
B( 53-C , 93-H ) :   1.0065 B( 54-C , 55-C ) :   1.0842 B( 55-C , 56-C ) :   1.6796
B( 55-C , 94-H ) :   0.9392 B( 56-C , 57-C ) :   0.9326 B( 56-C , 70-C ) :   1.0258
B( 57-C , 58-O ) :   2.2755 B( 57-C , 59-C ) :   0.9207 B( 59-C , 60-C ) :   1.4574
B( 59-C , 69-C ) :   1.2285 B( 60-C , 61-C ) :   1.1784 B( 60-C , 95-H ) :   1.0193
B( 61-C , 62-C ) :   1.2600 B( 61-C , 66-C ) :   1.2259 B( 62-C , 63-C ) :   1.1964
B( 62-C , 68-C ) :   1.1859 B( 63-C , 64-C ) :   1.4263 B( 63-C , 96-H ) :   1.0118
B( 64-C , 65-C ) :   1.2555 B( 64-C , 67-F ) :   1.0890 B( 65-C , 66-C ) :   1.4410
B( 65-C , 97-H ) :   0.9841 B( 66-C , 98-H ) :   1.0032 B( 68-C , 69-C ) :   1.4438
B( 68-C , 99-H ) :   0.9988 B( 69-C , 70-C ) :   1.0174 B( 70-C , 71-C ) :   1.6028
B( 71-C , 72-C ) :   1.1804 B( 71-C , 74-C ) :   1.1362 B( 72-C , 73-N ) :   3.0082
B( 74-C , 75-N ) :   2.9648

-----------------------------------------------------------------------------
         ABSORPTION SPECTRUM VIA TRANSITION ELECTRIC DIPOLE MOMENTS
-----------------------------------------------------------------------------
State   Energy  Wavelength   fosc         T2         TX        TY        TZ
        (cm-1)    (nm)                  (au**2)     (au)      (au)      (au)
-----------------------------------------------------------------------------
   0   13749.9    727.3   0.620911325  14.86643  -1.40562   3.42107   1.08949
   1   16419.1    609.0   0.668778678  13.40940  -1.65729  -3.26506   0.04680
   2   20143.8    496.4   0.308777081   5.04636   2.10791   0.08152  -0.77229
   3   21732.6    460.1   0.336910264   5.10362  -1.97277  -0.81042   0.74498
   4   21865.2    457.3   0.100925822   1.51958   0.32548  -1.04599  -0.56529
   5   23789.4    420.4   0.248684737   3.44145  -1.26817   1.01588   0.89509
   6   24373.7    410.3   0.273729651   3.69723  -1.48392   0.94809   0.77222
   7   25494.8    392.2   0.002403025   0.03103   0.16788  -0.02327  -0.04802
   8   25933.9    385.6   0.109342647   1.38802  -0.33011   1.02474   0.47849
   9   26365.2    379.3   0.071265744   0.88987   0.23225  -0.89150  -0.20285
  10   27069.3    369.4   0.228607653   2.78029   1.45448  -0.62778  -0.52026
  11   27868.4    358.8   0.071534387   0.84504  -0.70912  -0.58424   0.02919
  12   28188.4    354.8   0.095957962   1.12069   0.05130   1.02799  -0.24759
  13   28565.3    350.1   0.126609905   1.45916  -0.94025   0.51402   0.55756
  14   28760.1    347.7   0.000743881   0.00852  -0.03675   0.08378  -0.01206
  15   28841.1    346.7   0.009650713   0.11016  -0.19562  -0.25194   0.09177
  16   28984.9    345.0   0.016198291   0.18398   0.06859   0.29004  -0.30847
  17   29715.4    336.5   0.011506518   0.12748  -0.02368  -0.30440   0.18509
  18   29832.9    335.2   0.015771094   0.17404   0.39799  -0.09191  -0.08480
  19   29963.2    333.7   0.002060355   0.02264   0.08444   0.10806  -0.06189
  20   30815.0    324.5   0.012225417   0.13061   0.34953  -0.03035  -0.08671
  21   31196.7    320.5   0.363357914   3.83443   1.64531  -0.67430  -0.82020
  22   31715.0    315.3   0.234608752   2.43531  -1.22010   0.76473   0.60154
  23   32044.7    312.1   0.063590594   0.65330   0.10883  -0.13581  -0.78931
  24   32096.5    311.6   0.015661891   0.16064   0.35265  -0.16284  -0.09881
  25   32257.7    310.0   0.184491489   1.88286   0.96918  -0.74071  -0.62841
  26   32450.6    308.2   0.128126130   1.29984   1.10186  -0.28750  -0.05559
  27   32970.3    303.3   0.046422834   0.46354  -0.52763   0.36856   0.22204
  28   33032.7    302.7   0.464486914   4.62919  -1.70431   1.13972   0.65236
  29   33209.9    301.1   0.092360824   0.91558   0.78459  -0.47773  -0.26791
  30   33597.7    297.6   0.196142916   1.92193   0.69222  -1.07205  -0.54173
  31   34125.0    293.0   0.024954981   0.24075   0.42207   0.00546   0.25015
  32   34341.4    291.2   0.245999499   2.35826   0.84522  -1.06470  -0.71433
  33   34521.2    289.7   0.579207810   5.52362  -1.18418   1.96591   0.50650
  34   34748.3    287.8   0.279586959   2.64886  -0.59920   1.48933   0.26777
  35   34932.1    286.3   0.051965147   0.48974   0.41086  -0.18137  -0.53669
  36   35321.7    283.1   0.085056824   0.79276   0.76138  -0.44959  -0.10451
  37   35559.8    281.2   0.134863276   1.24856   0.36650  -0.83312  -0.64819
  38   35982.6    277.9   0.026487896   0.24234   0.01120  -0.02294  -0.49162
  39   36095.5    277.0   0.001211446   0.01105   0.09142  -0.02483  -0.04556
  40   36387.2    274.8   0.069549028   0.62924  -0.25759   0.17240   0.73018
  41   36730.7    272.3   0.024982952   0.22392   0.00154   0.47213  -0.03182
  42   36886.4    271.1   0.024456394   0.21827  -0.07353   0.05116   0.45853
  43   37074.7    269.7   0.060438329   0.53667  -0.08259  -0.71299  -0.14665
  44   37341.1    267.8   0.019625090   0.17302  -0.28645  -0.25674  -0.15827
  45   37421.1    267.2   0.053016586   0.46641  -0.57480   0.31047   0.19908
  46   37781.8    264.7   0.000992079   0.00864  -0.01840   0.08270   0.03830
  47   38025.7    263.0   0.080957042   0.70090  -0.17306  -0.60190   0.55558
  48   38208.0    261.7   0.176737891   1.52283  -0.45879   0.73301   0.88037
  49   38351.6    260.7   0.155110024   1.33147  -0.63346  -0.93127   0.25088
  50   38496.9    259.8   0.043905480   0.37546   0.32199   0.17172  -0.49224
  51   38632.0    258.9   0.005483951   0.04673   0.14711  -0.14466   0.06454
  52   38769.9    257.9   0.021697321   0.18424   0.11524   0.28097  -0.30335
  53   39127.6    255.6   0.002299607   0.01935   0.13798   0.00203   0.01746
  54   39366.9    254.0   0.057437152   0.48033   0.03126   0.40926  -0.55844
  55   39608.3    252.5   0.050844162   0.42260  -0.29752   0.27289   0.50953
  56   39619.8    252.4   0.062529651   0.51958   0.43836   0.07128  -0.56775
  57   39734.9    251.7   0.033580917   0.27822   0.41178  -0.32407  -0.06034
  58   40006.3    250.0   0.044819044   0.36882   0.42181  -0.32076   0.29665
  59   40216.0    248.7   0.048609374   0.39792   0.14346  -0.59330  -0.15915

FINAL SINGLE POINT ENERGY     -7066.889828566747

DIPOLE MOMENT
-------------
                                X             Y             Z
Electronic contribution:    -84.75914     -54.63048      20.96051
Nuclear contribution   :     88.71515      56.29753     -21.98694
                        -----------------------------------------
Total Dipole Moment    :      3.95600       1.66704      -1.02643
                        -----------------------------------------
Magnitude (a.u.)       :      4.41391
Magnitude (Debye)      :     11.21926

Rotational constants in cm-1:     0.000941     0.000396     0.000295
Rotational constants in MHz :    28.197739    11.873676     8.848286

                             ****ORCA TERMINATED NORMALLY****
TOTAL RUN TIME: 0 days 0 hours 12 minutes 55 seconds 420 msec
