                         Program Version 4.2.0 -  RELEASE  -
|  1> # ORCA input file
|  2> # SCF done       -192.965680162238          0.000450412499
|  3> ! CAM-B3LYP def2-SVP def2/J RIJCOSX Grid4 TightSCF
|  4> %maxcore 5000
|  5> %tddft
|  6>     Mode sTDDFT
|  7>     Ethresh 5.0
|  8>     maxcore 5000
|  9> end
| 10>
| 11> %pal
| 12>   nprocs 6
| 13>   end
| 14> * xyz 0 1
| 15>    C       -3.51674        -3.43049        18.46925
| 16>    C       -2.73644        -4.48547        18.19411
| 17>    C       -1.49151        -4.84188        18.81020
| 18>    C       -0.92528        -5.96592        18.31546
| 19>    C       -1.66709        -6.58902        17.27553
| 20>    S       -3.13227        -5.68254        16.95066
| 21>    C       -1.33591        -7.72897        16.57939
| 22>    C       -0.18183        -8.53437        16.72623
| 23>    C       -0.13650        -9.58923        15.86909
| 24>    C       -1.24615        -9.69280        14.99132
| 25>    S       -2.36475        -8.38077        15.31778
| 26>    C       -1.37974       -10.65871        14.01952
| 27>    C       -2.41294       -10.86451        13.09345
| 28>    C       -3.60825       -10.20161        13.02348
| 29>    C       -4.57977       -10.44906        12.03840
| 30>    O       -4.38251       -11.33345        11.02302
| 31>    C       -5.48628       -11.33078        10.22944
| 32>    C       -6.41498       -10.42652        10.74682
| 33>    C       -5.84318        -9.86543        11.89697
| 34>    O       -6.38625        -8.94429        12.71864
| 35>    O       -7.64731       -10.09003        10.27450
| 36>    C       -5.57220       -12.14940         9.08163
| 37>    C       -4.57832       -12.95592         8.61911
| 38>    C       -4.71667       -13.75434         7.46224
| 39>    C       -3.69334       -14.42206         6.86481
| 40>    C       -3.81108       -15.18054         5.66938
| 41>    C       -4.96004       -15.73642         5.20377
| 42>    C       -5.06855       -16.37837         3.94704
| 43>    O       -6.21074       -17.04530         3.62312
| 44>    C       -6.09961       -17.49788         2.34450
| 45>    C       -4.86337       -17.10931         1.83789
| 46>    C       -4.19766       -16.41198         2.85974
| 47>    O       -2.95950       -15.87374         2.78857
| 48>    O       -4.32622       -17.33116         0.60771
| 49>    C       -7.13438       -18.23086         1.71655
| 50>    C       -8.25575       -18.66504         2.34629
| 51>    C       -9.36397       -19.31782         1.74103
| 52>    C       -9.50281       -19.66578         0.43710
| 53>    C      -10.70714       -20.19797        -0.12197
| 54>    S      -10.57589       -21.43114        -1.34557
| 55>    C      -12.25666       -21.70581        -1.36817
| 56>    C      -12.92180       -20.87421        -0.49690
| 57>    C      -12.04682       -19.96821         0.18927
| 58>    C      -12.61555       -18.96114         1.03583
| 59>    C      -13.96980       -19.02984         1.29741
| 60>    C      -14.81468       -19.96638         0.68649
| 61>    C      -14.32619       -20.86246        -0.23409
| 62>    O      -15.05372       -21.75832        -0.93923
| 63>    C      -16.44710       -21.80253        -0.73707
| 64>    C      -11.80882       -17.87353         1.50683
| 65>    C      -11.92747       -17.22657         2.69471
| 66>    C      -10.92624       -16.31591         3.09095
| 67>    C      -10.76659       -15.80702         4.35271
| 68>    C       -9.66858       -14.98779         4.81320
| 69>    C       -8.58693       -14.55553         4.07943
| 70>    C       -7.61184       -13.67348         4.58087
| 71>    N       -6.81063       -12.93150         4.93957
| 72>    C       -8.29360       -14.89939         2.74643
| 73>    N       -7.95800       -15.13623         1.67239
| 74>    C       -9.89078       -14.70620         6.22783
| 75>    C      -11.09898       -15.32362         6.63320
| 76>    C      -11.69707       -16.02862         5.47884
| 77>    O      -12.74040       -16.65056         5.48325
| 78>    C      -11.57418       -15.25585         7.91942
| 79>    C      -10.81682       -14.54962         8.86035
| 80>    C       -9.60510       -13.94768         8.45106
| 81>    C       -9.12813       -14.01043         7.14829
| 82>    S       -8.82002       -13.13992         9.77690
| 83>    C      -10.11895       -13.60404        10.84222
| 84>    C      -11.08676       -14.33420        10.24061
| 85>   Br      -10.05968       -13.07353        12.64146
| 86>    H       -3.23762        -2.72572        19.23247
| 87>    H       -4.43654        -3.25510        17.94252
| 88>    H       -1.07574        -4.23761        19.59699
| 89>    H        0.00725        -6.37647        18.66052
| 90>    H        0.58049        -8.31021        17.45059
| 91>    H        0.66705       -10.30444        15.83362
| 92>    H       -0.54544       -11.34749        13.95638
| 93>    H       -2.24388       -11.64235        12.36040
| 94>    H       -3.88486        -9.44678        13.74217
| 95>    H       -7.26626        -8.72624        12.38478
| 96>    H       -7.81309       -10.55927         9.44999
| 97>    H       -6.50451       -12.10221         8.53280
| 98>    H       -3.63476       -12.97044         9.14646
| 99>    H       -5.68903       -13.76911         6.99038
|100>    H       -2.69754       -14.31455         7.27643
|101>    H       -2.90949       -15.32538         5.09178
|102>    H       -5.86204       -15.72265         5.79879
|103>    H       -2.63613       -16.00174         1.88666
|104>    H       -4.99488       -17.71795         0.03263
|105>    H       -6.99021       -18.43474         0.66440
|106>    H       -8.34135       -18.46101         3.40471
|107>    H      -10.19819       -19.51713         2.40068
|108>    H       -8.65677       -19.61458        -0.23472
|109>    H      -12.67700       -22.46423        -1.99582
|110>    H      -14.41334       -18.28812         1.94374
|111>    H      -15.86565       -19.93543         0.92510
|112>    H      -16.81804       -22.57529        -1.40811
|113>    H      -16.91719       -20.84672        -0.98796
|114>    H      -16.69244       -22.06949         0.29531
|115>    H      -10.98406       -17.59481         0.86260
|116>    H      -12.70058       -17.48564         3.40160
|117>    H      -10.18135       -16.07365         2.34357
|118>    H      -12.49996       -15.73709         8.19340
|119>    H       -8.20025       -13.53110         6.88668
|120>    H      -11.95804       -14.70710        10.74732
|121> *
|122>
|123>                          ****END OF INPUT****

CARTESIAN COORDINATES (ANGSTROEM)
---------------------------------
  C     -3.516740   -3.430490   18.469250
  C     -2.736440   -4.485470   18.194110
  C     -1.491510   -4.841880   18.810200
  C     -0.925280   -5.965920   18.315460
  C     -1.667090   -6.589020   17.275530
  S     -3.132270   -5.682540   16.950660
  C     -1.335910   -7.728970   16.579390
  C     -0.181830   -8.534370   16.726230
  C     -0.136500   -9.589230   15.869090
  C     -1.246150   -9.692800   14.991320
  S     -2.364750   -8.380770   15.317780
  C     -1.379740  -10.658710   14.019520
  C     -2.412940  -10.864510   13.093450
  C     -3.608250  -10.201610   13.023480
  C     -4.579770  -10.449060   12.038400
  O     -4.382510  -11.333450   11.023020
  C     -5.486280  -11.330780   10.229440
  C     -6.414980  -10.426520   10.746820
  C     -5.843180   -9.865430   11.896970
  O     -6.386250   -8.944290   12.718640
  O     -7.647310  -10.090030   10.274500
  C     -5.572200  -12.149400    9.081630
  C     -4.578320  -12.955920    8.619110
  C     -4.716670  -13.754340    7.462240
  C     -3.693340  -14.422060    6.864810
  C     -3.811080  -15.180540    5.669380
  C     -4.960040  -15.736420    5.203770
  C     -5.068550  -16.378370    3.947040
  O     -6.210740  -17.045300    3.623120
  C     -6.099610  -17.497880    2.344500
  C     -4.863370  -17.109310    1.837890
  C     -4.197660  -16.411980    2.859740
  O     -2.959500  -15.873740    2.788570
  O     -4.326220  -17.331160    0.607710
  C     -7.134380  -18.230860    1.716550
  C     -8.255750  -18.665040    2.346290
  C     -9.363970  -19.317820    1.741030
  C     -9.502810  -19.665780    0.437100
  C    -10.707140  -20.197970   -0.121970
  S    -10.575890  -21.431140   -1.345570
  C    -12.256660  -21.705810   -1.368170
  C    -12.921800  -20.874210   -0.496900
  C    -12.046820  -19.968210    0.189270
  C    -12.615550  -18.961140    1.035830
  C    -13.969800  -19.029840    1.297410
  C    -14.814680  -19.966380    0.686490
  C    -14.326190  -20.862460   -0.234090
  O    -15.053720  -21.758320   -0.939230
  C    -16.447100  -21.802530   -0.737070
  C    -11.808820  -17.873530    1.506830
  C    -11.927470  -17.226570    2.694710
  C    -10.926240  -16.315910    3.090950
  C    -10.766590  -15.807020    4.352710
  C     -9.668580  -14.987790    4.813200
  C     -8.586930  -14.555530    4.079430
  C     -7.611840  -13.673480    4.580870
  N     -6.810630  -12.931500    4.939570
  C     -8.293600  -14.899390    2.746430
  N     -7.958000  -15.136230    1.672390
  C     -9.890780  -14.706200    6.227830
  C    -11.098980  -15.323620    6.633200
  C    -11.697070  -16.028620    5.478840
  O    -12.740400  -16.650560    5.483250
  C    -11.574180  -15.255850    7.919420
  C    -10.816820  -14.549620    8.860350
  C     -9.605100  -13.947680    8.451060
  C     -9.128130  -14.010430    7.148290
  S     -8.820020  -13.139920    9.776900
  C    -10.118950  -13.604040   10.842220
  C    -11.086760  -14.334200   10.240610
  Br   -10.059680  -13.073530   12.641460
  H     -3.237620   -2.725720   19.232470
  H     -4.436540   -3.255100   17.942520
  H     -1.075740   -4.237610   19.596990
  H      0.007250   -6.376470   18.660520
  H      0.580490   -8.310210   17.450590
  H      0.667050  -10.304440   15.833620
  H     -0.545440  -11.347490   13.956380
  H     -2.243880  -11.642350   12.360400
  H     -3.884860   -9.446780   13.742170
  H     -7.266260   -8.726240   12.384780
  H     -7.813090  -10.559270    9.449990
  H     -6.504510  -12.102210    8.532800
  H     -3.634760  -12.970440    9.146460
  H     -5.689030  -13.769110    6.990380
  H     -2.697540  -14.314550    7.276430
  H     -2.909490  -15.325380    5.091780
  H     -5.862040  -15.722650    5.798790
  H     -2.636130  -16.001740    1.886660
  H     -4.994880  -17.717950    0.032630
  H     -6.990210  -18.434740    0.664400
  H     -8.341350  -18.461010    3.404710
  H    -10.198190  -19.517130    2.400680
  H     -8.656770  -19.614580   -0.234720
  H    -12.677000  -22.464230   -1.995820
  H    -14.413340  -18.288120    1.943740
  H    -15.865650  -19.935430    0.925100
  H    -16.818040  -22.575290   -1.408110
  H    -16.917190  -20.846720   -0.987960
  H    -16.692440  -22.069490    0.295310
  H    -10.984060  -17.594810    0.862600
  H    -12.700580  -17.485640    3.401600
  H    -10.181350  -16.073650    2.343570
  H    -12.499960  -15.737090    8.193400
  H     -8.200250  -13.531100    6.886680
  H    -11.958040  -14.707100   10.747320

 Total Charge           Charge          ....    0
 Multiplicity           Mult            ....    1
 Number of Electrons    NEL             ....  548
 Basis Dimension        Dim             .... 1203

ORBITAL ENERGIES
----------------

  NO   OCC          E(Eh)            E(eV)
   0   2.0000    -482.883798    -13139.9362
   1   2.0000     -88.976973     -2421.1865
   2   2.0000     -88.963443     -2420.8184
   3   2.0000     -88.928791     -2419.8754
   4   2.0000     -88.923584     -2419.7337
   5   2.0000     -62.561464     -1702.3840
   6   2.0000     -56.395418     -1534.5973
   7   2.0000     -56.392691     -1534.5231
   8   2.0000     -56.392656     -1534.5222
   9   2.0000     -19.274313      -524.4807
  10   2.0000     -19.269331      -524.3451
  11   2.0000     -19.262389      -524.1563
  12   2.0000     -19.259236      -524.0705
  13   2.0000     -19.252889      -523.8978
  14   2.0000     -19.246174      -523.7150
  15   2.0000     -19.243261      -523.6357
  16   2.0000     -19.209984      -522.7302
  17   2.0000     -14.410853      -392.1393
  18   2.0000     -14.409829      -392.1114
  19   2.0000     -10.360578      -281.9257
  20   2.0000     -10.358337      -281.8647
  21   2.0000     -10.348412      -281.5946
  22   2.0000     -10.335624      -281.2466
  23   2.0000     -10.333619      -281.1921
  24   2.0000     -10.332854      -281.1712
  25   2.0000     -10.326934      -281.0102
  26   2.0000     -10.324673      -280.9486
  27   2.0000     -10.322134      -280.8796
  28   2.0000     -10.320235      -280.8279
  29   2.0000     -10.319859      -280.8177
  30   2.0000     -10.316112      -280.7157
  31   2.0000     -10.315976      -280.7120
  32   2.0000     -10.315772      -280.7064
  33   2.0000     -10.314716      -280.6777
  34   2.0000     -10.313109      -280.6340
  35   2.0000     -10.310151      -280.5535
  36   2.0000     -10.307569      -280.4832
  37   2.0000     -10.306264      -280.4477
  38   2.0000     -10.305380      -280.4236
  39   2.0000     -10.304220      -280.3921
  40   2.0000     -10.301780      -280.3257
  41   2.0000     -10.298452      -280.2351
  42   2.0000     -10.297356      -280.2053
  43   2.0000     -10.296623      -280.1854
  44   2.0000     -10.294946      -280.1397
  45   2.0000     -10.293504      -280.1005
  46   2.0000     -10.292897      -280.0840
  47   2.0000     -10.292674      -280.0779
  48   2.0000     -10.288581      -279.9665
  49   2.0000     -10.286416      -279.9076
  50   2.0000     -10.285478      -279.8821
  51   2.0000     -10.284572      -279.8574
  52   2.0000     -10.283920      -279.8397
  53   2.0000     -10.281650      -279.7779
  54   2.0000     -10.281368      -279.7703
  55   2.0000     -10.280727      -279.7528
  56   2.0000     -10.275947      -279.6227
  57   2.0000     -10.274921      -279.5948
  58   2.0000     -10.272962      -279.5415
  59   2.0000     -10.272506      -279.5291
  60   2.0000     -10.271605      -279.5046
  61   2.0000     -10.271004      -279.4882
  62   2.0000     -10.269964      -279.4599
  63   2.0000     -10.268477      -279.4195
  64   2.0000     -10.267943      -279.4049
  65   2.0000     -10.263025      -279.2711
  66   2.0000     -10.261447      -279.2282
  67   2.0000     -10.261327      -279.2249
  68   2.0000     -10.261071      -279.2179
  69   2.0000     -10.259020      -279.1621
  70   2.0000     -10.255280      -279.0603
  71   2.0000     -10.253741      -279.0185
  72   2.0000     -10.253603      -279.0147
  73   2.0000     -10.253143      -279.0022
  74   2.0000     -10.252318      -278.9798
  75   2.0000      -8.790893      -239.2123
  76   2.0000      -8.072494      -219.6637
  77   2.0000      -8.059085      -219.2989
  78   2.0000      -8.024524      -218.3584
  79   2.0000      -8.020243      -218.2419
  80   2.0000      -6.627282      -180.3375
  81   2.0000      -6.612590      -179.9377
  82   2.0000      -6.612359      -179.9314
  83   2.0000      -6.042240      -164.4177
  84   2.0000      -6.037824      -164.2975
  85   2.0000      -6.033816      -164.1885
  86   2.0000      -6.028023      -164.0309
  87   2.0000      -6.023745      -163.9144
  88   2.0000      -6.022123      -163.8703
  89   2.0000      -5.994251      -163.1119
  90   2.0000      -5.990237      -163.0026
  91   2.0000      -5.990089      -162.9986
  92   2.0000      -5.986162      -162.8917
  93   2.0000      -5.985520      -162.8743
  94   2.0000      -5.980762      -162.7448
  95   2.0000      -2.743107       -74.6437
  96   2.0000      -2.739003       -74.5321
  97   2.0000      -2.738882       -74.5288
  98   2.0000      -2.727183       -74.2104
  99   2.0000      -2.727166       -74.2100
 100   2.0000      -1.192295       -32.4440
 101   2.0000      -1.188645       -32.3447
 102   2.0000      -1.165563       -31.7166
 103   2.0000      -1.151000       -31.3203
 104   2.0000      -1.146025       -31.1849
 105   2.0000      -1.132455       -30.8157
 106   2.0000      -1.129612       -30.7383
 107   2.0000      -1.123734       -30.5783
 108   2.0000      -1.020481       -27.7687
 109   2.0000      -1.009677       -27.4747
 110   2.0000      -0.994756       -27.0687
 111   2.0000      -0.989194       -26.9173
 112   2.0000      -0.985280       -26.8108
 113   2.0000      -0.976123       -26.5617
 114   2.0000      -0.953394       -25.9432
 115   2.0000      -0.942613       -25.6498
 116   2.0000      -0.936836       -25.4926
 117   2.0000      -0.918163       -24.9845
 118   2.0000      -0.908856       -24.7312
 119   2.0000      -0.905080       -24.6285
 120   2.0000      -0.904350       -24.6086
 121   2.0000      -0.895072       -24.3562
 122   2.0000      -0.888261       -24.1708
 123   2.0000      -0.884340       -24.0641
 124   2.0000      -0.881756       -23.9938
 125   2.0000      -0.874952       -23.8086
 126   2.0000      -0.872784       -23.7497
 127   2.0000      -0.869062       -23.6484
 128   2.0000      -0.862581       -23.4720
 129   2.0000      -0.854713       -23.2579
 130   2.0000      -0.840810       -22.8796
 131   2.0000      -0.837236       -22.7824
 132   2.0000      -0.830054       -22.5869
 133   2.0000      -0.828528       -22.5454
 134   2.0000      -0.825189       -22.4545
 135   2.0000      -0.821945       -22.3662
 136   2.0000      -0.806796       -21.9540
 137   2.0000      -0.803093       -21.8533
 138   2.0000      -0.792047       -21.5527
 139   2.0000      -0.787374       -21.4255
 140   2.0000      -0.771512       -20.9939
 141   2.0000      -0.760068       -20.6825
 142   2.0000      -0.753231       -20.4965
 143   2.0000      -0.749966       -20.4076
 144   2.0000      -0.736260       -20.0347
 145   2.0000      -0.720176       -19.5970
 146   2.0000      -0.717537       -19.5252
 147   2.0000      -0.708786       -19.2870
 148   2.0000      -0.704522       -19.1710
 149   2.0000      -0.695799       -18.9337
 150   2.0000      -0.693215       -18.8633
 151   2.0000      -0.688376       -18.7317
 152   2.0000      -0.685314       -18.6483
 153   2.0000      -0.681175       -18.5357
 154   2.0000      -0.678127       -18.4528
 155   2.0000      -0.669002       -18.2045
 156   2.0000      -0.667664       -18.1680
 157   2.0000      -0.656148       -17.8547
 158   2.0000      -0.652854       -17.7651
 159   2.0000      -0.651459       -17.7271
 160   2.0000      -0.647262       -17.6129
 161   2.0000      -0.639055       -17.3896
 162   2.0000      -0.637728       -17.3535
 163   2.0000      -0.622213       -16.9313
 164   2.0000      -0.620261       -16.8782
 165   2.0000      -0.617586       -16.8054
 166   2.0000      -0.610619       -16.6158
 167   2.0000      -0.607642       -16.5348
 168   2.0000      -0.604630       -16.4528
 169   2.0000      -0.603878       -16.4324
 170   2.0000      -0.598568       -16.2879
 171   2.0000      -0.596311       -16.2264
 172   2.0000      -0.593608       -16.1529
 173   2.0000      -0.591556       -16.0971
 174   2.0000      -0.584750       -15.9119
 175   2.0000      -0.583621       -15.8811
 176   2.0000      -0.568540       -15.4708
 177   2.0000      -0.565870       -15.3981
 178   2.0000      -0.564082       -15.3494
 179   2.0000      -0.559962       -15.2373
 180   2.0000      -0.558332       -15.1930
 181   2.0000      -0.557484       -15.1699
 182   2.0000      -0.554893       -15.0994
 183   2.0000      -0.550215       -14.9721
 184   2.0000      -0.546383       -14.8678
 185   2.0000      -0.543049       -14.7771
 186   2.0000      -0.542847       -14.7716
 187   2.0000      -0.535341       -14.5674
 188   2.0000      -0.534286       -14.5387
 189   2.0000      -0.533382       -14.5141
 190   2.0000      -0.531909       -14.4740
 191   2.0000      -0.526561       -14.3284
 192   2.0000      -0.526090       -14.3156
 193   2.0000      -0.521841       -14.2000
 194   2.0000      -0.508504       -13.8371
 195   2.0000      -0.508216       -13.8292
 196   2.0000      -0.507808       -13.8182
 197   2.0000      -0.506407       -13.7800
 198   2.0000      -0.505377       -13.7520
 199   2.0000      -0.501936       -13.6584
 200   2.0000      -0.497357       -13.5338
 201   2.0000      -0.495841       -13.4925
 202   2.0000      -0.492099       -13.3907
 203   2.0000      -0.491314       -13.3693
 204   2.0000      -0.490444       -13.3457
 205   2.0000      -0.490033       -13.3345
 206   2.0000      -0.487748       -13.2723
 207   2.0000      -0.484176       -13.1751
 208   2.0000      -0.479097       -13.0369
 209   2.0000      -0.476335       -12.9617
 210   2.0000      -0.475012       -12.9257
 211   2.0000      -0.474854       -12.9214
 212   2.0000      -0.474595       -12.9144
 213   2.0000      -0.472539       -12.8584
 214   2.0000      -0.470612       -12.8060
 215   2.0000      -0.467178       -12.7126
 216   2.0000      -0.466214       -12.6863
 217   2.0000      -0.462906       -12.5963
 218   2.0000      -0.461024       -12.5451
 219   2.0000      -0.459408       -12.5011
 220   2.0000      -0.458614       -12.4795
 221   2.0000      -0.456869       -12.4320
 222   2.0000      -0.453186       -12.3318
 223   2.0000      -0.450966       -12.2714
 224   2.0000      -0.448501       -12.2043
 225   2.0000      -0.446835       -12.1590
 226   2.0000      -0.446402       -12.1472
 227   2.0000      -0.444810       -12.1039
 228   2.0000      -0.443391       -12.0653
 229   2.0000      -0.440312       -11.9815
 230   2.0000      -0.440189       -11.9782
 231   2.0000      -0.435058       -11.8385
 232   2.0000      -0.434642       -11.8272
 233   2.0000      -0.431683       -11.7467
 234   2.0000      -0.424513       -11.5516
 235   2.0000      -0.423903       -11.5350
 236   2.0000      -0.422376       -11.4934
 237   2.0000      -0.420495       -11.4423
 238   2.0000      -0.419258       -11.4086
 239   2.0000      -0.416053       -11.3214
 240   2.0000      -0.413870       -11.2620
 241   2.0000      -0.413265       -11.2455
 242   2.0000      -0.410411       -11.1679
 243   2.0000      -0.406630       -11.0650
 244   2.0000      -0.404673       -11.0117
 245   2.0000      -0.403178       -10.9710
 246   2.0000      -0.402930       -10.9643
 247   2.0000      -0.400042       -10.8857
 248   2.0000      -0.398926       -10.8553
 249   2.0000      -0.393047       -10.6954
 250   2.0000      -0.390669       -10.6306
 251   2.0000      -0.383206       -10.4276
 252   2.0000      -0.379362       -10.3230
 253   2.0000      -0.373094       -10.1524
 254   2.0000      -0.371983       -10.1222
 255   2.0000      -0.356860        -9.7107
 256   2.0000      -0.356026        -9.6880
 257   2.0000      -0.347270        -9.4497
 258   2.0000      -0.330250        -8.9866
 259   2.0000      -0.328502        -8.9390
 260   2.0000      -0.322520        -8.7762
 261   2.0000      -0.319565        -8.6958
 262   2.0000      -0.318258        -8.6602
 263   2.0000      -0.314755        -8.5649
 264   2.0000      -0.309721        -8.4279
 265   2.0000      -0.300915        -8.1883
 266   2.0000      -0.298068        -8.1108
 267   2.0000      -0.291288        -7.9264
 268   2.0000      -0.282940        -7.6992
 269   2.0000      -0.269982        -7.3466
 270   2.0000      -0.254687        -6.9304
 271   2.0000      -0.236367        -6.4319
 272   2.0000      -0.210631        -5.7315
 273   2.0000      -0.186085        -5.0636
 274   0.0000      -0.087438        -2.3793
 275   0.0000      -0.063539        -1.7290
 276   0.0000      -0.056475        -1.5368
 277   0.0000      -0.047919        -1.3040
 278   0.0000      -0.024175        -0.6578

MULLIKEN ATOMIC CHARGES
-----------------------
   0 C :   -0.036882
   1 C :   -0.060491
   2 C :    0.044556
   3 C :    0.032388
   4 C :   -0.071621
   5 S :    0.075468
   6 C :   -0.033398
   7 C :    0.016800
   8 C :    0.035908
   9 C :   -0.028216
  10 S :    0.057768
  11 C :    0.000432
  12 C :    0.007422
  13 C :   -0.039428
  14 C :    0.071093
  15 O :   -0.226169
  16 C :    0.112895
  17 C :    0.076286
  18 C :    0.091177
  19 O :   -0.174019
  20 O :   -0.203302
  21 C :   -0.059972
  22 C :    0.028606
  23 C :    0.040182
  24 C :    0.009754
  25 C :   -0.000118
  26 C :   -0.000818
  27 C :    0.109104
  28 O :   -0.234843
  29 C :    0.116195
  30 C :    0.087755
  31 C :    0.061770
  32 O :   -0.175281
  33 O :   -0.198791
  34 C :   -0.011709
  35 C :   -0.020309
  36 C :    0.016582
  37 C :   -0.011300
  38 C :   -0.191754
  39 S :    0.151669
  40 C :   -0.139048
  41 C :    0.047609
  42 C :    0.147482
  43 C :    0.063716
  44 C :   -0.021230
  45 C :   -0.124291
  46 C :    0.236723
  47 O :   -0.295852
  48 C :    0.174707
  49 C :   -0.008606
  50 C :   -0.010296
  51 C :   -0.041052
  52 C :   -0.077200
  53 C :    0.338815
  54 C :   -0.370269
  55 C :   -0.191562
  56 N :    0.146150
  57 C :   -0.158582
  58 N :    0.132679
  59 C :    0.022240
  60 C :   -0.019673
  61 C :    0.144740
  62 O :   -0.156273
  63 C :   -0.072764
  64 C :    0.115245
  65 C :   -0.069703
  66 C :   -0.028686
  67 S :    0.144766
  68 C :   -0.110418
  69 C :    0.038565
  70 Br:    0.032094
  71 H :    0.015031
  72 H :    0.016932
  73 H :   -0.016596
  74 H :   -0.015426
  75 H :   -0.020622
  76 H :   -0.016969
  77 H :   -0.019856
  78 H :   -0.010635
  79 H :    0.012473
  80 H :    0.192049
  81 H :    0.186942
  82 H :   -0.048937
  83 H :   -0.008100
  84 H :   -0.031251
  85 H :   -0.020396
  86 H :    0.005880
  87 H :   -0.017708
  88 H :    0.191314
  89 H :    0.192041
  90 H :   -0.039442
  91 H :   -0.008395
  92 H :    0.007899
  93 H :   -0.016399
  94 H :    0.023497
  95 H :   -0.011726
  96 H :   -0.028755
  97 H :    0.041644
  98 H :    0.029452
  99 H :    0.030284
 100 H :    0.035940
 101 H :    0.023220
 102 H :    0.012342
 103 H :   -0.012182
 104 H :   -0.026052
 105 H :   -0.002917
Sum of atomic charges:   -0.0000000

LOEWDIN ATOMIC CHARGES
----------------------
   0 C :   -0.087451
   1 C :   -0.138446
   2 C :   -0.038915
   3 C :   -0.026123
   4 C :   -0.183399
   5 S :    0.347317
   6 C :   -0.178173
   7 C :   -0.048091
   8 C :   -0.030621
   9 C :   -0.153037
  10 S :    0.382235
  11 C :   -0.058504
  12 C :   -0.046521
  13 C :   -0.038202
  14 C :    0.003484
  15 O :   -0.000891
  16 C :   -0.008501
  17 C :   -0.023993
  18 C :   -0.004889
  19 O :   -0.045333
  20 O :   -0.063940
  21 C :   -0.062464
  22 C :   -0.015865
  23 C :   -0.018664
  24 C :   -0.031549
  25 C :   -0.020732
  26 C :   -0.035168
  27 C :    0.010037
  28 O :   -0.001559
  29 C :   -0.016394
  30 C :   -0.007070
  31 C :   -0.007036
  32 O :   -0.044105
  33 O :   -0.059720
  34 C :   -0.021192
  35 C :   -0.055249
  36 C :   -0.017958
  37 C :   -0.067366
  38 C :   -0.179255
  39 S :    0.478693
  40 C :   -0.186801
  41 C :   -0.069805
  42 C :   -0.041549
  43 C :   -0.057273
  44 C :    0.014107
  45 C :   -0.102909
  46 C :    0.081792
  47 O :   -0.086084
  48 C :    0.079813
  49 C :    0.063692
  50 C :   -0.048612
  51 C :    0.079248
  52 C :   -0.113037
  53 C :    0.078453
  54 C :   -0.148690
  55 C :   -0.011958
  56 N :   -0.058604
  57 C :   -0.015574
  58 N :   -0.060568
  59 C :   -0.018093
  60 C :   -0.047789
  61 C :    0.083625
  62 O :   -0.151850
  63 C :    0.021012
  64 C :   -0.033367
  65 C :   -0.144901
  66 C :   -0.017050
  67 S :    0.441668
  68 C :   -0.270198
  69 C :   -0.067593
  70 Br:    0.141612
  71 H :    0.026216
  72 H :    0.024064
  73 H :    0.031070
  74 H :    0.030972
  75 H :    0.028409
  76 H :    0.031305
  77 H :    0.032649
  78 H :    0.029643
  79 H :    0.023955
  80 H :    0.103294
  81 H :    0.078539
  82 H :    0.012983
  83 H :    0.030133
  84 H :    0.019070
  85 H :    0.025478
  86 H :    0.030605
  87 H :    0.028493
  88 H :    0.102478
  89 H :    0.098729
  90 H :    0.021943
  91 H :    0.029577
  92 H :    0.034299
  93 H :    0.020942
  94 H :    0.026211
  95 H :    0.034389
  96 H :    0.028981
  97 H :    0.030724
  98 H :    0.018646
  99 H :    0.018788
 100 H :    0.040865
 101 H :    0.031212
 102 H :    0.042160
 103 H :    0.040466
 104 H :    0.035176
 105 H :    0.039427

  Mayer bond orders larger than 0.100000
B(  0-C ,  1-C ) :   1.8580 B(  0-C , 71-H ) :   0.9508 B(  0-C , 72-H ) :   0.9413
B(  1-C ,  2-C ) :   1.0833 B(  1-C ,  5-S ) :   1.0097 B(  2-C ,  3-C ) :   1.6529
B(  2-C , 73-H ) :   0.9933 B(  3-C ,  4-C ) :   1.1598 B(  3-C , 74-H ) :   0.9914
B(  4-C ,  5-S ) :   1.0397 B(  4-C ,  6-C ) :   1.5462 B(  6-C ,  7-C ) :   1.1762
B(  6-C , 10-S ) :   1.0363 B(  7-C ,  8-C ) :   1.5924 B(  7-C , 75-H ) :   0.9924
B(  8-C ,  9-C ) :   1.1540 B(  8-C , 76-H ) :   0.9979 B(  9-C , 10-S ) :   1.0343
B(  9-C , 11-C ) :   1.5551 B( 11-C , 12-C ) :   1.2078 B( 11-C , 77-H ) :   0.9625
B( 12-C , 13-C ) :   1.5469 B( 12-C , 78-H ) :   0.9736 B( 13-C , 14-C ) :   1.2531
B( 13-C , 79-H ) :   0.9404 B( 14-C , 15-O ) :   1.1142 B( 14-C , 16-C ) :   0.1095
B( 14-C , 18-C ) :   1.3472 B( 15-O , 16-C ) :   1.1238 B( 16-C , 17-C ) :   1.2940
B( 16-C , 21-C ) :   1.1494 B( 17-C , 18-C ) :   1.2577 B( 17-C , 20-O ) :   1.2260
B( 18-C , 19-O ) :   1.2621 B( 19-O , 80-H ) :   0.9541 B( 20-O , 81-H ) :   0.9520
B( 21-C , 22-C ) :   1.6110 B( 21-C , 82-H ) :   0.9551 B( 22-C , 23-C ) :   1.1502
B( 22-C , 83-H ) :   0.9961 B( 23-C , 24-C ) :   1.6520 B( 23-C , 84-H ) :   0.9649
B( 24-C , 25-C ) :   1.1282 B( 24-C , 85-H ) :   0.9728 B( 25-C , 26-C ) :   1.6566
B( 25-C , 86-H ) :   0.9628 B( 26-C , 27-C ) :   1.1749 B( 26-C , 87-H ) :   0.9446
B( 27-C , 28-O ) :   1.0959 B( 27-C , 29-C ) :   0.1069 B( 27-C , 31-C ) :   1.4077
B( 28-O , 29-C ) :   1.0938 B( 29-C , 30-C ) :   1.3049 B( 29-C , 34-C ) :   1.1851
B( 30-C , 31-C ) :   1.2588 B( 30-C , 33-O ) :   1.2311 B( 31-C , 32-O ) :   1.2346
B( 32-O , 88-H ) :   0.9514 B( 33-O , 89-H ) :   0.9600 B( 34-C , 35-C ) :   1.6592
B( 34-C , 90-H ) :   0.9423 B( 35-C , 36-C ) :   1.1492 B( 35-C , 91-H ) :   0.9827
B( 36-C , 37-C ) :   1.7073 B( 36-C , 92-H ) :   0.9551 B( 37-C , 38-C ) :   1.0828
B( 37-C , 93-H ) :   0.9449 B( 38-C , 39-S ) :   1.1647 B( 38-C , 40-C ) :   0.1013
B( 38-C , 42-C ) :   1.4093 B( 39-S , 40-C ) :   1.1966 B( 40-C , 41-C ) :   1.4383
B( 40-C , 94-H ) :   0.9725 B( 41-C , 42-C ) :   1.2203 B( 41-C , 46-C ) :   1.1507
B( 42-C , 43-C ) :   1.1354 B( 43-C , 44-C ) :   1.4982 B( 43-C , 49-C ) :   1.0788
B( 44-C , 45-C ) :   1.1932 B( 44-C , 95-H ) :   0.9886 B( 45-C , 46-C ) :   1.4311
B( 45-C , 96-H ) :   0.9965 B( 46-C , 47-O ) :   1.2261 B( 47-O , 48-C ) :   0.9541
B( 48-C , 97-H ) :   0.9794 B( 48-C , 98-H ) :   0.9696 B( 48-C , 99-H ) :   0.9700
B( 49-C , 50-C ) :   1.5844 B( 49-C ,100-H ) :   0.9554 B( 50-C , 51-C ) :   1.1884
B( 50-C ,101-H ) :   0.9822 B( 51-C , 52-C ) :   1.5015 B( 51-C ,102-H ) :   0.9569
B( 52-C , 53-C ) :   1.0879 B( 52-C , 61-C ) :   0.9552 B( 53-C , 54-C ) :   1.6029
B( 53-C , 59-C ) :   0.9960 B( 54-C , 55-C ) :   1.1618 B( 54-C , 57-C ) :   1.1600
B( 55-C , 56-N ) :   2.9232 B( 57-C , 58-N ) :   2.8978 B( 59-C , 60-C ) :   1.2791
B( 59-C , 66-C ) :   1.4129 B( 60-C , 61-C ) :   0.9364 B( 60-C , 63-C ) :   1.4262
B( 61-C , 62-O ) :   2.2016 B( 63-C , 64-C ) :   1.2424 B( 63-C ,103-H ) :   1.0165
B( 64-C , 65-C ) :   1.3155 B( 64-C , 69-C ) :   1.1575 B( 65-C , 66-C ) :   1.3311
B( 65-C , 67-S ) :   1.0661 B( 66-C ,104-H ) :   0.9831 B( 67-S , 68-C ) :   1.0875
B( 68-C , 69-C ) :   1.6248 B( 68-C , 70-Br) :   1.0241 B( 69-C ,105-H ) :   1.0005

-----------------------------------------------------------------------------
         ABSORPTION SPECTRUM VIA TRANSITION ELECTRIC DIPOLE MOMENTS
-----------------------------------------------------------------------------
State   Energy  Wavelength   fosc         T2         TX        TY        TZ
        (cm-1)    (nm)                  (au**2)     (au)      (au)      (au)
-----------------------------------------------------------------------------
   0    8716.3   1147.3   0.056388425   2.12978  -0.95241  -0.72767  -0.83258
   1   13730.9    728.3   1.692446229  40.57808  -1.73208  -3.87886  -4.74683
   2   14059.5    711.3   0.647595815  15.16385   1.44554   2.39301   2.71068
   3   16502.7    606.0   0.003068924   0.06122  -0.20582  -0.09648  -0.09773
   4   18034.6    554.5   0.087215025   1.59206   0.81874  -0.71225  -0.64375
   5   19178.3    521.4   0.273095908   4.68793  -1.30239  -1.24494  -1.20077
   6   20404.6    490.1   0.052906853   0.85361  -0.85428  -0.14674  -0.31982
   7   21651.9    461.9   0.004375838   0.06653   0.15888   0.13814   0.14902
   8   22202.0    450.4   0.518854616   7.69360  -1.14494  -1.71669  -1.85356
   9   23510.3    425.3   0.060978904   0.85388  -0.84342  -0.35566   0.12659
  10   24128.1    414.5   0.262473175   3.58127   1.27163   1.24501   0.64359
  11   25593.9    390.7   0.146301892   1.88187   0.96265   0.84566   0.48992
  12   25874.1    386.5   0.037436287   0.47633  -0.65348  -0.22195  -0.00507
  13   26415.6    378.6   0.063244924   0.78821   0.49751   0.51883   0.52106
  14   27005.5    370.3   0.046797876   0.57049   0.26885  -0.47962  -0.51785
  15   27352.0    365.6   0.018117528   0.21806   0.39530  -0.17579   0.17579
  16   28140.0    355.4   0.070403255   0.82365  -0.10945   0.40899  -0.80275
  17   28486.2    351.0   0.213321968   2.46534   1.08078  -0.97299  -0.59208
  18   28899.6    346.0   0.095064038   1.08293  -0.01111  -0.26908   1.00519
  19   29318.2    341.1   0.019576935   0.21983   0.23738  -0.40007  -0.05851
  20   29373.6    340.4   0.021651432   0.24266   0.07657   0.19695   0.44498
  21   29864.9    334.8   0.593145606   6.53846   0.33231   1.10462   2.28207
  22   30303.8    330.0   0.037549684   0.40793   0.34627  -0.02168  -0.53625
  23   30571.6    327.1   0.030992220   0.33374  -0.42518   0.13047   0.36870
  24   30848.0    324.2   0.038086253   0.40646  -0.48696   0.09811  -0.39964
  25   31161.7    320.9   0.235874037   2.49192   1.54569  -0.32056  -0.00394
  26   31649.2    316.0   0.001090769   0.01135   0.10429   0.01831   0.01163
  27   31757.3    314.9   0.090488140   0.93805   0.75633  -0.59313   0.11919
  28   32228.5    310.3   0.106386483   1.08673  -0.53859  -0.48533  -0.74906
  29   32379.4    308.8   0.166718248   1.69508  -1.20189   0.45717   0.20382
  30   32902.1    303.9   0.096111941   0.96168   0.15120  -0.23755   0.93935
  31   33231.2    300.9   0.347590000   3.44347   1.33612  -1.07413  -0.71028
  32   33515.6    298.4   0.157730685   1.54933  -0.79030   0.38392   0.88168
  33   33895.2    295.0   0.020930962   0.20330   0.11785  -0.28875  -0.32562
  34   34019.0    294.0   0.040002432   0.38712  -0.26477  -0.11266   0.55165
  35   34114.5    293.1   0.042223991   0.40747  -0.09502  -0.07719   0.62648
  36   34403.8    290.7   0.225030260   2.15332  -0.97161  -0.10013   1.09512
  37   34661.8    288.5   0.093264379   0.88581   0.61131  -0.16897  -0.69538
  38   34691.2    288.3   0.055313804   0.52492   0.04102  -0.05257  -0.72144
  39   34859.6    286.9   0.000508014   0.00480   0.05684  -0.00650   0.03904
  40   35396.5    282.5   0.005547175   0.05159   0.02341  -0.16706   0.15211
  41   35587.3    281.0   0.009973570   0.09226  -0.15984  -0.06013   0.25120
  42   35922.2    278.4   0.021463010   0.19670   0.30460   0.32170   0.02064
  43   36216.0    276.1   0.040706593   0.37003  -0.35779   0.13001   0.47447
  44   36499.3    274.0   0.106832357   0.96359   0.88489   0.00380  -0.42491
  45   36850.1    271.4   0.038544501   0.34435   0.42316  -0.34775  -0.21062
  46   37087.4    269.6   0.067922220   0.60292   0.74560   0.07962   0.20167
  47   37260.6    268.4   0.025023798   0.22109  -0.12829  -0.06742   0.44731
  48   37405.5    267.3   0.010108156   0.08896   0.18725  -0.05108  -0.22648
  49   37885.1    264.0   0.053996854   0.46922   0.22847  -0.16201  -0.62512
  50   37990.4    263.2   0.008677249   0.07519   0.21080   0.17501   0.01131
  51   38170.3    262.0   0.016567086   0.14289  -0.14883  -0.00686   0.34740
  52   38554.2    259.4   0.022373734   0.19105  -0.33072   0.04927   0.28150
  53   38950.6    256.7   0.012960371   0.10954  -0.06546  -0.28055  -0.16294
  54   38990.4    256.5   0.020401730   0.17226  -0.27038  -0.23282  -0.21201
  55   39159.3    255.4   0.025516175   0.21451   0.44050   0.14309   0.00074
  56   39500.7    253.2   0.065871962   0.54900   0.29880  -0.67642   0.04662
  57   39748.7    251.6   0.217320603   1.79992   0.90625   0.77806   0.61095
  58   40107.9    249.3   0.028727957   0.23580   0.21335  -0.42749  -0.08681

FINAL SINGLE POINT ENERGY     -7028.756603251337

DIPOLE MOMENT
-------------
                                X             Y             Z
Electronic contribution:    -30.50613      17.25561      59.33057
Nuclear contribution   :     28.08609     -19.50326     -60.90740
                        -----------------------------------------
Total Dipole Moment    :     -2.42005      -2.24765      -1.57684
                        -----------------------------------------
Magnitude (a.u.)       :      3.65991
Magnitude (Debye)      :      9.30276

Rotational constants in cm-1:     0.001827     0.000240     0.000219
Rotational constants in MHz :    54.766644     7.209499     6.550634

                             ****ORCA TERMINATED NORMALLY****
TOTAL RUN TIME: 0 days 0 hours 10 minutes 15 seconds 913 msec
