                         Program Version 4.2.0 -  RELEASE  -
|  1> # ORCA input file
|  2> # SCF done       -170.270846375251          0.000443416514
|  3> ! CAM-B3LYP def2-SVP def2/J RIJCOSX Grid4 TightSCF
|  4> %maxcore 5000
|  5> %tddft
|  6>     Mode sTDDFT
|  7>     Ethresh 5.0
|  8>     maxcore 5000
|  9> end
| 10>
| 11> %pal
| 12>   nprocs 6
| 13>   end
| 14> * xyz 0 1
| 15>    C       10.79910        -2.07363         4.81744
| 16>    C       10.93328        -2.96680         3.82837
| 17>    C       12.14922        -3.48264         3.26645
| 18>    C       11.97163        -4.37823         2.27082
| 19>    C       10.60969        -4.64833         1.95926
| 20>    S        9.55399        -3.70394         2.99705
| 21>    C       10.12235        -5.50153         1.00206
| 22>    C       10.83926        -6.33328         0.10601
| 23>    C       10.05172        -7.05876        -0.72906
| 24>    C        8.65504        -6.86694        -0.55105
| 25>    S        8.39707        -5.68206         0.72469
| 26>    C        7.66968        -7.45073        -1.29914
| 27>    C        6.27495        -7.34599        -1.14910
| 28>    C        5.45102        -6.99010        -0.09806
| 29>    C        4.07954        -6.97334        -0.42542
| 30>    O        3.31936        -6.61760         0.64651
| 31>    C        4.22197        -6.38966         1.71719
| 32>    N        5.54824        -6.77387         1.25821
| 33>    C        3.75801        -7.31953        -1.71348
| 34>    S        5.25422        -7.71376        -2.55379
| 35>    C        2.48140        -7.31867        -2.31795
| 36>    C        2.21780        -7.67260        -3.59829
| 37>    C        0.93325        -7.58276        -4.18374
| 38>    C        0.52394        -7.90184        -5.45807
| 39>    C       -0.82781        -7.61732        -5.73040
| 40>    O       -1.14589        -7.92482        -7.01878
| 41>    C        0.04439        -8.42466        -7.61721
| 42>    N        1.07162        -8.49725        -6.58390
| 43>    C       -1.53044        -7.06805        -4.68794
| 44>    S       -0.44865        -6.92524        -3.30855
| 45>    C       -2.86537        -6.59802        -4.60652
| 46>    C       -3.74127        -6.62381        -5.63218
| 47>    N       -5.00180        -6.10070        -5.50578
| 48>    C       -5.94928        -6.02743        -6.45399
| 49>    S       -5.70893        -6.71196        -8.02724
| 50>    C       -7.29418        -6.15017        -8.49367
| 51>    N       -7.70169        -6.44011        -9.79616
| 52>    O       -8.80440        -6.06561       -10.15072
| 53>    O       -6.90514        -7.05710       -10.48852
| 54>    C       -7.95323        -5.47829        -7.50409
| 55>    C       -7.20574        -5.39061        -6.31092
| 56>    C       -7.61826        -4.74129        -5.11516
| 57>    C       -8.75459        -4.01260        -4.94235
| 58>    C       -9.01942        -3.39708        -3.70216
| 59>    C      -10.09109        -2.59409        -3.41890
| 60>    C      -10.36577        -1.93669        -2.15845
| 61>    C       -9.62025        -2.00576        -1.00656
| 62>    C       -9.94825        -1.33933         0.19184
| 63>    N      -10.15572        -0.82739         1.19866
| 64>    C       -8.42714        -2.73735        -0.84234
| 65>    N       -7.44902        -3.30257        -0.62945
| 66>    C      -11.59304        -1.16415        -2.32106
| 67>    C      -12.07224        -1.33884        -3.64253
| 68>    C      -11.16132        -2.23970        -4.37865
| 69>    O      -11.28088        -2.59985        -5.53121
| 70>    C      -13.21187        -0.72790        -4.10485
| 71>    C      -13.91463         0.09795        -3.22081
| 72>    C      -13.42968         0.26571        -1.90221
| 73>    C      -12.27729        -0.35337        -1.43437
| 74>    S      -14.44717         1.32869        -0.97728
| 75>    C      -15.49443         1.53134        -2.35651
| 76>    C      -15.10555         0.83903        -3.45338
| 77>   Br      -17.00198         2.63870        -2.21768
| 78>    H       11.66496        -1.64916         5.29396
| 79>    H        9.83382        -1.75273         5.16375
| 80>    H       13.10434        -3.15565         3.63764
| 81>    H       12.77186        -4.86193         1.73893
| 82>    H       11.91378        -6.36999         0.10919
| 83>    H       10.42251        -7.74184        -1.47307
| 84>    H        7.99967        -8.02921        -2.15295
| 85>    H        3.91807        -7.01142         2.57201
| 86>    H        4.16905        -5.32776         2.01299
| 87>    H        6.34836        -6.30682         1.65716
| 88>    H        1.67333        -6.98302        -1.68005
| 89>    H        3.01799        -8.03255        -4.23214
| 90>    H        0.32710        -7.76353        -8.45246
| 91>    H       -0.16331        -9.42879        -8.01459
| 92>    H        2.01518        -8.26652        -6.85300
| 93>    H       -3.15950        -6.17782        -3.65384
| 94>    H       -3.48382        -7.03968        -6.59382
| 95>    H       -5.22254        -5.69555        -4.60250
| 96>    H       -8.93865        -5.07229        -7.64091
| 97>    H       -6.95603        -4.82150        -4.25988
| 98>    H       -9.46068        -3.87267        -5.74463
| 99>    H       -8.29405        -3.57438        -2.91847
|100>    H      -13.54992        -0.88061        -5.11784
|101>    H      -11.94984        -0.19184        -0.42109
|102>    H      -15.63451         0.84982        -4.38888
|103> *
|104>
|105>                          ****END OF INPUT****

CARTESIAN COORDINATES (ANGSTROEM)
---------------------------------
  C     10.799100   -2.073630    4.817440
  C     10.933280   -2.966800    3.828370
  C     12.149220   -3.482640    3.266450
  C     11.971630   -4.378230    2.270820
  C     10.609690   -4.648330    1.959260
  S      9.553990   -3.703940    2.997050
  C     10.122350   -5.501530    1.002060
  C     10.839260   -6.333280    0.106010
  C     10.051720   -7.058760   -0.729060
  C      8.655040   -6.866940   -0.551050
  S      8.397070   -5.682060    0.724690
  C      7.669680   -7.450730   -1.299140
  C      6.274950   -7.345990   -1.149100
  C      5.451020   -6.990100   -0.098060
  C      4.079540   -6.973340   -0.425420
  O      3.319360   -6.617600    0.646510
  C      4.221970   -6.389660    1.717190
  N      5.548240   -6.773870    1.258210
  C      3.758010   -7.319530   -1.713480
  S      5.254220   -7.713760   -2.553790
  C      2.481400   -7.318670   -2.317950
  C      2.217800   -7.672600   -3.598290
  C      0.933250   -7.582760   -4.183740
  C      0.523940   -7.901840   -5.458070
  C     -0.827810   -7.617320   -5.730400
  O     -1.145890   -7.924820   -7.018780
  C      0.044390   -8.424660   -7.617210
  N      1.071620   -8.497250   -6.583900
  C     -1.530440   -7.068050   -4.687940
  S     -0.448650   -6.925240   -3.308550
  C     -2.865370   -6.598020   -4.606520
  C     -3.741270   -6.623810   -5.632180
  N     -5.001800   -6.100700   -5.505780
  C     -5.949280   -6.027430   -6.453990
  S     -5.708930   -6.711960   -8.027240
  C     -7.294180   -6.150170   -8.493670
  N     -7.701690   -6.440110   -9.796160
  O     -8.804400   -6.065610  -10.150720
  O     -6.905140   -7.057100  -10.488520
  C     -7.953230   -5.478290   -7.504090
  C     -7.205740   -5.390610   -6.310920
  C     -7.618260   -4.741290   -5.115160
  C     -8.754590   -4.012600   -4.942350
  C     -9.019420   -3.397080   -3.702160
  C    -10.091090   -2.594090   -3.418900
  C    -10.365770   -1.936690   -2.158450
  C     -9.620250   -2.005760   -1.006560
  C     -9.948250   -1.339330    0.191840
  N    -10.155720   -0.827390    1.198660
  C     -8.427140   -2.737350   -0.842340
  N     -7.449020   -3.302570   -0.629450
  C    -11.593040   -1.164150   -2.321060
  C    -12.072240   -1.338840   -3.642530
  C    -11.161320   -2.239700   -4.378650
  O    -11.280880   -2.599850   -5.531210
  C    -13.211870   -0.727900   -4.104850
  C    -13.914630    0.097950   -3.220810
  C    -13.429680    0.265710   -1.902210
  C    -12.277290   -0.353370   -1.434370
  S    -14.447170    1.328690   -0.977280
  C    -15.494430    1.531340   -2.356510
  C    -15.105550    0.839030   -3.453380
  Br   -17.001980    2.638700   -2.217680
  H     11.664960   -1.649160    5.293960
  H      9.833820   -1.752730    5.163750
  H     13.104340   -3.155650    3.637640
  H     12.771860   -4.861930    1.738930
  H     11.913780   -6.369990    0.109190
  H     10.422510   -7.741840   -1.473070
  H      7.999670   -8.029210   -2.152950
  H      3.918070   -7.011420    2.572010
  H      4.169050   -5.327760    2.012990
  H      6.348360   -6.306820    1.657160
  H      1.673330   -6.983020   -1.680050
  H      3.017990   -8.032550   -4.232140
  H      0.327100   -7.763530   -8.452460
  H     -0.163310   -9.428790   -8.014590
  H      2.015180   -8.266520   -6.853000
  H     -3.159500   -6.177820   -3.653840
  H     -3.483820   -7.039680   -6.593820
  H     -5.222540   -5.695550   -4.602500
  H     -8.938650   -5.072290   -7.640910
  H     -6.956030   -4.821500   -4.259880
  H     -9.460680   -3.872670   -5.744630
  H     -8.294050   -3.574380   -2.918470
  H    -13.549920   -0.880610   -5.117840
  H    -11.949840   -0.191840   -0.421090
  H    -15.634510    0.849820   -4.388880

 Total Charge           Charge          ....    0
 Multiplicity           Mult            ....    1
 Number of Electrons    NEL             ....  508
 Basis Dimension        Dim             .... 1049

ORBITAL ENERGIES
----------------

  NO   OCC          E(Eh)            E(eV)
   0   2.0000    -482.883352    -13139.9240
   1   2.0000     -88.986623     -2421.4491
   2   2.0000     -88.972855     -2421.0745
   3   2.0000     -88.945774     -2420.3376
   4   2.0000     -88.945694     -2420.3354
   5   2.0000     -88.938429     -2420.1377
   6   2.0000     -88.935781     -2420.0656
   7   2.0000     -62.561067     -1702.3732
   8   2.0000     -56.395015     -1534.5864
   9   2.0000     -56.392302     -1534.5126
  10   2.0000     -56.392269     -1534.5117
  11   2.0000     -19.268627      -524.3260
  12   2.0000     -19.257318      -524.0183
  13   2.0000     -19.233349      -523.3660
  14   2.0000     -19.232953      -523.3553
  15   2.0000     -19.212544      -522.7999
  16   2.0000     -14.645043      -398.5119
  17   2.0000     -14.493096      -394.3772
  18   2.0000     -14.438664      -392.8960
  19   2.0000     -14.429381      -392.6434
  20   2.0000     -14.414765      -392.2457
  21   2.0000     -14.410575      -392.1317
  22   2.0000     -10.380401      -282.4651
  23   2.0000     -10.373677      -282.2821
  24   2.0000     -10.364265      -282.0260
  25   2.0000     -10.362869      -281.9880
  26   2.0000     -10.356412      -281.8123
  27   2.0000     -10.341087      -281.3953
  28   2.0000     -10.337712      -281.3035
  29   2.0000     -10.336553      -281.2719
  30   2.0000     -10.332514      -281.1620
  31   2.0000     -10.330344      -281.1029
  32   2.0000     -10.326602      -281.0011
  33   2.0000     -10.322464      -280.8885
  34   2.0000     -10.318551      -280.7821
  35   2.0000     -10.316435      -280.7245
  36   2.0000     -10.314122      -280.6615
  37   2.0000     -10.313478      -280.6440
  38   2.0000     -10.313273      -280.6384
  39   2.0000     -10.312470      -280.6166
  40   2.0000     -10.311554      -280.5917
  41   2.0000     -10.308137      -280.4987
  42   2.0000     -10.305309      -280.4217
  43   2.0000     -10.304560      -280.4013
  44   2.0000     -10.304399      -280.3970
  45   2.0000     -10.303771      -280.3799
  46   2.0000     -10.303480      -280.3720
  47   2.0000     -10.302749      -280.3521
  48   2.0000     -10.302651      -280.3494
  49   2.0000     -10.302154      -280.3359
  50   2.0000     -10.297485      -280.2088
  51   2.0000     -10.297466      -280.2083
  52   2.0000     -10.295815      -280.1634
  53   2.0000     -10.295320      -280.1499
  54   2.0000     -10.295244      -280.1478
  55   2.0000     -10.294102      -280.1167
  56   2.0000     -10.290328      -280.0141
  57   2.0000     -10.288387      -279.9612
  58   2.0000     -10.286835      -279.9190
  59   2.0000     -10.286357      -279.9060
  60   2.0000     -10.284058      -279.8434
  61   2.0000     -10.283032      -279.8155
  62   2.0000     -10.282311      -279.7959
  63   2.0000     -10.280944      -279.7587
  64   2.0000     -10.279329      -279.7148
  65   2.0000     -10.276700      -279.6432
  66   2.0000     -10.266076      -279.3541
  67   2.0000      -8.790498      -239.2016
  68   2.0000      -8.082050      -219.9238
  69   2.0000      -8.068814      -219.5636
  70   2.0000      -8.041806      -218.8287
  71   2.0000      -8.040735      -218.7995
  72   2.0000      -8.033642      -218.6065
  73   2.0000      -8.032431      -218.5736
  74   2.0000      -6.626787      -180.3240
  75   2.0000      -6.612229      -179.9279
  76   2.0000      -6.612049      -179.9230
  77   2.0000      -6.051859      -164.6795
  78   2.0000      -6.047376      -164.5575
  79   2.0000      -6.043251      -164.4452
  80   2.0000      -6.038505      -164.3161
  81   2.0000      -6.034231      -164.1998
  82   2.0000      -6.030055      -164.0861
  83   2.0000      -6.011556      -163.5828
  84   2.0000      -6.010558      -163.5556
  85   2.0000      -6.007688      -163.4775
  86   2.0000      -6.006601      -163.4479
  87   2.0000      -6.003509      -163.3638
  88   2.0000      -6.002649      -163.3404
  89   2.0000      -6.002276      -163.3302
  90   2.0000      -6.001678      -163.3140
  91   2.0000      -5.999643      -163.2586
  92   2.0000      -5.998405      -163.2249
  93   2.0000      -5.994388      -163.1156
  94   2.0000      -5.992928      -163.0759
  95   2.0000      -2.742675       -74.6320
  96   2.0000      -2.738582       -74.5206
  97   2.0000      -2.738416       -74.5161
  98   2.0000      -2.726862       -74.2017
  99   2.0000      -2.726849       -74.2013
 100   2.0000      -1.313572       -35.7441
 101   2.0000      -1.189512       -32.3683
 102   2.0000      -1.181591       -32.1527
 103   2.0000      -1.132669       -30.8215
 104   2.0000      -1.126832       -30.6627
 105   2.0000      -1.099319       -29.9140
 106   2.0000      -1.024975       -27.8910
 107   2.0000      -1.019572       -27.7440
 108   2.0000      -1.018921       -27.7263
 109   2.0000      -1.010785       -27.5049
 110   2.0000      -1.005819       -27.3697
 111   2.0000      -0.991576       -26.9821
 112   2.0000      -0.989467       -26.9248
 113   2.0000      -0.985754       -26.8237
 114   2.0000      -0.975580       -26.5469
 115   2.0000      -0.968968       -26.3670
 116   2.0000      -0.963430       -26.2163
 117   2.0000      -0.942768       -25.6540
 118   2.0000      -0.930475       -25.3195
 119   2.0000      -0.911118       -24.7928
 120   2.0000      -0.905148       -24.6303
 121   2.0000      -0.899452       -24.4753
 122   2.0000      -0.889962       -24.2171
 123   2.0000      -0.882830       -24.0230
 124   2.0000      -0.882330       -24.0094
 125   2.0000      -0.871325       -23.7100
 126   2.0000      -0.863391       -23.4941
 127   2.0000      -0.857432       -23.3319
 128   2.0000      -0.842330       -22.9210
 129   2.0000      -0.837174       -22.7807
 130   2.0000      -0.830774       -22.6065
 131   2.0000      -0.828513       -22.5450
 132   2.0000      -0.826847       -22.4997
 133   2.0000      -0.823621       -22.4119
 134   2.0000      -0.815214       -22.1831
 135   2.0000      -0.798468       -21.7274
 136   2.0000      -0.782293       -21.2873
 137   2.0000      -0.771309       -20.9884
 138   2.0000      -0.758127       -20.6297
 139   2.0000      -0.752950       -20.4888
 140   2.0000      -0.748579       -20.3699
 141   2.0000      -0.743039       -20.2191
 142   2.0000      -0.731833       -19.9142
 143   2.0000      -0.729117       -19.8403
 144   2.0000      -0.721411       -19.6306
 145   2.0000      -0.706875       -19.2350
 146   2.0000      -0.697443       -18.9784
 147   2.0000      -0.692770       -18.8512
 148   2.0000      -0.688863       -18.7449
 149   2.0000      -0.676507       -18.4087
 150   2.0000      -0.673250       -18.3201
 151   2.0000      -0.668298       -18.1853
 152   2.0000      -0.660464       -17.9721
 153   2.0000      -0.656869       -17.8743
 154   2.0000      -0.652960       -17.7680
 155   2.0000      -0.649500       -17.6738
 156   2.0000      -0.637105       -17.3365
 157   2.0000      -0.630935       -17.1686
 158   2.0000      -0.627710       -17.0809
 159   2.0000      -0.626463       -17.0469
 160   2.0000      -0.620079       -16.8732
 161   2.0000      -0.617377       -16.7997
 162   2.0000      -0.610889       -16.6231
 163   2.0000      -0.607129       -16.5208
 164   2.0000      -0.600273       -16.3342
 165   2.0000      -0.597833       -16.2679
 166   2.0000      -0.597471       -16.2580
 167   2.0000      -0.593909       -16.1611
 168   2.0000      -0.590935       -16.0802
 169   2.0000      -0.589931       -16.0528
 170   2.0000      -0.587224       -15.9792
 171   2.0000      -0.579297       -15.7635
 172   2.0000      -0.573038       -15.5932
 173   2.0000      -0.567484       -15.4420
 174   2.0000      -0.560690       -15.2571
 175   2.0000      -0.553372       -15.0580
 176   2.0000      -0.551552       -15.0085
 177   2.0000      -0.545578       -14.8459
 178   2.0000      -0.543263       -14.7830
 179   2.0000      -0.541951       -14.7472
 180   2.0000      -0.541062       -14.7230
 181   2.0000      -0.536282       -14.5930
 182   2.0000      -0.530611       -14.4386
 183   2.0000      -0.529169       -14.3994
 184   2.0000      -0.526552       -14.3282
 185   2.0000      -0.519427       -14.1343
 186   2.0000      -0.516146       -14.0451
 187   2.0000      -0.510604       -13.8942
 188   2.0000      -0.507763       -13.8169
 189   2.0000      -0.506092       -13.7715
 190   2.0000      -0.505941       -13.7674
 191   2.0000      -0.502499       -13.6737
 192   2.0000      -0.498475       -13.5642
 193   2.0000      -0.495830       -13.4922
 194   2.0000      -0.494431       -13.4541
 195   2.0000      -0.492938       -13.4135
 196   2.0000      -0.491000       -13.3608
 197   2.0000      -0.490762       -13.3543
 198   2.0000      -0.489182       -13.3113
 199   2.0000      -0.487401       -13.2628
 200   2.0000      -0.482334       -13.1250
 201   2.0000      -0.479723       -13.0539
 202   2.0000      -0.470599       -12.8056
 203   2.0000      -0.469060       -12.7638
 204   2.0000      -0.467294       -12.7157
 205   2.0000      -0.461976       -12.5710
 206   2.0000      -0.459142       -12.4939
 207   2.0000      -0.455450       -12.3934
 208   2.0000      -0.453864       -12.3503
 209   2.0000      -0.451235       -12.2787
 210   2.0000      -0.448068       -12.1926
 211   2.0000      -0.447022       -12.1641
 212   2.0000      -0.445616       -12.1258
 213   2.0000      -0.445483       -12.1222
 214   2.0000      -0.442913       -12.0523
 215   2.0000      -0.440740       -11.9931
 216   2.0000      -0.438922       -11.9437
 217   2.0000      -0.436148       -11.8682
 218   2.0000      -0.433314       -11.7911
 219   2.0000      -0.431402       -11.7390
 220   2.0000      -0.425011       -11.5651
 221   2.0000      -0.424387       -11.5482
 222   2.0000      -0.420758       -11.4494
 223   2.0000      -0.419797       -11.4232
 224   2.0000      -0.414816       -11.2877
 225   2.0000      -0.405423       -11.0321
 226   2.0000      -0.404804       -11.0153
 227   2.0000      -0.403493       -10.9796
 228   2.0000      -0.400521       -10.8987
 229   2.0000      -0.397366       -10.8129
 230   2.0000      -0.396761       -10.7964
 231   2.0000      -0.387927       -10.5560
 232   2.0000      -0.384948       -10.4750
 233   2.0000      -0.381545       -10.3824
 234   2.0000      -0.375711       -10.2236
 235   2.0000      -0.372715       -10.1421
 236   2.0000      -0.371271       -10.1028
 237   2.0000      -0.369509       -10.0549
 238   2.0000      -0.361888        -9.8475
 239   2.0000      -0.353448        -9.6178
 240   2.0000      -0.346517        -9.4292
 241   2.0000      -0.336848        -9.1661
 242   2.0000      -0.334641        -9.1060
 243   2.0000      -0.332377        -9.0444
 244   2.0000      -0.322649        -8.7797
 245   2.0000      -0.312564        -8.5053
 246   2.0000      -0.311797        -8.4844
 247   2.0000      -0.293399        -7.9838
 248   2.0000      -0.289060        -7.8657
 249   2.0000      -0.273502        -7.4424
 250   2.0000      -0.261077        -7.1043
 251   2.0000      -0.256580        -6.9819
 252   2.0000      -0.234223        -6.3735
 253   2.0000      -0.206099        -5.6082
 254   0.0000      -0.091849        -2.4994
 255   0.0000      -0.066361        -1.8058
 256   0.0000      -0.057508        -1.5649
 257   0.0000      -0.053716        -1.4617
 258   0.0000      -0.024681        -0.6716

MULLIKEN ATOMIC CHARGES
-----------------------
   0 C :   -0.033723
   1 C :   -0.059143
   2 C :    0.050626
   3 C :    0.031408
   4 C :   -0.069387
   5 S :    0.060176
   6 C :   -0.042981
   7 C :    0.024075
   8 C :    0.037381
   9 C :   -0.040770
  10 S :    0.032347
  11 C :    0.037578
  12 C :   -0.252055
  13 C :    0.154493
  14 C :    0.163583
  15 O :   -0.303923
  16 C :    0.343818
  17 N :   -0.188344
  18 C :   -0.156615
  19 S :    0.068955
  20 C :   -0.000896
  21 C :   -0.007914
  22 C :   -0.180977
  23 C :    0.133228
  24 C :    0.176076
  25 O :   -0.315055
  26 C :    0.338289
  27 N :   -0.202098
  28 C :   -0.200484
  29 S :    0.085828
  30 C :    0.047712
  31 C :    0.039931
  32 N :   -0.007870
  33 C :   -0.099797
  34 S :    0.160615
  35 C :   -0.006142
  36 N :    0.277188
  37 O :   -0.249527
  38 O :   -0.271924
  39 C :    0.020451
  40 C :    0.123465
  41 C :   -0.013608
  42 C :   -0.005252
  43 C :   -0.044283
  44 C :   -0.069233
  45 C :    0.335537
  46 C :   -0.361094
  47 C :   -0.184997
  48 N :    0.146093
  49 C :   -0.183040
  50 N :    0.128838
  51 C :    0.010715
  52 C :   -0.014395
  53 C :    0.143766
  54 O :   -0.153715
  55 C :   -0.070735
  56 C :    0.116804
  57 C :   -0.092063
  58 C :   -0.019720
  59 S :    0.185266
  60 C :   -0.122744
  61 C :    0.037762
  62 Br:    0.022561
  63 H :    0.018037
  64 H :    0.018373
  65 H :   -0.013877
  66 H :   -0.012987
  67 H :   -0.014749
  68 H :   -0.012792
  69 H :   -0.016579
  70 H :    0.029775
  71 H :    0.025739
  72 H :    0.125896
  73 H :    0.004023
  74 H :   -0.020568
  75 H :    0.027490
  76 H :    0.033601
  77 H :    0.132765
  78 H :   -0.019057
  79 H :    0.039761
  80 H :    0.141606
  81 H :    0.022594
  82 H :   -0.018776
  83 H :    0.023330
  84 H :   -0.001872
  85 H :   -0.010901
  86 H :   -0.007900
  87 H :   -0.002989
Sum of atomic charges:    0.0000000

LOEWDIN ATOMIC CHARGES
----------------------
   0 C :   -0.082203
   1 C :   -0.138161
   2 C :   -0.035265
   3 C :   -0.025766
   4 C :   -0.184366
   5 S :    0.336873
   6 C :   -0.176072
   7 C :   -0.045096
   8 C :   -0.027985
   9 C :   -0.162236
  10 S :    0.370219
  11 C :   -0.063898
  12 C :   -0.211557
  13 C :   -0.023459
  14 C :    0.009420
  15 O :   -0.102543
  16 C :    0.165949
  17 N :   -0.050218
  18 C :   -0.196648
  19 S :    0.372355
  20 C :   -0.044095
  21 C :   -0.051317
  22 C :   -0.198747
  23 C :   -0.030231
  24 C :    0.004828
  25 O :   -0.107418
  26 C :    0.166430
  27 N :   -0.060935
  28 C :   -0.206035
  29 S :    0.396386
  30 C :   -0.067894
  31 C :    0.008466
  32 N :    0.056627
  33 C :   -0.080036
  34 S :    0.456734
  35 C :   -0.210261
  36 N :    0.273269
  37 O :   -0.216432
  38 O :   -0.238363
  39 C :    0.019125
  40 C :   -0.125288
  41 C :    0.029896
  42 C :   -0.040180
  43 C :    0.066729
  44 C :   -0.105343
  45 C :    0.078244
  46 C :   -0.148947
  47 C :   -0.018967
  48 N :   -0.058594
  49 C :   -0.016852
  50 N :   -0.066082
  51 C :   -0.021000
  52 C :   -0.049826
  53 C :    0.084076
  54 O :   -0.149266
  55 C :    0.021237
  56 C :   -0.032692
  57 C :   -0.144502
  58 C :   -0.010141
  59 S :    0.431477
  60 C :   -0.271751
  61 C :   -0.070339
  62 Br:    0.135731
  63 H :    0.027914
  64 H :    0.024928
  65 H :    0.032543
  66 H :    0.031995
  67 H :    0.031058
  68 H :    0.033366
  69 H :    0.034779
  70 H :    0.016549
  71 H :    0.011198
  72 H :    0.042848
  73 H :    0.031913
  74 H :    0.025102
  75 H :    0.012662
  76 H :    0.017349
  77 H :    0.080154
  78 H :    0.030507
  79 H :    0.028031
  80 H :    0.098762
  81 H :    0.051307
  82 H :    0.027406
  83 H :    0.033145
  84 H :    0.038869
  85 H :    0.040838
  86 H :    0.040767
  87 H :    0.038945

  Mayer bond orders larger than 0.100000
B(  0-C ,  1-C ) :   1.8639 B(  0-C , 63-H ) :   0.9508 B(  0-C , 64-H ) :   0.9427
B(  1-C ,  2-C ) :   1.0791 B(  1-C ,  5-S ) :   1.0081 B(  2-C ,  3-C ) :   1.6625
B(  2-C , 65-H ) :   0.9934 B(  3-C ,  4-C ) :   1.1526 B(  3-C , 66-H ) :   0.9916
B(  4-C ,  5-S ) :   1.0327 B(  4-C ,  6-C ) :   1.5676 B(  6-C ,  7-C ) :   1.1686
B(  6-C , 10-S ) :   1.0344 B(  7-C ,  8-C ) :   1.6102 B(  7-C , 67-H ) :   0.9906
B(  8-C ,  9-C ) :   1.1378 B(  8-C , 68-H ) :   0.9965 B(  9-C , 10-S ) :   1.0046
B(  9-C , 11-C ) :   1.6313 B( 11-C , 12-C ) :   1.1728 B( 11-C , 69-H ) :   0.9389
B( 12-C , 13-C ) :   1.4613 B( 12-C , 19-S ) :   1.0356 B( 13-C , 14-C ) :   1.2165
B( 13-C , 17-N ) :   1.1637 B( 14-C , 15-O ) :   1.1260 B( 14-C , 18-C ) :   1.5260
B( 15-O , 16-C ) :   0.9762 B( 16-C , 17-N ) :   1.0031 B( 16-C , 70-H ) :   0.9566
B( 16-C , 71-H ) :   0.9555 B( 17-N , 72-H ) :   0.8992 B( 18-C , 19-S ) :   1.0436
B( 18-C , 20-C ) :   1.1747 B( 20-C , 21-C ) :   1.6136 B( 20-C , 73-H ) :   0.9799
B( 21-C , 22-C ) :   1.1761 B( 21-C , 74-H ) :   0.9837 B( 22-C , 23-C ) :   1.4955
B( 22-C , 29-S ) :   1.0452 B( 23-C , 24-C ) :   1.2369 B( 23-C , 27-N ) :   1.1177
B( 24-C , 25-O ) :   1.0978 B( 24-C , 28-C ) :   1.5342 B( 25-O , 26-C ) :   0.9671
B( 26-C , 27-N ) :   1.0115 B( 26-C , 75-H ) :   0.9586 B( 26-C , 76-H ) :   0.9580
B( 27-N , 77-H ) :   0.9251 B( 28-C , 29-S ) :   1.0595 B( 28-C , 30-C ) :   1.1633
B( 30-C , 31-C ) :   1.6993 B( 30-C , 78-H ) :   0.9459 B( 31-C , 32-N ) :   1.0784
B( 31-C , 79-H ) :   0.9527 B( 32-N , 33-C ) :   1.3101 B( 32-N , 80-H ) :   0.9110
B( 33-C , 34-S ) :   1.1430 B( 33-C , 40-C ) :   1.2703 B( 34-S , 35-C ) :   1.0424
B( 35-C , 36-N ) :   0.9797 B( 35-C , 39-C ) :   1.5110 B( 36-N , 37-O ) :   1.5316
B( 36-N , 38-O ) :   1.5002 B( 37-O , 38-O ) :   0.2546 B( 39-C , 40-C ) :   1.2180
B( 39-C , 81-H ) :   1.0021 B( 40-C , 41-C ) :   1.0908 B( 41-C , 42-C ) :   1.5805
B( 41-C , 82-H ) :   0.9789 B( 42-C , 43-C ) :   1.1824 B( 42-C , 83-H ) :   0.9796
B( 43-C , 44-C ) :   1.5073 B( 43-C , 84-H ) :   0.9591 B( 44-C , 45-C ) :   1.0800
B( 44-C , 53-C ) :   0.9503 B( 45-C , 46-C ) :   1.6088 B( 45-C , 51-C ) :   1.0001
B( 46-C , 47-C ) :   1.1435 B( 46-C , 49-C ) :   1.1522 B( 47-C , 48-N ) :   2.9656
B( 49-C , 50-N ) :   2.9522 B( 51-C , 52-C ) :   1.2747 B( 51-C , 58-C ) :   1.4098
B( 52-C , 53-C ) :   0.9405 B( 52-C , 55-C ) :   1.4257 B( 53-C , 54-O ) :   2.2004
B( 55-C , 56-C ) :   1.2437 B( 55-C , 85-H ) :   1.0166 B( 56-C , 57-C ) :   1.3071
B( 56-C , 61-C ) :   1.1628 B( 57-C , 58-C ) :   1.3295 B( 57-C , 59-S ) :   1.0857
B( 58-C , 86-H ) :   0.9790 B( 59-S , 60-C ) :   1.0859 B( 60-C , 61-C ) :   1.6194
B( 60-C , 62-Br) :   1.0179 B( 61-C , 87-H ) :   0.9999

-----------------------------------------------------------------------------
         ABSORPTION SPECTRUM VIA TRANSITION ELECTRIC DIPOLE MOMENTS
-----------------------------------------------------------------------------
State   Energy  Wavelength   fosc         T2         TX        TY        TZ
        (cm-1)    (nm)                  (au**2)     (au)      (au)      (au)
-----------------------------------------------------------------------------
   0   15459.2    646.9   1.304980828  27.79020  -5.13625   0.53320  -1.06060
   1   17587.4    568.6   1.327364877  24.84648  -2.69534  -2.40384  -3.43557
   2   20155.5    496.1   0.432942817   7.07150  -1.68554   1.56126   1.33900
   3   22214.8    450.1   0.294638847   4.36639   1.39857  -0.85593   1.29529
   4   23539.3    424.8   0.156440727   2.18792  -0.27980  -0.32788  -1.41496
   5   24587.6    406.7   0.020990453   0.28105   0.01010   0.14552   0.50968
   6   24920.4    401.3   0.218730665   2.88955  -0.85909   0.99902   1.07400
   7   25760.6    388.2   0.033875837   0.43292  -0.45706   0.32527   0.34383
   8   26547.2    376.7   0.147279676   1.82641   0.15785   0.59662   1.20231
   9   27367.4    365.4   0.165698225   1.99324  -1.01767   0.96939   0.13362
  10   27660.6    361.5   0.054394316   0.64739   0.58545   0.11284   0.54028
  11   27736.7    360.5   0.106466882   1.26367   0.84200  -0.68527  -0.29174
  12   28387.1    352.3   0.333257717   3.86486  -1.72793   0.89449  -0.28108
  13   28995.6    344.9   0.000043702   0.00050   0.01703   0.00033   0.01436
  14   29357.5    340.6   0.106241327   1.19138   0.44165  -0.63343  -0.77142
  15   29563.9    338.3   0.143249064   1.59517   0.14880   0.42733   1.17916
  16   30001.3    333.3   0.011464749   0.12581  -0.23695   0.03980  -0.26091
  17   31268.2    319.8   0.008297334   0.08736  -0.16759  -0.17410  -0.17018
  18   31909.3    313.4   0.074224933   0.76579  -0.56607   0.53077   0.40452
  19   32115.9    311.4   0.000295747   0.00303  -0.01532   0.00995  -0.05194
  20   32193.0    310.6   0.188010097   1.92263  -0.05056   0.58515   1.25605
  21   32478.9    307.9   0.076327743   0.77367   0.69219  -0.51721  -0.16444
  22   32858.3    304.3   0.178721582   1.79063   1.12328  -0.71543   0.13052
  23   33134.7    301.8   0.112749182   1.12023  -0.84516   0.44384  -0.45709
  24   33423.3    299.2   0.271848332   2.67764  -1.25679   0.53693  -0.89990
  25   33443.0    299.0   0.103729283   1.02111  -0.86586   0.45469  -0.25426
  26   34083.5    293.4   0.084780785   0.81890  -0.42845   0.59154   0.53424
  27   34911.9    286.4   0.071820916   0.67726  -0.79241   0.07299  -0.20981
  28   35383.1    282.6   0.068834297   0.64045  -0.05561  -0.14687  -0.78472
  29   35872.8    278.8   0.021939060   0.20134   0.31076  -0.24736  -0.20876
  30   36366.1    275.0   0.003558321   0.03221   0.06927  -0.11806   0.11609
  31   36838.7    271.5   0.010025325   0.08959  -0.27909   0.06158  -0.08892
  32   37416.8    267.3   0.136539945   1.20135  -0.43427   0.45819   0.89600
  33   37748.6    264.9   0.022792860   0.19878  -0.07029  -0.08005  -0.43293
  34   37954.8    263.5   0.061565426   0.53401  -0.02404   0.25554   0.68420
  35   38432.0    260.2   0.009928685   0.08505   0.14441   0.07718   0.24133
  36   38623.6    258.9   0.165063008   1.40693   0.27882  -0.56953  -1.00241
  37   38849.8    257.4   0.149054825   1.26309  -0.29780   0.42071   0.99870
  38   38996.1    256.4   0.024482156   0.20668  -0.16270  -0.13101  -0.40379
  39   39522.6    253.0   0.024641118   0.20525  -0.19940  -0.18206  -0.36379
  40   40172.8    248.9   0.029125761   0.23868  -0.36174   0.08698  -0.31664

FINAL SINGLE POINT ENERGY     -7393.558097566824

DIPOLE MOMENT
-------------
                                X             Y             Z
Electronic contribution:   -209.92163      85.97204      -5.54403
Nuclear contribution   :    213.09814     -86.13605       5.52689
                        -----------------------------------------
Total Dipole Moment    :      3.17651      -0.16401      -0.01714
                        -----------------------------------------
Magnitude (a.u.)       :      3.18079
Magnitude (Debye)      :      8.08492

Rotational constants in cm-1:     0.001087     0.000187     0.000162
Rotational constants in MHz :    32.585192     5.602987     4.852745

                             ****ORCA TERMINATED NORMALLY****
TOTAL RUN TIME: 0 days 0 hours 6 minutes 41 seconds 429 msec
