                         Program Version 4.2.0 -  RELEASE  -
|  1> # ORCA input file
|  2> # SCF done       -163.372433518959          0.000968225461
|  3> ! CAM-B3LYP def2-SVP def2/J RIJCOSX Grid4 TightSCF
|  4> %maxcore 5000
|  5> %tddft
|  6>     Mode sTDDFT
|  7>     Ethresh 5.0
|  8>     maxcore 5000
|  9> end
| 10>
| 11> %pal
| 12>   nprocs 6
| 13>   end
| 14> * xyz 0 1
| 15>    C        8.80637        -1.97688        -5.27510
| 16>    C        8.27644        -1.66960        -4.08363
| 17>    C        8.00157        -0.36348        -3.55507
| 18>    C        7.45988        -0.36459        -2.31778
| 19>    C        7.26263        -1.66176        -1.76473
| 20>    S        7.79595        -2.89034        -2.89365
| 21>    C        6.73775        -1.97323        -0.53438
| 22>    C        6.27353        -1.08321         0.46770
| 23>    C        5.81625        -1.70079         1.58580
| 24>    C        5.89302        -3.12006         1.54299
| 25>    S        6.56245        -3.63175         0.00179
| 26>    C        5.43815        -3.97089         2.51483
| 27>    C        5.46675        -5.38821         2.47461
| 28>    S        4.02442        -6.20059         2.99301
| 29>    C        4.57287        -7.73891         2.39577
| 30>    C        5.85046        -7.62558         1.83189
| 31>    C        6.39632        -6.30070         1.95328
| 32>    C        7.77369        -6.11422         1.67585
| 33>    S        8.69271        -4.68672         2.17510
| 34>    C        8.47871        -7.12535         1.07192
| 35>    C        7.87218        -8.33897         0.73964
| 36>    C        6.58397        -8.61839         1.12592
| 37>    O        6.06800        -9.82875         0.79239
| 38>    C        3.80747        -8.91939         2.69360
| 39>    S        4.56650       -10.31661         3.42326
| 40>    C        3.05958       -11.12834         3.56070
| 41>    C        2.01850       -10.37016         3.11230
| 42>    N        0.66918       -10.71921         3.19951
| 43>    O       -0.01965       -10.48883         1.99453
| 44>    O        0.43890       -12.01415         3.62389
| 45>    C        2.44165        -9.10326         2.61961
| 46>    N        1.49731        -8.18078         2.09858
| 47>    O        1.82819        -7.69210         0.84612
| 48>    O        1.44427        -7.08199         3.02400
| 49>    C        0.31479        -6.34028         2.90304
| 50>    C        0.26297        -5.12210         3.46064
| 51>    C       -0.87503        -4.26839         3.41768
| 52>    S       -2.28103        -4.76343         2.53192
| 53>    C       -3.15512        -3.30252         2.89465
| 54>    C       -2.32707        -2.41758         3.60035
| 55>    C       -1.05485        -2.98772         3.95400
| 56>    C       -0.17694        -2.20488         4.74950
| 57>    S        1.37876        -2.79269         5.39726
| 58>    C       -0.48981        -0.90343         5.03502
| 59>    C       -1.65608        -0.30606         4.54420
| 60>    C       -2.56854        -1.03941         3.82746
| 61>    O       -3.66848        -0.47784         3.27344
| 62>    C       -4.50538        -3.25775         2.49698
| 63>    C       -5.57900        -2.66792         3.10959
| 64>    C       -6.91439        -2.74484         2.62814
| 65>    C       -7.84614        -2.20368         3.45331
| 66>    C       -7.30823        -1.66353         4.64868
| 67>    S       -5.56756        -1.86195         4.66753
| 68>    C       -7.98726        -1.05152         5.67507
| 69>    C       -9.38879        -0.83709         5.77948
| 70>    C       -9.77653        -0.20895         6.91204
| 71>    C       -8.70280         0.12646         7.80214
| 72>    S       -7.17216        -0.41358         7.09259
| 73>    C       -8.78351         0.74400         8.98893
| 74>    H        9.08185        -1.20276        -5.96935
| 75>    H        8.97159        -2.99562        -5.57416
| 76>    H        8.22533         0.51806        -4.12930
| 77>    H        7.19209         0.52263        -1.77176
| 78>    H        6.29159        -0.01701         0.33019
| 79>    H        5.42461        -1.19337         2.44984
| 80>    H        4.85368        -3.52648         3.31199
| 81>    H        7.78730        -4.22255         3.03667
| 82>    H        9.52392        -6.97666         0.85131
| 83>    H        8.42492        -9.09652         0.20922
| 84>    H        5.13722        -9.88786         1.03862
| 85>    H        3.02765       -12.10218         4.00472
| 86>    H       -0.79102        -9.94702         2.20902
| 87>    H        0.76746       -12.65508         2.96698
| 88>    H        2.72380        -7.30436         0.83998
| 89>    H       -0.48960        -6.78724         2.33405
| 90>    H        1.14902        -4.76455         3.95972
| 91>    H        0.89006        -3.86745         6.01696
| 92>    H        0.19254        -0.31784         5.63158
| 93>    H       -1.83546         0.74292         4.73269
| 94>    H       -3.73457         0.44676         3.54395
| 95>    H       -4.74956        -3.88754         1.64839
| 96>    H       -7.13472        -3.20518         1.68079
| 97>    H       -8.90042        -2.17948         3.24348
| 98>    H      -10.06238        -1.16000         5.00536
| 99>    H      -10.79317         0.03704         7.16289
|100>    H       -9.73580         1.05216         9.38290
|101>    H       -7.91071         0.94814         9.58124
|102> *
|103>
|104>                          ****END OF INPUT****

CARTESIAN COORDINATES (ANGSTROEM)
---------------------------------
  C      8.806370   -1.976880   -5.275100
  C      8.276440   -1.669600   -4.083630
  C      8.001570   -0.363480   -3.555070
  C      7.459880   -0.364590   -2.317780
  C      7.262630   -1.661760   -1.764730
  S      7.795950   -2.890340   -2.893650
  C      6.737750   -1.973230   -0.534380
  C      6.273530   -1.083210    0.467700
  C      5.816250   -1.700790    1.585800
  C      5.893020   -3.120060    1.542990
  S      6.562450   -3.631750    0.001790
  C      5.438150   -3.970890    2.514830
  C      5.466750   -5.388210    2.474610
  S      4.024420   -6.200590    2.993010
  C      4.572870   -7.738910    2.395770
  C      5.850460   -7.625580    1.831890
  C      6.396320   -6.300700    1.953280
  C      7.773690   -6.114220    1.675850
  S      8.692710   -4.686720    2.175100
  C      8.478710   -7.125350    1.071920
  C      7.872180   -8.338970    0.739640
  C      6.583970   -8.618390    1.125920
  O      6.068000   -9.828750    0.792390
  C      3.807470   -8.919390    2.693600
  S      4.566500  -10.316610    3.423260
  C      3.059580  -11.128340    3.560700
  C      2.018500  -10.370160    3.112300
  N      0.669180  -10.719210    3.199510
  O     -0.019650  -10.488830    1.994530
  O      0.438900  -12.014150    3.623890
  C      2.441650   -9.103260    2.619610
  N      1.497310   -8.180780    2.098580
  O      1.828190   -7.692100    0.846120
  O      1.444270   -7.081990    3.024000
  C      0.314790   -6.340280    2.903040
  C      0.262970   -5.122100    3.460640
  C     -0.875030   -4.268390    3.417680
  S     -2.281030   -4.763430    2.531920
  C     -3.155120   -3.302520    2.894650
  C     -2.327070   -2.417580    3.600350
  C     -1.054850   -2.987720    3.954000
  C     -0.176940   -2.204880    4.749500
  S      1.378760   -2.792690    5.397260
  C     -0.489810   -0.903430    5.035020
  C     -1.656080   -0.306060    4.544200
  C     -2.568540   -1.039410    3.827460
  O     -3.668480   -0.477840    3.273440
  C     -4.505380   -3.257750    2.496980
  C     -5.579000   -2.667920    3.109590
  C     -6.914390   -2.744840    2.628140
  C     -7.846140   -2.203680    3.453310
  C     -7.308230   -1.663530    4.648680
  S     -5.567560   -1.861950    4.667530
  C     -7.987260   -1.051520    5.675070
  C     -9.388790   -0.837090    5.779480
  C     -9.776530   -0.208950    6.912040
  C     -8.702800    0.126460    7.802140
  S     -7.172160   -0.413580    7.092590
  C     -8.783510    0.744000    8.988930
  H      9.081850   -1.202760   -5.969350
  H      8.971590   -2.995620   -5.574160
  H      8.225330    0.518060   -4.129300
  H      7.192090    0.522630   -1.771760
  H      6.291590   -0.017010    0.330190
  H      5.424610   -1.193370    2.449840
  H      4.853680   -3.526480    3.311990
  H      7.787300   -4.222550    3.036670
  H      9.523920   -6.976660    0.851310
  H      8.424920   -9.096520    0.209220
  H      5.137220   -9.887860    1.038620
  H      3.027650  -12.102180    4.004720
  H     -0.791020   -9.947020    2.209020
  H      0.767460  -12.655080    2.966980
  H      2.723800   -7.304360    0.839980
  H     -0.489600   -6.787240    2.334050
  H      1.149020   -4.764550    3.959720
  H      0.890060   -3.867450    6.016960
  H      0.192540   -0.317840    5.631580
  H     -1.835460    0.742920    4.732690
  H     -3.734570    0.446760    3.543950
  H     -4.749560   -3.887540    1.648390
  H     -7.134720   -3.205180    1.680790
  H     -8.900420   -2.179480    3.243480
  H    -10.062380   -1.160000    5.005360
  H    -10.793170    0.037040    7.162890
  H     -9.735800    1.052160    9.382900
  H     -7.910710    0.948140    9.581240

 Total Charge           Charge          ....    0
 Multiplicity           Mult            ....    1
 Number of Electrons    NEL             ....  486
 Basis Dimension        Dim             .... 1002

ORBITAL ENERGIES
----------------

  NO   OCC          E(Eh)            E(eV)
   0   2.0000     -88.965672     -2420.8790
   1   2.0000     -88.963652     -2420.8241
   2   2.0000     -88.951272     -2420.4872
   3   2.0000     -88.936034     -2420.0725
   4   2.0000     -88.935194     -2420.0496
   5   2.0000     -88.931559     -2419.9508
   6   2.0000     -88.930127     -2419.9118
   7   2.0000     -88.917979     -2419.5812
   8   2.0000     -88.909004     -2419.3370
   9   2.0000     -19.272432      -524.4295
  10   2.0000     -19.252480      -523.8866
  11   2.0000     -19.250926      -523.8443
  12   2.0000     -19.247034      -523.7384
  13   2.0000     -19.244950      -523.6817
  14   2.0000     -19.234625      -523.4008
  15   2.0000     -14.518408      -395.0660
  16   2.0000     -14.513939      -394.9444
  17   2.0000     -10.333583      -281.1911
  18   2.0000     -10.326156      -280.9890
  19   2.0000     -10.322375      -280.8861
  20   2.0000     -10.322202      -280.8814
  21   2.0000     -10.317434      -280.7517
  22   2.0000     -10.314308      -280.6666
  23   2.0000     -10.310925      -280.5745
  24   2.0000     -10.307987      -280.4946
  25   2.0000     -10.307100      -280.4705
  26   2.0000     -10.305590      -280.4294
  27   2.0000     -10.303852      -280.3821
  28   2.0000     -10.302848      -280.3548
  29   2.0000     -10.299845      -280.2730
  30   2.0000     -10.298898      -280.2473
  31   2.0000     -10.298823      -280.2452
  32   2.0000     -10.298457      -280.2353
  33   2.0000     -10.298264      -280.2300
  34   2.0000     -10.297143      -280.1995
  35   2.0000     -10.295424      -280.1527
  36   2.0000     -10.289102      -279.9807
  37   2.0000     -10.287478      -279.9365
  38   2.0000     -10.287344      -279.9329
  39   2.0000     -10.287263      -279.9306
  40   2.0000     -10.285294      -279.8771
  41   2.0000     -10.284181      -279.8468
  42   2.0000     -10.283001      -279.8147
  43   2.0000     -10.281840      -279.7831
  44   2.0000     -10.280012      -279.7333
  45   2.0000     -10.279713      -279.7252
  46   2.0000     -10.279219      -279.7118
  47   2.0000     -10.277095      -279.6540
  48   2.0000     -10.276908      -279.6489
  49   2.0000     -10.276315      -279.6327
  50   2.0000     -10.275954      -279.6229
  51   2.0000     -10.275063      -279.5987
  52   2.0000     -10.268316      -279.4151
  53   2.0000     -10.268276      -279.4140
  54   2.0000     -10.262784      -279.2645
  55   2.0000     -10.261447      -279.2282
  56   2.0000     -10.260191      -279.1940
  57   2.0000     -10.259122      -279.1649
  58   2.0000     -10.255510      -279.0666
  59   2.0000      -8.061102      -219.3537
  60   2.0000      -8.058015      -219.2697
  61   2.0000      -8.047097      -218.9726
  62   2.0000      -8.032039      -218.5629
  63   2.0000      -8.031817      -218.5568
  64   2.0000      -8.027449      -218.4380
  65   2.0000      -8.026752      -218.4190
  66   2.0000      -8.012837      -218.0404
  67   2.0000      -8.004420      -217.8113
  68   2.0000      -6.030503      -164.0983
  69   2.0000      -6.027107      -164.0059
  70   2.0000      -6.026181      -163.9807
  71   2.0000      -6.023095      -163.8968
  72   2.0000      -6.022794      -163.8885
  73   2.0000      -6.020708      -163.8318
  74   2.0000      -6.016066      -163.7055
  75   2.0000      -6.012177      -163.5997
  76   2.0000      -6.009585      -163.5291
  77   2.0000      -6.001865      -163.3190
  78   2.0000      -6.001651      -163.3132
  79   2.0000      -5.997927      -163.2119
  80   2.0000      -5.997588      -163.2027
  81   2.0000      -5.997255      -163.1936
  82   2.0000      -5.996585      -163.1754
  83   2.0000      -5.993158      -163.0821
  84   2.0000      -5.992684      -163.0692
  85   2.0000      -5.992547      -163.0655
  86   2.0000      -5.992519      -163.0647
  87   2.0000      -5.988270      -162.9491
  88   2.0000      -5.987283      -162.9223
  89   2.0000      -5.983120      -162.8090
  90   2.0000      -5.979379      -162.7072
  91   2.0000      -5.974725      -162.5805
  92   2.0000      -5.972777      -162.5275
  93   2.0000      -5.970773      -162.4730
  94   2.0000      -5.964359      -162.2985
  95   2.0000      -1.222709       -33.2716
  96   2.0000      -1.210940       -32.9514
  97   2.0000      -1.143287       -31.1104
  98   2.0000      -1.131841       -30.7990
  99   2.0000      -1.115302       -30.3489
 100   2.0000      -1.092190       -29.7200
 101   2.0000      -1.007487       -27.4151
 102   2.0000      -0.992307       -27.0020
 103   2.0000      -0.987759       -26.8783
 104   2.0000      -0.985934       -26.8286
 105   2.0000      -0.981401       -26.7053
 106   2.0000      -0.965088       -26.2614
 107   2.0000      -0.959378       -26.1060
 108   2.0000      -0.929700       -25.2984
 109   2.0000      -0.928204       -25.2577
 110   2.0000      -0.922091       -25.0914
 111   2.0000      -0.908107       -24.7108
 112   2.0000      -0.892842       -24.2955
 113   2.0000      -0.889631       -24.2081
 114   2.0000      -0.871810       -23.7232
 115   2.0000      -0.870023       -23.6745
 116   2.0000      -0.853486       -23.2245
 117   2.0000      -0.850633       -23.1469
 118   2.0000      -0.842698       -22.9310
 119   2.0000      -0.840844       -22.8805
 120   2.0000      -0.835314       -22.7300
 121   2.0000      -0.832545       -22.6547
 122   2.0000      -0.829041       -22.5594
 123   2.0000      -0.823804       -22.4168
 124   2.0000      -0.814191       -22.1553
 125   2.0000      -0.810613       -22.0579
 126   2.0000      -0.802989       -21.8504
 127   2.0000      -0.790070       -21.4989
 128   2.0000      -0.785469       -21.3737
 129   2.0000      -0.778278       -21.1780
 130   2.0000      -0.774406       -21.0727
 131   2.0000      -0.756542       -20.5865
 132   2.0000      -0.750167       -20.4131
 133   2.0000      -0.722126       -19.6500
 134   2.0000      -0.718800       -19.5596
 135   2.0000      -0.704303       -19.1651
 136   2.0000      -0.698527       -19.0079
 137   2.0000      -0.697388       -18.9769
 138   2.0000      -0.690173       -18.7806
 139   2.0000      -0.680866       -18.5273
 140   2.0000      -0.676446       -18.4070
 141   2.0000      -0.674971       -18.3669
 142   2.0000      -0.671675       -18.2772
 143   2.0000      -0.656819       -17.8730
 144   2.0000      -0.653340       -17.7783
 145   2.0000      -0.648829       -17.6555
 146   2.0000      -0.646501       -17.5922
 147   2.0000      -0.643869       -17.5206
 148   2.0000      -0.633412       -17.2360
 149   2.0000      -0.626577       -17.0500
 150   2.0000      -0.620505       -16.8848
 151   2.0000      -0.615876       -16.7588
 152   2.0000      -0.610976       -16.6255
 153   2.0000      -0.603139       -16.4122
 154   2.0000      -0.596641       -16.2354
 155   2.0000      -0.595951       -16.2167
 156   2.0000      -0.591395       -16.0927
 157   2.0000      -0.589825       -16.0499
 158   2.0000      -0.587824       -15.9955
 159   2.0000      -0.578136       -15.7319
 160   2.0000      -0.564409       -15.3583
 161   2.0000      -0.560095       -15.2410
 162   2.0000      -0.554956       -15.1011
 163   2.0000      -0.550705       -14.9855
 164   2.0000      -0.549245       -14.9457
 165   2.0000      -0.544550       -14.8180
 166   2.0000      -0.538863       -14.6632
 167   2.0000      -0.532309       -14.4849
 168   2.0000      -0.527294       -14.3484
 169   2.0000      -0.525115       -14.2891
 170   2.0000      -0.519782       -14.1440
 171   2.0000      -0.517120       -14.0715
 172   2.0000      -0.512768       -13.9531
 173   2.0000      -0.510036       -13.8788
 174   2.0000      -0.508303       -13.8316
 175   2.0000      -0.506824       -13.7914
 176   2.0000      -0.503704       -13.7065
 177   2.0000      -0.503104       -13.6902
 178   2.0000      -0.500993       -13.6327
 179   2.0000      -0.498042       -13.5524
 180   2.0000      -0.491689       -13.3795
 181   2.0000      -0.490228       -13.3398
 182   2.0000      -0.490038       -13.3346
 183   2.0000      -0.485676       -13.2159
 184   2.0000      -0.484265       -13.1775
 185   2.0000      -0.481350       -13.0982
 186   2.0000      -0.480036       -13.0624
 187   2.0000      -0.479308       -13.0426
 188   2.0000      -0.473181       -12.8759
 189   2.0000      -0.471667       -12.8347
 190   2.0000      -0.470630       -12.8065
 191   2.0000      -0.467964       -12.7340
 192   2.0000      -0.463640       -12.6163
 193   2.0000      -0.461889       -12.5686
 194   2.0000      -0.460083       -12.5195
 195   2.0000      -0.455115       -12.3843
 196   2.0000      -0.453981       -12.3534
 197   2.0000      -0.452984       -12.3263
 198   2.0000      -0.449853       -12.2411
 199   2.0000      -0.447137       -12.1672
 200   2.0000      -0.445080       -12.1112
 201   2.0000      -0.438605       -11.9350
 202   2.0000      -0.438307       -11.9269
 203   2.0000      -0.427917       -11.6442
 204   2.0000      -0.425831       -11.5875
 205   2.0000      -0.424822       -11.5600
 206   2.0000      -0.419997       -11.4287
 207   2.0000      -0.419015       -11.4020
 208   2.0000      -0.415399       -11.3036
 209   2.0000      -0.413855       -11.2616
 210   2.0000      -0.411475       -11.1968
 211   2.0000      -0.408987       -11.1291
 212   2.0000      -0.408770       -11.1232
 213   2.0000      -0.407077       -11.0771
 214   2.0000      -0.396760       -10.7964
 215   2.0000      -0.395497       -10.7620
 216   2.0000      -0.391255       -10.6466
 217   2.0000      -0.391083       -10.6419
 218   2.0000      -0.385302       -10.4846
 219   2.0000      -0.383809       -10.4440
 220   2.0000      -0.382911       -10.4195
 221   2.0000      -0.380655       -10.3581
 222   2.0000      -0.366074        -9.9614
 223   2.0000      -0.357613        -9.7311
 224   2.0000      -0.347801        -9.4641
 225   2.0000      -0.344206        -9.3663
 226   2.0000      -0.331605        -9.0234
 227   2.0000      -0.330041        -8.9809
 228   2.0000      -0.328462        -8.9379
 229   2.0000      -0.322213        -8.7679
 230   2.0000      -0.316433        -8.6106
 231   2.0000      -0.313908        -8.5419
 232   2.0000      -0.310416        -8.4469
 233   2.0000      -0.309672        -8.4266
 234   2.0000      -0.304705        -8.2914
 235   2.0000      -0.301662        -8.2086
 236   2.0000      -0.289735        -7.8841
 237   2.0000      -0.281678        -7.6649
 238   2.0000      -0.274847        -7.4790
 239   2.0000      -0.244384        -6.6500
 240   2.0000      -0.244184        -6.6446
 241   2.0000      -0.208381        -5.6703
 242   2.0000      -0.197014        -5.3610
 243   0.0000      -0.071103        -1.9348
 244   0.0000      -0.064599        -1.7578
 245   0.0000      -0.031880        -0.8675
 246   0.0000      -0.017236        -0.4690
 247   0.0000       0.005339         0.1453

MULLIKEN ATOMIC CHARGES
-----------------------
   0 C :   -0.027533
   1 C :   -0.065923
   2 C :    0.054471
   3 C :    0.029833
   4 C :   -0.062893
   5 S :    0.086954
   6 C :   -0.056640
   7 C :    0.031924
   8 C :    0.037526
   9 C :   -0.030120
  10 S :    0.121390
  11 C :   -0.050277
  12 C :   -0.186408
  13 S :    0.203252
  14 C :   -0.300027
  15 C :    0.127610
  16 C :    0.111525
  17 C :   -0.133123
  18 S :    0.019260
  19 C :    0.035763
  20 C :   -0.035728
  21 C :    0.081147
  22 O :   -0.179020
  23 C :   -0.261715
  24 S :    0.169582
  25 C :   -0.188957
  26 C :    0.199901
  27 N :    0.023842
  28 O :   -0.214549
  29 O :   -0.209288
  30 C :    0.213766
  31 N :   -0.001488
  32 O :   -0.195469
  33 O :   -0.244110
  34 C :    0.135748
  35 C :    0.001599
  36 C :   -0.142700
  37 S :    0.121323
  38 C :   -0.163004
  39 C :    0.094896
  40 C :    0.134442
  41 C :   -0.158593
  42 S :    0.003028
  43 C :    0.035737
  44 C :   -0.076914
  45 C :    0.118460
  46 O :   -0.169833
  47 C :   -0.003208
  48 C :   -0.006896
  49 C :    0.029321
  50 C :    0.026855
  51 C :   -0.058615
  52 S :    0.092372
  53 C :   -0.072377
  54 C :    0.029880
  55 C :    0.045924
  56 C :   -0.060455
  57 S :    0.069386
  58 C :   -0.034737
  59 H :    0.020054
  60 H :    0.023509
  61 H :   -0.011715
  62 H :   -0.012181
  63 H :   -0.013653
  64 H :   -0.010332
  65 H :    0.001332
  66 H :    0.072231
  67 H :   -0.019347
  68 H :   -0.020287
  69 H :    0.179125
  70 H :    0.013297
  71 H :    0.196275
  72 H :    0.169630
  73 H :    0.183008
  74 H :    0.009277
  75 H :   -0.016865
  76 H :    0.065074
  77 H :   -0.021755
  78 H :   -0.042484
  79 H :    0.182972
  80 H :   -0.012745
  81 H :   -0.016645
  82 H :   -0.018677
  83 H :   -0.014151
  84 H :   -0.015042
  85 H :    0.015799
  86 H :    0.018180
Sum of atomic charges:   -0.0000000

LOEWDIN ATOMIC CHARGES
----------------------
   0 C :   -0.073554
   1 C :   -0.139735
   2 C :   -0.029135
   3 C :   -0.026847
   4 C :   -0.171074
   5 S :    0.356872
   6 C :   -0.183515
   7 C :   -0.025504
   8 C :   -0.037232
   9 C :   -0.136722
  10 S :    0.394875
  11 C :   -0.115311
  12 C :   -0.180302
  13 S :    0.513489
  14 C :   -0.248013
  15 C :   -0.062647
  16 C :   -0.073011
  17 C :   -0.173334
  18 S :    0.218320
  19 C :   -0.039921
  20 C :   -0.056559
  21 C :    0.043901
  22 O :   -0.048848
  23 C :   -0.208627
  24 S :    0.470883
  25 C :   -0.223033
  26 C :   -0.046534
  27 N :    0.084172
  28 O :   -0.088610
  29 O :   -0.080675
  30 C :   -0.075073
  31 N :    0.087048
  32 O :   -0.077619
  33 O :   -0.084050
  34 C :    0.040005
  35 C :   -0.107330
  36 C :   -0.168076
  37 S :    0.459461
  38 C :   -0.168871
  39 C :   -0.069403
  40 C :   -0.058085
  41 C :   -0.180846
  42 S :    0.214133
  43 C :   -0.031107
  44 C :   -0.102619
  45 C :    0.058599
  46 O :   -0.037904
  47 C :   -0.083752
  48 C :   -0.140750
  49 C :   -0.032284
  50 C :   -0.040243
  51 C :   -0.181515
  52 S :    0.390550
  53 C :   -0.183777
  54 C :   -0.026898
  55 C :   -0.037910
  56 C :   -0.138502
  57 S :    0.342782
  58 C :   -0.085052
  59 H :    0.028834
  60 H :    0.027024
  61 H :    0.033413
  62 H :    0.032256
  63 H :    0.031361
  64 H :    0.033921
  65 H :    0.033703
  66 H :   -0.023350
  67 H :    0.028691
  68 H :    0.034186
  69 H :    0.064452
  70 H :    0.024324
  71 H :    0.081718
  72 H :    0.064838
  73 H :    0.057936
  74 H :    0.008458
  75 H :    0.014820
  76 H :   -0.024568
  77 H :    0.027620
  78 H :    0.024061
  79 H :    0.094779
  80 H :    0.031590
  81 H :    0.031371
  82 H :    0.029304
  83 H :    0.031378
  84 H :    0.031706
  85 H :    0.026886
  86 H :    0.024610

  Mayer bond orders larger than 0.100000
B(  0-C ,  1-C ) :   1.8660 B(  0-C , 59-H ) :   0.9503 B(  0-C , 60-H ) :   0.9416
B(  1-C ,  2-C ) :   1.0792 B(  1-C ,  5-S ) :   1.0072 B(  2-C ,  3-C ) :   1.6625
B(  2-C , 61-H ) :   0.9927 B(  3-C ,  4-C ) :   1.1518 B(  3-C , 62-H ) :   0.9917
B(  4-C ,  5-S ) :   1.0496 B(  4-C ,  6-C ) :   1.5552 B(  6-C ,  7-C ) :   1.1634
B(  6-C , 10-S ) :   1.0436 B(  7-C ,  8-C ) :   1.6137 B(  7-C , 63-H ) :   0.9934
B(  8-C ,  9-C ) :   1.1294 B(  8-C , 64-H ) :   0.9990 B(  9-C , 10-S ) :   1.0630
B(  9-C , 11-C ) :   1.6144 B( 11-C , 12-C ) :   1.1038 B( 11-C , 65-H ) :   0.9488
B( 12-C , 13-S ) :   1.1528 B( 12-C , 14-C ) :   0.1236 B( 12-C , 16-C ) :   1.3314
B( 13-S , 14-C ) :   1.1664 B( 14-C , 15-C ) :   1.3304 B( 14-C , 23-C ) :   1.0522
B( 15-C , 16-C ) :   1.2227 B( 15-C , 21-C ) :   1.1147 B( 16-C , 17-C ) :   1.2177
B( 17-C , 18-S ) :   1.0547 B( 17-C , 19-C ) :   1.5154 B( 18-S , 66-H ) :   0.9421
B( 19-C , 20-C ) :   1.2298 B( 19-C , 67-H ) :   0.9822 B( 20-C , 21-C ) :   1.5146
B( 20-C , 68-H ) :   0.9884 B( 21-C , 22-O ) :   1.2552 B( 22-O , 69-H ) :   0.9531
B( 23-C , 24-S ) :   1.1745 B( 23-C , 30-C ) :   1.4589 B( 24-S , 25-C ) :   1.1092
B( 25-C , 26-C ) :   1.5252 B( 25-C , 70-H ) :   0.9720 B( 26-C , 27-N ) :   1.0218
B( 26-C , 30-C ) :   1.3107 B( 27-N , 28-O ) :   0.9822 B( 27-N , 29-O ) :   0.9927
B( 28-O , 71-H ) :   0.9642 B( 29-O , 72-H ) :   0.9496 B( 30-C , 31-N ) :   1.0010
B( 31-N , 32-O ) :   0.9921 B( 31-N , 33-O ) :   0.8994 B( 32-O , 73-H ) :   0.9499
B( 33-O , 34-C ) :   1.0419 B( 34-C , 35-C ) :   1.7157 B( 34-C , 74-H ) :   0.9728
B( 35-C , 36-C ) :   1.1457 B( 35-C , 75-H ) :   0.9392 B( 36-C , 37-S ) :   1.1324
B( 36-C , 40-C ) :   1.3980 B( 37-S , 38-C ) :   1.1402 B( 38-C , 39-C ) :   1.3435
B( 38-C , 47-C ) :   1.1585 B( 39-C , 40-C ) :   1.2163 B( 39-C , 45-C ) :   1.1905
B( 40-C , 41-C ) :   1.1892 B( 41-C , 42-S ) :   1.0202 B( 41-C , 43-C ) :   1.5690
B( 42-S , 76-H ) :   0.9479 B( 43-C , 44-C ) :   1.2066 B( 43-C , 77-H ) :   0.9800
B( 44-C , 45-C ) :   1.4561 B( 44-C , 78-H ) :   0.9851 B( 45-C , 46-O ) :   1.2360
B( 46-O , 79-H ) :   0.9517 B( 47-C , 48-C ) :   1.6244 B( 47-C , 80-H ) :   0.9421
B( 48-C , 49-C ) :   1.1401 B( 48-C , 52-S ) :   1.0351 B( 49-C , 50-C ) :   1.6093
B( 49-C , 81-H ) :   0.9970 B( 50-C , 51-C ) :   1.1632 B( 50-C , 82-H ) :   0.9928
B( 51-C , 52-S ) :   1.0566 B( 51-C , 53-C ) :   1.5505 B( 53-C , 54-C ) :   1.1570
B( 53-C , 57-S ) :   1.0371 B( 54-C , 55-C ) :   1.6560 B( 54-C , 83-H ) :   0.9916
B( 55-C , 56-C ) :   1.0815 B( 55-C , 84-H ) :   0.9933 B( 56-C , 57-S ) :   1.0080
B( 56-C , 58-C ) :   1.8608 B( 58-C , 85-H ) :   0.9506 B( 58-C , 86-H ) :   0.9419

-----------------------------------------------------------------------------
         ABSORPTION SPECTRUM VIA TRANSITION ELECTRIC DIPOLE MOMENTS
-----------------------------------------------------------------------------
State   Energy  Wavelength   fosc         T2         TX        TY        TZ
        (cm-1)    (nm)                  (au**2)     (au)      (au)      (au)
-----------------------------------------------------------------------------
   0   14568.3    686.4   1.121523254  25.34391  -3.86308  -0.98544   3.07399
   1   15142.2    660.4   0.746343206  16.22655  -2.27005   3.32364  -0.16389
   2   16983.7    588.8   0.001863048   0.03611  -0.09041  -0.09371   0.13841
   3   20482.3    488.2   0.110892787   1.78238  -0.63935  -0.61108   1.00010
   4   21897.5    456.7   0.009942030   0.14947  -0.00807   0.36470   0.12807
   5   22068.6    453.1   0.019237814   0.28698   0.05613   0.16255  -0.50736
   6   22939.7    435.9   0.230387956   3.30634  -0.16420   0.06575  -1.80971
   7   25228.7    396.4   0.020538181   0.26801   0.12072  -0.12950   0.48648
   8   25843.3    386.9   0.310843171   3.95975  -0.04258   0.27667   1.97013
   9   27639.9    361.8   0.150712287   1.79510  -0.63275  -1.15574   0.24289
  10   27798.8    359.7   0.033352182   0.39498   0.37803   0.44205  -0.23804
  11   29535.7    338.6   0.280787401   3.12972   0.93752  -0.53136  -1.40301
  12   29768.8    335.9   0.052090343   0.57606   0.56604  -0.50186   0.06162
  13   29885.7    334.6   0.004181734   0.04606   0.15541   0.02210   0.14637
  14   30253.8    330.5   0.059778526   0.65049   0.53243   0.04133  -0.60440
  15   30924.7    323.4   0.043886115   0.46719  -0.40280  -0.39736   0.38348
  16   31397.3    318.5   0.027554254   0.28892   0.01654   0.36862   0.39085
  17   32198.1    310.6   0.000672394   0.00687   0.04594  -0.03979  -0.05640
  18   32358.4    309.0   0.016207333   0.16489  -0.38942  -0.10261   0.05213
  19   32801.7    304.9   0.004692008   0.04709  -0.09536  -0.14177  -0.13379
  20   32852.7    304.4   0.104522037   1.04740   0.18184  -0.65104  -0.76842
  21   33178.5    301.4   0.008781908   0.08714   0.01805  -0.25723  -0.14369
  22   33672.2    297.0   0.003426913   0.03350   0.08445  -0.14669  -0.06967
  23   33971.2    294.4   0.064252508   0.62267  -0.07857  -0.60986  -0.49453
  24   34228.8    292.2   0.183453538   1.76445  -0.46673   1.06000   0.65040
  25   34812.6    287.3   0.005756908   0.05444  -0.00742   0.22551  -0.05943
  26   35353.0    282.9   0.056201715   0.52336   0.64993  -0.26807  -0.17054
  27   35449.0    282.1   0.015092786   0.14017   0.27801   0.00955  -0.25057
  28   35611.0    280.8   0.006430733   0.05945  -0.22846  -0.05891   0.06153
  29   36070.1    277.2   0.003626414   0.03310  -0.08431  -0.06678   0.14673
  30   36501.0    274.0   0.024133471   0.21767   0.34728   0.21837  -0.22220
  31   36643.5    272.9   0.010389412   0.09334   0.06207  -0.29731   0.03305
  32   37140.5    269.2   0.160986816   1.42698  -0.42058   1.07530   0.30632
  33   37601.4    265.9   0.099078159   0.86746   0.90725   0.21043   0.00879
  34   37926.7    263.7   0.033778607   0.29321   0.22715  -0.01767  -0.49122
  35   38537.1    259.5   0.002896840   0.02475   0.11978  -0.05059  -0.08854
  36   38717.7    258.3   0.065024484   0.55290  -0.17209  -0.36997   0.62161
  37   38851.4    257.4   0.037251439   0.31565  -0.12001   0.49067   0.24596
  38   38967.1    256.6   0.030465853   0.25739   0.08361  -0.48987  -0.10211
  39   39200.5    255.1   0.046534960   0.39081   0.21094   0.58848   0.00232
  40   39239.4    254.8   0.132624422   1.11270  -0.97610   0.29241   0.27279
  41   39840.6    251.0   0.096428695   0.79681  -0.07833  -0.88716  -0.06012
  42   39979.0    250.1   0.178928901   1.47341   0.19400  -0.78804  -0.90265
  43   40043.8    249.7   0.156114908   1.28347  -0.09724   0.68978   0.89343

FINAL SINGLE POINT ENERGY     -5757.723545707700

DIPOLE MOMENT
-------------
                                X             Y             Z
Electronic contribution:     12.64640     -18.71326       3.24456
Nuclear contribution   :    -13.65520      20.27560      -3.78051
                        -----------------------------------------
Total Dipole Moment    :     -1.00880       1.56234      -0.53596
                        -----------------------------------------
Magnitude (a.u.)       :      1.93541
Magnitude (Debye)      :      4.91943

Rotational constants in cm-1:     0.001421     0.000454     0.000378
Rotational constants in MHz :    42.601357    13.608600    11.332031

                             ****ORCA TERMINATED NORMALLY****
TOTAL RUN TIME: 0 days 0 hours 7 minutes 11 seconds 348 msec
