                         Program Version 4.2.0 -  RELEASE  -
|  1> # ORCA input file
|  2> # SCF done       -177.283282128484          0.000598989299
|  3> ! CAM-B3LYP def2-SVP def2/J RIJCOSX Grid4 TightSCF
|  4> %maxcore 5000
|  5> %tddft
|  6>     Mode sTDDFT
|  7>     Ethresh 5.0
|  8>     maxcore 5000
|  9> end
| 10>
| 11> %pal
| 12>   nprocs 6
| 13>   end
| 14> * xyz 0 1
| 15>    C       -1.93507         1.60256         6.09478
| 16>    C       -1.52633         2.10461         4.88666
| 17>    C       -1.91495         3.36266         4.38631
| 18>    N       -2.21427         4.37189         3.92866
| 19>    C       -0.58583         1.44699         4.06616
| 20>    N        0.22027         0.96174         3.40854
| 21>    C       -2.62494         2.36377         7.13350
| 22>    C       -2.38362         1.74979         8.37642
| 23>    C       -2.87539         2.28150         9.55088
| 24>    C       -3.63410         3.44383         9.48171
| 25>    C       -3.88840         4.05135         8.24728
| 26>    C       -3.38180         3.52003         7.06592
| 27>   Cl       -4.84136         5.47798         8.17828
| 28>   Cl       -4.26313         4.13529        10.92286
| 29>    C       -1.57990         0.52220         8.17370
| 30>    O       -1.14485        -0.22894         9.01623
| 31>    C       -1.47799         0.37165         6.70064
| 32>    C       -1.07900        -0.82125         6.17067
| 33>    C       -1.31942        -1.33280         4.87717
| 34>    S       -2.62692        -0.71233         3.89410
| 35>    C       -2.19407        -1.74593         2.60108
| 36>    C       -1.10449        -2.51535         2.86653
| 37>    C       -0.51866        -3.48833         1.89995
| 38>    C       -0.61456        -2.32548         4.19279
| 39>    C        0.51319        -3.07629         4.67923
| 40>    C        0.64031        -3.61938         5.90853
| 41>    C        1.75571        -4.38965         6.35780
| 42>    C        2.98014        -4.41712         5.77953
| 43>    C        4.07486        -5.19207         6.23683
| 44>    C        5.36388        -5.17718         5.73354
| 45>    C        6.20808        -6.06045         6.40599
| 46>    C        5.55118        -6.76687         7.43213
| 47>    S        3.90643        -6.33264         7.57188
| 48>    C        6.48064        -7.63575         8.04831
| 49>    C        7.72934        -7.47539         7.42406
| 50>    C        7.59560        -6.48218         6.36647
| 51>    C        8.57136        -6.05106         5.51461
| 52>    C        8.32119        -5.09074         4.51286
| 53>    N        8.11971        -4.31310         3.69419
| 54>    C        9.89113        -6.54365         5.57494
| 55>    N       10.96460        -6.94492         5.62174
| 56>    C        8.71887        -8.29257         7.96405
| 57>    C        8.23798        -9.08996         8.98964
| 58>    S        6.52533        -8.80805         9.29334
| 59>    C        8.95638       -10.04971         9.75588
| 60>    C        8.34777       -10.88728        10.65976
| 61>    C        9.00343       -11.84767        11.42516
| 62>    C       10.45591       -12.02861        11.33101
| 63>    C       11.25647       -11.31831        10.50830
| 64>    S       10.69274       -10.09072         9.44995
| 65>    C       10.75986       -13.07404        12.24429
| 66>    C        9.59034       -13.53183        12.85822
| 67>    C        9.86322       -14.56500        13.78458
| 68>    C       11.18892       -14.85632        13.84065
| 69>    S       12.16647       -13.89877        12.78210
| 70>    C        8.47522       -12.77412        12.34680
| 71>    C        7.10146       -12.90488        12.65179
| 72>    C        6.53289       -13.86338        13.42520
| 73>    C        5.14375       -13.95825        13.67517
| 74>    C        4.47809       -14.92100        14.40257
| 75>    C        3.06610       -14.75093        14.46321
| 76>    C        2.47073       -15.80033        15.22920
| 77>    C        3.34202       -16.70916        15.72166
| 78>    S        5.00211       -16.33185        15.27156
| 79>    C        3.04409       -17.90870        16.54391
| 80>    F        1.14271       -15.87290        15.43769
| 81>    C        2.64420       -13.64460        13.77822
| 82>    S        3.96606       -12.81383        13.05845
| 83>    H       -2.67374         1.80702        10.49818
| 84>    H       -3.59624         4.00864         6.12920
| 85>    H       -0.57679        -1.47700         6.87146
| 86>    H       -2.77751        -1.72710         1.70118
| 87>    H       -1.12306        -3.53691         0.99843
| 88>    H       -0.46275        -4.48129         2.34347
| 89>    H        0.48951        -3.18074         1.62400
| 90>    H        1.27311        -3.27724         3.93604
| 91>    H       -0.17998        -3.53731         6.60928
| 92>    H        1.59989        -4.97670         7.25465
| 93>    H        3.18928        -3.79750         4.91815
| 94>    H        5.66088        -4.54363         4.91737
| 95>    H        9.74107        -8.32397         7.63239
| 96>    H        7.27562       -10.78368        10.76676
| 97>    H       12.32175       -11.47704        10.45142
| 98>    H        9.13692       -15.07246        14.39209
| 99>    H       11.67194       -15.59218        14.45345
|100>    H        6.43929       -12.17516        12.20173
|101>    H        7.12952       -14.63768        13.88318
|102>    H        1.97370       -17.97123        16.72661
|103>    H        3.56682       -17.85676        17.49869
|104>    H        3.37144       -18.81308        16.03129
|105>    H        1.64736       -13.27354        13.65482
|106> *
|107>
|108>                          ****END OF INPUT****

CARTESIAN COORDINATES (ANGSTROEM)
---------------------------------
  C     -1.935070    1.602560    6.094780
  C     -1.526330    2.104610    4.886660
  C     -1.914950    3.362660    4.386310
  N     -2.214270    4.371890    3.928660
  C     -0.585830    1.446990    4.066160
  N      0.220270    0.961740    3.408540
  C     -2.624940    2.363770    7.133500
  C     -2.383620    1.749790    8.376420
  C     -2.875390    2.281500    9.550880
  C     -3.634100    3.443830    9.481710
  C     -3.888400    4.051350    8.247280
  C     -3.381800    3.520030    7.065920
  Cl    -4.841360    5.477980    8.178280
  Cl    -4.263130    4.135290   10.922860
  C     -1.579900    0.522200    8.173700
  O     -1.144850   -0.228940    9.016230
  C     -1.477990    0.371650    6.700640
  C     -1.079000   -0.821250    6.170670
  C     -1.319420   -1.332800    4.877170
  S     -2.626920   -0.712330    3.894100
  C     -2.194070   -1.745930    2.601080
  C     -1.104490   -2.515350    2.866530
  C     -0.518660   -3.488330    1.899950
  C     -0.614560   -2.325480    4.192790
  C      0.513190   -3.076290    4.679230
  C      0.640310   -3.619380    5.908530
  C      1.755710   -4.389650    6.357800
  C      2.980140   -4.417120    5.779530
  C      4.074860   -5.192070    6.236830
  C      5.363880   -5.177180    5.733540
  C      6.208080   -6.060450    6.405990
  C      5.551180   -6.766870    7.432130
  S      3.906430   -6.332640    7.571880
  C      6.480640   -7.635750    8.048310
  C      7.729340   -7.475390    7.424060
  C      7.595600   -6.482180    6.366470
  C      8.571360   -6.051060    5.514610
  C      8.321190   -5.090740    4.512860
  N      8.119710   -4.313100    3.694190
  C      9.891130   -6.543650    5.574940
  N     10.964600   -6.944920    5.621740
  C      8.718870   -8.292570    7.964050
  C      8.237980   -9.089960    8.989640
  S      6.525330   -8.808050    9.293340
  C      8.956380  -10.049710    9.755880
  C      8.347770  -10.887280   10.659760
  C      9.003430  -11.847670   11.425160
  C     10.455910  -12.028610   11.331010
  C     11.256470  -11.318310   10.508300
  S     10.692740  -10.090720    9.449950
  C     10.759860  -13.074040   12.244290
  C      9.590340  -13.531830   12.858220
  C      9.863220  -14.565000   13.784580
  C     11.188920  -14.856320   13.840650
  S     12.166470  -13.898770   12.782100
  C      8.475220  -12.774120   12.346800
  C      7.101460  -12.904880   12.651790
  C      6.532890  -13.863380   13.425200
  C      5.143750  -13.958250   13.675170
  C      4.478090  -14.921000   14.402570
  C      3.066100  -14.750930   14.463210
  C      2.470730  -15.800330   15.229200
  C      3.342020  -16.709160   15.721660
  S      5.002110  -16.331850   15.271560
  C      3.044090  -17.908700   16.543910
  F      1.142710  -15.872900   15.437690
  C      2.644200  -13.644600   13.778220
  S      3.966060  -12.813830   13.058450
  H     -2.673740    1.807020   10.498180
  H     -3.596240    4.008640    6.129200
  H     -0.576790   -1.477000    6.871460
  H     -2.777510   -1.727100    1.701180
  H     -1.123060   -3.536910    0.998430
  H     -0.462750   -4.481290    2.343470
  H      0.489510   -3.180740    1.624000
  H      1.273110   -3.277240    3.936040
  H     -0.179980   -3.537310    6.609280
  H      1.599890   -4.976700    7.254650
  H      3.189280   -3.797500    4.918150
  H      5.660880   -4.543630    4.917370
  H      9.741070   -8.323970    7.632390
  H      7.275620  -10.783680   10.766760
  H     12.321750  -11.477040   10.451420
  H      9.136920  -15.072460   14.392090
  H     11.671940  -15.592180   14.453450
  H      6.439290  -12.175160   12.201730
  H      7.129520  -14.637680   13.883180
  H      1.973700  -17.971230   16.726610
  H      3.566820  -17.856760   17.498690
  H      3.371440  -18.813080   16.031290
  H      1.647360  -13.273540   13.654820

 Total Charge           Charge          ....    0
 Multiplicity           Mult            ....    1
 Number of Electrons    NEL             ....  532
 Basis Dimension        Dim             .... 1103

ORBITAL ENERGIES
----------------

  NO   OCC          E(Eh)            E(eV)
   0   2.0000    -101.599611     -2764.6660
   1   2.0000    -101.598894     -2764.6465
   2   2.0000     -88.990600     -2421.5573
   3   2.0000     -88.987365     -2421.4693
   4   2.0000     -88.974549     -2421.1206
   5   2.0000     -88.966043     -2420.8891
   6   2.0000     -88.957792     -2420.6646
   7   2.0000     -88.956945     -2420.6415
   8   2.0000     -88.946573     -2420.3593
   9   2.0000     -24.779138      -674.2746
  10   2.0000     -19.218664      -522.9664
  11   2.0000     -14.430434      -392.6721
  12   2.0000     -14.430295      -392.6683
  13   2.0000     -14.417060      -392.3081
  14   2.0000     -14.413712      -392.2170
  15   2.0000     -10.370749      -282.2024
  16   2.0000     -10.364731      -282.0387
  17   2.0000     -10.356169      -281.8057
  18   2.0000     -10.355289      -281.7817
  19   2.0000     -10.351809      -281.6870
  20   2.0000     -10.348647      -281.6010
  21   2.0000     -10.345449      -281.5140
  22   2.0000     -10.343951      -281.4732
  23   2.0000     -10.333295      -281.1832
  24   2.0000     -10.330715      -281.1131
  25   2.0000     -10.330541      -281.1083
  26   2.0000     -10.330519      -281.1077
  27   2.0000     -10.328781      -281.0604
  28   2.0000     -10.327891      -281.0362
  29   2.0000     -10.327161      -281.0163
  30   2.0000     -10.322335      -280.8850
  31   2.0000     -10.320428      -280.8331
  32   2.0000     -10.319082      -280.7965
  33   2.0000     -10.315929      -280.7107
  34   2.0000     -10.315777      -280.7066
  35   2.0000     -10.314829      -280.6808
  36   2.0000     -10.309412      -280.5334
  37   2.0000     -10.308889      -280.5191
  38   2.0000     -10.307345      -280.4771
  39   2.0000     -10.303657      -280.3768
  40   2.0000     -10.302964      -280.3579
  41   2.0000     -10.301771      -280.3254
  42   2.0000     -10.301738      -280.3245
  43   2.0000     -10.300995      -280.3043
  44   2.0000     -10.300966      -280.3035
  45   2.0000     -10.300391      -280.2879
  46   2.0000     -10.300220      -280.2832
  47   2.0000     -10.299497      -280.2636
  48   2.0000     -10.297623      -280.2126
  49   2.0000     -10.297518      -280.2097
  50   2.0000     -10.297237      -280.2021
  51   2.0000     -10.296816      -280.1906
  52   2.0000     -10.296799      -280.1901
  53   2.0000     -10.296003      -280.1685
  54   2.0000     -10.292496      -280.0731
  55   2.0000     -10.290567      -280.0206
  56   2.0000     -10.289280      -279.9855
  57   2.0000     -10.288314      -279.9593
  58   2.0000     -10.287563      -279.9388
  59   2.0000     -10.283960      -279.8408
  60   2.0000     -10.283322      -279.8234
  61   2.0000     -10.278925      -279.7038
  62   2.0000     -10.276932      -279.6495
  63   2.0000     -10.276886      -279.6483
  64   2.0000     -10.276716      -279.6437
  65   2.0000     -10.276589      -279.6402
  66   2.0000     -10.275232      -279.6033
  67   2.0000     -10.274785      -279.5911
  68   2.0000      -9.554615      -259.9943
  69   2.0000      -9.553913      -259.9752
  70   2.0000      -8.084683      -219.9954
  71   2.0000      -8.081960      -219.9213
  72   2.0000      -8.069794      -219.5902
  73   2.0000      -8.061521      -219.3651
  74   2.0000      -8.052908      -219.1308
  75   2.0000      -8.052356      -219.1157
  76   2.0000      -8.042266      -218.8412
  77   2.0000      -7.324993      -199.3232
  78   2.0000      -7.324321      -199.3049
  79   2.0000      -7.314880      -199.0480
  80   2.0000      -7.314163      -199.0285
  81   2.0000      -7.314162      -199.0285
  82   2.0000      -7.313437      -199.0087
  83   2.0000      -6.054016      -164.7382
  84   2.0000      -6.051160      -164.6604
  85   2.0000      -6.049891      -164.6259
  86   2.0000      -6.047049      -164.5486
  87   2.0000      -6.046946      -164.5458
  88   2.0000      -6.044368      -164.4756
  89   2.0000      -6.039509      -164.3434
  90   2.0000      -6.034896      -164.2179
  91   2.0000      -6.031431      -164.1236
  92   2.0000      -6.030876      -164.1085
  93   2.0000      -6.026514      -163.9898
  94   2.0000      -6.023684      -163.9128
  95   2.0000      -6.022230      -163.8732
  96   2.0000      -6.021749      -163.8601
  97   2.0000      -6.018032      -163.7590
  98   2.0000      -6.017538      -163.7455
  99   2.0000      -6.015157      -163.6807
 100   2.0000      -6.014464      -163.6619
 101   2.0000      -6.012212      -163.6006
 102   2.0000      -6.008169      -163.4906
 103   2.0000      -6.002912      -163.3475
 104   2.0000      -1.290350       -35.1122
 105   2.0000      -1.133804       -30.8524
 106   2.0000      -1.043971       -28.4079
 107   2.0000      -1.031291       -28.0629
 108   2.0000      -1.021897       -27.8072
 109   2.0000      -1.016212       -27.6525
 110   2.0000      -1.008172       -27.4337
 111   2.0000      -1.007125       -27.4053
 112   2.0000      -1.002033       -27.2667
 113   2.0000      -1.000570       -27.2269
 114   2.0000      -0.997556       -27.1449
 115   2.0000      -0.991769       -26.9874
 116   2.0000      -0.989950       -26.9379
 117   2.0000      -0.972403       -26.4604
 118   2.0000      -0.961370       -26.1602
 119   2.0000      -0.956256       -26.0211
 120   2.0000      -0.944143       -25.6914
 121   2.0000      -0.934441       -25.4274
 122   2.0000      -0.930018       -25.3071
 123   2.0000      -0.925951       -25.1964
 124   2.0000      -0.911794       -24.8112
 125   2.0000      -0.907162       -24.6851
 126   2.0000      -0.893946       -24.3255
 127   2.0000      -0.885449       -24.0943
 128   2.0000      -0.882793       -24.0220
 129   2.0000      -0.876677       -23.8556
 130   2.0000      -0.866586       -23.5810
 131   2.0000      -0.860597       -23.4180
 132   2.0000      -0.855421       -23.2772
 133   2.0000      -0.848514       -23.0892
 134   2.0000      -0.848104       -23.0781
 135   2.0000      -0.845780       -23.0148
 136   2.0000      -0.830069       -22.5873
 137   2.0000      -0.825768       -22.4703
 138   2.0000      -0.811033       -22.0693
 139   2.0000      -0.797934       -21.7129
 140   2.0000      -0.790163       -21.5014
 141   2.0000      -0.781643       -21.2696
 142   2.0000      -0.774129       -21.0651
 143   2.0000      -0.771378       -20.9903
 144   2.0000      -0.768528       -20.9127
 145   2.0000      -0.760987       -20.7075
 146   2.0000      -0.754758       -20.5380
 147   2.0000      -0.742753       -20.2113
 148   2.0000      -0.724531       -19.7155
 149   2.0000      -0.722094       -19.6492
 150   2.0000      -0.713098       -19.4044
 151   2.0000      -0.699325       -19.0296
 152   2.0000      -0.694502       -18.8984
 153   2.0000      -0.686607       -18.6835
 154   2.0000      -0.684619       -18.6294
 155   2.0000      -0.678614       -18.4660
 156   2.0000      -0.669384       -18.2149
 157   2.0000      -0.658755       -17.9256
 158   2.0000      -0.657529       -17.8923
 159   2.0000      -0.651248       -17.7214
 160   2.0000      -0.648134       -17.6366
 161   2.0000      -0.645355       -17.5610
 162   2.0000      -0.640018       -17.4158
 163   2.0000      -0.626052       -17.0358
 164   2.0000      -0.622695       -16.9444
 165   2.0000      -0.622257       -16.9325
 166   2.0000      -0.619539       -16.8585
 167   2.0000      -0.617991       -16.8164
 168   2.0000      -0.614454       -16.7201
 169   2.0000      -0.605435       -16.4747
 170   2.0000      -0.600021       -16.3274
 171   2.0000      -0.592018       -16.1096
 172   2.0000      -0.589494       -16.0410
 173   2.0000      -0.579935       -15.7808
 174   2.0000      -0.577140       -15.7048
 175   2.0000      -0.570462       -15.5230
 176   2.0000      -0.563638       -15.3374
 177   2.0000      -0.560847       -15.2614
 178   2.0000      -0.552731       -15.0406
 179   2.0000      -0.550869       -14.9899
 180   2.0000      -0.549650       -14.9567
 181   2.0000      -0.546951       -14.8833
 182   2.0000      -0.546798       -14.8791
 183   2.0000      -0.544035       -14.8039
 184   2.0000      -0.542486       -14.7618
 185   2.0000      -0.538097       -14.6424
 186   2.0000      -0.529175       -14.3996
 187   2.0000      -0.524504       -14.2725
 188   2.0000      -0.523929       -14.2568
 189   2.0000      -0.518361       -14.1053
 190   2.0000      -0.514860       -14.0101
 191   2.0000      -0.514541       -14.0014
 192   2.0000      -0.513926       -13.9847
 193   2.0000      -0.512758       -13.9529
 194   2.0000      -0.509857       -13.8739
 195   2.0000      -0.505958       -13.7678
 196   2.0000      -0.504154       -13.7187
 197   2.0000      -0.503102       -13.6901
 198   2.0000      -0.502977       -13.6867
 199   2.0000      -0.498752       -13.5717
 200   2.0000      -0.497781       -13.5453
 201   2.0000      -0.494548       -13.4573
 202   2.0000      -0.493516       -13.4292
 203   2.0000      -0.490825       -13.3560
 204   2.0000      -0.488934       -13.3046
 205   2.0000      -0.486029       -13.2255
 206   2.0000      -0.484307       -13.1787
 207   2.0000      -0.480522       -13.0757
 208   2.0000      -0.477876       -13.0037
 209   2.0000      -0.475853       -12.9486
 210   2.0000      -0.471224       -12.8227
 211   2.0000      -0.468874       -12.7587
 212   2.0000      -0.466463       -12.6931
 213   2.0000      -0.465957       -12.6793
 214   2.0000      -0.461432       -12.5562
 215   2.0000      -0.461199       -12.5499
 216   2.0000      -0.457981       -12.4623
 217   2.0000      -0.455698       -12.4002
 218   2.0000      -0.452592       -12.3156
 219   2.0000      -0.451312       -12.2808
 220   2.0000      -0.450035       -12.2461
 221   2.0000      -0.449081       -12.2201
 222   2.0000      -0.444360       -12.0916
 223   2.0000      -0.441888       -12.0244
 224   2.0000      -0.441329       -12.0092
 225   2.0000      -0.440495       -11.9865
 226   2.0000      -0.439025       -11.9465
 227   2.0000      -0.436042       -11.8653
 228   2.0000      -0.434574       -11.8254
 229   2.0000      -0.431918       -11.7531
 230   2.0000      -0.430696       -11.7198
 231   2.0000      -0.428922       -11.6715
 232   2.0000      -0.427482       -11.6324
 233   2.0000      -0.426087       -11.5944
 234   2.0000      -0.423667       -11.5286
 235   2.0000      -0.423124       -11.5138
 236   2.0000      -0.422277       -11.4907
 237   2.0000      -0.420507       -11.4426
 238   2.0000      -0.417028       -11.3479
 239   2.0000      -0.412929       -11.2364
 240   2.0000      -0.411922       -11.2090
 241   2.0000      -0.409244       -11.1361
 242   2.0000      -0.408176       -11.1070
 243   2.0000      -0.400187       -10.8896
 244   2.0000      -0.398225       -10.8362
 245   2.0000      -0.396631       -10.7929
 246   2.0000      -0.395792       -10.7701
 247   2.0000      -0.381295       -10.3756
 248   2.0000      -0.379227       -10.3193
 249   2.0000      -0.374009       -10.1773
 250   2.0000      -0.363047        -9.8790
 251   2.0000      -0.349134        -9.5004
 252   2.0000      -0.342959        -9.3324
 253   2.0000      -0.342846        -9.3293
 254   2.0000      -0.338661        -9.2154
 255   2.0000      -0.335333        -9.1249
 256   2.0000      -0.321641        -8.7523
 257   2.0000      -0.319966        -8.7067
 258   2.0000      -0.312815        -8.5121
 259   2.0000      -0.306753        -8.3472
 260   2.0000      -0.299856        -8.1595
 261   2.0000      -0.288925        -7.8621
 262   2.0000      -0.280380        -7.6295
 263   2.0000      -0.269826        -7.3423
 264   2.0000      -0.249948        -6.8014
 265   2.0000      -0.217010        -5.9051
 266   0.0000      -0.107765        -2.9324
 267   0.0000      -0.094508        -2.5717
 268   0.0000      -0.066752        -1.8164
 269   0.0000      -0.062589        -1.7031
 270   0.0000      -0.042899        -1.1673

MULLIKEN ATOMIC CHARGES
-----------------------
   0 C :    0.248380
   1 C :   -0.314891
   2 C :   -0.179355
   3 N :    0.162527
   4 C :   -0.201904
   5 N :    0.172768
   6 C :    0.015233
   7 C :    0.000036
   8 C :   -0.030323
   9 C :    0.058060
  10 C :    0.052014
  11 C :   -0.015226
  12 Cl:   -0.037784
  13 Cl:   -0.044507
  14 C :    0.143341
  15 O :   -0.144430
  16 C :   -0.146927
  17 C :    0.064157
  18 C :   -0.197310
  19 S :    0.137696
  20 C :   -0.091836
  21 C :   -0.083351
  22 C :    0.114212
  23 C :    0.180927
  24 C :   -0.051709
  25 C :    0.021252
  26 C :   -0.017053
  27 C :    0.029719
  28 C :   -0.048067
  29 C :   -0.035893
  30 C :    0.009710
  31 C :   -0.094337
  32 S :    0.173699
  33 C :   -0.097698
  34 C :    0.018504
  35 C :    0.299494
  36 C :   -0.293879
  37 C :   -0.189548
  38 N :    0.171980
  39 C :   -0.185834
  40 N :    0.172709
  41 C :   -0.057529
  42 C :   -0.062896
  43 S :    0.169322
  44 C :   -0.022718
  45 C :   -0.088158
  46 C :    0.049467
  47 C :    0.065236
  48 C :   -0.122677
  49 S :    0.123923
  50 C :   -0.112909
  51 C :    0.049241
  52 C :   -0.006417
  53 C :   -0.068439
  54 S :    0.129638
  55 C :    0.103335
  56 C :   -0.032853
  57 C :   -0.002416
  58 C :   -0.133798
  59 C :   -0.030435
  60 C :    0.087305
  61 C :    0.253048
  62 C :   -0.305540
  63 S :    0.102314
  64 C :    0.118113
  65 F :   -0.190921
  66 C :   -0.135554
  67 S :    0.107289
  68 H :   -0.000486
  69 H :    0.004299
  70 H :    0.013123
  71 H :    0.027835
  72 H :    0.012773
  73 H :    0.032917
  74 H :    0.040395
  75 H :    0.003674
  76 H :    0.010333
  77 H :   -0.003394
  78 H :    0.003151
  79 H :    0.006885
  80 H :    0.020744
  81 H :   -0.009491
  82 H :    0.037565
  83 H :   -0.010745
  84 H :    0.025590
  85 H :   -0.033715
  86 H :   -0.035116
  87 H :    0.031730
  88 H :    0.034789
  89 H :    0.035753
  90 H :    0.021863
Sum of atomic charges:   -0.0000000

LOEWDIN ATOMIC CHARGES
----------------------
   0 C :    0.058458
   1 C :   -0.136744
   2 C :   -0.022205
   3 N :   -0.046534
   4 C :   -0.032678
   5 N :   -0.047033
   6 C :   -0.009649
   7 C :   -0.045650
   8 C :    0.000859
   9 C :   -0.136054
  10 C :   -0.129794
  11 C :   -0.015164
  12 Cl:    0.161377
  13 Cl:    0.156634
  14 C :    0.083547
  15 O :   -0.143767
  16 C :   -0.105046
  17 C :    0.061214
  18 C :   -0.187067
  19 S :    0.466604
  20 C :   -0.157359
  21 C :   -0.054786
  22 C :   -0.043152
  23 C :   -0.012369
  24 C :   -0.018718
  25 C :   -0.012706
  26 C :   -0.044339
  27 C :   -0.020796
  28 C :   -0.163622
  29 C :   -0.023760
  30 C :   -0.076230
  31 C :   -0.172861
  32 S :    0.470382
  33 C :   -0.184664
  34 C :   -0.064632
  35 C :    0.083125
  36 C :   -0.101186
  37 C :   -0.016478
  38 N :   -0.032232
  39 C :   -0.016414
  40 N :   -0.032309
  41 C :   -0.043483
  42 C :   -0.174173
  43 S :    0.473920
  44 C :   -0.186117
  45 C :   -0.028473
  46 C :   -0.026746
  47 C :   -0.050304
  48 C :   -0.139236
  49 S :    0.452516
  50 C :   -0.198202
  51 C :   -0.038124
  52 C :   -0.065460
  53 C :   -0.166161
  54 S :    0.424986
  55 C :   -0.042879
  56 C :   -0.026572
  57 C :   -0.047929
  58 C :   -0.191515
  59 C :   -0.188728
  60 C :   -0.097044
  61 C :    0.034236
  62 C :   -0.191381
  63 S :    0.368316
  64 C :   -0.056831
  65 F :   -0.069981
  66 C :   -0.188309
  67 S :    0.439296
  68 H :    0.045833
  69 H :    0.044527
  70 H :    0.045937
  71 H :    0.027913
  72 H :    0.035110
  73 H :    0.037224
  74 H :    0.040260
  75 H :    0.031460
  76 H :    0.032846
  77 H :    0.022779
  78 H :    0.038708
  79 H :    0.041752
  80 H :    0.034966
  81 H :    0.025900
  82 H :    0.037276
  83 H :    0.029045
  84 H :    0.023592
  85 H :    0.018033
  86 H :    0.028784
  87 H :    0.041725
  88 H :    0.038733
  89 H :    0.039003
  90 H :    0.026763

  Mayer bond orders larger than 0.100000
B(  0-C ,  1-C ) :   1.6670 B(  0-C ,  6-C ) :   1.0027 B(  0-C , 16-C ) :   1.0333
B(  1-C ,  2-C ) :   1.1334 B(  1-C ,  4-C ) :   1.1553 B(  2-C ,  3-N ) :   2.9950
B(  4-C ,  5-N ) :   3.0217 B(  6-C ,  7-C ) :   1.3324 B(  6-C , 11-C ) :   1.3498
B(  7-C ,  8-C ) :   1.3484 B(  7-C , 14-C ) :   0.9236 B(  8-C ,  9-C ) :   1.3445
B(  8-C , 68-H ) :   1.0166 B(  9-C , 10-C ) :   1.4109 B(  9-C , 13-Cl) :   1.0454
B( 10-C , 11-C ) :   1.3545 B( 10-C , 12-Cl) :   1.0670 B( 11-C , 69-H ) :   0.9915
B( 14-C , 15-O ) :   2.2534 B( 14-C , 16-C ) :   0.9531 B( 16-C , 17-C ) :   1.6470
B( 17-C , 18-C ) :   1.1642 B( 17-C , 70-H ) :   0.9325 B( 18-C , 19-S ) :   1.1174
B( 18-C , 23-C ) :   1.4000 B( 19-S , 20-C ) :   1.1689 B( 20-C , 21-C ) :   1.5690
B( 20-C , 71-H ) :   0.9655 B( 21-C , 22-C ) :   1.0975 B( 21-C , 23-C ) :   1.2508
B( 22-C , 72-H ) :   0.9499 B( 22-C , 73-H ) :   0.9453 B( 22-C , 74-H ) :   0.9401
B( 23-C , 24-C ) :   1.0896 B( 24-C , 25-C ) :   1.7374 B( 24-C , 75-H ) :   0.9414
B( 25-C , 26-C ) :   1.1336 B( 25-C , 76-H ) :   0.9666 B( 26-C , 27-C ) :   1.6752
B( 26-C , 77-H ) :   0.9684 B( 27-C , 28-C ) :   1.1695 B( 27-C , 78-H ) :   0.9685
B( 28-C , 29-C ) :   1.4358 B( 28-C , 32-S ) :   1.0813 B( 29-C , 30-C ) :   1.2746
B( 29-C , 79-H ) :   1.0043 B( 30-C , 31-C ) :   1.4307 B( 30-C , 35-C ) :   0.9998
B( 31-C , 32-S ) :   1.1279 B( 31-C , 33-C ) :   1.1979 B( 33-C , 34-C ) :   1.4467
B( 33-C , 43-S ) :   1.1145 B( 34-C , 35-C ) :   0.9968 B( 34-C , 41-C ) :   1.3062
B( 35-C , 36-C ) :   1.7112 B( 36-C , 37-C ) :   1.1319 B( 36-C , 39-C ) :   1.1323
B( 37-C , 38-N ) :   2.9941 B( 39-C , 40-N ) :   2.9894 B( 41-C , 42-C ) :   1.4515
B( 41-C , 80-H ) :   0.9793 B( 42-C , 43-S ) :   1.1078 B( 42-C , 44-C ) :   1.1671
B( 44-C , 45-C ) :   1.5304 B( 44-C , 49-S ) :   1.0465 B( 45-C , 46-C ) :   1.2533
B( 45-C , 81-H ) :   0.9569 B( 46-C , 47-C ) :   1.0438 B( 46-C , 55-C ) :   1.3839
B( 47-C , 48-C ) :   1.6161 B( 47-C , 50-C ) :   1.1780 B( 48-C , 49-S ) :   1.1302
B( 48-C , 82-H ) :   0.9410 B( 50-C , 51-C ) :   1.4499 B( 50-C , 54-S ) :   1.0806
B( 51-C , 52-C ) :   1.2108 B( 51-C , 55-C ) :   1.0785 B( 52-C , 53-C ) :   1.5884
B( 52-C , 83-H ) :   0.9998 B( 53-C , 54-S ) :   1.1545 B( 53-C , 84-H ) :   0.9646
B( 55-C , 56-C ) :   1.1796 B( 56-C , 57-C ) :   1.6244 B( 56-C , 85-H ) :   0.9579
B( 57-C , 58-C ) :   1.1660 B( 57-C , 86-H ) :   0.9780 B( 58-C , 59-C ) :   1.5026
B( 58-C , 67-S ) :   1.1234 B( 59-C , 60-C ) :   1.2325 B( 59-C , 63-S ) :   1.0295
B( 60-C , 61-C ) :   1.0543 B( 60-C , 66-C ) :   1.4830 B( 61-C , 62-C ) :   1.6742
B( 61-C , 65-F ) :   1.1612 B( 62-C , 63-S ) :   1.0390 B( 62-C , 64-C ) :   1.0685
B( 64-C , 87-H ) :   0.9563 B( 64-C , 88-H ) :   0.9488 B( 64-C , 89-H ) :   0.9493
B( 66-C , 67-S ) :   1.1536 B( 66-C , 90-H ) :   0.9722

-----------------------------------------------------------------------------
         ABSORPTION SPECTRUM VIA TRANSITION ELECTRIC DIPOLE MOMENTS
-----------------------------------------------------------------------------
State   Energy  Wavelength   fosc         T2         TX        TY        TZ
        (cm-1)    (nm)                  (au**2)     (au)      (au)      (au)
-----------------------------------------------------------------------------
   0    9244.1   1081.8   0.191452866   6.81826   0.99766  -1.97608   1.38493
   1   15130.7    660.9   0.033753598   0.73441   0.76442   0.17831  -0.34391
   2   17092.9    585.0   0.838929552  16.15789  -1.81794   3.36863  -1.22689
   3   19060.8    524.6   0.497416701   8.59121  -1.36675  -1.47758   2.13072
   4   21217.2    471.3   0.202658935   3.14451  -0.83038   1.46318   0.56043
   5   22250.0    449.4   0.249043042   3.68485   0.01042  -1.53412   1.15379
   6   22862.2    437.4   0.077971742   1.12278   0.79208  -0.25647   0.65545
   7   23712.6    421.7   0.105269110   1.46149   0.83276   0.76165   0.43348
   8   24772.1    403.7   0.194658693   2.58694  -1.49284   0.33326   0.49732
   9   25452.0    392.9   0.110532121   1.42969  -1.18503   0.13639  -0.08243
  10   26286.1    380.4   0.289580723   3.62677  -1.73155   0.64981  -0.45416
  11   27330.2    365.9   0.397688565   4.79044  -2.17534   0.15489  -0.18536
  12   27546.8    363.0   0.094559306   1.13008  -0.99541   0.35576  -0.11259
  13   27931.1    358.0   0.173300189   2.04262   1.42142  -0.08081   0.12506
  14   28957.5    345.3   0.026674620   0.30326   0.15934  -0.28191  -0.44542
  15   29079.4    343.9   0.219416374   2.48405  -1.11484   0.88299   0.67934
  16   29586.1    338.0   0.021478065   0.23899   0.47670   0.06883  -0.08372
  17   30224.7    330.9   0.083156442   0.90575   0.36435  -0.29348   0.82878
  18   30312.8    329.9   0.034166083   0.37106   0.59421  -0.11507   0.06884
  19   30581.7    327.0   0.027451346   0.29551  -0.10036   0.21277   0.49007
  20   31201.9    320.5   0.814596674   8.59483  -1.99058  -1.07341   1.86553
  21   31699.0    315.5   0.033436304   0.34725   0.43124  -0.33462   0.22208
  22   31861.4    313.9   0.168235297   1.73831  -0.53848   0.34197  -1.15387
  23   31973.4    312.8   0.217058108   2.23493  -0.17713   0.64826   1.33541
  24   32334.6    309.3   0.039048480   0.39757  -0.13945  -0.44474   0.42465
  25   32620.0    306.6   0.121769373   1.22894  -0.82549   0.40114   0.62176
  26   32714.5    305.7   0.252968373   2.54566   1.10787  -0.81941   0.80427
  27   33522.7    298.3   0.125848657   1.23591  -0.91434   0.44533  -0.44896
  28   34348.6    291.1   0.038750072   0.37140   0.18846  -0.40789   0.41171
  29   34631.0    288.8   0.354254145   3.36764  -0.24313  -1.21593   1.35279
  30   34780.5    287.5   0.121679144   1.15175   0.31662  -0.70168  -0.74775
  31   35580.0    281.1   0.094818351   0.87733  -0.29763  -0.31580   0.83007
  32   35716.8    280.0   0.158851926   1.46418   0.46799  -0.31746   1.06976
  33   35971.2    278.0   0.030865006   0.28248  -0.04652   0.51977  -0.10076
  34   36343.2    275.2   0.124425611   1.12710  -0.42182   0.06404   0.97215
  35   36441.4    274.4   0.017093109   0.15442  -0.20620   0.33172  -0.04318
  36   36746.9    272.1   0.002335461   0.02092   0.10194  -0.07753  -0.06722
  37   36945.3    270.7   0.057735229   0.51447   0.36647   0.02355  -0.61612
  38   37691.7    265.3   0.062601129   0.54678   0.37783   0.34678  -0.53269
  39   37818.6    264.4   0.091964562   0.80056   0.60495  -0.54870   0.36541
  40   38223.9    261.6   0.055333225   0.47657  -0.42090  -0.37673   0.39685
  41   38410.7    260.3   0.006527615   0.05595   0.08836   0.06790  -0.20864
  42   38529.7    259.5   0.020069478   0.17148   0.32348   0.23080  -0.11650
  43   38700.0    258.4   0.042187540   0.35888   0.05993   0.46139  -0.37737
  44   39022.5    256.3   0.008754106   0.07385   0.07160   0.26216  -0.00009
  45   39227.1    254.9   0.051520874   0.43239   0.56902   0.30015  -0.13605
  46   39453.2    253.5   0.068834746   0.57438   0.51263   0.24520  -0.50146
  47   39674.6    252.1   0.049601440   0.41158  -0.28094   0.51649  -0.25671
  48   40200.9    248.8   0.043642460   0.35740   0.51013  -0.27887   0.13927

FINAL SINGLE POINT ENERGY     -6130.920046481379

DIPOLE MOMENT
-------------
                                X             Y             Z
Electronic contribution:    -20.32434      55.50603       9.22878
Nuclear contribution   :     19.40568     -58.37802      -8.04283
                        -----------------------------------------
Total Dipole Moment    :     -0.91866      -2.87200       1.18594
                        -----------------------------------------
Magnitude (a.u.)       :      3.24018
Magnitude (Debye)      :      8.23589

Rotational constants in cm-1:     0.001002     0.000217     0.000192
Rotational constants in MHz :    30.036482     6.520309     5.763506

                             ****ORCA TERMINATED NORMALLY****
TOTAL RUN TIME: 0 days 0 hours 8 minutes 38 seconds 780 msec
