                         Program Version 4.2.0 -  RELEASE  -
|  1> # ORCA input file
|  2> # SCF done       -149.707933006006          0.000401445435
|  3> ! CAM-B3LYP def2-SVP def2/J RIJCOSX Grid4 TightSCF
|  4> %maxcore 5000
|  5> %tddft
|  6>     Mode sTDDFT
|  7>     Ethresh 5.0
|  8>     maxcore 5000
|  9> end
| 10>
| 11> %pal
| 12>   nprocs 6
| 13>   end
| 14> * xyz 0 1
| 15>    C       -0.02083         0.84988        -7.57937
| 16>    C       -0.28999         2.12244        -7.98124
| 17>    C       -0.47650         2.97890        -6.87884
| 18>    C       -0.33931         2.31401        -5.65677
| 19>    S        0.01408         0.65695        -5.85722
| 20>    C       -0.54586         3.25363        -4.60264
| 21>    C       -0.81289         4.50362        -5.16874
| 22>    C       -0.77609         4.37672        -6.61973
| 23>    C       -0.97863         5.36529        -7.53778
| 24>    C       -1.26391         6.69395        -7.15975
| 25>    N       -1.49615         7.77515        -6.85606
| 26>    C       -0.91541         5.12746        -8.92663
| 27>    N       -0.86485         4.94071       -10.05695
| 28>    C       -1.03305         5.49876        -4.20903
| 29>    C       -0.93087         5.01740        -2.92260
| 30>    S       -0.55570         3.30089        -2.89936
| 31>    C       -1.09363         5.73969        -1.68194
| 32>    C       -0.67834         5.15141        -0.46906
| 33>    C       -0.79742         5.78448         0.74423
| 34>    C       -1.35808         7.05826         0.74841
| 35>    C       -1.78248         7.64731        -0.46660
| 36>    C       -1.66206         7.01587        -1.68463
| 37>    O       -2.29065         8.86430        -0.17134
| 38>    C       -2.15780         8.97258         1.17526
| 39>    N       -1.61628         7.94014         1.75662
| 40>    C       -2.59814        10.15972         1.85266
| 41>    C       -2.42822        10.31950         3.21200
| 42>    C       -2.83736        11.47274         3.89805
| 43>    C       -3.45020        12.54888         3.28732
| 44>    C       -3.66696        12.40625         1.88923
| 45>    C       -3.23425        11.22766         1.17247
| 46>    N       -3.55849        11.39603        -0.09327
| 47>    O       -4.14609        12.58450        -0.17044
| 48>    N       -4.22298        13.20904         1.00091
| 49>    C       -3.85860        13.74950         4.00890
| 50>    C       -3.16406        14.14079         5.17068
| 51>    C       -3.51190        15.25129         5.90367
| 52>    C       -4.60111        15.99467         5.46217
| 53>    C       -5.28804        15.60983         4.28744
| 54>    C       -4.93650        14.50549         3.54490
| 55>    O       -6.28959        16.50428         4.09260
| 56>    C       -6.17110        17.37491         5.13430
| 57>    N       -5.19897        17.11724         5.95943
| 58>    C       -7.08319        18.45962         5.25200
| 59>    C       -7.11074        19.40390         6.25799
| 60>    C       -8.14417        20.32172         6.06358
| 61>    C       -8.89107        20.06206         4.90397
| 62>    S       -8.33274        18.69524         4.05272
| 63>    C       -9.91447        21.04907         4.79756
| 64>    C       -9.80971        21.92137         5.88603
| 65>    C       -8.69881        21.49815         6.72121
| 66>    C       -8.26844        22.07460         7.87958
| 67>    C       -8.89135        23.21671         8.42624
| 68>    N       -9.39449        24.14275         8.87772
| 69>    C       -7.17422        21.57280         8.61641
| 70>    N       -6.28929        21.17815         9.22902
| 71>    C      -10.78822        22.93340         5.86004
| 72>    C      -11.59891        22.80924         4.77251
| 73>    S      -11.19928        21.46680         3.75455
| 74>    H        0.16381        -0.00863        -8.19337
| 75>    H       -0.35017         2.42338        -9.01110
| 76>    H       -1.24007         6.52605        -4.44415
| 77>    H       -0.24228         4.16337        -0.50414
| 78>    H       -0.47186         5.32267         1.66141
| 79>    H       -2.00618         7.49004        -2.58780
| 80>    H       -1.95861         9.51601         3.75726
| 81>    H       -2.67655        11.49868         4.96463
| 82>    H       -2.30636        13.56424         5.48078
| 83>    H       -2.96781        15.54638         6.78531
| 84>    H       -5.47013        14.23345         2.65047
| 85>    H       -6.40692        19.39453         7.06924
| 86>    H      -10.89193        23.70866         6.59684
| 87>    H      -12.42479        23.43347         4.49562
| 88> *
| 89>
| 90>                          ****END OF INPUT****

CARTESIAN COORDINATES (ANGSTROEM)
---------------------------------
  C     -0.020830    0.849880   -7.579370
  C     -0.289990    2.122440   -7.981240
  C     -0.476500    2.978900   -6.878840
  C     -0.339310    2.314010   -5.656770
  S      0.014080    0.656950   -5.857220
  C     -0.545860    3.253630   -4.602640
  C     -0.812890    4.503620   -5.168740
  C     -0.776090    4.376720   -6.619730
  C     -0.978630    5.365290   -7.537780
  C     -1.263910    6.693950   -7.159750
  N     -1.496150    7.775150   -6.856060
  C     -0.915410    5.127460   -8.926630
  N     -0.864850    4.940710  -10.056950
  C     -1.033050    5.498760   -4.209030
  C     -0.930870    5.017400   -2.922600
  S     -0.555700    3.300890   -2.899360
  C     -1.093630    5.739690   -1.681940
  C     -0.678340    5.151410   -0.469060
  C     -0.797420    5.784480    0.744230
  C     -1.358080    7.058260    0.748410
  C     -1.782480    7.647310   -0.466600
  C     -1.662060    7.015870   -1.684630
  O     -2.290650    8.864300   -0.171340
  C     -2.157800    8.972580    1.175260
  N     -1.616280    7.940140    1.756620
  C     -2.598140   10.159720    1.852660
  C     -2.428220   10.319500    3.212000
  C     -2.837360   11.472740    3.898050
  C     -3.450200   12.548880    3.287320
  C     -3.666960   12.406250    1.889230
  C     -3.234250   11.227660    1.172470
  N     -3.558490   11.396030   -0.093270
  O     -4.146090   12.584500   -0.170440
  N     -4.222980   13.209040    1.000910
  C     -3.858600   13.749500    4.008900
  C     -3.164060   14.140790    5.170680
  C     -3.511900   15.251290    5.903670
  C     -4.601110   15.994670    5.462170
  C     -5.288040   15.609830    4.287440
  C     -4.936500   14.505490    3.544900
  O     -6.289590   16.504280    4.092600
  C     -6.171100   17.374910    5.134300
  N     -5.198970   17.117240    5.959430
  C     -7.083190   18.459620    5.252000
  C     -7.110740   19.403900    6.257990
  C     -8.144170   20.321720    6.063580
  C     -8.891070   20.062060    4.903970
  S     -8.332740   18.695240    4.052720
  C     -9.914470   21.049070    4.797560
  C     -9.809710   21.921370    5.886030
  C     -8.698810   21.498150    6.721210
  C     -8.268440   22.074600    7.879580
  C     -8.891350   23.216710    8.426240
  N     -9.394490   24.142750    8.877720
  C     -7.174220   21.572800    8.616410
  N     -6.289290   21.178150    9.229020
  C    -10.788220   22.933400    5.860040
  C    -11.598910   22.809240    4.772510
  S    -11.199280   21.466800    3.754550
  H      0.163810   -0.008630   -8.193370
  H     -0.350170    2.423380   -9.011100
  H     -1.240070    6.526050   -4.444150
  H     -0.242280    4.163370   -0.504140
  H     -0.471860    5.322670    1.661410
  H     -2.006180    7.490040   -2.587800
  H     -1.958610    9.516010    3.757260
  H     -2.676550   11.498680    4.964630
  H     -2.306360   13.564240    5.480780
  H     -2.967810   15.546380    6.785310
  H     -5.470130   14.233450    2.650470
  H     -6.406920   19.394530    7.069240
  H    -10.891930   23.708660    6.596840
  H    -12.424790   23.433470    4.495620

 Total Charge           Charge          ....    0
 Multiplicity           Mult            ....    1
 Number of Electrons    NEL             ....  422
 Basis Dimension        Dim             ....  912

ORBITAL ENERGIES
----------------

  NO   OCC          E(Eh)            E(eV)
   0   2.0000     -88.995171     -2421.6817
   1   2.0000     -88.989789     -2421.5353
   2   2.0000     -88.983003     -2421.3506
   3   2.0000     -88.982732     -2421.3432
   4   2.0000     -19.357586      -526.7467
   5   2.0000     -19.307089      -525.3726
   6   2.0000     -19.302415      -525.2454
   7   2.0000     -14.482651      -394.0930
   8   2.0000     -14.479959      -394.0197
   9   2.0000     -14.429216      -392.6389
  10   2.0000     -14.428179      -392.6107
  11   2.0000     -14.424376      -392.5072
  12   2.0000     -14.424119      -392.5002
  13   2.0000     -14.412714      -392.1899
  14   2.0000     -14.412336      -392.1796
  15   2.0000     -10.384680      -282.5815
  16   2.0000     -10.378519      -282.4139
  17   2.0000     -10.363962      -282.0177
  18   2.0000     -10.357420      -281.8397
  19   2.0000     -10.351430      -281.6767
  20   2.0000     -10.345452      -281.5141
  21   2.0000     -10.339165      -281.3430
  22   2.0000     -10.338505      -281.3250
  23   2.0000     -10.336230      -281.2631
  24   2.0000     -10.330878      -281.1175
  25   2.0000     -10.329910      -281.0911
  26   2.0000     -10.329478      -281.0794
  27   2.0000     -10.329420      -281.0778
  28   2.0000     -10.328100      -281.0419
  29   2.0000     -10.325672      -280.9758
  30   2.0000     -10.324994      -280.9574
  31   2.0000     -10.324717      -280.9498
  32   2.0000     -10.324437      -280.9422
  33   2.0000     -10.323313      -280.9116
  34   2.0000     -10.316190      -280.7178
  35   2.0000     -10.315939      -280.7110
  36   2.0000     -10.314626      -280.6752
  37   2.0000     -10.313736      -280.6510
  38   2.0000     -10.309445      -280.5342
  39   2.0000     -10.306717      -280.4600
  40   2.0000     -10.306549      -280.4555
  41   2.0000     -10.306154      -280.4447
  42   2.0000     -10.304377      -280.3963
  43   2.0000     -10.303961      -280.3850
  44   2.0000     -10.302443      -280.3437
  45   2.0000     -10.300410      -280.2884
  46   2.0000     -10.299363      -280.2599
  47   2.0000     -10.298988      -280.2497
  48   2.0000     -10.296929      -280.1937
  49   2.0000     -10.294633      -280.1312
  50   2.0000     -10.293572      -280.1023
  51   2.0000     -10.292749      -280.0799
  52   2.0000     -10.292029      -280.0604
  53   2.0000     -10.288604      -279.9671
  54   2.0000     -10.287603      -279.9399
  55   2.0000     -10.284061      -279.8435
  56   2.0000     -10.283724      -279.8343
  57   2.0000     -10.283194      -279.8199
  58   2.0000     -10.282353      -279.7970
  59   2.0000      -8.089543      -220.1276
  60   2.0000      -8.084801      -219.9986
  61   2.0000      -8.078019      -219.8141
  62   2.0000      -8.077225      -219.7925
  63   2.0000      -6.058701      -164.8656
  64   2.0000      -6.054545      -164.7525
  65   2.0000      -6.054024      -164.7384
  66   2.0000      -6.052072      -164.6853
  67   2.0000      -6.049617      -164.6184
  68   2.0000      -6.047421      -164.5587
  69   2.0000      -6.047287      -164.5550
  70   2.0000      -6.046433      -164.5318
  71   2.0000      -6.042809      -164.4332
  72   2.0000      -6.042257      -164.4182
  73   2.0000      -6.040641      -164.3742
  74   2.0000      -6.039742      -164.3497
  75   2.0000      -1.311736       -35.6942
  76   2.0000      -1.235459       -33.6185
  77   2.0000      -1.233875       -33.5754
  78   2.0000      -1.045162       -28.4403
  79   2.0000      -1.036905       -28.2156
  80   2.0000      -1.027163       -27.9505
  81   2.0000      -1.025577       -27.9074
  82   2.0000      -1.020734       -27.7756
  83   2.0000      -1.015752       -27.6400
  84   2.0000      -1.015146       -27.6235
  85   2.0000      -1.006392       -27.3853
  86   2.0000      -1.006131       -27.3782
  87   2.0000      -1.001954       -27.2646
  88   2.0000      -0.998116       -27.1601
  89   2.0000      -0.991198       -26.9719
  90   2.0000      -0.964846       -26.2548
  91   2.0000      -0.961860       -26.1735
  92   2.0000      -0.955485       -26.0001
  93   2.0000      -0.947250       -25.7760
  94   2.0000      -0.923660       -25.1341
  95   2.0000      -0.914381       -24.8816
  96   2.0000      -0.905519       -24.6404
  97   2.0000      -0.896348       -24.3909
  98   2.0000      -0.871970       -23.7275
  99   2.0000      -0.864605       -23.5271
 100   2.0000      -0.861657       -23.4469
 101   2.0000      -0.857634       -23.3374
 102   2.0000      -0.852144       -23.1880
 103   2.0000      -0.849455       -23.1149
 104   2.0000      -0.844715       -22.9859
 105   2.0000      -0.837425       -22.7875
 106   2.0000      -0.807519       -21.9737
 107   2.0000      -0.785958       -21.3870
 108   2.0000      -0.778956       -21.1965
 109   2.0000      -0.776145       -21.1200
 110   2.0000      -0.769594       -20.9417
 111   2.0000      -0.759800       -20.6752
 112   2.0000      -0.751024       -20.4364
 113   2.0000      -0.743148       -20.2221
 114   2.0000      -0.724755       -19.7216
 115   2.0000      -0.722997       -19.6738
 116   2.0000      -0.702676       -19.1208
 117   2.0000      -0.699085       -19.0231
 118   2.0000      -0.699073       -19.0228
 119   2.0000      -0.695593       -18.9281
 120   2.0000      -0.694409       -18.8958
 121   2.0000      -0.680604       -18.5202
 122   2.0000      -0.675794       -18.3893
 123   2.0000      -0.667635       -18.1673
 124   2.0000      -0.658269       -17.9124
 125   2.0000      -0.643190       -17.5021
 126   2.0000      -0.642686       -17.4884
 127   2.0000      -0.638858       -17.3842
 128   2.0000      -0.623533       -16.9672
 129   2.0000      -0.620921       -16.8961
 130   2.0000      -0.617180       -16.7943
 131   2.0000      -0.613889       -16.7048
 132   2.0000      -0.611380       -16.6365
 133   2.0000      -0.610189       -16.6041
 134   2.0000      -0.609251       -16.5786
 135   2.0000      -0.603601       -16.4248
 136   2.0000      -0.597544       -16.2600
 137   2.0000      -0.592655       -16.1270
 138   2.0000      -0.585236       -15.9251
 139   2.0000      -0.581200       -15.8153
 140   2.0000      -0.579563       -15.7707
 141   2.0000      -0.575761       -15.6673
 142   2.0000      -0.558159       -15.1883
 143   2.0000      -0.549724       -14.9587
 144   2.0000      -0.545950       -14.8561
 145   2.0000      -0.545764       -14.8510
 146   2.0000      -0.539853       -14.6902
 147   2.0000      -0.538956       -14.6657
 148   2.0000      -0.533106       -14.5066
 149   2.0000      -0.531676       -14.4676
 150   2.0000      -0.521484       -14.1903
 151   2.0000      -0.517120       -14.0715
 152   2.0000      -0.512633       -13.9494
 153   2.0000      -0.510543       -13.8926
 154   2.0000      -0.503369       -13.6974
 155   2.0000      -0.500892       -13.6300
 156   2.0000      -0.498796       -13.5729
 157   2.0000      -0.496574       -13.5125
 158   2.0000      -0.493456       -13.4276
 159   2.0000      -0.491329       -13.3698
 160   2.0000      -0.488986       -13.3060
 161   2.0000      -0.485135       -13.2012
 162   2.0000      -0.484705       -13.1895
 163   2.0000      -0.482019       -13.1164
 164   2.0000      -0.479346       -13.0437
 165   2.0000      -0.476462       -12.9652
 166   2.0000      -0.474747       -12.9185
 167   2.0000      -0.471563       -12.8319
 168   2.0000      -0.463930       -12.6242
 169   2.0000      -0.461024       -12.5451
 170   2.0000      -0.459809       -12.5120
 171   2.0000      -0.458869       -12.4865
 172   2.0000      -0.456080       -12.4106
 173   2.0000      -0.455859       -12.4045
 174   2.0000      -0.452173       -12.3043
 175   2.0000      -0.452105       -12.3024
 176   2.0000      -0.449225       -12.2240
 177   2.0000      -0.445045       -12.1103
 178   2.0000      -0.444359       -12.0916
 179   2.0000      -0.440702       -11.9921
 180   2.0000      -0.440105       -11.9759
 181   2.0000      -0.438714       -11.9380
 182   2.0000      -0.437786       -11.9128
 183   2.0000      -0.434725       -11.8295
 184   2.0000      -0.432949       -11.7811
 185   2.0000      -0.432770       -11.7763
 186   2.0000      -0.429872       -11.6974
 187   2.0000      -0.425560       -11.5801
 188   2.0000      -0.424954       -11.5636
 189   2.0000      -0.419588       -11.4176
 190   2.0000      -0.417490       -11.3605
 191   2.0000      -0.407123       -11.0784
 192   2.0000      -0.405113       -11.0237
 193   2.0000      -0.401355       -10.9214
 194   2.0000      -0.392916       -10.6918
 195   2.0000      -0.376502       -10.2451
 196   2.0000      -0.372414       -10.1339
 197   2.0000      -0.371540       -10.1101
 198   2.0000      -0.370750       -10.0886
 199   2.0000      -0.365933        -9.9575
 200   2.0000      -0.349025        -9.4974
 201   2.0000      -0.342182        -9.3112
 202   2.0000      -0.341141        -9.2829
 203   2.0000      -0.326080        -8.8731
 204   2.0000      -0.324560        -8.8317
 205   2.0000      -0.321596        -8.7511
 206   2.0000      -0.319249        -8.6872
 207   2.0000      -0.314621        -8.5613
 208   2.0000      -0.293007        -7.9731
 209   2.0000      -0.266455        -7.2506
 210   2.0000      -0.251687        -6.8488
 211   0.0000      -0.103161        -2.8071
 212   0.0000      -0.095981        -2.6118
 213   0.0000      -0.080366        -2.1869
 214   0.0000      -0.039378        -1.0715
 215   0.0000      -0.024585        -0.6690

MULLIKEN ATOMIC CHARGES
-----------------------
   0 C :   -0.082583
   1 C :    0.032513
   2 C :   -0.028670
   3 C :   -0.117168
   4 S :    0.177333
   5 C :   -0.102744
   6 C :    0.013842
   7 C :    0.297982
   8 C :   -0.298757
   9 C :   -0.183936
  10 N :    0.168865
  11 C :   -0.192154
  12 N :    0.169585
  13 C :   -0.042801
  14 C :   -0.076648
  15 S :    0.165556
  16 C :    0.147673
  17 C :   -0.046304
  18 C :   -0.047221
  19 C :    0.031096
  20 C :    0.244692
  21 C :   -0.158323
  22 O :   -0.175281
  23 C :    0.058072
  24 N :   -0.044609
  25 C :    0.015137
  26 C :    0.003326
  27 C :   -0.056456
  28 C :    0.115051
  29 C :   -0.051601
  30 C :   -0.001665
  31 N :    0.071415
  32 O :   -0.093949
  33 N :    0.041799
  34 C :    0.064568
  35 C :   -0.025894
  36 C :   -0.048463
  37 C :    0.041460
  38 C :    0.236253
  39 C :   -0.121347
  40 O :   -0.204077
  41 C :    0.128681
  42 N :   -0.044658
  43 C :   -0.129526
  44 C :   -0.028590
  45 C :    0.009541
  46 C :   -0.093543
  47 S :    0.231361
  48 C :   -0.117210
  49 C :   -0.026951
  50 C :    0.295042
  51 C :   -0.298610
  52 C :   -0.191482
  53 N :    0.178011
  54 C :   -0.192823
  55 N :    0.183298
  56 C :    0.035696
  57 C :   -0.079339
  58 S :    0.185462
  59 H :    0.034756
  60 H :    0.011251
  61 H :    0.005713
  62 H :   -0.010980
  63 H :   -0.019279
  64 H :   -0.007728
  65 H :    0.005623
  66 H :   -0.005465
  67 H :   -0.017146
  68 H :   -0.016289
  69 H :   -0.001248
  70 H :    0.027627
  71 H :    0.014883
  72 H :    0.038349
Sum of atomic charges:   -0.0000000

LOEWDIN ATOMIC CHARGES
----------------------
   0 C :   -0.180639
   1 C :   -0.034557
   2 C :   -0.078706
   3 C :   -0.182992
   4 S :    0.474687
   5 C :   -0.184565
   6 C :   -0.071360
   7 C :    0.084705
   8 C :   -0.106084
   9 C :   -0.016193
  10 N :   -0.036406
  11 C :   -0.016713
  12 N :   -0.035888
  13 C :   -0.032862
  14 C :   -0.155290
  15 S :    0.477229
  16 C :   -0.036678
  17 C :   -0.034402
  18 C :   -0.015553
  19 C :   -0.032097
  20 C :    0.037133
  21 C :   -0.029689
  22 O :    0.012665
  23 C :    0.068480
  24 N :   -0.103216
  25 C :   -0.058392
  26 C :    0.031537
  27 C :   -0.014740
  28 C :    0.000664
  29 C :   -0.048539
  30 C :   -0.050016
  31 N :   -0.015686
  32 O :    0.080276
  33 N :   -0.024589
  34 C :   -0.027543
  35 C :   -0.016143
  36 C :   -0.019391
  37 C :   -0.022562
  38 C :    0.031676
  39 C :   -0.021814
  40 O :   -0.014815
  41 C :    0.049885
  42 N :   -0.105474
  43 C :   -0.203097
  44 C :    0.008430
  45 C :   -0.073459
  46 C :   -0.171709
  47 S :    0.503038
  48 C :   -0.188498
  49 C :   -0.071165
  50 C :    0.080751
  51 C :   -0.100080
  52 C :   -0.016651
  53 N :   -0.031977
  54 C :   -0.019325
  55 N :   -0.027122
  56 C :   -0.034613
  57 C :   -0.173529
  58 S :    0.481188
  59 H :    0.026836
  60 H :    0.042182
  61 H :    0.038385
  62 H :    0.019768
  63 H :    0.037230
  64 H :    0.040433
  65 H :    0.043722
  66 H :    0.036175
  67 H :    0.029207
  68 H :    0.038327
  69 H :    0.037893
  70 H :    0.050302
  71 H :    0.043283
  72 H :    0.028733

  Mayer bond orders larger than 0.100000
B(  0-C ,  1-C ) :   1.5515 B(  0-C ,  4-S ) :   1.1469 B(  0-C , 59-H ) :   0.9642
B(  1-C ,  2-C ) :   1.2736 B(  1-C , 60-H ) :   0.9975 B(  2-C ,  3-C ) :   1.4639
B(  2-C ,  7-C ) :   1.0132 B(  3-C ,  4-S ) :   1.1379 B(  3-C ,  5-C ) :   1.1733
B(  5-C ,  6-C ) :   1.4694 B(  5-C , 15-S ) :   1.1239 B(  6-C ,  7-C ) :   1.0002
B(  6-C , 13-C ) :   1.2611 B(  7-C ,  8-C ) :   1.7079 B(  8-C ,  9-C ) :   1.1323
B(  8-C , 11-C ) :   1.1298 B(  9-C , 10-N ) :   2.9893 B( 11-C , 12-N ) :   3.0023
B( 13-C , 14-C ) :   1.5058 B( 13-C , 61-H ) :   0.9910 B( 14-C , 15-S ) :   1.1089
B( 14-C , 16-C ) :   1.0652 B( 16-C , 17-C ) :   1.2939 B( 16-C , 21-C ) :   1.3343
B( 17-C , 18-C ) :   1.4212 B( 17-C , 62-H ) :   0.9796 B( 18-C , 19-C ) :   1.2884
B( 18-C , 21-C ) :   0.1005 B( 18-C , 63-H ) :   1.0175 B( 19-C , 20-C ) :   1.2647
B( 19-C , 24-N ) :   1.2993 B( 20-C , 21-C ) :   1.3274 B( 20-C , 22-O ) :   1.1132
B( 21-C , 64-H ) :   1.0206 B( 22-O , 23-C ) :   1.1937 B( 23-C , 24-N ) :   1.7857
B( 23-C , 25-C ) :   1.0069 B( 25-C , 26-C ) :   1.5574 B( 25-C , 28-C ) :   0.1185
B( 25-C , 30-C ) :   1.1296 B( 26-C , 27-C ) :   1.1705 B( 26-C , 65-H ) :   0.9921
B( 27-C , 28-C ) :   1.5023 B( 27-C , 66-H ) :   0.9948 B( 28-C , 29-C ) :   1.1500
B( 28-C , 34-C ) :   1.0180 B( 29-C , 30-C ) :   1.1461 B( 29-C , 33-N ) :   1.5865
B( 30-C , 31-N ) :   1.6165 B( 31-N , 32-O ) :   1.0593 B( 31-N , 33-N ) :   0.1839
B( 32-O , 33-N ) :   1.0685 B( 34-C , 35-C ) :   1.3176 B( 34-C , 39-C ) :   1.3388
B( 35-C , 36-C ) :   1.4044 B( 35-C , 67-H ) :   0.9873 B( 36-C , 37-C ) :   1.2917
B( 36-C , 39-C ) :   0.1005 B( 36-C , 68-H ) :   1.0192 B( 37-C , 38-C ) :   1.2699
B( 37-C , 42-N ) :   1.2950 B( 38-C , 39-C ) :   1.3303 B( 38-C , 40-O ) :   1.0867
B( 39-C , 69-H ) :   1.0085 B( 40-O , 41-C ) :   1.1917 B( 41-C , 42-N ) :   1.7749
B( 41-C , 43-C ) :   1.0595 B( 43-C , 44-C ) :   1.4884 B( 43-C , 47-S ) :   1.0996
B( 44-C , 45-C ) :   1.2701 B( 44-C , 70-H ) :   1.0076 B( 45-C , 46-C ) :   1.4436
B( 45-C , 50-C ) :   0.9885 B( 46-C , 47-S ) :   1.1419 B( 46-C , 48-C ) :   1.1844
B( 48-C , 49-C ) :   1.4585 B( 48-C , 58-S ) :   1.1338 B( 49-C , 50-C ) :   1.0173
B( 49-C , 56-C ) :   1.2794 B( 50-C , 51-C ) :   1.7182 B( 51-C , 52-C ) :   1.1321
B( 51-C , 54-C ) :   1.1339 B( 52-C , 53-N ) :   3.0023 B( 54-C , 55-N ) :   3.0001
B( 56-C , 57-C ) :   1.5446 B( 56-C , 71-H ) :   0.9959 B( 57-C , 58-S ) :   1.1559
B( 57-C , 72-H ) :   0.9646

-----------------------------------------------------------------------------
         ABSORPTION SPECTRUM VIA TRANSITION ELECTRIC DIPOLE MOMENTS
-----------------------------------------------------------------------------
State   Energy  Wavelength   fosc         T2         TX        TY        TZ
        (cm-1)    (nm)                  (au**2)     (au)      (au)      (au)
-----------------------------------------------------------------------------
   0   14905.1    670.9   0.085454406   1.88744   0.27363  -0.93412  -0.96953
   1   16081.6    621.8   0.102030566   2.08871  -0.88986   1.12204   0.19466
   2   22408.9    446.3   1.723826672  25.32495  -1.72156   3.96172   2.58185
   3   25860.1    386.7   0.014517304   0.18481  -0.08418   0.33016   0.26214
   4   26853.5    372.4   0.132161016   1.62024  -0.76586   1.01122  -0.10550
   5   27425.4    364.6   0.040662403   0.48811  -0.43386   0.33647  -0.43205
   6   29475.2    339.3   0.025993963   0.29033  -0.16898   0.39673   0.32307
   7   31471.9    317.7   0.071393060   0.74681  -0.05211   0.37094  -0.77878
   8   31576.6    316.7   0.635558830   6.62621   0.68818  -1.77734  -1.73022
   9   32056.3    312.0   0.419141050   4.30449  -0.16505  -1.64219   1.25716
  10   32185.0    310.7   0.825201626   8.44078  -1.74264   0.88409  -2.14997
  11   33105.5    302.1   0.288726020   2.87119   0.16931  -1.22180  -1.16178
  12   33365.3    299.7   0.111390380   1.09908  -0.43026   0.81679   0.49679
  13   33765.7    296.2   0.885735761   8.63583   0.61165  -2.05511  -2.00954
  14   33912.4    294.9   0.108071315   1.04913   0.66502  -0.76314   0.15649
  15   33946.7    294.6   0.208099288   2.01813  -1.10098   0.68402  -0.58145
  16   34654.7    288.6   0.095547794   0.90768  -0.20423   0.92489  -0.10271
  17   35286.2    283.4   0.020950826   0.19547   0.40148  -0.12142   0.13977
  18   36223.9    276.1   0.023244958   0.21126  -0.24082   0.08465  -0.38222
  19   36278.3    275.6   0.041558560   0.37713  -0.38798  -0.05265  -0.47310
  20   37327.8    267.9   0.048624582   0.42884   0.21052  -0.62000   0.01112
  21   38036.8    262.9   0.058691160   0.50798   0.49900  -0.47402  -0.18515
  22   38669.2    258.6   0.009745377   0.08297   0.06180  -0.26313  -0.09956
  23   39685.2    252.0   0.145317577   1.20549   0.25879  -0.27838   1.03006

FINAL SINGLE POINT ENERGY     -3937.968223732829

DIPOLE MOMENT
-------------
                                X             Y             Z
Electronic contribution:     -8.96361       8.72012      -5.31849
Nuclear contribution   :      8.34170     -10.76497       5.78938
                        -----------------------------------------
Total Dipole Moment    :     -0.62191      -2.04485       0.47089
                        -----------------------------------------
Magnitude (a.u.)       :      2.18859
Magnitude (Debye)      :      5.56294

Rotational constants in cm-1:     0.003731     0.000238     0.000226
Rotational constants in MHz :   111.864220     7.130906     6.778099

                             ****ORCA TERMINATED NORMALLY****
TOTAL RUN TIME: 0 days 0 hours 5 minutes 29 seconds 271 msec
