                         Program Version 4.2.0 -  RELEASE  -
|  1> # ORCA input file
|  2> # SCF done       -195.822410671999          0.000633253320
|  3> ! CAM-B3LYP def2-SVP def2/J RIJCOSX Grid4 TightSCF
|  4> %maxcore 5000
|  5> %tddft
|  6>     Mode sTDDFT
|  7>     Ethresh 5.0
|  8>     maxcore 5000
|  9> end
| 10>
| 11> %pal
| 12>   nprocs 6
| 13>   end
| 14> * xyz 0 1
| 15>    C        0.17206        -2.17609        -3.37177
| 16>    C       -0.74234        -1.49067        -4.11221
| 17>    C       -0.89303        -0.17071        -3.64542
| 18>    C       -0.07117         0.10378        -2.54590
| 19>    S        0.87408        -1.24237        -2.09186
| 20>    C       -0.28922         1.45185        -2.14050
| 21>    C       -1.24992         2.02013        -2.98712
| 22>    C       -1.66076         1.01846        -3.96450
| 23>    C       -2.57344         1.17652        -4.96592
| 24>    C       -3.25725         2.39316        -5.17144
| 25>    N       -3.81391         3.38214        -5.33574
| 26>    C       -2.89273         0.13594        -5.86339
| 27>    N       -3.15427        -0.70767        -6.59452
| 28>    C       -1.53790         3.34854        -2.66960
| 29>    C       -0.80026         3.79128        -1.58809
| 30>    S        0.26592         2.54591        -0.95387
| 31>    C       -0.83008         5.07511        -0.98484
| 32>    C       -0.07847         5.52183         0.08548
| 33>    C       -0.37478         6.84509         0.41454
| 34>    C       -1.36132         7.40693        -0.41252
| 35>    S       -1.92195         6.31031        -1.59615
| 36>    C       -1.59418         8.74239         0.00402
| 37>    C       -0.75218         9.02561         1.09245
| 38>    C        0.04149         7.84253         1.38755
| 39>    C        0.97382         7.69798         2.37223
| 40>    C        1.29082         8.74529         3.26285
| 41>    N        1.54939         9.59705         3.98559
| 42>    C        1.67922         6.49147         2.56510
| 43>    N        2.25277         5.51120         2.72303
| 44>    C       -0.91232        10.32199         1.58096
| 45>    C       -1.87183        11.02509         0.87584
| 46>    S       -2.58451        10.06865        -0.41686
| 47>    C       -2.30824        12.35493         1.10001
| 48>    C       -3.30456        13.04131         0.43035
| 49>    C       -3.47845        14.33024         0.93383
| 50>    C       -2.60287        14.62782         1.99185
| 51>    S       -1.56812        13.32220         2.36901
| 52>    C       -2.86573        15.94673         2.43949
| 53>    C       -3.91049        16.48252         1.66752
| 54>    C       -4.32701        15.48676         0.69235
| 55>    C       -5.30739        15.61064        -0.24735
| 56>    C       -6.06628        16.79182        -0.38720
| 57>    N       -6.68292        17.75129        -0.50407
| 58>    C       -5.62521        14.56555        -1.14039
| 59>    N       -5.88321        13.71549        -1.86524
| 60>    C       -4.25660        17.77933         2.04634
| 61>    C       -3.48149        18.23515         3.09687
| 62>    S       -2.30267        17.04099         3.62413
| 63>    C       -3.56216        19.48991         3.75138
| 64>    C       -2.75768        19.96351         4.77147
| 65>    C       -3.14076        21.23812         5.18826
| 66>    C       -4.24819        21.73580         4.48137
| 67>    S       -4.81235        20.64123         3.29807
| 68>    C       -4.56766        23.02136         4.98771
| 69>    C       -3.65944        23.33832         6.01119
| 70>    C       -2.73000        22.23097         6.16922
| 71>    C       -1.69347        22.14130         7.05079
| 72>    C       -1.38927        23.17810         7.95802
| 73>    N       -1.14120        24.02074         8.69498
| 74>    C       -0.85774        21.00621         7.11184
| 75>    N       -0.17938        20.08331         7.16443
| 76>    C       -3.90156        24.58685         6.58538
| 77>    C       -4.98802        25.21801         6.00978
| 78>    S       -5.71962        24.25649         4.73239
| 79>    C       -5.53282        26.48397         6.34681
| 80>    C       -6.64398        27.09795         5.80075
| 81>    C       -6.89449        28.33886         6.38878
| 82>    C       -5.96622        28.66892         7.38480
| 83>    S       -4.78429        27.45730         7.60467
| 84>    C       -6.31165        29.94336         7.91927
| 85>    C       -7.45562        30.40912         7.26035
| 86>    C       -7.86468        29.42235         6.27837
| 87>    C       -8.93194        29.48392         5.43104
| 88>    C       -9.81624        30.58300         5.41363
| 89>    N      -10.53879        31.47316         5.39642
| 90>    C       -9.22332        28.44992         4.51670
| 91>    N       -9.45825        27.60951         3.77280
| 92>    C       -7.86944        31.67065         7.72956
| 93>    C       -7.04708        32.12643         8.71456
| 94>    S       -5.75193        31.04137         9.09947
| 95>    H        0.48824        -3.19244        -3.49547
| 96>    H       -1.27500        -1.91343        -4.94426
| 97>    H       -2.24342         3.97252        -3.18838
| 98>    H        0.64319         4.90381         0.58891
| 99>    H       -0.37026        10.74548         2.40745
|100>    H       -3.86851        12.60851        -0.37643
|101>    H       -5.02945        18.37343         1.59248
|102>    H       -1.93982        19.39664         5.17894
|103>    H       -3.32909        25.02444         7.38349
|104>    H       -7.23114        26.65119         5.01852
|105>    H       -8.72255        32.21299         7.36507
|106>    H       -7.11712        33.05000         9.25339
|107> *
|108>
|109>                          ****END OF INPUT****

CARTESIAN COORDINATES (ANGSTROEM)
---------------------------------
  C      0.172060   -2.176090   -3.371770
  C     -0.742340   -1.490670   -4.112210
  C     -0.893030   -0.170710   -3.645420
  C     -0.071170    0.103780   -2.545900
  S      0.874080   -1.242370   -2.091860
  C     -0.289220    1.451850   -2.140500
  C     -1.249920    2.020130   -2.987120
  C     -1.660760    1.018460   -3.964500
  C     -2.573440    1.176520   -4.965920
  C     -3.257250    2.393160   -5.171440
  N     -3.813910    3.382140   -5.335740
  C     -2.892730    0.135940   -5.863390
  N     -3.154270   -0.707670   -6.594520
  C     -1.537900    3.348540   -2.669600
  C     -0.800260    3.791280   -1.588090
  S      0.265920    2.545910   -0.953870
  C     -0.830080    5.075110   -0.984840
  C     -0.078470    5.521830    0.085480
  C     -0.374780    6.845090    0.414540
  C     -1.361320    7.406930   -0.412520
  S     -1.921950    6.310310   -1.596150
  C     -1.594180    8.742390    0.004020
  C     -0.752180    9.025610    1.092450
  C      0.041490    7.842530    1.387550
  C      0.973820    7.697980    2.372230
  C      1.290820    8.745290    3.262850
  N      1.549390    9.597050    3.985590
  C      1.679220    6.491470    2.565100
  N      2.252770    5.511200    2.723030
  C     -0.912320   10.321990    1.580960
  C     -1.871830   11.025090    0.875840
  S     -2.584510   10.068650   -0.416860
  C     -2.308240   12.354930    1.100010
  C     -3.304560   13.041310    0.430350
  C     -3.478450   14.330240    0.933830
  C     -2.602870   14.627820    1.991850
  S     -1.568120   13.322200    2.369010
  C     -2.865730   15.946730    2.439490
  C     -3.910490   16.482520    1.667520
  C     -4.327010   15.486760    0.692350
  C     -5.307390   15.610640   -0.247350
  C     -6.066280   16.791820   -0.387200
  N     -6.682920   17.751290   -0.504070
  C     -5.625210   14.565550   -1.140390
  N     -5.883210   13.715490   -1.865240
  C     -4.256600   17.779330    2.046340
  C     -3.481490   18.235150    3.096870
  S     -2.302670   17.040990    3.624130
  C     -3.562160   19.489910    3.751380
  C     -2.757680   19.963510    4.771470
  C     -3.140760   21.238120    5.188260
  C     -4.248190   21.735800    4.481370
  S     -4.812350   20.641230    3.298070
  C     -4.567660   23.021360    4.987710
  C     -3.659440   23.338320    6.011190
  C     -2.730000   22.230970    6.169220
  C     -1.693470   22.141300    7.050790
  C     -1.389270   23.178100    7.958020
  N     -1.141200   24.020740    8.694980
  C     -0.857740   21.006210    7.111840
  N     -0.179380   20.083310    7.164430
  C     -3.901560   24.586850    6.585380
  C     -4.988020   25.218010    6.009780
  S     -5.719620   24.256490    4.732390
  C     -5.532820   26.483970    6.346810
  C     -6.643980   27.097950    5.800750
  C     -6.894490   28.338860    6.388780
  C     -5.966220   28.668920    7.384800
  S     -4.784290   27.457300    7.604670
  C     -6.311650   29.943360    7.919270
  C     -7.455620   30.409120    7.260350
  C     -7.864680   29.422350    6.278370
  C     -8.931940   29.483920    5.431040
  C     -9.816240   30.583000    5.413630
  N    -10.538790   31.473160    5.396420
  C     -9.223320   28.449920    4.516700
  N     -9.458250   27.609510    3.772800
  C     -7.869440   31.670650    7.729560
  C     -7.047080   32.126430    8.714560
  S     -5.751930   31.041370    9.099470
  H      0.488240   -3.192440   -3.495470
  H     -1.275000   -1.913430   -4.944260
  H     -2.243420    3.972520   -3.188380
  H      0.643190    4.903810    0.588910
  H     -0.370260   10.745480    2.407450
  H     -3.868510   12.608510   -0.376430
  H     -5.029450   18.373430    1.592480
  H     -1.939820   19.396640    5.178940
  H     -3.329090   25.024440    7.383490
  H     -7.231140   26.651190    5.018520
  H     -8.722550   32.212990    7.365070
  H     -7.117120   33.050000    9.253390

 Total Charge           Charge          ....    0
 Multiplicity           Mult            ....    1
 Number of Electrons    NEL             ....  602
 Basis Dimension        Dim             .... 1220

ORBITAL ENERGIES
----------------

  NO   OCC          E(Eh)            E(eV)
   0   2.0000     -88.995592     -2421.6932
   1   2.0000     -88.995506     -2421.6908
   2   2.0000     -88.995438     -2421.6890
   3   2.0000     -88.995360     -2421.6869
   4   2.0000     -88.994815     -2421.6720
   5   2.0000     -88.994656     -2421.6677
   6   2.0000     -88.993176     -2421.6274
   7   2.0000     -88.992930     -2421.6207
   8   2.0000     -88.988627     -2421.5036
   9   2.0000     -88.988463     -2421.4992
  10   2.0000     -14.435333      -392.8054
  11   2.0000     -14.435315      -392.8049
  12   2.0000     -14.435290      -392.8042
  13   2.0000     -14.435251      -392.8032
  14   2.0000     -14.435250      -392.8031
  15   2.0000     -14.435164      -392.8008
  16   2.0000     -14.431189      -392.6926
  17   2.0000     -14.431185      -392.6925
  18   2.0000     -14.430016      -392.6607
  19   2.0000     -14.429942      -392.6587
  20   2.0000     -10.370040      -282.1831
  21   2.0000     -10.369688      -282.1736
  22   2.0000     -10.369647      -282.1725
  23   2.0000     -10.364602      -282.0352
  24   2.0000     -10.364569      -282.0343
  25   2.0000     -10.356904      -281.8257
  26   2.0000     -10.356720      -281.8207
  27   2.0000     -10.356691      -281.8199
  28   2.0000     -10.352247      -281.6990
  29   2.0000     -10.352192      -281.6975
  30   2.0000     -10.336879      -281.2808
  31   2.0000     -10.336711      -281.2762
  32   2.0000     -10.336677      -281.2753
  33   2.0000     -10.336674      -281.2752
  34   2.0000     -10.335841      -281.2525
  35   2.0000     -10.335839      -281.2525
  36   2.0000     -10.335622      -281.2466
  37   2.0000     -10.335591      -281.2457
  38   2.0000     -10.335561      -281.2449
  39   2.0000     -10.335534      -281.2442
  40   2.0000     -10.335490      -281.2430
  41   2.0000     -10.335465      -281.2423
  42   2.0000     -10.334478      -281.2154
  43   2.0000     -10.334476      -281.2154
  44   2.0000     -10.334064      -281.2042
  45   2.0000     -10.334024      -281.2031
  46   2.0000     -10.333610      -281.1918
  47   2.0000     -10.333559      -281.1904
  48   2.0000     -10.332996      -281.1751
  49   2.0000     -10.332902      -281.1726
  50   2.0000     -10.331735      -281.1408
  51   2.0000     -10.331716      -281.1403
  52   2.0000     -10.331601      -281.1372
  53   2.0000     -10.331547      -281.1357
  54   2.0000     -10.330586      -281.1095
  55   2.0000     -10.330542      -281.1083
  56   2.0000     -10.330322      -281.1023
  57   2.0000     -10.330245      -281.1003
  58   2.0000     -10.312566      -280.6192
  59   2.0000     -10.312472      -280.6166
  60   2.0000     -10.308211      -280.5007
  61   2.0000     -10.308199      -280.5003
  62   2.0000     -10.307774      -280.4888
  63   2.0000     -10.307752      -280.4882
  64   2.0000     -10.307489      -280.4810
  65   2.0000     -10.307484      -280.4809
  66   2.0000     -10.306962      -280.4667
  67   2.0000     -10.306944      -280.4662
  68   2.0000     -10.306853      -280.4637
  69   2.0000     -10.306850      -280.4637
  70   2.0000     -10.305821      -280.4356
  71   2.0000     -10.305783      -280.4346
  72   2.0000     -10.304520      -280.4002
  73   2.0000     -10.304482      -280.3992
  74   2.0000     -10.304068      -280.3879
  75   2.0000     -10.304040      -280.3872
  76   2.0000     -10.300273      -280.2847
  77   2.0000     -10.300214      -280.2831
  78   2.0000     -10.298374      -280.2330
  79   2.0000     -10.298369      -280.2329
  80   2.0000      -8.090068      -220.1419
  81   2.0000      -8.090004      -220.1402
  82   2.0000      -8.089888      -220.1371
  83   2.0000      -8.089862      -220.1363
  84   2.0000      -8.089218      -220.1188
  85   2.0000      -8.089137      -220.1166
  86   2.0000      -8.087586      -220.0744
  87   2.0000      -8.087451      -220.0707
  88   2.0000      -8.083671      -219.9679
  89   2.0000      -8.083580      -219.9654
  90   2.0000      -6.059359      -164.8835
  91   2.0000      -6.059336      -164.8829
  92   2.0000      -6.059197      -164.8791
  93   2.0000      -6.059172      -164.8784
  94   2.0000      -6.058540      -164.8612
  95   2.0000      -6.058438      -164.8585
  96   2.0000      -6.056892      -164.8164
  97   2.0000      -6.056733      -164.8121
  98   2.0000      -6.055181      -164.7699
  99   2.0000      -6.055156      -164.7692
 100   2.0000      -6.055016      -164.7654
 101   2.0000      -6.054989      -164.7646
 102   2.0000      -6.054340      -164.7470
 103   2.0000      -6.054269      -164.7450
 104   2.0000      -6.052926      -164.7085
 105   2.0000      -6.052834      -164.7060
 106   2.0000      -6.052716      -164.7028
 107   2.0000      -6.052593      -164.6994
 108   2.0000      -6.052272      -164.6907
 109   2.0000      -6.052245      -164.6900
 110   2.0000      -6.052127      -164.6868
 111   2.0000      -6.052082      -164.6855
 112   2.0000      -6.051475      -164.6690
 113   2.0000      -6.051375      -164.6663
 114   2.0000      -6.049865      -164.6252
 115   2.0000      -6.049703      -164.6208
 116   2.0000      -6.048461      -164.5870
 117   2.0000      -6.048371      -164.5845
 118   2.0000      -6.046281      -164.5277
 119   2.0000      -6.046164      -164.5245
 120   2.0000      -1.051696       -28.6181
 121   2.0000      -1.049904       -28.5693
 122   2.0000      -1.047982       -28.5170
 123   2.0000      -1.044204       -28.4142
 124   2.0000      -1.044063       -28.4104
 125   2.0000      -1.027659       -27.9640
 126   2.0000      -1.027162       -27.9505
 127   2.0000      -1.026387       -27.9294
 128   2.0000      -1.022460       -27.8225
 129   2.0000      -1.022341       -27.8193
 130   2.0000      -1.014353       -27.6020
 131   2.0000      -1.012949       -27.5638
 132   2.0000      -1.012843       -27.5609
 133   2.0000      -1.011922       -27.5358
 134   2.0000      -1.008587       -27.4450
 135   2.0000      -1.008194       -27.4344
 136   2.0000      -1.006997       -27.4018
 137   2.0000      -1.000380       -27.2217
 138   2.0000      -0.992974       -27.0202
 139   2.0000      -0.988240       -26.8914
 140   2.0000      -0.969286       -26.3756
 141   2.0000      -0.963290       -26.2125
 142   2.0000      -0.958900       -26.0930
 143   2.0000      -0.955492       -26.0003
 144   2.0000      -0.955338       -25.9961
 145   2.0000      -0.927266       -25.2322
 146   2.0000      -0.921476       -25.0746
 147   2.0000      -0.913421       -24.8554
 148   2.0000      -0.905011       -24.6266
 149   2.0000      -0.900880       -24.5142
 150   2.0000      -0.877073       -23.8664
 151   2.0000      -0.876936       -23.8627
 152   2.0000      -0.873971       -23.7820
 153   2.0000      -0.871238       -23.7076
 154   2.0000      -0.869000       -23.6467
 155   2.0000      -0.864612       -23.5273
 156   2.0000      -0.859723       -23.3943
 157   2.0000      -0.855549       -23.2807
 158   2.0000      -0.852996       -23.2112
 159   2.0000      -0.851473       -23.1698
 160   2.0000      -0.847916       -23.0730
 161   2.0000      -0.834032       -22.6952
 162   2.0000      -0.816274       -22.2120
 163   2.0000      -0.797789       -21.7089
 164   2.0000      -0.785585       -21.3769
 165   2.0000      -0.781608       -21.2686
 166   2.0000      -0.777781       -21.1645
 167   2.0000      -0.777107       -21.1461
 168   2.0000      -0.775671       -21.1071
 169   2.0000      -0.767451       -20.8834
 170   2.0000      -0.752494       -20.4764
 171   2.0000      -0.733137       -19.9497
 172   2.0000      -0.717674       -19.5289
 173   2.0000      -0.711008       -19.3475
 174   2.0000      -0.704025       -19.1575
 175   2.0000      -0.704005       -19.1569
 176   2.0000      -0.703278       -19.1372
 177   2.0000      -0.697538       -18.9810
 178   2.0000      -0.693810       -18.8795
 179   2.0000      -0.690091       -18.7783
 180   2.0000      -0.684324       -18.6214
 181   2.0000      -0.683208       -18.5910
 182   2.0000      -0.678144       -18.4532
 183   2.0000      -0.676133       -18.3985
 184   2.0000      -0.662835       -18.0367
 185   2.0000      -0.658608       -17.9216
 186   2.0000      -0.639213       -17.3939
 187   2.0000      -0.638492       -17.3743
 188   2.0000      -0.634837       -17.2748
 189   2.0000      -0.632589       -17.2136
 190   2.0000      -0.629467       -17.1287
 191   2.0000      -0.626323       -17.0431
 192   2.0000      -0.625127       -17.0106
 193   2.0000      -0.623700       -16.9718
 194   2.0000      -0.621742       -16.9185
 195   2.0000      -0.620410       -16.8822
 196   2.0000      -0.618239       -16.8231
 197   2.0000      -0.614770       -16.7288
 198   2.0000      -0.610036       -16.5999
 199   2.0000      -0.609883       -16.5958
 200   2.0000      -0.580341       -15.7919
 201   2.0000      -0.579544       -15.7702
 202   2.0000      -0.571432       -15.5495
 203   2.0000      -0.564229       -15.3535
 204   2.0000      -0.555116       -15.1055
 205   2.0000      -0.552913       -15.0455
 206   2.0000      -0.550322       -14.9750
 207   2.0000      -0.548767       -14.9327
 208   2.0000      -0.548355       -14.9215
 209   2.0000      -0.546286       -14.8652
 210   2.0000      -0.546014       -14.8578
 211   2.0000      -0.536616       -14.6021
 212   2.0000      -0.534443       -14.5429
 213   2.0000      -0.524780       -14.2800
 214   2.0000      -0.520744       -14.1702
 215   2.0000      -0.519857       -14.1460
 216   2.0000      -0.514368       -13.9967
 217   2.0000      -0.513554       -13.9745
 218   2.0000      -0.513144       -13.9634
 219   2.0000      -0.511401       -13.9159
 220   2.0000      -0.510724       -13.8975
 221   2.0000      -0.505087       -13.7441
 222   2.0000      -0.504091       -13.7170
 223   2.0000      -0.503306       -13.6956
 224   2.0000      -0.503141       -13.6912
 225   2.0000      -0.501137       -13.6366
 226   2.0000      -0.500224       -13.6118
 227   2.0000      -0.497966       -13.5503
 228   2.0000      -0.495195       -13.4750
 229   2.0000      -0.494408       -13.4535
 230   2.0000      -0.493085       -13.4175
 231   2.0000      -0.491323       -13.3696
 232   2.0000      -0.488774       -13.3002
 233   2.0000      -0.486770       -13.2457
 234   2.0000      -0.485601       -13.2139
 235   2.0000      -0.484063       -13.1720
 236   2.0000      -0.482828       -13.1384
 237   2.0000      -0.475732       -12.9453
 238   2.0000      -0.474661       -12.9162
 239   2.0000      -0.472342       -12.8531
 240   2.0000      -0.466328       -12.6894
 241   2.0000      -0.466289       -12.6884
 242   2.0000      -0.466183       -12.6855
 243   2.0000      -0.465982       -12.6800
 244   2.0000      -0.464559       -12.6413
 245   2.0000      -0.462811       -12.5937
 246   2.0000      -0.462436       -12.5835
 247   2.0000      -0.462379       -12.5820
 248   2.0000      -0.461996       -12.5715
 249   2.0000      -0.461962       -12.5706
 250   2.0000      -0.458056       -12.4643
 251   2.0000      -0.458022       -12.4634
 252   2.0000      -0.457663       -12.4536
 253   2.0000      -0.452423       -12.3111
 254   2.0000      -0.448265       -12.1979
 255   2.0000      -0.446074       -12.1383
 256   2.0000      -0.445476       -12.1220
 257   2.0000      -0.445446       -12.1212
 258   2.0000      -0.445398       -12.1199
 259   2.0000      -0.445291       -12.1170
 260   2.0000      -0.444580       -12.0976
 261   2.0000      -0.444045       -12.0831
 262   2.0000      -0.443954       -12.0806
 263   2.0000      -0.442857       -12.0508
 264   2.0000      -0.441552       -12.0152
 265   2.0000      -0.441021       -12.0008
 266   2.0000      -0.440878       -11.9969
 267   2.0000      -0.440230       -11.9793
 268   2.0000      -0.439679       -11.9643
 269   2.0000      -0.438408       -11.9297
 270   2.0000      -0.438310       -11.9270
 271   2.0000      -0.437278       -11.8989
 272   2.0000      -0.431817       -11.7504
 273   2.0000      -0.430307       -11.7093
 274   2.0000      -0.429026       -11.6744
 275   2.0000      -0.426197       -11.5974
 276   2.0000      -0.426175       -11.5968
 277   2.0000      -0.424435       -11.5495
 278   2.0000      -0.414439       -11.2774
 279   2.0000      -0.409744       -11.1497
 280   2.0000      -0.409471       -11.1423
 281   2.0000      -0.396510       -10.7896
 282   2.0000      -0.391940       -10.6652
 283   2.0000      -0.382936       -10.4202
 284   2.0000      -0.367735       -10.0066
 285   2.0000      -0.357600        -9.7308
 286   2.0000      -0.355133        -9.6637
 287   2.0000      -0.352617        -9.5952
 288   2.0000      -0.349895        -9.5211
 289   2.0000      -0.347943        -9.4680
 290   2.0000      -0.347865        -9.4659
 291   2.0000      -0.328465        -8.9380
 292   2.0000      -0.328432        -8.9371
 293   2.0000      -0.326362        -8.8808
 294   2.0000      -0.324342        -8.8258
 295   2.0000      -0.322110        -8.7651
 296   2.0000      -0.320158        -8.7119
 297   2.0000      -0.298875        -8.1328
 298   2.0000      -0.274999        -7.4831
 299   2.0000      -0.252692        -6.8761
 300   2.0000      -0.235956        -6.4207
 301   0.0000      -0.114159        -3.1064
 302   0.0000      -0.109054        -2.9675
 303   0.0000      -0.106856        -2.9077
 304   0.0000      -0.102690        -2.7943
 305   0.0000      -0.102646        -2.7931

MULLIKEN ATOMIC CHARGES
-----------------------
   0 C :   -0.081354
   1 C :    0.036761
   2 C :   -0.031119
   3 C :   -0.117593
   4 S :    0.184929
   5 C :   -0.098682
   6 C :    0.014313
   7 C :    0.297003
   8 C :   -0.294278
   9 C :   -0.186370
  10 N :    0.169127
  11 C :   -0.189098
  12 N :    0.172410
  13 C :   -0.066757
  14 C :   -0.053580
  15 S :    0.191942
  16 C :   -0.048028
  17 C :   -0.069394
  18 C :    0.016336
  19 C :   -0.097959
  20 S :    0.198297
  21 C :   -0.099230
  22 C :    0.015803
  23 C :    0.299783
  24 C :   -0.292815
  25 C :   -0.187299
  26 N :    0.171181
  27 C :   -0.187520
  28 N :    0.172555
  29 C :   -0.067938
  30 C :   -0.050343
  31 S :    0.197907
  32 C :   -0.049696
  33 C :   -0.068176
  34 C :    0.016373
  35 C :   -0.099438
  36 S :    0.197054
  37 C :   -0.097648
  38 C :    0.016946
  39 C :    0.299149
  40 C :   -0.291806
  41 C :   -0.187933
  42 N :    0.174174
  43 C :   -0.187661
  44 N :    0.172243
  45 C :   -0.068113
  46 C :   -0.050509
  47 S :    0.197168
  48 C :   -0.052428
  49 C :   -0.065829
  50 C :    0.015554
  51 C :   -0.097425
  52 S :    0.197736
  53 C :   -0.100851
  54 C :    0.017811
  55 C :    0.298921
  56 C :   -0.293738
  57 C :   -0.187470
  58 N :    0.171196
  59 C :   -0.188460
  60 N :    0.174323
  61 C :   -0.069793
  62 C :   -0.047357
  63 S :    0.198452
  64 C :   -0.052168
  65 C :   -0.068073
  66 C :    0.017062
  67 C :   -0.101213
  68 S :    0.192327
  69 C :   -0.116823
  70 C :   -0.031036
  71 C :    0.295397
  72 C :   -0.295917
  73 C :   -0.190586
  74 N :    0.176526
  75 C :   -0.186818
  76 N :    0.167999
  77 C :    0.039039
  78 C :   -0.082762
  79 S :    0.184946
  80 H :    0.037141
  81 H :    0.012303
  82 H :    0.011426
  83 H :    0.011177
  84 H :    0.011225
  85 H :    0.011553
  86 H :    0.012084
  87 H :    0.011469
  88 H :    0.011096
  89 H :    0.011425
  90 H :    0.012716
  91 H :    0.036724
Sum of atomic charges:   -0.0000000

LOEWDIN ATOMIC CHARGES
----------------------
   0 C :   -0.177459
   1 C :   -0.033587
   2 C :   -0.077099
   3 C :   -0.184523
   4 S :    0.480245
   5 C :   -0.179325
   6 C :   -0.069127
   7 C :    0.083563
   8 C :   -0.103117
   9 C :   -0.015932
  10 N :   -0.035211
  11 C :   -0.017016
  12 N :   -0.031981
  13 C :   -0.038892
  14 C :   -0.182335
  15 S :    0.483867
  16 C :   -0.177671
  17 C :   -0.040777
  18 C :   -0.068716
  19 C :   -0.180993
  20 S :    0.486560
  21 C :   -0.179039
  22 C :   -0.069453
  23 C :    0.083374
  24 C :   -0.100821
  25 C :   -0.016125
  26 N :   -0.031964
  27 C :   -0.016019
  28 N :   -0.032231
  29 C :   -0.038875
  30 C :   -0.180443
  31 S :    0.485902
  32 C :   -0.179217
  33 C :   -0.039221
  34 C :   -0.068591
  35 C :   -0.180114
  36 S :    0.485351
  37 C :   -0.179945
  38 C :   -0.068576
  39 C :    0.082747
  40 C :   -0.099790
  41 C :   -0.016413
  42 N :   -0.030839
  43 C :   -0.016152
  44 N :   -0.030993
  45 C :   -0.039399
  46 C :   -0.179313
  47 S :    0.485328
  48 C :   -0.180385
  49 C :   -0.038872
  50 C :   -0.069459
  51 C :   -0.178872
  52 S :    0.485881
  53 C :   -0.181105
  54 C :   -0.068731
  55 C :    0.083289
  56 C :   -0.100866
  57 C :   -0.015869
  58 N :   -0.032329
  59 C :   -0.016386
  60 N :   -0.031800
  61 C :   -0.040699
  62 C :   -0.177648
  63 S :    0.486544
  64 C :   -0.182347
  65 C :   -0.038839
  66 C :   -0.069217
  67 C :   -0.179306
  68 S :    0.483857
  69 C :   -0.184423
  70 C :   -0.077043
  71 C :    0.083472
  72 C :   -0.103215
  73 C :   -0.017243
  74 N :   -0.031851
  75 C :   -0.015778
  76 N :   -0.035323
  77 C :   -0.033593
  78 C :   -0.177325
  79 S :    0.480186
  80 H :    0.028031
  81 H :    0.042761
  82 H :    0.035343
  83 H :    0.035358
  84 H :    0.035502
  85 H :    0.035716
  86 H :    0.035770
  87 H :    0.035613
  88 H :    0.035372
  89 H :    0.035356
  90 H :    0.042826
  91 H :    0.028007

  Mayer bond orders larger than 0.100000
B(  0-C ,  1-C ) :   1.5491 B(  0-C ,  4-S ) :   1.1503 B(  0-C , 80-H ) :   0.9641
B(  1-C ,  2-C ) :   1.2757 B(  1-C , 81-H ) :   0.9971 B(  2-C ,  3-C ) :   1.4560
B(  2-C ,  7-C ) :   1.0165 B(  3-C ,  4-S ) :   1.1382 B(  3-C ,  5-C ) :   1.1797
B(  5-C ,  6-C ) :   1.4637 B(  5-C , 15-S ) :   1.1230 B(  6-C ,  7-C ) :   0.9928
B(  6-C , 13-C ) :   1.2938 B(  7-C ,  8-C ) :   1.7116 B(  8-C ,  9-C ) :   1.1319
B(  8-C , 11-C ) :   1.1284 B(  9-C , 10-N ) :   2.9899 B( 11-C , 12-N ) :   3.0019
B( 13-C , 14-C ) :   1.4649 B( 13-C , 82-H ) :   0.9879 B( 14-C , 15-S ) :   1.1098
B( 14-C , 16-C ) :   1.1653 B( 16-C , 17-C ) :   1.4630 B( 16-C , 20-S ) :   1.1094
B( 17-C , 18-C ) :   1.2947 B( 17-C , 83-H ) :   0.9879 B( 18-C , 19-C ) :   1.4477
B( 18-C , 23-C ) :   0.9961 B( 19-C , 20-S ) :   1.1193 B( 19-C , 21-C ) :   1.1838
B( 21-C , 22-C ) :   1.4474 B( 21-C , 31-S ) :   1.1208 B( 22-C , 23-C ) :   0.9932
B( 22-C , 29-C ) :   1.2971 B( 23-C , 24-C ) :   1.7147 B( 24-C , 25-C ) :   1.1315
B( 24-C , 27-C ) :   1.1326 B( 25-C , 26-N ) :   2.9905 B( 27-C , 28-N ) :   2.9911
B( 29-C , 30-C ) :   1.4590 B( 29-C , 84-H ) :   0.9881 B( 30-C , 31-S ) :   1.1074
B( 30-C , 32-C ) :   1.1681 B( 32-C , 33-C ) :   1.4591 B( 32-C , 36-S ) :   1.1081
B( 33-C , 34-C ) :   1.2969 B( 33-C , 85-H ) :   0.9882 B( 34-C , 35-C ) :   1.4465
B( 34-C , 39-C ) :   0.9937 B( 35-C , 36-S ) :   1.1192 B( 35-C , 37-C ) :   1.1858
B( 37-C , 38-C ) :   1.4461 B( 37-C , 47-S ) :   1.1196 B( 38-C , 39-C ) :   0.9955
B( 38-C , 45-C ) :   1.2975 B( 39-C , 40-C ) :   1.7150 B( 40-C , 41-C ) :   1.1325
B( 40-C , 43-C ) :   1.1323 B( 41-C , 42-N ) :   2.9913 B( 43-C , 44-N ) :   2.9906
B( 45-C , 46-C ) :   1.4591 B( 45-C , 86-H ) :   0.9876 B( 46-C , 47-S ) :   1.1076
B( 46-C , 48-C ) :   1.1696 B( 48-C , 49-C ) :   1.4593 B( 48-C , 52-S ) :   1.1072
B( 49-C , 50-C ) :   1.2975 B( 49-C , 87-H ) :   0.9875 B( 50-C , 51-C ) :   1.4478
B( 50-C , 55-C ) :   0.9952 B( 51-C , 52-S ) :   1.1207 B( 51-C , 53-C ) :   1.1843
B( 53-C , 54-C ) :   1.4486 B( 53-C , 63-S ) :   1.1193 B( 54-C , 55-C ) :   0.9951
B( 54-C , 61-C ) :   1.2946 B( 55-C , 56-C ) :   1.7135 B( 56-C , 57-C ) :   1.1334
B( 56-C , 59-C ) :   1.1327 B( 57-C , 58-N ) :   2.9908 B( 59-C , 60-N ) :   2.9920
B( 61-C , 62-C ) :   1.4643 B( 61-C , 88-H ) :   0.9878 B( 62-C , 63-S ) :   1.1091
B( 62-C , 64-C ) :   1.1628 B( 64-C , 65-C ) :   1.4663 B( 64-C , 68-S ) :   1.1091
B( 65-C , 66-C ) :   1.2938 B( 65-C , 89-H ) :   0.9877 B( 66-C , 67-C ) :   1.4647
B( 66-C , 71-C ) :   0.9923 B( 67-C , 68-S ) :   1.1233 B( 67-C , 69-C ) :   1.1803
B( 69-C , 70-C ) :   1.4568 B( 69-C , 79-S ) :   1.1374 B( 70-C , 71-C ) :   1.0183
B( 70-C , 77-C ) :   1.2755 B( 71-C , 72-C ) :   1.7104 B( 72-C , 73-C ) :   1.1301
B( 72-C , 75-C ) :   1.1332 B( 73-C , 74-N ) :   3.0037 B( 75-C , 76-N ) :   2.9896
B( 77-C , 78-C ) :   1.5474 B( 77-C , 90-H ) :   0.9967 B( 78-C , 79-S ) :   1.1512
B( 78-C , 91-H ) :   0.9646

-----------------------------------------------------------------------------
         ABSORPTION SPECTRUM VIA TRANSITION ELECTRIC DIPOLE MOMENTS
-----------------------------------------------------------------------------
State   Energy  Wavelength   fosc         T2         TX        TY        TZ
        (cm-1)    (nm)                  (au**2)     (au)      (au)      (au)
-----------------------------------------------------------------------------
   0   10296.9    971.2   0.591311425  18.90546  -0.83974   4.02767   1.40648
   1   11100.6    900.9   0.000547347   0.01623  -0.10384  -0.03256   0.06625
   2   11177.4    894.7   0.015202796   0.44777  -0.14495   0.61092   0.23139
   3   13724.6    728.6   0.158321270   3.79766  -0.40937   1.79277   0.64501
   4   13764.3    726.5   0.003063444   0.07327  -0.18457  -0.17170  -0.09862
   5   18596.9    537.7   0.000437347   0.00774  -0.07381  -0.02774   0.03905
   6   19679.0    508.2   0.117356505   1.96327  -0.25641   1.30585   0.43851
   7   20269.1    493.4   0.000329807   0.00536   0.04666  -0.01587   0.05411
   8   22381.2    446.8   1.329267496  19.55260   0.86231  -4.08996  -1.44264
   9   22745.2    439.7   0.000584555   0.00846   0.00231   0.07954  -0.04614
  10   23005.1    434.7   0.343319465   4.91304  -0.43553   2.04856   0.72579
  11   24709.9    404.7   0.001916955   0.02554  -0.15255   0.01171  -0.04616
  12   24890.0    401.8   0.268924639   3.55698   0.36799  -1.74399  -0.61650
  13   25266.5    395.8   1.432236717  18.66143  -0.83847   3.99905   1.40214
  14   26882.1    372.0   0.015699312   0.19226  -0.42947  -0.07266  -0.05038
  15   27501.8    363.6   0.000939998   0.01125   0.02323  -0.09151  -0.04837
  16   27658.3    361.6   0.002653636   0.03159   0.17424   0.01916   0.02931
  17   29041.4    344.3   0.003458742   0.03921   0.19395   0.02926   0.02714
  18   29316.1    341.1   0.007255065   0.08147  -0.07539   0.25155   0.11187
  19   29910.2    334.3   0.001291701   0.01422  -0.09162   0.01244  -0.07529
  20   30430.4    328.6   0.352187385   3.81014   0.52493  -1.70579  -0.79049
  21   31721.7    315.2   0.071620303   0.74328   0.62866  -0.06924   0.58590
  22   31831.0    314.2   1.133622748  11.72448   2.50706  -0.26695   2.31687
  23   31937.7    313.1   0.007663785   0.07900  -0.04015   0.27240  -0.05644
  24   32159.5    311.0   1.563102538  16.00125  -2.91515   0.33514  -2.71861
  25   32276.2    309.8   0.064710665   0.66004   0.24462  -0.71045  -0.30897
  26   32407.8    308.6   0.409617121   4.16106   1.46058  -0.20715   1.40885
  27   32514.8    307.6   0.000171605   0.00174  -0.02350   0.02444  -0.02424
  28   32618.8    306.6   0.324536858   3.27545   1.28907  -0.21475   1.25205
  29   32677.3    306.0   0.303600328   3.05866   0.05621  -1.69291  -0.43539
  30   33180.0    301.4   0.176675388   1.75297  -0.90982   0.18654  -0.94361
  31   33261.4    300.6   0.231739008   2.29368   0.29784  -1.36542  -0.58362
  32   33408.1    299.3   0.097350386   0.95932   0.72394  -0.11382   0.64982
  33   33790.3    295.9   0.030728106   0.29938   0.10448  -0.48802  -0.22428
  34   33868.1    295.3   0.025798658   0.25077  -0.35068   0.07821  -0.34883
  35   34445.6    290.3   0.076595610   0.73206  -0.61301   0.01812  -0.59661
  36   34529.1    289.6   0.144572400   1.37840   0.30331  -1.06171  -0.39897
  37   34618.8    288.9   0.001610952   0.01532  -0.03234   0.11243   0.04041
  38   34846.8    287.0   0.307995995   2.90977  -0.44756   1.55784   0.53160
  39   34883.8    286.7   0.079477803   0.75006   0.65258   0.15466   0.54799
  40   35075.0    285.1   0.013090316   0.12287  -0.04823   0.33785   0.07996
  41   35395.4    282.5   0.000965932   0.00898  -0.09460  -0.00340   0.00488
  42   35723.4    279.9   0.185385243   1.70843  -0.22916   1.22674   0.38864
  43   35881.1    278.7   0.046181650   0.42372  -0.41297   0.06269  -0.49925
  44   36006.1    277.7   0.022948389   0.20982  -0.10205   0.41647   0.16111
  45   36073.9    277.2   0.001293725   0.01181  -0.10073  -0.02491  -0.03223
  46   36208.5    276.2   0.002876612   0.02615   0.00928   0.16102   0.01192
  47   37736.4    265.0   0.073438688   0.64068  -0.58942   0.05777  -0.53845
  48   37924.7    263.7   0.000263816   0.00229   0.02224  -0.02004  -0.03733
  49   38161.5    262.0   0.049334468   0.42560  -0.11102   0.61358   0.19181
  50   38225.5    261.6   0.014194428   0.12225   0.27560  -0.00497   0.21510
  51   38548.4    259.4   0.001021178   0.00872   0.07694  -0.00558   0.05263
  52   38758.0    258.0   0.013172333   0.11189  -0.04531   0.31877   0.09066
  53   39074.9    255.9   0.006431260   0.05418   0.03348  -0.22117  -0.06439
  54   39101.3    255.7   0.000383626   0.00323  -0.04118  -0.01496  -0.03620
  55   39163.7    255.3   0.023731707   0.19949   0.30808  -0.05262   0.31907
  56   39519.5    253.0   0.002105037   0.01754   0.01952  -0.12268  -0.04588
  57   39718.1    251.8   0.000177364   0.00147  -0.02720   0.00794  -0.02583
  58   39910.7    250.6   0.015157343   0.12503  -0.09083   0.31202   0.13936
  59   40034.5    249.8   0.000188684   0.00155   0.00292   0.03920   0.00252
  60   40245.0    248.5   0.000441644   0.00361   0.04249  -0.00607   0.04208

FINAL SINGLE POINT ENERGY     -6817.914136821953

DIPOLE MOMENT
-------------
                                X             Y             Z
Electronic contribution:      3.22194       0.13470       1.61264
Nuclear contribution   :     -1.81584      -0.33521      -0.17160
                        -----------------------------------------
Total Dipole Moment    :      1.40609      -0.20051       1.44104
                        -----------------------------------------
Magnitude (a.u.)       :      2.02334
Magnitude (Debye)      :      5.14293

Rotational constants in cm-1:     0.002252     0.000115     0.000110
Rotational constants in MHz :    67.517822     3.445306     3.283656

                             ****ORCA TERMINATED NORMALLY****
TOTAL RUN TIME: 0 days 0 hours 9 minutes 13 seconds 711 msec
