                         Program Version 4.2.0 -  RELEASE  -
|  1> # ORCA input file
|  2> # SCF done       -189.397631168512          0.000451482243
|  3> ! CAM-B3LYP def2-SVP def2/J RIJCOSX Grid4 TightSCF
|  4> %maxcore 5000
|  5> %tddft
|  6>     Mode sTDDFT
|  7>     Ethresh 5.0
|  8>     maxcore 5000
|  9> end
| 10>
| 11> %pal
| 12>   nprocs 6
| 13>   end
| 14> * xyz 0 1
| 15>    C        2.41388        -3.16392        -4.45568
| 16>    O        3.62655        -3.09979        -4.35276
| 17>    C        1.57080        -2.56795        -5.48059
| 18>    C        0.23054        -2.85355        -5.25293
| 19>    C       -0.61439        -2.29247        -6.22924
| 20>    C        0.10719        -1.60442        -7.16031
| 21>    S        1.80814        -1.61692        -6.88023
| 22>    C        0.11902        -3.65806        -4.05041
| 23>    C       -1.06520        -4.09363        -3.51806
| 24>    C       -2.30246        -3.79294        -4.12714
| 25>    N       -3.31850        -3.56057        -4.60666
| 26>    C       -1.21806        -4.85491        -2.34199
| 27>    N       -1.41891        -5.46857        -1.39253
| 28>    C        1.47340        -3.86995        -3.56137
| 29>    C        1.81616        -4.62422        -2.47182
| 30>    C        3.07469        -4.91011        -1.91727
| 31>    C        3.21955        -5.74693        -0.80515
| 32>    C        4.53932        -5.90243        -0.42512
| 33>    C        5.42343        -5.16513        -1.25177
| 34>    S        4.62989        -4.30316        -2.48792
| 35>    C        6.74098        -5.38988        -0.79213
| 36>    C        6.69718        -6.26168         0.31150
| 37>    C        5.31057        -6.60178         0.58903
| 38>    C        4.84874        -7.39085         1.60157
| 39>    C        3.47483        -7.65985         1.77872
| 40>    N        2.35969        -7.87856         1.92924
| 41>    C        5.71112        -7.96038         2.56285
| 42>    N        6.40828        -8.39483         3.36340
| 43>    C        7.95429        -6.56576         0.82002
| 44>    C        8.96813        -5.92811         0.11931
| 45>    S        8.34140        -4.92977        -1.18378
| 46>    C       10.36963        -6.03178         0.35701
| 47>    C       10.89436        -7.00169         1.17967
| 48>    C       12.24582        -7.16075         1.46147
| 49>    C       13.25670        -6.26151         0.90342
| 50>    C       12.97218        -5.24815         0.05537
| 51>    S       11.38486        -4.86032        -0.47116
| 52>    C       14.49415        -6.72249         1.43244
| 53>    C       14.28332        -7.83462         2.25444
| 54>    C       15.49606        -8.32488         2.78836
| 55>    C       16.56223        -7.59249         2.37183
| 56>    S       16.15010        -6.28443         1.31799
| 57>    C       12.87364        -8.12980         2.27673
| 58>    C       12.16893        -9.16776         2.91510
| 59>    C       12.64883       -10.13114         3.74986
| 60>    C       11.81917       -11.14306         4.28581
| 61>    C       10.47816       -11.39431         4.00942
| 62>    C        9.98865       -12.48009         4.71823
| 63>    C       10.94910       -13.07816         5.55786
| 64>    S       12.46532       -12.29164         5.45007
| 65>    C       10.34357       -14.16265         6.22956
| 66>    C        8.99367       -14.24737         5.81760
| 67>    C        8.73439       -13.20885         4.84145
| 68>    C        7.58214       -12.99970         4.14028
| 69>    C        7.47062       -12.00056         3.15090
| 70>    N        7.39145       -11.20347         2.32977
| 71>    C        6.44440       -13.80779         4.34694
| 72>    N        5.52896       -14.47350         4.53136
| 73>    C        8.31628       -15.31066         6.39794
| 74>    C        9.12385       -16.05121         7.24802
| 75>    S       10.75215       -15.37884         7.34836
| 76>    C        8.79227       -17.17576         8.03208
| 77>    C        7.74495       -18.03488         7.89283
| 78>    C        7.36036       -18.88000         9.06905
| 79>    O        8.00063       -19.03588        10.08328
| 80>    C        6.04945       -19.40374         8.70494
| 81>    C        5.70360       -19.03606         7.40971
| 82>    C        6.79872       -18.28554         6.82108
| 83>    C        6.96587       -18.10927         5.47196
| 84>    C        5.98573       -18.51755         4.54223
| 85>    N        5.20395       -18.84764         3.77049
| 86>    C        8.13208       -17.61475         4.85991
| 87>    N        9.07210       -17.25213         4.30889
| 88>    C        4.44161       -19.52496         7.02401
| 89>    C        3.86748       -20.23832         8.03482
| 90>    S        4.83744       -20.34628         9.45640
| 91>    H       -1.68412        -2.38537        -6.25305
| 92>    H       -0.27234        -1.07849        -8.01449
| 93>    H        1.00261        -5.09861        -1.93521
| 94>    H        2.37631        -6.20876        -0.32233
| 95>    H        8.11967        -7.20591         1.66594
| 96>    H       10.19381        -7.69284         1.62277
| 97>    H       13.73078        -4.60318        -0.35899
| 98>    H       15.59385        -9.17064         3.44325
| 99>    H       17.59497        -7.73931         2.62107
|100>    H       11.11037        -9.19160         2.70033
|101>    H       13.68851       -10.14623         4.03726
|102>    H        9.89308       -10.81691         3.31889
|103>    H        7.27135       -15.51791         6.25550
|104>    H        9.41336       -17.35454         8.90466
|105>    H        3.97701       -19.35650         6.07037
|106>    H        2.90984       -20.72112         8.02445
|107> *
|108>
|109>                          ****END OF INPUT****

CARTESIAN COORDINATES (ANGSTROEM)
---------------------------------
  C      2.413880   -3.163920   -4.455680
  O      3.626550   -3.099790   -4.352760
  C      1.570800   -2.567950   -5.480590
  C      0.230540   -2.853550   -5.252930
  C     -0.614390   -2.292470   -6.229240
  C      0.107190   -1.604420   -7.160310
  S      1.808140   -1.616920   -6.880230
  C      0.119020   -3.658060   -4.050410
  C     -1.065200   -4.093630   -3.518060
  C     -2.302460   -3.792940   -4.127140
  N     -3.318500   -3.560570   -4.606660
  C     -1.218060   -4.854910   -2.341990
  N     -1.418910   -5.468570   -1.392530
  C      1.473400   -3.869950   -3.561370
  C      1.816160   -4.624220   -2.471820
  C      3.074690   -4.910110   -1.917270
  C      3.219550   -5.746930   -0.805150
  C      4.539320   -5.902430   -0.425120
  C      5.423430   -5.165130   -1.251770
  S      4.629890   -4.303160   -2.487920
  C      6.740980   -5.389880   -0.792130
  C      6.697180   -6.261680    0.311500
  C      5.310570   -6.601780    0.589030
  C      4.848740   -7.390850    1.601570
  C      3.474830   -7.659850    1.778720
  N      2.359690   -7.878560    1.929240
  C      5.711120   -7.960380    2.562850
  N      6.408280   -8.394830    3.363400
  C      7.954290   -6.565760    0.820020
  C      8.968130   -5.928110    0.119310
  S      8.341400   -4.929770   -1.183780
  C     10.369630   -6.031780    0.357010
  C     10.894360   -7.001690    1.179670
  C     12.245820   -7.160750    1.461470
  C     13.256700   -6.261510    0.903420
  C     12.972180   -5.248150    0.055370
  S     11.384860   -4.860320   -0.471160
  C     14.494150   -6.722490    1.432440
  C     14.283320   -7.834620    2.254440
  C     15.496060   -8.324880    2.788360
  C     16.562230   -7.592490    2.371830
  S     16.150100   -6.284430    1.317990
  C     12.873640   -8.129800    2.276730
  C     12.168930   -9.167760    2.915100
  C     12.648830  -10.131140    3.749860
  C     11.819170  -11.143060    4.285810
  C     10.478160  -11.394310    4.009420
  C      9.988650  -12.480090    4.718230
  C     10.949100  -13.078160    5.557860
  S     12.465320  -12.291640    5.450070
  C     10.343570  -14.162650    6.229560
  C      8.993670  -14.247370    5.817600
  C      8.734390  -13.208850    4.841450
  C      7.582140  -12.999700    4.140280
  C      7.470620  -12.000560    3.150900
  N      7.391450  -11.203470    2.329770
  C      6.444400  -13.807790    4.346940
  N      5.528960  -14.473500    4.531360
  C      8.316280  -15.310660    6.397940
  C      9.123850  -16.051210    7.248020
  S     10.752150  -15.378840    7.348360
  C      8.792270  -17.175760    8.032080
  C      7.744950  -18.034880    7.892830
  C      7.360360  -18.880000    9.069050
  O      8.000630  -19.035880   10.083280
  C      6.049450  -19.403740    8.704940
  C      5.703600  -19.036060    7.409710
  C      6.798720  -18.285540    6.821080
  C      6.965870  -18.109270    5.471960
  C      5.985730  -18.517550    4.542230
  N      5.203950  -18.847640    3.770490
  C      8.132080  -17.614750    4.859910
  N      9.072100  -17.252130    4.308890
  C      4.441610  -19.524960    7.024010
  C      3.867480  -20.238320    8.034820
  S      4.837440  -20.346280    9.456400
  H     -1.684120   -2.385370   -6.253050
  H     -0.272340   -1.078490   -8.014490
  H      1.002610   -5.098610   -1.935210
  H      2.376310   -6.208760   -0.322330
  H      8.119670   -7.205910    1.665940
  H     10.193810   -7.692840    1.622770
  H     13.730780   -4.603180   -0.358990
  H     15.593850   -9.170640    3.443250
  H     17.594970   -7.739310    2.621070
  H     11.110370   -9.191600    2.700330
  H     13.688510  -10.146230    4.037260
  H      9.893080  -10.816910    3.318890
  H      7.271350  -15.517910    6.255500
  H      9.413360  -17.354540    8.904660
  H      3.977010  -19.356500    6.070370
  H      2.909840  -20.721120    8.024450

 Total Charge           Charge          ....    0
 Multiplicity           Mult            ....    1
 Number of Electrons    NEL             ....  564
 Basis Dimension        Dim             .... 1176

ORBITAL ENERGIES
----------------

  NO   OCC          E(Eh)            E(eV)
   0   2.0000     -88.997429     -2421.7432
   1   2.0000     -88.991540     -2421.5829
   2   2.0000     -88.989437     -2421.5257
   3   2.0000     -88.989220     -2421.5198
   4   2.0000     -88.987420     -2421.4708
   5   2.0000     -88.984673     -2421.3960
   6   2.0000     -88.982583     -2421.3392
   7   2.0000     -88.966761     -2420.9086
   8   2.0000     -19.228944      -523.2462
   9   2.0000     -19.211889      -522.7821
  10   2.0000     -14.430464      -392.6729
  11   2.0000     -14.429333      -392.6421
  12   2.0000     -14.426466      -392.5641
  13   2.0000     -14.426133      -392.5550
  14   2.0000     -14.421178      -392.4202
  15   2.0000     -14.417376      -392.3168
  16   2.0000     -14.413517      -392.2117
  17   2.0000     -14.408638      -392.0790
  18   2.0000     -10.384618      -282.5798
  19   2.0000     -10.370222      -282.1881
  20   2.0000     -10.366376      -282.0834
  21   2.0000     -10.360225      -281.9160
  22   2.0000     -10.353465      -281.7321
  23   2.0000     -10.348467      -281.5961
  24   2.0000     -10.347888      -281.5803
  25   2.0000     -10.347159      -281.5605
  26   2.0000     -10.341731      -281.4128
  27   2.0000     -10.340596      -281.3819
  28   2.0000     -10.340456      -281.3781
  29   2.0000     -10.340234      -281.3721
  30   2.0000     -10.339429      -281.3502
  31   2.0000     -10.337189      -281.2892
  32   2.0000     -10.334981      -281.2291
  33   2.0000     -10.334621      -281.2193
  34   2.0000     -10.330191      -281.0988
  35   2.0000     -10.328845      -281.0622
  36   2.0000     -10.327584      -281.0278
  37   2.0000     -10.326726      -281.0045
  38   2.0000     -10.326445      -280.9969
  39   2.0000     -10.326005      -280.9849
  40   2.0000     -10.324691      -280.9491
  41   2.0000     -10.323250      -280.9099
  42   2.0000     -10.323182      -280.9081
  43   2.0000     -10.322994      -280.9029
  44   2.0000     -10.319917      -280.8192
  45   2.0000     -10.318337      -280.7762
  46   2.0000     -10.318227      -280.7732
  47   2.0000     -10.317400      -280.7507
  48   2.0000     -10.316542      -280.7274
  49   2.0000     -10.315032      -280.6863
  50   2.0000     -10.314000      -280.6582
  51   2.0000     -10.312698      -280.6228
  52   2.0000     -10.312054      -280.6052
  53   2.0000     -10.311076      -280.5786
  54   2.0000     -10.310128      -280.5529
  55   2.0000     -10.310005      -280.5495
  56   2.0000     -10.309216      -280.5280
  57   2.0000     -10.307681      -280.4863
  58   2.0000     -10.306262      -280.4477
  59   2.0000     -10.306052      -280.4419
  60   2.0000     -10.305082      -280.4155
  61   2.0000     -10.304936      -280.4116
  62   2.0000     -10.303554      -280.3740
  63   2.0000     -10.302699      -280.3507
  64   2.0000     -10.301345      -280.3139
  65   2.0000     -10.298601      -280.2392
  66   2.0000     -10.297853      -280.2188
  67   2.0000     -10.297639      -280.2130
  68   2.0000     -10.295475      -280.1541
  69   2.0000     -10.293616      -280.1035
  70   2.0000     -10.293004      -280.0869
  71   2.0000     -10.291197      -280.0377
  72   2.0000     -10.290032      -280.0060
  73   2.0000     -10.287729      -279.9433
  74   2.0000     -10.286121      -279.8996
  75   2.0000     -10.284988      -279.8688
  76   2.0000      -8.091909      -220.1920
  77   2.0000      -8.086541      -220.0460
  78   2.0000      -8.084868      -220.0005
  79   2.0000      -8.082231      -219.9287
  80   2.0000      -8.081660      -219.9132
  81   2.0000      -8.079370      -219.8508
  82   2.0000      -8.077610      -219.8029
  83   2.0000      -8.062261      -219.3853
  84   2.0000      -6.061206      -164.9338
  85   2.0000      -6.056982      -164.8188
  86   2.0000      -6.055695      -164.7838
  87   2.0000      -6.054478      -164.7507
  88   2.0000      -6.054249      -164.7445
  89   2.0000      -6.051424      -164.6676
  90   2.0000      -6.051278      -164.6636
  91   2.0000      -6.051141      -164.6599
  92   2.0000      -6.049918      -164.6266
  93   2.0000      -6.049271      -164.6090
  94   2.0000      -6.048588      -164.5904
  95   2.0000      -6.047281      -164.5549
  96   2.0000      -6.046771      -164.5410
  97   2.0000      -6.046691      -164.5388
  98   2.0000      -6.046321      -164.5288
  99   2.0000      -6.044627      -164.4827
 100   2.0000      -6.044503      -164.4793
 101   2.0000      -6.044160      -164.4700
 102   2.0000      -6.042340      -164.4204
 103   2.0000      -6.041723      -164.4036
 104   2.0000      -6.040347      -164.3662
 105   2.0000      -6.031660      -164.1298
 106   2.0000      -6.027425      -164.0146
 107   2.0000      -6.024326      -163.9302
 108   2.0000      -1.145905       -31.1817
 109   2.0000      -1.128756       -30.7150
 110   2.0000      -1.048422       -28.5290
 111   2.0000      -1.041305       -28.3354
 112   2.0000      -1.030937       -28.0532
 113   2.0000      -1.022535       -27.8246
 114   2.0000      -1.022340       -27.8193
 115   2.0000      -1.018276       -27.7087
 116   2.0000      -1.017408       -27.6851
 117   2.0000      -1.012425       -27.5495
 118   2.0000      -1.007367       -27.4118
 119   2.0000      -1.004703       -27.3394
 120   2.0000      -1.004406       -27.3313
 121   2.0000      -1.003348       -27.3025
 122   2.0000      -0.997547       -27.1446
 123   2.0000      -0.994631       -27.0653
 124   2.0000      -0.988422       -26.8963
 125   2.0000      -0.982401       -26.7325
 126   2.0000      -0.968556       -26.3557
 127   2.0000      -0.961667       -26.1683
 128   2.0000      -0.959149       -26.0998
 129   2.0000      -0.953791       -25.9540
 130   2.0000      -0.939189       -25.5566
 131   2.0000      -0.924019       -25.1438
 132   2.0000      -0.917691       -24.9717
 133   2.0000      -0.908639       -24.7253
 134   2.0000      -0.901565       -24.5328
 135   2.0000      -0.898426       -24.4474
 136   2.0000      -0.888768       -24.1846
 137   2.0000      -0.882992       -24.0274
 138   2.0000      -0.875613       -23.8266
 139   2.0000      -0.866217       -23.5710
 140   2.0000      -0.862537       -23.4708
 141   2.0000      -0.858529       -23.3618
 142   2.0000      -0.856408       -23.3041
 143   2.0000      -0.852423       -23.1956
 144   2.0000      -0.849757       -23.1231
 145   2.0000      -0.844769       -22.9873
 146   2.0000      -0.829351       -22.5678
 147   2.0000      -0.813029       -22.1236
 148   2.0000      -0.802497       -21.8371
 149   2.0000      -0.788644       -21.4601
 150   2.0000      -0.781127       -21.2555
 151   2.0000      -0.777582       -21.1591
 152   2.0000      -0.771055       -20.9815
 153   2.0000      -0.766563       -20.8592
 154   2.0000      -0.761714       -20.7273
 155   2.0000      -0.749969       -20.4077
 156   2.0000      -0.735926       -20.0256
 157   2.0000      -0.730545       -19.8791
 158   2.0000      -0.707611       -19.2551
 159   2.0000      -0.702457       -19.1148
 160   2.0000      -0.701596       -19.0914
 161   2.0000      -0.692075       -18.8323
 162   2.0000      -0.689798       -18.7703
 163   2.0000      -0.686103       -18.6698
 164   2.0000      -0.682416       -18.5695
 165   2.0000      -0.678998       -18.4765
 166   2.0000      -0.674110       -18.3435
 167   2.0000      -0.671060       -18.2605
 168   2.0000      -0.662149       -18.0180
 169   2.0000      -0.660503       -17.9732
 170   2.0000      -0.656393       -17.8614
 171   2.0000      -0.646313       -17.5871
 172   2.0000      -0.639782       -17.4094
 173   2.0000      -0.633578       -17.2405
 174   2.0000      -0.630797       -17.1649
 175   2.0000      -0.628175       -17.0935
 176   2.0000      -0.621751       -16.9187
 177   2.0000      -0.618010       -16.8169
 178   2.0000      -0.616496       -16.7757
 179   2.0000      -0.613805       -16.7025
 180   2.0000      -0.604885       -16.4598
 181   2.0000      -0.602515       -16.3953
 182   2.0000      -0.599494       -16.3131
 183   2.0000      -0.592930       -16.1345
 184   2.0000      -0.585334       -15.9278
 185   2.0000      -0.576538       -15.6884
 186   2.0000      -0.573661       -15.6101
 187   2.0000      -0.570569       -15.5260
 188   2.0000      -0.559102       -15.2139
 189   2.0000      -0.554388       -15.0857
 190   2.0000      -0.553486       -15.0611
 191   2.0000      -0.551575       -15.0091
 192   2.0000      -0.547704       -14.9038
 193   2.0000      -0.544297       -14.8111
 194   2.0000      -0.543006       -14.7759
 195   2.0000      -0.540473       -14.7070
 196   2.0000      -0.536667       -14.6034
 197   2.0000      -0.530564       -14.4374
 198   2.0000      -0.529167       -14.3994
 199   2.0000      -0.526632       -14.3304
 200   2.0000      -0.523909       -14.2563
 201   2.0000      -0.518583       -14.1114
 202   2.0000      -0.516399       -14.0519
 203   2.0000      -0.514945       -14.0124
 204   2.0000      -0.510842       -13.9007
 205   2.0000      -0.507689       -13.8149
 206   2.0000      -0.506001       -13.7690
 207   2.0000      -0.503263       -13.6945
 208   2.0000      -0.502241       -13.6667
 209   2.0000      -0.500675       -13.6241
 210   2.0000      -0.498604       -13.5677
 211   2.0000      -0.496504       -13.5106
 212   2.0000      -0.495768       -13.4905
 213   2.0000      -0.492239       -13.3945
 214   2.0000      -0.489012       -13.3067
 215   2.0000      -0.486979       -13.2514
 216   2.0000      -0.484086       -13.1727
 217   2.0000      -0.482660       -13.1338
 218   2.0000      -0.481428       -13.1003
 219   2.0000      -0.478427       -13.0187
 220   2.0000      -0.476110       -12.9556
 221   2.0000      -0.470457       -12.8018
 222   2.0000      -0.470188       -12.7945
 223   2.0000      -0.467333       -12.7168
 224   2.0000      -0.466333       -12.6896
 225   2.0000      -0.464455       -12.6385
 226   2.0000      -0.463914       -12.6237
 227   2.0000      -0.458652       -12.4805
 228   2.0000      -0.457258       -12.4426
 229   2.0000      -0.455298       -12.3893
 230   2.0000      -0.454310       -12.3624
 231   2.0000      -0.453346       -12.3362
 232   2.0000      -0.451769       -12.2933
 233   2.0000      -0.450806       -12.2671
 234   2.0000      -0.447126       -12.1669
 235   2.0000      -0.444781       -12.1031
 236   2.0000      -0.444683       -12.1004
 237   2.0000      -0.443424       -12.0662
 238   2.0000      -0.441641       -12.0177
 239   2.0000      -0.440350       -11.9825
 240   2.0000      -0.439423       -11.9573
 241   2.0000      -0.439180       -11.9507
 242   2.0000      -0.437793       -11.9130
 243   2.0000      -0.437041       -11.8925
 244   2.0000      -0.435832       -11.8596
 245   2.0000      -0.435011       -11.8372
 246   2.0000      -0.433805       -11.8044
 247   2.0000      -0.432205       -11.7609
 248   2.0000      -0.430836       -11.7236
 249   2.0000      -0.430425       -11.7124
 250   2.0000      -0.427406       -11.6303
 251   2.0000      -0.425116       -11.5680
 252   2.0000      -0.424094       -11.5402
 253   2.0000      -0.422915       -11.5081
 254   2.0000      -0.421868       -11.4796
 255   2.0000      -0.420647       -11.4464
 256   2.0000      -0.418748       -11.3947
 257   2.0000      -0.417075       -11.3492
 258   2.0000      -0.412758       -11.2317
 259   2.0000      -0.407413       -11.0863
 260   2.0000      -0.404770       -11.0144
 261   2.0000      -0.402091       -10.9415
 262   2.0000      -0.388210       -10.5637
 263   2.0000      -0.384501       -10.4628
 264   2.0000      -0.371041       -10.0965
 265   2.0000      -0.354683        -9.6514
 266   2.0000      -0.349174        -9.5015
 267   2.0000      -0.348222        -9.4756
 268   2.0000      -0.346884        -9.4392
 269   2.0000      -0.343837        -9.3563
 270   2.0000      -0.339648        -9.2423
 271   2.0000      -0.336655        -9.1609
 272   2.0000      -0.334766        -9.1094
 273   2.0000      -0.323400        -8.8002
 274   2.0000      -0.321722        -8.7545
 275   2.0000      -0.317083        -8.6283
 276   2.0000      -0.316140        -8.6026
 277   2.0000      -0.306877        -8.3506
 278   2.0000      -0.294867        -8.0237
 279   2.0000      -0.281213        -7.6522
 280   2.0000      -0.262859        -7.1528
 281   2.0000      -0.226370        -6.1598
 282   0.0000      -0.114294        -3.1101
 283   0.0000      -0.102031        -2.7764
 284   0.0000      -0.084598        -2.3020
 285   0.0000      -0.078972        -2.1489
 286   0.0000      -0.075006        -2.0410

MULLIKEN ATOMIC CHARGES
-----------------------
   0 C :    0.149914
   1 O :   -0.185510
   2 C :   -0.168132
   3 C :    0.000185
   4 C :    0.025044
   5 C :   -0.059030
   6 S :    0.210892
   7 C :    0.315314
   8 C :   -0.338581
   9 C :   -0.190646
  10 N :    0.156460
  11 C :   -0.185294
  12 N :    0.160374
  13 C :   -0.110313
  14 C :   -0.029073
  15 C :   -0.059177
  16 C :   -0.055030
  17 C :    0.043087
  18 C :   -0.072256
  19 S :    0.235466
  20 C :   -0.107476
  21 C :    0.018906
  22 C :    0.306645
  23 C :   -0.290277
  24 C :   -0.194350
  25 N :    0.183125
  26 C :   -0.171381
  27 N :    0.167811
  28 C :   -0.041716
  29 C :   -0.061365
  30 S :    0.197055
  31 C :   -0.041560
  32 C :   -0.058203
  33 C :    0.054676
  34 C :    0.070512
  35 C :   -0.126383
  36 S :    0.134910
  37 C :   -0.114903
  38 C :    0.053564
  39 C :   -0.004223
  40 C :   -0.065976
  41 S :    0.135053
  42 C :    0.109342
  43 C :   -0.016576
  44 C :    0.034982
  45 C :   -0.067704
  46 C :   -0.049998
  47 C :    0.017906
  48 C :   -0.114228
  49 S :    0.186747
  50 C :   -0.069456
  51 C :   -0.010901
  52 C :    0.310809
  53 C :   -0.288438
  54 C :   -0.165254
  55 N :    0.163342
  56 C :   -0.189537
  57 N :    0.168031
  58 C :   -0.004663
  59 C :   -0.111368
  60 S :    0.201196
  61 C :    0.077334
  62 C :   -0.156229
  63 C :    0.116015
  64 O :   -0.145631
  65 C :   -0.154313
  66 C :   -0.020917
  67 C :    0.281612
  68 C :   -0.326182
  69 C :   -0.174317
  70 N :    0.153702
  71 C :   -0.196028
  72 N :    0.168695
  73 C :    0.036934
  74 C :   -0.061899
  75 S :    0.205920
  76 H :    0.020452
  77 H :    0.043844
  78 H :    0.014894
  79 H :    0.027032
  80 H :    0.016031
  81 H :   -0.012977
  82 H :    0.040096
  83 H :   -0.013417
  84 H :    0.029199
  85 H :   -0.034553
  86 H :   -0.042327
  87 H :    0.008534
  88 H :    0.024859
  89 H :    0.019256
  90 H :    0.019930
  91 H :    0.042079
Sum of atomic charges:   -0.0000000

LOEWDIN ATOMIC CHARGES
----------------------
   0 C :    0.069202
   1 O :   -0.173481
   2 C :   -0.211202
   3 C :   -0.037578
   4 C :   -0.043471
   5 C :   -0.149191
   6 S :    0.502275
   7 C :    0.076162
   8 C :   -0.135109
   9 C :   -0.016605
  10 N :   -0.050612
  11 C :   -0.024453
  12 N :   -0.041181
  13 C :   -0.110297
  14 C :    0.050270
  15 C :   -0.187308
  16 C :    0.011782
  17 C :   -0.079578
  18 C :   -0.165309
  19 S :    0.540775
  20 C :   -0.191707
  21 C :   -0.050339
  22 C :    0.076651
  23 C :   -0.094491
  24 C :   -0.019237
  25 N :   -0.022719
  26 C :   -0.012558
  27 N :   -0.029848
  28 C :   -0.027559
  29 C :   -0.173086
  30 S :    0.472685
  31 C :   -0.186728
  32 C :   -0.010531
  33 C :   -0.015313
  34 C :   -0.047824
  35 C :   -0.137681
  36 S :    0.444075
  37 C :   -0.199603
  38 C :   -0.036105
  39 C :   -0.064620
  40 C :   -0.162112
  41 S :    0.429837
  42 C :   -0.046497
  43 C :    0.000193
  44 C :   -0.062303
  45 C :   -0.145463
  46 C :   -0.036474
  47 C :   -0.048280
  48 C :   -0.203127
  49 S :    0.470515
  50 C :   -0.150212
  51 C :   -0.074321
  52 C :    0.084169
  53 C :   -0.097861
  54 C :   -0.010335
  55 N :   -0.036640
  56 C :   -0.012676
  57 N :   -0.033656
  58 C :    0.009882
  59 C :   -0.188763
  60 S :    0.487329
  61 C :    0.037702
  62 C :   -0.094493
  63 C :    0.066085
  64 O :   -0.146333
  65 C :   -0.212926
  66 C :   -0.035644
  67 C :    0.066532
  68 C :   -0.136512
  69 C :   -0.016851
  70 N :   -0.048467
  71 C :   -0.016628
  72 N :   -0.045682
  73 C :   -0.043901
  74 C :   -0.149453
  75 S :    0.499305
  76 H :    0.044377
  77 H :    0.031589
  78 H :    0.053962
  79 H :    0.047876
  80 H :    0.040978
  81 H :    0.039754
  82 H :    0.038402
  83 H :    0.029312
  84 H :    0.025145
  85 H :    0.029408
  86 H :    0.024818
  87 H :    0.037176
  88 H :    0.042304
  89 H :    0.044938
  90 H :    0.044589
  91 H :    0.030883

  Mayer bond orders larger than 0.100000
B(  0-C ,  1-O ) :   2.0997 B(  0-C ,  2-C ) :   1.0843 B(  0-C , 13-C ) :   0.9718
B(  2-C ,  3-C ) :   1.4615 B(  2-C ,  6-S ) :   1.1233 B(  3-C ,  4-C ) :   1.2730
B(  3-C ,  7-C ) :   0.9979 B(  4-C ,  5-C ) :   1.5381 B(  4-C , 76-H ) :   0.9956
B(  5-C ,  6-S ) :   1.1879 B(  5-C , 77-H ) :   0.9624 B(  7-C ,  8-C ) :   1.6486
B(  7-C , 13-C ) :   1.0738 B(  8-C ,  9-C ) :   1.1483 B(  8-C , 11-C ) :   1.1355
B(  9-C , 10-N ) :   2.9870 B( 11-C , 12-N ) :   2.9663 B( 13-C , 14-C ) :   1.5322
B( 14-C , 15-C ) :   1.2557 B( 14-C , 78-H ) :   0.9417 B( 15-C , 16-C ) :   1.3385
B( 15-C , 19-S ) :   1.0687 B( 16-C , 17-C ) :   1.3269 B( 16-C , 79-H ) :   1.0087
B( 17-C , 18-C ) :   1.3579 B( 17-C , 22-C ) :   0.9883 B( 18-C , 19-S ) :   1.1236
B( 18-C , 20-C ) :   1.2165 B( 20-C , 21-C ) :   1.4254 B( 20-C , 30-S ) :   1.1076
B( 21-C , 22-C ) :   1.0006 B( 21-C , 28-C ) :   1.3136 B( 22-C , 23-C ) :   1.7159
B( 23-C , 24-C ) :   1.1357 B( 23-C , 26-C ) :   1.1374 B( 24-C , 25-N ) :   2.9952
B( 26-C , 27-N ) :   2.9505 B( 28-C , 29-C ) :   1.4656 B( 28-C , 80-H ) :   0.9828
B( 29-C , 30-S ) :   1.1136 B( 29-C , 31-C ) :   1.1130 B( 31-C , 32-C ) :   1.5515
B( 31-C , 36-S ) :   1.0434 B( 32-C , 33-C ) :   1.2463 B( 32-C , 81-H ) :   0.9663
B( 33-C , 34-C ) :   1.0502 B( 33-C , 42-C ) :   1.3579 B( 34-C , 35-C ) :   1.6084
B( 34-C , 37-C ) :   1.1770 B( 35-C , 36-S ) :   1.1383 B( 35-C , 82-H ) :   0.9400
B( 37-C , 38-C ) :   1.4476 B( 37-C , 41-S ) :   1.0814 B( 38-C , 39-C ) :   1.2170
B( 38-C , 42-C ) :   1.0717 B( 39-C , 40-C ) :   1.5836 B( 39-C , 83-H ) :   1.0025
B( 40-C , 41-S ) :   1.1590 B( 40-C , 84-H ) :   0.9653 B( 42-C , 43-C ) :   1.1999
B( 43-C , 44-C ) :   1.6143 B( 43-C , 85-H ) :   0.9525 B( 44-C , 45-C ) :   1.1365
B( 44-C , 86-H ) :   0.9709 B( 45-C , 46-C ) :   1.4193 B( 45-C , 49-S ) :   1.1184
B( 46-C , 47-C ) :   1.3252 B( 46-C , 87-H ) :   0.9848 B( 47-C , 48-C ) :   1.4221
B( 47-C , 52-C ) :   0.9957 B( 48-C , 49-S ) :   1.0944 B( 48-C , 50-C ) :   1.2201
B( 50-C , 51-C ) :   1.3959 B( 50-C , 60-S ) :   1.1546 B( 51-C , 52-C ) :   1.0060
B( 51-C , 58-C ) :   1.3590 B( 52-C , 53-C ) :   1.7121 B( 53-C , 54-C ) :   1.1349
B( 53-C , 56-C ) :   1.1374 B( 54-C , 55-N ) :   2.9567 B( 56-C , 57-N ) :   2.9832
B( 58-C , 59-C ) :   1.3981 B( 58-C , 88-H ) :   0.9796 B( 59-C , 60-S ) :   1.0747
B( 59-C , 61-C ) :   1.1385 B( 61-C , 62-C ) :   1.6847 B( 61-C , 89-H ) :   0.9288
B( 62-C , 63-C ) :   0.9490 B( 62-C , 67-C ) :   1.0304 B( 63-C , 64-O ) :   2.2342
B( 63-C , 65-C ) :   1.0310 B( 65-C , 66-C ) :   1.4586 B( 65-C , 75-S ) :   1.1263
B( 66-C , 67-C ) :   1.0148 B( 66-C , 73-C ) :   1.2773 B( 67-C , 68-C ) :   1.6565
B( 68-C , 69-C ) :   1.1292 B( 68-C , 71-C ) :   1.1633 B( 69-C , 70-N ) :   2.9970
B( 71-C , 72-N ) :   3.0001 B( 73-C , 74-C ) :   1.5378 B( 73-C , 90-H ) :   0.9946
B( 74-C , 75-S ) :   1.1896 B( 74-C , 91-H ) :   0.9623

-----------------------------------------------------------------------------
         ABSORPTION SPECTRUM VIA TRANSITION ELECTRIC DIPOLE MOMENTS
-----------------------------------------------------------------------------
State   Energy  Wavelength   fosc         T2         TX        TY        TZ
        (cm-1)    (nm)                  (au**2)     (au)      (au)      (au)
-----------------------------------------------------------------------------
   0    9858.5   1014.3   0.433546573  14.47767  -0.99584   2.98166  -2.14375
   1   11551.9    865.7   0.200884052   5.72489  -2.33638  -0.00674  -0.51592
   2   16917.8    591.1   0.530289821  10.31917  -0.16875   2.76138  -1.63263
   3   17403.7    574.6   0.388005487   7.33959  -1.10780   2.00289  -1.44941
   4   19449.4    514.2   0.665043064  11.25692   3.16373   0.51511   0.99116
   5   19838.5    504.1   0.059841702   0.99305   0.50952  -0.72316   0.45878
   6   20475.6    488.4   0.038195456   0.61412   0.77220   0.09147   0.09721
   7   21721.2    460.4   0.055828068   0.84615  -0.12064  -0.67128   0.61723
   8   23103.6    432.8   0.597624875   8.51580   2.32861   1.66207  -0.57522
   9   24047.7    415.8   0.078468946   1.07423  -1.01012  -0.05153  -0.22634
  10   24629.4    406.0   0.203060974   2.71424  -1.54123   0.18878  -0.55064
  11   25123.2    398.0   0.144239351   1.89010  -0.45547   0.79709  -1.02337
  12   25850.5    386.8   0.164744365   2.09805  -1.20092   0.36719  -0.72182
  13   26534.6    376.9   0.063702443   0.79035  -0.52910  -0.71044   0.07533
  14   26923.6    371.4   0.015807680   0.19329   0.22546   0.35408   0.13072
  15   27568.4    362.7   0.152345950   1.81926   0.73835  -0.94857   0.61180
  16   28637.8    349.2   0.015377495   0.17678  -0.09881  -0.37837   0.15444
  17   28956.6    345.3   0.118275310   1.34469   0.32804   0.68254  -0.87819
  18   29458.8    339.5   0.204089502   2.28077   0.81128  -0.63180   1.10609
  19   29889.0    334.6   0.402978284   4.43859   0.48408   1.44838  -1.45136
  20   30350.0    329.5   0.101897001   1.10529  -1.03077  -0.16349  -0.12677
  21   30547.6    327.4   0.242314585   2.61142  -1.36879   0.34626  -0.78610
  22   30824.2    324.4   0.507178126   5.41681  -1.19550  -1.27770   1.53463
  23   31070.0    321.9   0.066291404   0.70241   0.42222   0.52588  -0.49758
  24   31412.0    318.4   0.026006156   0.27256   0.22060   0.37802  -0.28459
  25   31550.3    317.0   0.051083614   0.53303  -0.44399  -0.53162  -0.23084
  26   31861.0    313.9   0.020586418   0.21271   0.15098  -0.13185   0.41537
  27   31913.2    313.4   0.033898713   0.34969  -0.46731  -0.21424  -0.29226
  28   32313.5    309.5   0.037668273   0.38377   0.54168   0.28209  -0.10378
  29   32491.1    307.8   0.001147015   0.01162  -0.03545   0.07758  -0.06593
  30   32677.3    306.0   0.072801948   0.73345  -0.70643  -0.36263  -0.32080
  31   32924.0    303.7   0.160681367   1.60668  -0.01565   0.99807  -0.78122
  32   33159.4    301.6   0.147716704   1.46655   1.01230   0.48596  -0.45349
  33   33248.4    300.8   0.168976620   1.67314  -0.99643   0.42163  -0.70887
  34   33730.0    296.5   0.159282236   1.55463  -0.00752   0.63024  -1.07581
  35   33847.5    295.4   0.020435150   0.19876  -0.22852   0.15319  -0.35082
  36   33995.7    294.2   0.234213116   2.26810   1.39671  -0.31022   0.47017
  37   34243.3    292.0   0.373698514   3.59270  -1.30803  -0.93902   1.00000
  38   34479.5    290.0   0.037303253   0.35617  -0.51763   0.20825  -0.21181
  39   34836.1    287.1   0.138755373   1.31128  -1.12229  -0.05572   0.22056
  40   35258.8    283.6   0.260124848   2.42879  -1.47222  -0.29309   0.41888
  41   35436.8    282.2   0.174318710   1.61944  -0.47622   0.57264  -1.03186
  42   35530.5    281.4   0.208664883   1.93341  -0.64466   0.66263  -1.03863
  43   35751.5    279.7   0.097099834   0.89413  -0.04521  -0.55854   0.76166
  44   35809.1    279.3   0.036886931   0.33912  -0.55162   0.01363  -0.18615
  45   36126.1    276.8   0.129040049   1.17592  -0.07306  -0.69243   0.83134
  46   36186.5    276.3   0.274460552   2.49694   1.29196   0.50350  -0.75781
  47   36238.6    275.9   0.319180793   2.89962   1.66074   0.27658  -0.25507
  48   36584.1    273.3   0.041616733   0.37450  -0.44268  -0.31188   0.28507
  49   36844.0    271.4   0.012321249   0.11009   0.23246  -0.14140   0.18990
  50   37159.3    269.1   0.354687600   3.14235   0.06575   0.42951  -1.71859
  51   37383.3    267.5   0.004391459   0.03867   0.00989   0.17723  -0.08464
  52   37635.7    265.7   0.267548353   2.34033   0.40409   0.67480  -1.31213
  53   37857.2    264.2   0.033141121   0.28820   0.47192   0.19182  -0.16942
  54   37916.2    263.7   0.046946278   0.40762  -0.03661   0.31035  -0.55674
  55   37998.2    263.2   0.048258146   0.41810  -0.39414   0.25223  -0.44624
  56   38561.0    259.3   0.054736686   0.46731  -0.68004   0.06203   0.03177
  57   38613.0    259.0   0.011062860   0.09432  -0.11987  -0.00858   0.28263
  58   38724.1    258.2   0.013323509   0.11327   0.09906   0.21127  -0.24253
  59   38927.3    256.9   0.017118298   0.14477   0.05242   0.15235  -0.34469
  60   39134.0    255.5   0.021587934   0.18161  -0.10957   0.28867  -0.29372
  61   39490.0    253.2   0.025234816   0.21037  -0.29954  -0.33108   0.10505
  62   39666.8    252.1   0.039908232   0.33122   0.04709  -0.38318   0.42682
  63   39839.4    251.0   0.102911464   0.85041  -0.48526   0.39927  -0.67492
  64   39895.7    250.7   0.008171690   0.06743  -0.19113  -0.16001  -0.07278
  65   40149.9    249.1   0.078341787   0.64237  -0.70547  -0.10714  -0.36497
  66   40315.9    248.0   0.018619558   0.15204   0.37461  -0.05789   0.09141

FINAL SINGLE POINT ENERGY     -5988.983284697799

DIPOLE MOMENT
-------------
                                X             Y             Z
Electronic contribution:     -5.85146       2.65362      -2.51144
Nuclear contribution   :      9.89291       0.37308       1.62242
                        -----------------------------------------
Total Dipole Moment    :      4.04145       3.02670      -0.88902
                        -----------------------------------------
Magnitude (a.u.)       :      5.12685
Magnitude (Debye)      :     13.03141

Rotational constants in cm-1:     0.000772     0.000276     0.000208
Rotational constants in MHz :    23.152290     8.260534     6.232359

                             ****ORCA TERMINATED NORMALLY****
TOTAL RUN TIME: 0 days 0 hours 9 minutes 41 seconds 406 msec
