                         Program Version 4.2.0 -  RELEASE  -
|  1> # ORCA input file
|  2> # SCF done       -188.547779272093          0.000420935907
|  3> ! CAM-B3LYP def2-SVP def2/J RIJCOSX Grid4 TightSCF
|  4> %maxcore 5000
|  5> %tddft
|  6>     Mode sTDDFT
|  7>     Ethresh 5.0
|  8>     maxcore 5000
|  9> end
| 10>
| 11> %pal
| 12>   nprocs 6
| 13>   end
| 14> * xyz 0 1
| 15>    C      -16.24392       -12.93952         0.65722
| 16>    C      -16.14619       -13.79166        -0.43309
| 17>    C      -14.97160       -13.88751        -1.16542
| 18>    C      -13.85662       -13.13636        -0.82458
| 19>    C      -13.94486       -12.27727         0.25754
| 20>    C      -15.14180       -12.17371         1.00262
| 21>    C      -14.95370       -11.19400         2.06617
| 22>    C      -15.84572       -10.90467         3.06379
| 23>    C      -17.10745       -11.52074         3.20087
| 24>    N      -18.14633       -11.97946         3.36812
| 25>    C      -15.61877        -9.98844         4.11234
| 26>    N      -15.49898        -9.26285         4.99418
| 27>    C      -13.64501       -10.59006         1.84947
| 28>    C      -12.94808       -11.41638         0.87397
| 29>    C      -11.59032       -11.54228         0.74340
| 30>    C      -10.67393       -10.98155         1.65936
| 31>    N       -9.90747       -10.60605         2.42648
| 32>    C      -10.94953       -12.28854        -0.26291
| 33>    N      -10.36173       -12.82026        -1.09464
| 34>    C      -13.27263        -9.36224         2.33092
| 35>    C      -12.24965        -8.52445         1.84986
| 36>    O      -11.53719        -8.77711         0.71707
| 37>    C      -10.68913        -7.73626         0.57729
| 38>    N      -10.83251        -6.83031         1.52789
| 39>    C      -11.79644        -7.29507         2.32624
| 40>    C       -9.75735        -7.75674        -0.48732
| 41>    C       -8.84028        -6.78089        -0.68511
| 42>    C       -7.80358        -6.78599        -1.67642
| 43>    C       -7.56001        -7.87905        -2.48465
| 44>    C       -6.48927        -7.87037        -3.39411
| 45>    C       -6.02146        -8.84440        -4.26989
| 46>    C       -6.56290       -10.20423        -4.54694
| 47>    C       -6.86745       -11.01721        -3.27337
| 48>    N       -6.58522       -12.41915        -3.52396
| 49>    C       -7.80858       -10.09930        -5.45209
| 50>    N       -7.42059        -9.57523        -6.74819
| 51>    C       -4.87897        -8.27424        -4.94471
| 52>    C       -4.06244        -8.79232        -5.88059
| 53>    C       -2.91038        -8.01836        -6.42327
| 54>    C       -2.78342        -6.62752        -5.88066
| 55>    C       -3.61403        -6.12486        -4.94891
| 56>    C       -4.67425        -6.91107        -4.43588
| 57>    C       -5.65394        -6.67715        -3.49376
| 58>    C       -5.93751        -5.56120        -2.67003
| 59>    C       -6.96817        -5.62260        -1.79186
| 60>    C       -3.00175        -7.97390        -7.92516
| 61>    C       -2.11526        -8.55361        -8.73833
| 62>    C       -2.18122        -8.51813       -10.16773
| 63>    O       -3.14618        -7.84415       -10.83481
| 64>    C       -2.88907        -8.05370       -12.14786
| 65>    N       -1.82637        -8.80093       -12.34420
| 66>    C       -1.36643        -9.10492       -11.12097
| 67>    C       -3.73445        -7.49743       -13.14398
| 68>    C       -3.53198        -7.74472       -14.46058
| 69>    C       -4.25917        -7.20369       -15.55365
| 70>    C       -5.53044        -6.70863       -15.61069
| 71>    C       -6.00632        -5.83429       -16.68362
| 72>    C       -5.47041        -5.68302       -17.93267
| 73>    C       -4.36860        -6.39743       -18.45265
| 74>    N       -3.48953        -6.93644       -18.95725
| 75>    C       -5.98882        -4.80898       -18.91348
| 76>    N       -6.35490        -4.12026       -19.75517
| 77>    C       -7.18628        -5.14926       -16.17404
| 78>    C       -7.53434        -5.70903       -14.92392
| 79>    C       -8.61984        -5.22489       -14.21201
| 80>    C       -9.35616        -4.18264       -14.75437
| 81>    C       -9.02020        -3.63653       -15.98519
| 82>    C       -7.93551        -4.11160       -16.70673
| 83>    C       -6.60872        -6.79279       -14.62938
| 84>    C       -6.84959        -7.82259       -13.76161
| 85>    C       -7.94799        -7.86755       -12.87760
| 86>    N       -8.80342        -7.95039       -12.11671
| 87>    C       -6.07786        -9.00131       -13.68270
| 88>    N       -5.52618       -10.00326       -13.59479
| 89>    H      -17.16451       -12.87923         1.21396
| 90>    H      -17.00071       -14.38790        -0.71439
| 91>    H      -14.92240       -14.55535        -2.01194
| 92>    H      -12.94812       -13.21573        -1.40014
| 93>    H      -13.87131        -8.90936         3.10800
| 94>    H      -12.12032        -6.76098         3.19626
| 95>    H       -9.81187        -8.63550        -1.11269
| 96>    H       -8.87829        -5.92956        -0.01860
| 97>    H       -8.17380        -8.76063        -2.40687
| 98>    H       -5.81073       -10.76870        -5.10412
| 99>    H       -7.90756       -10.84115        -2.95397
|100>    H       -6.20526       -10.68865        -2.46757
|101>    H       -7.22375       -12.78865        -4.22073
|102>    H       -6.71298       -12.96088        -2.67649
|103>    H       -8.57071        -9.48773        -4.93925
|104>    H       -8.22134       -11.09899        -5.61048
|105>    H       -7.12289        -8.60904        -6.66118
|106>    H       -8.19682        -9.60800        -7.39894
|107>    H       -4.20902        -9.78463        -6.28263
|108>    H       -1.99624        -8.57545        -6.16497
|109>    H       -1.97395        -6.03964        -6.28603
|110>    H       -3.48090        -5.11854        -4.57894
|111>    H       -5.32147        -4.67713        -2.74364
|112>    H       -7.18791        -4.78332        -1.14865
|113>    H       -3.84312        -7.42933        -8.32850
|114>    H       -1.27324        -9.10638        -8.34491
|115>    H       -0.49713        -9.71375       -10.98128
|116>    H       -4.51924        -6.84673       -12.78470
|117>    H       -2.66893        -8.34632       -14.71157
|118>    H       -3.67633        -7.12478       -16.46278
|119>    H       -8.88632        -5.63532       -13.25161
|120>    H      -10.20116        -3.79152       -14.20873
|121>    H       -9.60840        -2.82670       -16.38870
|122>    H       -7.68598        -3.67105       -17.65771
|123> *
|124>
|125>                          ****END OF INPUT****

CARTESIAN COORDINATES (ANGSTROEM)
---------------------------------
  C    -16.243920  -12.939520    0.657220
  C    -16.146190  -13.791660   -0.433090
  C    -14.971600  -13.887510   -1.165420
  C    -13.856620  -13.136360   -0.824580
  C    -13.944860  -12.277270    0.257540
  C    -15.141800  -12.173710    1.002620
  C    -14.953700  -11.194000    2.066170
  C    -15.845720  -10.904670    3.063790
  C    -17.107450  -11.520740    3.200870
  N    -18.146330  -11.979460    3.368120
  C    -15.618770   -9.988440    4.112340
  N    -15.498980   -9.262850    4.994180
  C    -13.645010  -10.590060    1.849470
  C    -12.948080  -11.416380    0.873970
  C    -11.590320  -11.542280    0.743400
  C    -10.673930  -10.981550    1.659360
  N     -9.907470  -10.606050    2.426480
  C    -10.949530  -12.288540   -0.262910
  N    -10.361730  -12.820260   -1.094640
  C    -13.272630   -9.362240    2.330920
  C    -12.249650   -8.524450    1.849860
  O    -11.537190   -8.777110    0.717070
  C    -10.689130   -7.736260    0.577290
  N    -10.832510   -6.830310    1.527890
  C    -11.796440   -7.295070    2.326240
  C     -9.757350   -7.756740   -0.487320
  C     -8.840280   -6.780890   -0.685110
  C     -7.803580   -6.785990   -1.676420
  C     -7.560010   -7.879050   -2.484650
  C     -6.489270   -7.870370   -3.394110
  C     -6.021460   -8.844400   -4.269890
  C     -6.562900  -10.204230   -4.546940
  C     -6.867450  -11.017210   -3.273370
  N     -6.585220  -12.419150   -3.523960
  C     -7.808580  -10.099300   -5.452090
  N     -7.420590   -9.575230   -6.748190
  C     -4.878970   -8.274240   -4.944710
  C     -4.062440   -8.792320   -5.880590
  C     -2.910380   -8.018360   -6.423270
  C     -2.783420   -6.627520   -5.880660
  C     -3.614030   -6.124860   -4.948910
  C     -4.674250   -6.911070   -4.435880
  C     -5.653940   -6.677150   -3.493760
  C     -5.937510   -5.561200   -2.670030
  C     -6.968170   -5.622600   -1.791860
  C     -3.001750   -7.973900   -7.925160
  C     -2.115260   -8.553610   -8.738330
  C     -2.181220   -8.518130  -10.167730
  O     -3.146180   -7.844150  -10.834810
  C     -2.889070   -8.053700  -12.147860
  N     -1.826370   -8.800930  -12.344200
  C     -1.366430   -9.104920  -11.120970
  C     -3.734450   -7.497430  -13.143980
  C     -3.531980   -7.744720  -14.460580
  C     -4.259170   -7.203690  -15.553650
  C     -5.530440   -6.708630  -15.610690
  C     -6.006320   -5.834290  -16.683620
  C     -5.470410   -5.683020  -17.932670
  C     -4.368600   -6.397430  -18.452650
  N     -3.489530   -6.936440  -18.957250
  C     -5.988820   -4.808980  -18.913480
  N     -6.354900   -4.120260  -19.755170
  C     -7.186280   -5.149260  -16.174040
  C     -7.534340   -5.709030  -14.923920
  C     -8.619840   -5.224890  -14.212010
  C     -9.356160   -4.182640  -14.754370
  C     -9.020200   -3.636530  -15.985190
  C     -7.935510   -4.111600  -16.706730
  C     -6.608720   -6.792790  -14.629380
  C     -6.849590   -7.822590  -13.761610
  C     -7.947990   -7.867550  -12.877600
  N     -8.803420   -7.950390  -12.116710
  C     -6.077860   -9.001310  -13.682700
  N     -5.526180  -10.003260  -13.594790
  H    -17.164510  -12.879230    1.213960
  H    -17.000710  -14.387900   -0.714390
  H    -14.922400  -14.555350   -2.011940
  H    -12.948120  -13.215730   -1.400140
  H    -13.871310   -8.909360    3.108000
  H    -12.120320   -6.760980    3.196260
  H     -9.811870   -8.635500   -1.112690
  H     -8.878290   -5.929560   -0.018600
  H     -8.173800   -8.760630   -2.406870
  H     -5.810730  -10.768700   -5.104120
  H     -7.907560  -10.841150   -2.953970
  H     -6.205260  -10.688650   -2.467570
  H     -7.223750  -12.788650   -4.220730
  H     -6.712980  -12.960880   -2.676490
  H     -8.570710   -9.487730   -4.939250
  H     -8.221340  -11.098990   -5.610480
  H     -7.122890   -8.609040   -6.661180
  H     -8.196820   -9.608000   -7.398940
  H     -4.209020   -9.784630   -6.282630
  H     -1.996240   -8.575450   -6.164970
  H     -1.973950   -6.039640   -6.286030
  H     -3.480900   -5.118540   -4.578940
  H     -5.321470   -4.677130   -2.743640
  H     -7.187910   -4.783320   -1.148650
  H     -3.843120   -7.429330   -8.328500
  H     -1.273240   -9.106380   -8.344910
  H     -0.497130   -9.713750  -10.981280
  H     -4.519240   -6.846730  -12.784700
  H     -2.668930   -8.346320  -14.711570
  H     -3.676330   -7.124780  -16.462780
  H     -8.886320   -5.635320  -13.251610
  H    -10.201160   -3.791520  -14.208730
  H     -9.608400   -2.826700  -16.388700
  H     -7.685980   -3.671050  -17.657710

 Total Charge           Charge          ....    0
 Multiplicity           Mult            ....    1
 Number of Electrons    NEL             ....  494
 Basis Dimension        Dim             .... 1206

ORBITAL ENERGIES
----------------

  NO   OCC          E(Eh)            E(eV)
   0   2.0000     -19.319547      -525.7116
   1   2.0000     -19.317012      -525.6426
   2   2.0000     -14.430623      -392.6772
   3   2.0000     -14.428366      -392.6158
   4   2.0000     -14.428100      -392.6086
   5   2.0000     -14.426289      -392.5593
   6   2.0000     -14.425533      -392.5387
   7   2.0000     -14.423353      -392.4794
   8   2.0000     -14.422408      -392.4537
   9   2.0000     -14.422090      -392.4450
  10   2.0000     -14.418994      -392.3608
  11   2.0000     -14.415811      -392.2742
  12   2.0000     -14.380150      -391.3038
  13   2.0000     -14.374242      -391.1430
  14   2.0000     -10.387897      -282.6690
  15   2.0000     -10.375748      -282.3385
  16   2.0000     -10.360565      -281.9253
  17   2.0000     -10.358253      -281.8624
  18   2.0000     -10.356645      -281.8186
  19   2.0000     -10.355532      -281.7884
  20   2.0000     -10.353555      -281.7345
  21   2.0000     -10.353435      -281.7313
  22   2.0000     -10.349079      -281.6128
  23   2.0000     -10.349037      -281.6116
  24   2.0000     -10.348021      -281.5840
  25   2.0000     -10.344930      -281.4998
  26   2.0000     -10.332826      -281.1705
  27   2.0000     -10.332470      -281.1608
  28   2.0000     -10.332159      -281.1523
  29   2.0000     -10.331108      -281.1237
  30   2.0000     -10.329748      -281.0867
  31   2.0000     -10.328645      -281.0567
  32   2.0000     -10.328588      -281.0552
  33   2.0000     -10.328385      -281.0497
  34   2.0000     -10.328053      -281.0406
  35   2.0000     -10.324513      -280.9443
  36   2.0000     -10.321812      -280.8708
  37   2.0000     -10.321242      -280.8553
  38   2.0000     -10.320783      -280.8428
  39   2.0000     -10.320705      -280.8407
  40   2.0000     -10.318784      -280.7884
  41   2.0000     -10.317854      -280.7631
  42   2.0000     -10.312906      -280.6284
  43   2.0000     -10.312792      -280.6253
  44   2.0000     -10.312480      -280.6169
  45   2.0000     -10.310574      -280.5650
  46   2.0000     -10.309122      -280.5255
  47   2.0000     -10.308261      -280.5020
  48   2.0000     -10.307631      -280.4849
  49   2.0000     -10.306717      -280.4600
  50   2.0000     -10.305794      -280.4349
  51   2.0000     -10.304857      -280.4094
  52   2.0000     -10.303016      -280.3593
  53   2.0000     -10.301687      -280.3232
  54   2.0000     -10.301406      -280.3155
  55   2.0000     -10.300895      -280.3016
  56   2.0000     -10.300866      -280.3008
  57   2.0000     -10.300593      -280.2934
  58   2.0000     -10.298963      -280.2490
  59   2.0000     -10.291919      -280.0574
  60   2.0000     -10.287707      -279.9427
  61   2.0000     -10.286950      -279.9221
  62   2.0000     -10.285135      -279.8728
  63   2.0000     -10.281165      -279.7647
  64   2.0000     -10.280792      -279.7546
  65   2.0000     -10.280636      -279.7503
  66   2.0000     -10.277712      -279.6708
  67   2.0000     -10.276509      -279.6380
  68   2.0000     -10.275302      -279.6052
  69   2.0000     -10.273591      -279.5586
  70   2.0000     -10.272086      -279.5177
  71   2.0000     -10.270926      -279.4861
  72   2.0000     -10.268938      -279.4320
  73   2.0000     -10.264089      -279.3000
  74   2.0000      -1.248552       -33.9748
  75   2.0000      -1.246800       -33.9271
  76   2.0000      -1.044023       -28.4093
  77   2.0000      -1.037919       -28.2432
  78   2.0000      -1.032398       -28.0930
  79   2.0000      -1.030662       -28.0458
  80   2.0000      -1.025620       -27.9085
  81   2.0000      -1.017906       -27.6986
  82   2.0000      -1.015102       -27.6223
  83   2.0000      -1.008088       -27.4315
  84   2.0000      -1.007392       -27.4125
  85   2.0000      -1.005216       -27.3533
  86   2.0000      -0.999023       -27.1848
  87   2.0000      -0.997805       -27.1517
  88   2.0000      -0.992137       -26.9974
  89   2.0000      -0.968663       -26.3586
  90   2.0000      -0.967218       -26.3193
  91   2.0000      -0.961389       -26.1607
  92   2.0000      -0.957558       -26.0565
  93   2.0000      -0.950871       -25.8745
  94   2.0000      -0.948521       -25.8106
  95   2.0000      -0.943085       -25.6627
  96   2.0000      -0.939483       -25.5646
  97   2.0000      -0.936216       -25.4757
  98   2.0000      -0.924531       -25.1578
  99   2.0000      -0.910405       -24.7734
 100   2.0000      -0.902189       -24.5498
 101   2.0000      -0.895754       -24.3747
 102   2.0000      -0.890819       -24.2404
 103   2.0000      -0.883293       -24.0356
 104   2.0000      -0.874165       -23.7872
 105   2.0000      -0.871097       -23.7038
 106   2.0000      -0.866367       -23.5751
 107   2.0000      -0.852672       -23.2024
 108   2.0000      -0.844344       -22.9758
 109   2.0000      -0.837171       -22.7806
 110   2.0000      -0.830880       -22.6094
 111   2.0000      -0.816398       -22.2153
 112   2.0000      -0.800286       -21.7769
 113   2.0000      -0.797625       -21.7045
 114   2.0000      -0.790894       -21.5213
 115   2.0000      -0.783169       -21.3111
 116   2.0000      -0.765271       -20.8241
 117   2.0000      -0.760561       -20.6959
 118   2.0000      -0.751567       -20.4512
 119   2.0000      -0.741318       -20.1723
 120   2.0000      -0.727791       -19.8042
 121   2.0000      -0.724779       -19.7222
 122   2.0000      -0.722782       -19.6679
 123   2.0000      -0.721385       -19.6299
 124   2.0000      -0.719396       -19.5757
 125   2.0000      -0.714148       -19.4330
 126   2.0000      -0.712024       -19.3752
 127   2.0000      -0.704858       -19.1802
 128   2.0000      -0.689060       -18.7503
 129   2.0000      -0.680160       -18.5081
 130   2.0000      -0.678660       -18.4673
 131   2.0000      -0.678076       -18.4514
 132   2.0000      -0.677436       -18.4340
 133   2.0000      -0.673762       -18.3340
 134   2.0000      -0.668914       -18.2021
 135   2.0000      -0.666055       -18.1243
 136   2.0000      -0.664932       -18.0937
 137   2.0000      -0.658727       -17.9249
 138   2.0000      -0.656979       -17.8773
 139   2.0000      -0.638660       -17.3788
 140   2.0000      -0.637785       -17.3550
 141   2.0000      -0.632031       -17.1984
 142   2.0000      -0.626972       -17.0608
 143   2.0000      -0.612562       -16.6687
 144   2.0000      -0.601606       -16.3705
 145   2.0000      -0.599342       -16.3089
 146   2.0000      -0.595845       -16.2138
 147   2.0000      -0.594615       -16.1803
 148   2.0000      -0.591876       -16.1058
 149   2.0000      -0.589393       -16.0382
 150   2.0000      -0.587625       -15.9901
 151   2.0000      -0.586020       -15.9464
 152   2.0000      -0.583965       -15.8905
 153   2.0000      -0.578497       -15.7417
 154   2.0000      -0.570746       -15.5308
 155   2.0000      -0.568882       -15.4801
 156   2.0000      -0.562508       -15.3066
 157   2.0000      -0.557490       -15.1701
 158   2.0000      -0.555670       -15.1205
 159   2.0000      -0.550144       -14.9702
 160   2.0000      -0.548244       -14.9185
 161   2.0000      -0.546148       -14.8614
 162   2.0000      -0.545931       -14.8555
 163   2.0000      -0.543301       -14.7840
 164   2.0000      -0.540430       -14.7058
 165   2.0000      -0.538294       -14.6477
 166   2.0000      -0.536263       -14.5925
 167   2.0000      -0.533778       -14.5248
 168   2.0000      -0.530752       -14.4425
 169   2.0000      -0.526621       -14.3301
 170   2.0000      -0.520374       -14.1601
 171   2.0000      -0.519877       -14.1466
 172   2.0000      -0.514818       -14.0089
 173   2.0000      -0.514538       -14.0013
 174   2.0000      -0.510020       -13.8784
 175   2.0000      -0.508301       -13.8316
 176   2.0000      -0.506768       -13.7899
 177   2.0000      -0.506006       -13.7691
 178   2.0000      -0.504722       -13.7342
 179   2.0000      -0.499296       -13.5865
 180   2.0000      -0.497104       -13.5269
 181   2.0000      -0.492465       -13.4007
 182   2.0000      -0.491255       -13.3677
 183   2.0000      -0.489865       -13.3299
 184   2.0000      -0.484382       -13.1807
 185   2.0000      -0.478937       -13.0325
 186   2.0000      -0.476683       -12.9712
 187   2.0000      -0.476071       -12.9545
 188   2.0000      -0.470033       -12.7903
 189   2.0000      -0.468260       -12.7420
 190   2.0000      -0.466878       -12.7044
 191   2.0000      -0.466310       -12.6889
 192   2.0000      -0.465426       -12.6649
 193   2.0000      -0.463473       -12.6117
 194   2.0000      -0.460961       -12.5434
 195   2.0000      -0.460536       -12.5318
 196   2.0000      -0.458538       -12.4774
 197   2.0000      -0.455977       -12.4078
 198   2.0000      -0.454907       -12.3787
 199   2.0000      -0.453481       -12.3398
 200   2.0000      -0.452934       -12.3250
 201   2.0000      -0.451770       -12.2933
 202   2.0000      -0.450473       -12.2580
 203   2.0000      -0.447976       -12.1900
 204   2.0000      -0.447098       -12.1662
 205   2.0000      -0.445806       -12.1310
 206   2.0000      -0.445194       -12.1144
 207   2.0000      -0.440992       -12.0000
 208   2.0000      -0.439630       -11.9629
 209   2.0000      -0.439413       -11.9570
 210   2.0000      -0.436740       -11.8843
 211   2.0000      -0.433606       -11.7990
 212   2.0000      -0.433308       -11.7909
 213   2.0000      -0.432520       -11.7695
 214   2.0000      -0.430405       -11.7119
 215   2.0000      -0.426652       -11.6098
 216   2.0000      -0.426257       -11.5990
 217   2.0000      -0.422597       -11.4995
 218   2.0000      -0.418634       -11.3916
 219   2.0000      -0.418055       -11.3759
 220   2.0000      -0.417463       -11.3597
 221   2.0000      -0.414672       -11.2838
 222   2.0000      -0.412615       -11.2278
 223   2.0000      -0.412289       -11.2190
 224   2.0000      -0.411792       -11.2054
 225   2.0000      -0.399639       -10.8747
 226   2.0000      -0.398100       -10.8328
 227   2.0000      -0.395289       -10.7564
 228   2.0000      -0.393239       -10.7006
 229   2.0000      -0.388343       -10.5673
 230   2.0000      -0.385137       -10.4801
 231   2.0000      -0.380960       -10.3664
 232   2.0000      -0.379856       -10.3364
 233   2.0000      -0.374084       -10.1793
 234   2.0000      -0.368602       -10.0302
 235   2.0000      -0.348687        -9.4882
 236   2.0000      -0.342071        -9.3082
 237   2.0000      -0.337878        -9.1941
 238   2.0000      -0.333741        -9.0816
 239   2.0000      -0.325482        -8.8568
 240   2.0000      -0.316177        -8.6036
 241   2.0000      -0.307860        -8.3773
 242   2.0000      -0.305416        -8.3108
 243   2.0000      -0.297658        -8.0997
 244   2.0000      -0.277246        -7.5442
 245   2.0000      -0.273798        -7.4504
 246   2.0000      -0.229148        -6.2354
 247   0.0000      -0.110627        -3.0103
 248   0.0000      -0.103621        -2.8197
 249   0.0000      -0.094688        -2.5766
 250   0.0000      -0.087195        -2.3727
 251   0.0000      -0.077518        -2.1094

MULLIKEN ATOMIC CHARGES
-----------------------
   0 C :   -0.031445
   1 C :    0.045296
   2 C :    0.047891
   3 C :   -0.038606
   4 C :    0.018082
   5 C :    0.007182
   6 C :    0.290073
   7 C :   -0.344711
   8 C :   -0.187096
   9 N :    0.158665
  10 C :   -0.185426
  11 N :    0.156388
  12 C :   -0.058196
  13 C :    0.227796
  14 C :   -0.316601
  15 C :   -0.207913
  16 N :    0.171051
  17 C :   -0.168319
  18 N :    0.136869
  19 C :    0.056833
  20 C :    0.097343
  21 O :   -0.209624
  22 C :    0.152193
  23 N :   -0.074466
  24 C :    0.038000
  25 C :   -0.006697
  26 C :    0.011499
  27 C :    0.104281
  28 C :   -0.051470
  29 C :    0.043923
  30 C :   -0.071897
  31 C :   -0.015429
  32 C :    0.113825
  33 N :   -0.208845
  34 C :    0.151007
  35 N :   -0.230580
  36 C :    0.090996
  37 C :   -0.110357
  38 C :    0.129246
  39 C :   -0.047172
  40 C :    0.027998
  41 C :    0.008199
  42 C :    0.030386
  43 C :    0.001498
  44 C :   -0.009186
  45 C :   -0.034620
  46 C :    0.008535
  47 C :    0.159604
  48 O :   -0.186953
  49 C :    0.087441
  50 N :   -0.064492
  51 C :   -0.013919
  52 C :    0.027977
  53 C :    0.004426
  54 C :    0.042190
  55 C :   -0.050035
  56 C :    0.289921
  57 C :   -0.337458
  58 C :   -0.187208
  59 N :    0.168419
  60 C :   -0.190446
  61 N :    0.162390
  62 C :    0.013526
  63 C :    0.007263
  64 C :   -0.033098
  65 C :    0.048005
  66 C :    0.046440
  67 C :   -0.030760
  68 C :    0.226464
  69 C :   -0.334988
  70 C :   -0.177889
  71 N :    0.164330
  72 C :   -0.206497
  73 N :    0.194604
  74 H :    0.005941
  75 H :    0.003594
  76 H :    0.004203
  77 H :    0.003322
  78 H :    0.015908
  79 H :    0.022277
  80 H :    0.001004
  81 H :    0.013402
  82 H :   -0.047450
  83 H :   -0.014058
  84 H :   -0.001336
  85 H :    0.005750
  86 H :    0.088143
  87 H :    0.097751
  88 H :   -0.018936
  89 H :   -0.011095
  90 H :    0.097329
  91 H :    0.098273
  92 H :    0.010177
  93 H :    0.038562
  94 H :   -0.011071
  95 H :   -0.034346
  96 H :   -0.034167
  97 H :   -0.023715
  98 H :    0.019177
  99 H :    0.000550
 100 H :    0.007651
 101 H :    0.022928
 102 H :    0.038709
 103 H :    0.029384
 104 H :    0.005204
 105 H :    0.006415
 106 H :    0.006930
 107 H :    0.007933
Sum of atomic charges:   -0.0000000

LOEWDIN ATOMIC CHARGES
----------------------
   0 C :    0.005361
   1 C :   -0.000275
   2 C :    0.003644
   3 C :   -0.002220
   4 C :   -0.008290
   5 C :   -0.014026
   6 C :    0.079465
   7 C :   -0.136804
   8 C :   -0.019319
   9 N :   -0.048191
  10 C :   -0.021848
  11 N :   -0.046768
  12 C :   -0.063875
  13 C :    0.069640
  14 C :   -0.130725
  15 C :   -0.028190
  16 N :   -0.051297
  17 C :   -0.015984
  18 N :   -0.060914
  19 C :    0.044794
  20 C :   -0.016501
  21 O :    0.020152
  22 C :    0.086644
  23 N :   -0.101976
  24 C :    0.040473
  25 C :   -0.065720
  26 C :    0.057907
  27 C :   -0.044972
  28 C :    0.019837
  29 C :   -0.027084
  30 C :   -0.018020
  31 C :   -0.041064
  32 C :    0.027506
  33 N :   -0.115436
  34 C :    0.030153
  35 N :   -0.119148
  36 C :   -0.022550
  37 C :    0.084147
  38 C :   -0.029279
  39 C :   -0.036981
  40 C :   -0.012852
  41 C :   -0.042796
  42 C :   -0.027548
  43 C :   -0.009667
  44 C :   -0.024362
  45 C :    0.017598
  46 C :   -0.052454
  47 C :    0.024587
  48 O :    0.019129
  49 C :    0.033878
  50 N :   -0.075718
  51 C :   -0.026077
  52 C :    0.010727
  53 C :   -0.007432
  54 C :    0.057273
  55 C :   -0.049274
  56 C :    0.077278
  57 C :   -0.127581
  58 C :   -0.024732
  59 N :   -0.036695
  60 C :   -0.018709
  61 N :   -0.042440
  62 C :   -0.012670
  63 C :   -0.011311
  64 C :    0.001187
  65 C :    0.005324
  66 C :    0.003907
  67 C :    0.006241
  68 C :    0.065216
  69 C :   -0.129340
  70 C :   -0.019296
  71 N :   -0.045564
  72 C :   -0.022270
  73 N :   -0.026874
  74 H :    0.041561
  75 H :    0.037437
  76 H :    0.037195
  77 H :    0.039809
  78 H :    0.056076
  79 H :    0.036250
  80 H :    0.036505
  81 H :    0.040973
  82 H :    0.023080
  83 H :    0.029215
  84 H :   -0.000766
  85 H :    0.021101
  86 H :    0.050472
  87 H :    0.058903
  88 H :   -0.002016
  89 H :    0.013552
  90 H :    0.051287
  91 H :    0.057982
  92 H :    0.037234
  93 H :    0.060366
  94 H :    0.025306
  95 H :    0.030573
  96 H :    0.028457
  97 H :    0.027565
  98 H :    0.032970
  99 H :    0.039793
 100 H :    0.028379
 101 H :    0.040440
 102 H :    0.049679
 103 H :    0.051740
 104 H :    0.040570
 105 H :    0.038384
 106 H :    0.038764
 107 H :    0.042220

  Mayer bond orders larger than 0.100000
B(  0-C ,  1-C ) :   1.3688 B(  0-C ,  5-C ) :   1.3871 B(  0-C , 74-H ) :   0.9836
B(  1-C ,  2-C ) :   1.3793 B(  1-C , 75-H ) :   0.9861 B(  2-C ,  3-C ) :   1.3632
B(  2-C , 76-H ) :   0.9868 B(  3-C ,  4-C ) :   1.3844 B(  3-C , 77-H ) :   0.9862
B(  4-C ,  5-C ) :   1.3101 B(  4-C , 13-C ) :   1.0208 B(  5-C ,  6-C ) :   1.0032
B(  6-C ,  7-C ) :   1.6372 B(  6-C , 12-C ) :   1.0605 B(  7-C ,  8-C ) :   1.1467
B(  7-C , 10-C ) :   1.1360 B(  8-C ,  9-N ) :   2.9772 B( 10-C , 11-N ) :   2.9782
B( 12-C , 13-C ) :   1.0273 B( 12-C , 19-C ) :   1.5346 B( 13-C , 14-C ) :   1.6507
B( 14-C , 15-C ) :   1.1478 B( 14-C , 17-C ) :   1.1467 B( 15-C , 16-N ) :   3.0192
B( 17-C , 18-N ) :   2.9681 B( 19-C , 20-C ) :   1.2171 B( 19-C , 78-H ) :   0.9276
B( 20-C , 21-O ) :   1.0709 B( 20-C , 24-C ) :   1.3726 B( 21-O , 22-C ) :   1.1713
B( 22-C , 23-N ) :   1.6019 B( 22-C , 25-C ) :   1.1428 B( 23-N , 24-C ) :   1.4461
B( 24-C , 79-H ) :   0.9929 B( 25-C , 26-C ) :   1.6449 B( 25-C , 80-H ) :   0.9435
B( 26-C , 27-C ) :   1.0751 B( 26-C , 81-H ) :   0.9887 B( 27-C , 28-C ) :   1.4923
B( 27-C , 44-C ) :   1.1142 B( 28-C , 29-C ) :   1.1647 B( 28-C , 82-H ) :   0.9792
B( 29-C , 30-C ) :   1.4444 B( 29-C , 42-C ) :   1.1175 B( 30-C , 31-C ) :   1.0433
B( 30-C , 36-C ) :   1.1254 B( 31-C , 32-C ) :   1.0250 B( 31-C , 34-C ) :   1.0288
B( 31-C , 83-H ) :   0.8708 B( 32-C , 33-N ) :   1.1113 B( 32-C , 84-H ) :   0.9220
B( 32-C , 85-H ) :   0.9498 B( 33-N , 86-H ) :   0.9702 B( 33-N , 87-H ) :   0.9664
B( 34-C , 35-N ) :   1.0974 B( 34-C , 88-H ) :   0.9329 B( 34-C , 89-H ) :   0.9367
B( 35-N , 90-H ) :   0.9673 B( 35-N , 91-H ) :   0.9658 B( 36-C , 37-C ) :   1.6371
B( 36-C , 41-C ) :   1.0443 B( 37-C , 38-C ) :   0.9654 B( 37-C , 92-H ) :   0.9737
B( 38-C , 39-C ) :   0.9787 B( 38-C , 45-C ) :   0.9572 B( 38-C , 93-H ) :   0.8639
B( 39-C , 40-C ) :   1.7116 B( 39-C , 94-H ) :   0.9772 B( 40-C , 41-C ) :   1.1305
B( 40-C , 95-H ) :   0.9883 B( 41-C , 42-C ) :   1.4378 B( 42-C , 43-C ) :   1.1451
B( 43-C , 44-C ) :   1.6058 B( 43-C , 96-H ) :   0.9902 B( 44-C , 97-H ) :   0.9909
B( 45-C , 46-C ) :   1.7802 B( 45-C , 98-H ) :   0.9757 B( 46-C , 47-C ) :   1.1024
B( 46-C , 99-H ) :   0.9583 B( 47-C , 48-O ) :   1.1443 B( 47-C , 51-C ) :   1.4419
B( 48-O , 49-C ) :   1.1607 B( 49-C , 50-N ) :   1.6705 B( 49-C , 52-C ) :   1.1570
B( 50-N , 51-C ) :   1.3962 B( 51-C ,100-H ) :   0.9953 B( 52-C , 53-C ) :   1.6631
B( 52-C ,101-H ) :   0.9419 B( 53-C , 54-C ) :   1.1609 B( 53-C ,102-H ) :   0.9511
B( 54-C , 55-C ) :   1.6316 B( 54-C ,103-H ) :   0.9232 B( 55-C , 56-C ) :   1.0433
B( 55-C , 68-C ) :   1.0068 B( 56-C , 57-C ) :   1.6461 B( 56-C , 62-C ) :   1.0016
B( 57-C , 58-C ) :   1.1332 B( 57-C , 60-C ) :   1.1472 B( 58-C , 59-N ) :   2.9829
B( 60-C , 61-N ) :   2.9776 B( 62-C , 63-C ) :   1.3100 B( 62-C , 67-C ) :   1.3797
B( 63-C , 64-C ) :   1.3808 B( 63-C , 68-C ) :   1.0112 B( 64-C , 65-C ) :   1.3695
B( 64-C ,104-H ) :   0.9864 B( 65-C , 66-C ) :   1.3732 B( 65-C ,105-H ) :   0.9870
B( 66-C , 67-C ) :   1.3736 B( 66-C ,106-H ) :   0.9869 B( 67-C ,107-H ) :   0.9837
B( 68-C , 69-C ) :   1.6622 B( 69-C , 70-C ) :   1.1338 B( 69-C , 72-C ) :   1.1568
B( 70-C , 71-N ) :   2.9934 B( 72-C , 73-N ) :   3.0073

-----------------------------------------------------------------------------
         ABSORPTION SPECTRUM VIA TRANSITION ELECTRIC DIPOLE MOMENTS
-----------------------------------------------------------------------------
State   Energy  Wavelength   fosc         T2         TX        TY        TZ
        (cm-1)    (nm)                  (au**2)     (au)      (au)      (au)
-----------------------------------------------------------------------------
   0   12224.1    818.1   0.096125910   2.58881  -0.92749   0.05519   1.31360
   1   15316.5    652.9   0.064492153   1.38619  -0.64188  -0.00807  -0.98697
   2   16441.0    608.2   0.558556545  11.18447   2.13599   1.86878  -1.76909
   3   19297.0    518.2   0.440115683   7.50851  -1.28334   0.44074  -2.38061
   4   19591.1    510.4   0.189636505   3.18668   1.76942   0.15483  -0.17847
   5   20234.8    494.2   0.047258496   0.76888  -0.05726  -0.30902   0.81860
   6   20874.1    479.1   0.351213262   5.53910   1.69661   1.42369  -0.79606
   7   23540.9    424.8   0.278896491   3.90028  -0.00840  -0.52071   1.90501
   8   24629.9    406.0   0.223534369   2.98784   1.45988  -0.17053  -0.90967
   9   25752.4    388.3   0.042818598   0.54738  -0.05669  -0.66942  -0.30991
  10   26598.6    376.0   0.055933654   0.69229  -0.17092  -0.36634   0.72724
  11   26710.8    374.4   0.062206063   0.76669  -0.51040   0.59940  -0.38328
  12   27209.7    367.5   0.007683050   0.09296   0.22054  -0.08297   0.19348
  13   27506.7    363.5   0.042070029   0.50351   0.38613  -0.04294  -0.59378
  14   27615.7    362.1   0.222200269   2.64889   1.43211   0.66928  -0.38733
  15   27842.5    359.2   0.113539603   1.34250   1.04210   0.08006  -0.50011
  16   28676.3    348.7   0.207967754   2.38753   0.89400  -0.75862  -1.00638
  17   29316.1    341.1   0.446476433   5.01382  -1.42006   0.36397   1.69256
  18   29885.7    334.6   0.001122703   0.01237   0.08460  -0.03100  -0.06519
  19   30583.8    327.0   0.166813776   1.79563  -0.52160  -0.43707   1.15435
  20   31053.6    322.0   0.347650889   3.68559   1.57031  -0.45264  -1.00738
  21   31635.9    316.1   0.002062490   0.02146   0.05757   0.13460   0.00568
  22   32073.3    311.8   0.197130937   2.02342  -0.62118   0.84938   0.95714
  23   32197.3    310.6   0.003251830   0.03325   0.10441  -0.05890  -0.13740
  24   32284.6    309.7   0.000513931   0.00524   0.01827   0.03158  -0.06252
  25   32697.1    305.8   0.022374005   0.22527  -0.30429   0.09753   0.35096
  26   32801.3    304.9   0.548574203   5.50580   0.75482   1.16629  -1.89098
  27   33141.5    301.7   0.366708401   3.64271  -1.82446   0.05980   0.55720
  28   33738.1    296.4   0.025114703   0.24507   0.00101   0.15561   0.46995
  29   33939.1    294.6   0.001956417   0.01898   0.13443   0.01005   0.02837
  30   34471.9    290.1   0.000149445   0.00143  -0.00172   0.03697   0.00757
  31   34711.2    288.1   0.067614729   0.64128  -0.22953   0.71326   0.28258
  32   34777.3    287.5   0.402936032   3.81431  -0.44874  -1.23787  -1.44244
  33   34845.0    287.0   0.015983773   0.15101  -0.33301   0.18387  -0.07942
  34   35184.1    284.2   0.204972031   1.91789   1.28632  -0.47173   0.20188
  35   35221.5    283.9   0.043213807   0.40392  -0.55262   0.31325  -0.02009
  36   35335.4    283.0   0.076590664   0.71358   0.10101   0.83781   0.03802
  37   35464.1    282.0   0.109028223   1.01211   0.06676  -0.63052  -0.78108
  38   36237.9    276.0   0.049743781   0.45191  -0.43751   0.47748   0.18031
  39   36262.2    275.8   0.053393765   0.48474  -0.33983   0.28052   0.53904
  40   36313.2    275.4   0.205835047   1.86608   0.59201  -0.32189  -1.18827
  41   36841.7    271.4   0.222503680   1.98826  -0.58883   0.56592  -1.14947
  42   36895.9    271.0   0.095261203   0.84999   0.39607  -0.37512   0.74324
  43   37130.9    269.3   0.014762243   0.13089   0.27948  -0.15368  -0.17076
  44   37280.9    268.2   0.134907273   1.19131   0.87555  -0.45826  -0.46337
  45   37517.5    266.5   0.052319379   0.45910   0.46815  -0.36036  -0.33177
  46   38304.3    261.1   0.070375550   0.60485  -0.50643  -0.58914   0.03604
  47   38594.4    259.1   0.014371957   0.12259  -0.12464   0.08544   0.31585
  48   38828.1    257.5   0.023700913   0.20095   0.24412   0.32009   0.19724
  49   39291.2    254.5   0.000723722   0.00606   0.04800   0.04414  -0.04255
  50   39631.7    252.3   0.055462300   0.46071   0.64047   0.09221  -0.20495
  51   39882.4    250.7   0.024857451   0.20519   0.08706   0.18552   0.40397

FINAL SINGLE POINT ENERGY     -3110.050029675863

DIPOLE MOMENT
-------------
                                X             Y             Z
Electronic contribution:    -22.99226       4.49003      -7.66905
Nuclear contribution   :     23.54342      -2.74747       6.73470
                        -----------------------------------------
Total Dipole Moment    :      0.55116       1.74256      -0.93435
                        -----------------------------------------
Magnitude (a.u.)       :      2.05264
Magnitude (Debye)      :      5.21738

Rotational constants in cm-1:     0.001491     0.000258     0.000241
Rotational constants in MHz :    44.699226     7.729722     7.212603

                             ****ORCA TERMINATED NORMALLY****
TOTAL RUN TIME: 0 days 0 hours 11 minutes 56 seconds 579 msec
