                         Program Version 4.2.0 -  RELEASE  -
|  1> # ORCA input file
|  2> # SCF done       -195.083687163700          0.000848182644
|  3> ! CAM-B3LYP def2-SVP def2/J RIJCOSX Grid4 TightSCF
|  4> %maxcore 5000
|  5> %tddft
|  6>     Mode sTDDFT
|  7>     Ethresh 5.0
|  8>     maxcore 5000
|  9> end
| 10>
| 11> %pal
| 12>   nprocs 6
| 13>   end
| 14> * xyz 0 1
| 15>    C       -5.01871        -5.94356        11.16224
| 16>    C       -3.87604        -6.65213        11.50628
| 17>    C       -2.84258        -6.83043        10.59872
| 18>    C       -2.91855        -6.29844         9.31962
| 19>    C       -4.05677        -5.59686         8.96356
| 20>    C       -5.11460        -5.41880         9.88406
| 21>    C       -6.17869        -4.65685         9.23764
| 22>    C       -7.32120        -4.19565         9.84387
| 23>    C       -7.63944        -4.40414        11.20069
| 24>    N       -7.96258        -4.53774        12.29461
| 25>    C       -8.30616        -3.41392         9.21018
| 26>    N       -9.13574        -2.76823         8.74493
| 27>    C       -5.79051        -4.49560         7.84936
| 28>    C       -4.40087        -4.89465         7.73764
| 29>    C       -3.50960        -4.43327         6.79853
| 30>    C       -3.83986        -3.40442         5.89225
| 31>    N       -4.07636        -2.51459         5.20550
| 32>    C       -2.17661        -4.86333         6.68881
| 33>    N       -1.09398        -5.21086         6.52082
| 34>    C       -6.65080        -4.16099         6.82710
| 35>    C       -6.50751        -4.42194         5.46120
| 36>    C       -7.27306        -3.89960         4.43057
| 37>    C       -6.90565        -4.33414         3.13908
| 38>    O       -7.66478        -3.70603         2.19076
| 39>    C       -8.50268        -2.79347         2.87871
| 40>    N       -8.31095        -3.03111         4.29995
| 41>    C       -5.86777        -5.22346         3.09379
| 42>    S       -5.36730        -5.56974         4.74781
| 43>    C       -5.12525        -5.75581         1.99172
| 44>    C       -3.95628        -6.43975         2.23556
| 45>    C       -3.13216        -6.83792         1.17061
| 46>    C       -1.87812        -7.43237         1.15371
| 47>    C       -1.03299        -7.87598         2.29929
| 48>    C       -0.98636        -6.85319         3.45141
| 49>    N        0.31333        -6.89235         4.09523
| 50>    C       -1.51327        -9.25102         2.80558
| 51>    N       -1.29524       -10.25520         1.77910
| 52>    C       -1.50826        -7.56290        -0.23669
| 53>    C       -0.39731        -8.06616        -0.80460
| 54>    C       -0.21229        -8.05761        -2.28492
| 55>    C       -1.37647        -7.52681        -3.05669
| 56>    C       -2.47916        -7.02691        -2.46997
| 57>    C       -2.59605        -7.01470        -1.05842
| 58>    C       -3.57533        -6.57034        -0.19482
| 59>    C       -4.81411        -5.91745        -0.41093
| 60>    C       -5.55837        -5.50904         0.64653
| 61>    C        0.24348        -9.42254        -2.72591
| 62>    C       -0.49043       -10.27430        -3.44619
| 63>    C       -0.02445       -11.55696        -3.87194
| 64>    C       -0.66683       -12.48080        -4.65633
| 65>    C        0.09609       -13.62406        -4.95806
| 66>    O       -0.60362       -14.49187        -5.72316
| 67>    C       -1.86667       -13.88206        -5.97919
| 68>    N       -1.92808       -12.64164        -5.21645
| 69>    C        1.37160       -13.63501        -4.42894
| 70>    S        1.57251       -12.16361        -3.47726
| 71>    C        2.42375       -14.56555        -4.47088
| 72>    C        2.59236       -15.63804        -5.30801
| 73>    C        3.46600       -16.76927        -5.00670
| 74>    C        4.48400       -16.81706        -4.09327
| 75>    C        4.91923       -15.74464        -3.28522
| 76>    N        5.33922       -14.92356        -2.60116
| 77>    C        5.28391       -17.95654        -3.85941
| 78>    N        5.97172       -18.84253        -3.61579
| 79>    C        3.05181       -17.86176        -5.87810
| 80>    C        2.07088       -17.38253        -6.77491
| 81>    C        1.49577       -18.22689        -7.70926
| 82>    C        1.90268       -19.55249        -7.74384
| 83>    C        2.87084       -20.02372        -6.86920
| 84>    C        3.45556       -19.18668        -5.93039
| 85>    C        1.87823       -15.96106        -6.52805
| 86>    C        1.33217       -15.07212        -7.41801
| 87>    C        0.63365       -15.44253        -8.58428
| 88>    N        0.01543       -15.66149        -9.52663
| 89>    C        1.45216       -13.67303        -7.32230
| 90>    N        1.51814       -12.52672        -7.29985
| 91>    H       -5.80990        -5.81397        11.88233
| 92>    H       -3.79410        -7.07074        12.49780
| 93>    H       -1.96603        -7.38929        10.88954
| 94>    H       -2.11131        -6.44112         8.61900
| 95>    H       -7.59756        -3.71028         7.09461
| 96>    H       -9.54676        -2.98320         2.58929
| 97>    H       -8.23202        -1.76330         2.59067
| 98>    H       -8.54075        -2.32400         4.97607
| 99>    H       -3.65840        -6.63184         3.25438
|100>    H       -0.00603        -8.00225         1.94646
|101>    H       -1.81415        -7.04692         4.15382
|102>    H       -1.11769        -5.84596         3.04684
|103>    H        0.45783        -7.79310         4.54069
|104>    H        0.35127        -6.18614         4.82371
|105>    H       -2.56807        -9.16389         3.11881
|106>    H       -0.92053        -9.54015         3.67764
|107>    H       -1.87369       -10.05660         0.96900
|108>    H       -1.54320       -11.17600         2.12317
|109>    H        0.39963        -8.49637        -0.21516
|110>    H        0.63967        -7.38051        -2.47576
|111>    H       -1.26939        -7.53443        -4.13103
|112>    H       -3.28911        -6.63050        -3.06541
|113>    H       -5.14545        -5.73234        -1.42222
|114>    H       -6.49024        -4.98458         0.50528
|115>    H        1.23399        -9.71633        -2.40511
|116>    H       -1.49289       -10.01446        -3.75936
|117>    H       -2.65163       -14.57473        -5.64413
|118>    H       -1.96711       -13.72529        -7.06443
|119>    H       -2.34663       -11.84970        -5.68063
|120>    H        3.15666       -14.42730        -3.68687
|121>    H        0.73918       -17.87271        -8.39054
|122>    H        1.45817       -20.22430        -8.46221
|123>    H        3.17480       -21.05827        -6.91548
|124>    H        4.20379       -19.57190        -5.25765
|125> *
|126>
|127>                          ****END OF INPUT****

CARTESIAN COORDINATES (ANGSTROEM)
---------------------------------
  C     -5.018710   -5.943560   11.162240
  C     -3.876040   -6.652130   11.506280
  C     -2.842580   -6.830430   10.598720
  C     -2.918550   -6.298440    9.319620
  C     -4.056770   -5.596860    8.963560
  C     -5.114600   -5.418800    9.884060
  C     -6.178690   -4.656850    9.237640
  C     -7.321200   -4.195650    9.843870
  C     -7.639440   -4.404140   11.200690
  N     -7.962580   -4.537740   12.294610
  C     -8.306160   -3.413920    9.210180
  N     -9.135740   -2.768230    8.744930
  C     -5.790510   -4.495600    7.849360
  C     -4.400870   -4.894650    7.737640
  C     -3.509600   -4.433270    6.798530
  C     -3.839860   -3.404420    5.892250
  N     -4.076360   -2.514590    5.205500
  C     -2.176610   -4.863330    6.688810
  N     -1.093980   -5.210860    6.520820
  C     -6.650800   -4.160990    6.827100
  C     -6.507510   -4.421940    5.461200
  C     -7.273060   -3.899600    4.430570
  C     -6.905650   -4.334140    3.139080
  O     -7.664780   -3.706030    2.190760
  C     -8.502680   -2.793470    2.878710
  N     -8.310950   -3.031110    4.299950
  C     -5.867770   -5.223460    3.093790
  S     -5.367300   -5.569740    4.747810
  C     -5.125250   -5.755810    1.991720
  C     -3.956280   -6.439750    2.235560
  C     -3.132160   -6.837920    1.170610
  C     -1.878120   -7.432370    1.153710
  C     -1.032990   -7.875980    2.299290
  C     -0.986360   -6.853190    3.451410
  N      0.313330   -6.892350    4.095230
  C     -1.513270   -9.251020    2.805580
  N     -1.295240  -10.255200    1.779100
  C     -1.508260   -7.562900   -0.236690
  C     -0.397310   -8.066160   -0.804600
  C     -0.212290   -8.057610   -2.284920
  C     -1.376470   -7.526810   -3.056690
  C     -2.479160   -7.026910   -2.469970
  C     -2.596050   -7.014700   -1.058420
  C     -3.575330   -6.570340   -0.194820
  C     -4.814110   -5.917450   -0.410930
  C     -5.558370   -5.509040    0.646530
  C      0.243480   -9.422540   -2.725910
  C     -0.490430  -10.274300   -3.446190
  C     -0.024450  -11.556960   -3.871940
  C     -0.666830  -12.480800   -4.656330
  C      0.096090  -13.624060   -4.958060
  O     -0.603620  -14.491870   -5.723160
  C     -1.866670  -13.882060   -5.979190
  N     -1.928080  -12.641640   -5.216450
  C      1.371600  -13.635010   -4.428940
  S      1.572510  -12.163610   -3.477260
  C      2.423750  -14.565550   -4.470880
  C      2.592360  -15.638040   -5.308010
  C      3.466000  -16.769270   -5.006700
  C      4.484000  -16.817060   -4.093270
  C      4.919230  -15.744640   -3.285220
  N      5.339220  -14.923560   -2.601160
  C      5.283910  -17.956540   -3.859410
  N      5.971720  -18.842530   -3.615790
  C      3.051810  -17.861760   -5.878100
  C      2.070880  -17.382530   -6.774910
  C      1.495770  -18.226890   -7.709260
  C      1.902680  -19.552490   -7.743840
  C      2.870840  -20.023720   -6.869200
  C      3.455560  -19.186680   -5.930390
  C      1.878230  -15.961060   -6.528050
  C      1.332170  -15.072120   -7.418010
  C      0.633650  -15.442530   -8.584280
  N      0.015430  -15.661490   -9.526630
  C      1.452160  -13.673030   -7.322300
  N      1.518140  -12.526720   -7.299850
  H     -5.809900   -5.813970   11.882330
  H     -3.794100   -7.070740   12.497800
  H     -1.966030   -7.389290   10.889540
  H     -2.111310   -6.441120    8.619000
  H     -7.597560   -3.710280    7.094610
  H     -9.546760   -2.983200    2.589290
  H     -8.232020   -1.763300    2.590670
  H     -8.540750   -2.324000    4.976070
  H     -3.658400   -6.631840    3.254380
  H     -0.006030   -8.002250    1.946460
  H     -1.814150   -7.046920    4.153820
  H     -1.117690   -5.845960    3.046840
  H      0.457830   -7.793100    4.540690
  H      0.351270   -6.186140    4.823710
  H     -2.568070   -9.163890    3.118810
  H     -0.920530   -9.540150    3.677640
  H     -1.873690  -10.056600    0.969000
  H     -1.543200  -11.176000    2.123170
  H      0.399630   -8.496370   -0.215160
  H      0.639670   -7.380510   -2.475760
  H     -1.269390   -7.534430   -4.131030
  H     -3.289110   -6.630500   -3.065410
  H     -5.145450   -5.732340   -1.422220
  H     -6.490240   -4.984580    0.505280
  H      1.233990   -9.716330   -2.405110
  H     -1.492890  -10.014460   -3.759360
  H     -2.651630  -14.574730   -5.644130
  H     -1.967110  -13.725290   -7.064430
  H     -2.346630  -11.849700   -5.680630
  H      3.156660  -14.427300   -3.686870
  H      0.739180  -17.872710   -8.390540
  H      1.458170  -20.224300   -8.462210
  H      3.174800  -21.058270   -6.915480
  H      4.203790  -19.571900   -5.257650

 Total Charge           Charge          ....    0
 Multiplicity           Mult            ....    1
 Number of Electrons    NEL             ....  526
 Basis Dimension        Dim             .... 1242

ORBITAL ENERGIES
----------------

  NO   OCC          E(Eh)            E(eV)
   0   2.0000     -88.962610     -2420.7957
   1   2.0000     -88.959754     -2420.7180
   2   2.0000     -19.296220      -525.0769
   3   2.0000     -19.280493      -524.6489
   4   2.0000     -14.474516      -393.8716
   5   2.0000     -14.451772      -393.2527
   6   2.0000     -14.422053      -392.4440
   7   2.0000     -14.421320      -392.4241
   8   2.0000     -14.420661      -392.4061
   9   2.0000     -14.420190      -392.3933
  10   2.0000     -14.420035      -392.3891
  11   2.0000     -14.417533      -392.3210
  12   2.0000     -14.412957      -392.1965
  13   2.0000     -14.409493      -392.1022
  14   2.0000     -14.377546      -391.2329
  15   2.0000     -14.360472      -390.7683
  16   2.0000     -10.392240      -282.7872
  17   2.0000     -10.387581      -282.6604
  18   2.0000     -10.365323      -282.0548
  19   2.0000     -10.355864      -281.7974
  20   2.0000     -10.349331      -281.6196
  21   2.0000     -10.347814      -281.5783
  22   2.0000     -10.347091      -281.5587
  23   2.0000     -10.345577      -281.5175
  24   2.0000     -10.342186      -281.4252
  25   2.0000     -10.342167      -281.4247
  26   2.0000     -10.340829      -281.3883
  27   2.0000     -10.339711      -281.3578
  28   2.0000     -10.338456      -281.3237
  29   2.0000     -10.330446      -281.1057
  30   2.0000     -10.328706      -281.0584
  31   2.0000     -10.325837      -280.9803
  32   2.0000     -10.325722      -280.9772
  33   2.0000     -10.325287      -280.9654
  34   2.0000     -10.324240      -280.9369
  35   2.0000     -10.324062      -280.9320
  36   2.0000     -10.323549      -280.9180
  37   2.0000     -10.322721      -280.8955
  38   2.0000     -10.321600      -280.8650
  39   2.0000     -10.320864      -280.8450
  40   2.0000     -10.320340      -280.8307
  41   2.0000     -10.318294      -280.7750
  42   2.0000     -10.316487      -280.7259
  43   2.0000     -10.314697      -280.6772
  44   2.0000     -10.313591      -280.6471
  45   2.0000     -10.308913      -280.5198
  46   2.0000     -10.308506      -280.5087
  47   2.0000     -10.307200      -280.4732
  48   2.0000     -10.306497      -280.4541
  49   2.0000     -10.306122      -280.4438
  50   2.0000     -10.305019      -280.4138
  51   2.0000     -10.302405      -280.3427
  52   2.0000     -10.297863      -280.2191
  53   2.0000     -10.297542      -280.2104
  54   2.0000     -10.297125      -280.1990
  55   2.0000     -10.296126      -280.1718
  56   2.0000     -10.296044      -280.1696
  57   2.0000     -10.295573      -280.1568
  58   2.0000     -10.295473      -280.1541
  59   2.0000     -10.295168      -280.1458
  60   2.0000     -10.295061      -280.1428
  61   2.0000     -10.293433      -280.0985
  62   2.0000     -10.291644      -280.0499
  63   2.0000     -10.282561      -279.8027
  64   2.0000     -10.279417      -279.7172
  65   2.0000     -10.278037      -279.6796
  66   2.0000     -10.275584      -279.6129
  67   2.0000     -10.274431      -279.5815
  68   2.0000     -10.274395      -279.5805
  69   2.0000     -10.272380      -279.5257
  70   2.0000     -10.272134      -279.5190
  71   2.0000     -10.268068      -279.4083
  72   2.0000     -10.267131      -279.3828
  73   2.0000     -10.266211      -279.3578
  74   2.0000     -10.265022      -279.3254
  75   2.0000     -10.258708      -279.1536
  76   2.0000      -8.057754      -219.2626
  77   2.0000      -8.053795      -219.1549
  78   2.0000      -6.027581      -164.0188
  79   2.0000      -6.023884      -163.9182
  80   2.0000      -6.023580      -163.9100
  81   2.0000      -6.019776      -163.8064
  82   2.0000      -6.018614      -163.7748
  83   2.0000      -6.014352      -163.6588
  84   2.0000      -1.216751       -33.1095
  85   2.0000      -1.206737       -32.8370
  86   2.0000      -1.056374       -28.7454
  87   2.0000      -1.042338       -28.3634
  88   2.0000      -1.033227       -28.1155
  89   2.0000      -1.030349       -28.0372
  90   2.0000      -1.017333       -27.6830
  91   2.0000      -1.014125       -27.5957
  92   2.0000      -1.006184       -27.3797
  93   2.0000      -1.003936       -27.3185
  94   2.0000      -1.001083       -27.2409
  95   2.0000      -0.998585       -27.1729
  96   2.0000      -0.997348       -27.1392
  97   2.0000      -0.994273       -27.0556
  98   2.0000      -0.993051       -27.0223
  99   2.0000      -0.991055       -26.9680
 100   2.0000      -0.985595       -26.8194
 101   2.0000      -0.961870       -26.1738
 102   2.0000      -0.955998       -26.0140
 103   2.0000      -0.954376       -25.9699
 104   2.0000      -0.949314       -25.8321
 105   2.0000      -0.941211       -25.6117
 106   2.0000      -0.937339       -25.5063
 107   2.0000      -0.933585       -25.4041
 108   2.0000      -0.924018       -25.1438
 109   2.0000      -0.907307       -24.6891
 110   2.0000      -0.896914       -24.4063
 111   2.0000      -0.891630       -24.2625
 112   2.0000      -0.887360       -24.1463
 113   2.0000      -0.882172       -24.0051
 114   2.0000      -0.873140       -23.7594
 115   2.0000      -0.863238       -23.4899
 116   2.0000      -0.861206       -23.4346
 117   2.0000      -0.858680       -23.3659
 118   2.0000      -0.852819       -23.2064
 119   2.0000      -0.843951       -22.9651
 120   2.0000      -0.839773       -22.8514
 121   2.0000      -0.828930       -22.5563
 122   2.0000      -0.824557       -22.4373
 123   2.0000      -0.807426       -21.9712
 124   2.0000      -0.789344       -21.4791
 125   2.0000      -0.787006       -21.4155
 126   2.0000      -0.784801       -21.3555
 127   2.0000      -0.774295       -21.0696
 128   2.0000      -0.770055       -20.9543
 129   2.0000      -0.765546       -20.8316
 130   2.0000      -0.761163       -20.7123
 131   2.0000      -0.745849       -20.2956
 132   2.0000      -0.728410       -19.8211
 133   2.0000      -0.720238       -19.5987
 134   2.0000      -0.716800       -19.5051
 135   2.0000      -0.714693       -19.4478
 136   2.0000      -0.711015       -19.3477
 137   2.0000      -0.709268       -19.3002
 138   2.0000      -0.708612       -19.2823
 139   2.0000      -0.705912       -19.2088
 140   2.0000      -0.694507       -18.8985
 141   2.0000      -0.688380       -18.7318
 142   2.0000      -0.687019       -18.6947
 143   2.0000      -0.670219       -18.2376
 144   2.0000      -0.666492       -18.1362
 145   2.0000      -0.665328       -18.1045
 146   2.0000      -0.663439       -18.0531
 147   2.0000      -0.660200       -17.9649
 148   2.0000      -0.660111       -17.9625
 149   2.0000      -0.659434       -17.9441
 150   2.0000      -0.651905       -17.7392
 151   2.0000      -0.640792       -17.4368
 152   2.0000      -0.631381       -17.1808
 153   2.0000      -0.624188       -16.9850
 154   2.0000      -0.621087       -16.9006
 155   2.0000      -0.615390       -16.7456
 156   2.0000      -0.608470       -16.5573
 157   2.0000      -0.607736       -16.5373
 158   2.0000      -0.596312       -16.2265
 159   2.0000      -0.592506       -16.1229
 160   2.0000      -0.588961       -16.0265
 161   2.0000      -0.583012       -15.8646
 162   2.0000      -0.580713       -15.8020
 163   2.0000      -0.579430       -15.7671
 164   2.0000      -0.579273       -15.7628
 165   2.0000      -0.575979       -15.6732
 166   2.0000      -0.573514       -15.6061
 167   2.0000      -0.567143       -15.4328
 168   2.0000      -0.565979       -15.4011
 169   2.0000      -0.554782       -15.0964
 170   2.0000      -0.553074       -15.0499
 171   2.0000      -0.546138       -14.8612
 172   2.0000      -0.543762       -14.7965
 173   2.0000      -0.540841       -14.7170
 174   2.0000      -0.540395       -14.7049
 175   2.0000      -0.538214       -14.6455
 176   2.0000      -0.537783       -14.6338
 177   2.0000      -0.534526       -14.5452
 178   2.0000      -0.532269       -14.4838
 179   2.0000      -0.531056       -14.4508
 180   2.0000      -0.528550       -14.3826
 181   2.0000      -0.525960       -14.3121
 182   2.0000      -0.523845       -14.2546
 183   2.0000      -0.522420       -14.2158
 184   2.0000      -0.517835       -14.0910
 185   2.0000      -0.514439       -13.9986
 186   2.0000      -0.513720       -13.9790
 187   2.0000      -0.513254       -13.9664
 188   2.0000      -0.506646       -13.7865
 189   2.0000      -0.505920       -13.7668
 190   2.0000      -0.503774       -13.7084
 191   2.0000      -0.502518       -13.6742
 192   2.0000      -0.499333       -13.5876
 193   2.0000      -0.497020       -13.5246
 194   2.0000      -0.493505       -13.4289
 195   2.0000      -0.486070       -13.2266
 196   2.0000      -0.483762       -13.1638
 197   2.0000      -0.480691       -13.0803
 198   2.0000      -0.479855       -13.0575
 199   2.0000      -0.475951       -12.9513
 200   2.0000      -0.475451       -12.9377
 201   2.0000      -0.471489       -12.8299
 202   2.0000      -0.466523       -12.6947
 203   2.0000      -0.465463       -12.6659
 204   2.0000      -0.463854       -12.6221
 205   2.0000      -0.460917       -12.5422
 206   2.0000      -0.459716       -12.5095
 207   2.0000      -0.457751       -12.4560
 208   2.0000      -0.456821       -12.4307
 209   2.0000      -0.456160       -12.4127
 210   2.0000      -0.453614       -12.3435
 211   2.0000      -0.453442       -12.3388
 212   2.0000      -0.451421       -12.2838
 213   2.0000      -0.451057       -12.2739
 214   2.0000      -0.448843       -12.2136
 215   2.0000      -0.446935       -12.1617
 216   2.0000      -0.445794       -12.1307
 217   2.0000      -0.444352       -12.0914
 218   2.0000      -0.443686       -12.0733
 219   2.0000      -0.442155       -12.0317
 220   2.0000      -0.441959       -12.0263
 221   2.0000      -0.440573       -11.9886
 222   2.0000      -0.437409       -11.9025
 223   2.0000      -0.432589       -11.7713
 224   2.0000      -0.431592       -11.7442
 225   2.0000      -0.429201       -11.6792
 226   2.0000      -0.428701       -11.6655
 227   2.0000      -0.428540       -11.6612
 228   2.0000      -0.427015       -11.6197
 229   2.0000      -0.426549       -11.6070
 230   2.0000      -0.425512       -11.5788
 231   2.0000      -0.424441       -11.5496
 232   2.0000      -0.422893       -11.5075
 233   2.0000      -0.417755       -11.3677
 234   2.0000      -0.414599       -11.2818
 235   2.0000      -0.411953       -11.2098
 236   2.0000      -0.411725       -11.2036
 237   2.0000      -0.409860       -11.1529
 238   2.0000      -0.407923       -11.1002
 239   2.0000      -0.402848       -10.9621
 240   2.0000      -0.402005       -10.9391
 241   2.0000      -0.393851       -10.7172
 242   2.0000      -0.390586       -10.6284
 243   2.0000      -0.388138       -10.5618
 244   2.0000      -0.386157       -10.5079
 245   2.0000      -0.382000       -10.3948
 246   2.0000      -0.378464       -10.2985
 247   2.0000      -0.370160       -10.0726
 248   2.0000      -0.368228       -10.0200
 249   2.0000      -0.347075        -9.4444
 250   2.0000      -0.335171        -9.1205
 251   2.0000      -0.331095        -9.0095
 252   2.0000      -0.328508        -8.9392
 253   2.0000      -0.324579        -8.8322
 254   2.0000      -0.309249        -8.4151
 255   2.0000      -0.304120        -8.2755
 256   2.0000      -0.302695        -8.2368
 257   2.0000      -0.286993        -7.8095
 258   2.0000      -0.285941        -7.7809
 259   2.0000      -0.279171        -7.5966
 260   2.0000      -0.268966        -7.3189
 261   2.0000      -0.268302        -7.3009
 262   2.0000      -0.225621        -6.1395
 263   0.0000      -0.096277        -2.6198
 264   0.0000      -0.091834        -2.4989
 265   0.0000      -0.083218        -2.2645
 266   0.0000      -0.083022        -2.2591
 267   0.0000      -0.066137        -1.7997

MULLIKEN ATOMIC CHARGES
-----------------------
   0 C :   -0.038977
   1 C :    0.047628
   2 C :    0.049281
   3 C :   -0.041572
   4 C :    0.015640
   5 C :    0.008632
   6 C :    0.305878
   7 C :   -0.357080
   8 C :   -0.186514
   9 N :    0.153250
  10 C :   -0.173304
  11 N :    0.127306
  12 C :   -0.091158
  13 C :    0.215144
  14 C :   -0.342505
  15 C :   -0.187589
  16 N :    0.154842
  17 C :   -0.140843
  18 N :    0.135093
  19 C :    0.015399
  20 C :   -0.216625
  21 C :    0.210925
  22 C :    0.161038
  23 O :   -0.308833
  24 C :    0.347998
  25 N :   -0.168151
  26 C :   -0.131096
  27 S :    0.081651
  28 C :    0.146165
  29 C :   -0.121918
  30 C :    0.045140
  31 C :   -0.065286
  32 C :   -0.016977
  33 C :    0.106769
  34 N :   -0.206871
  35 C :    0.149341
  36 N :   -0.228744
  37 C :    0.068704
  38 C :   -0.095121
  39 C :    0.176057
  40 C :   -0.068673
  41 C :    0.020777
  42 C :    0.013586
  43 C :    0.037578
  44 C :   -0.002490
  45 C :   -0.020634
  46 C :   -0.107421
  47 C :    0.039074
  48 C :   -0.154544
  49 C :    0.129819
  50 C :    0.183416
  51 O :   -0.289594
  52 C :    0.333722
  53 N :   -0.207882
  54 C :   -0.219708
  55 S :    0.128000
  56 C :    0.111712
  57 C :   -0.072433
  58 C :    0.297835
  59 C :   -0.345190
  60 C :   -0.179395
  61 N :    0.155417
  62 C :   -0.187028
  63 N :    0.156106
  64 C :    0.005279
  65 C :    0.010811
  66 C :   -0.039860
  67 C :    0.048037
  68 C :    0.045304
  69 C :   -0.032555
  70 C :    0.246208
  71 C :   -0.306000
  72 C :   -0.190648
  73 N :    0.151828
  74 C :   -0.228762
  75 N :    0.177391
  76 H :    0.005482
  77 H :    0.000614
  78 H :    0.000623
  79 H :    0.000157
  80 H :   -0.003760
  81 H :    0.042031
  82 H :    0.042227
  83 H :    0.153638
  84 H :   -0.023313
  85 H :   -0.013173
  86 H :   -0.008019
  87 H :    0.007044
  88 H :    0.080044
  89 H :    0.096587
  90 H :   -0.019177
  91 H :   -0.012692
  92 H :    0.096802
  93 H :    0.092468
  94 H :    0.009559
  95 H :    0.054838
  96 H :   -0.007941
  97 H :   -0.037982
  98 H :   -0.037677
  99 H :   -0.015896
 100 H :    0.016662
 101 H :   -0.007908
 102 H :    0.042602
 103 H :    0.045631
 104 H :    0.140418
 105 H :    0.007364
 106 H :    0.002832
 107 H :    0.002284
 108 H :    0.001816
 109 H :    0.004017
Sum of atomic charges:   -0.0000000

LOEWDIN ATOMIC CHARGES
----------------------
   0 C :    0.004341
   1 C :   -0.002836
   2 C :    0.001575
   3 C :   -0.003951
   4 C :   -0.008253
   5 C :   -0.014616
   6 C :    0.083449
   7 C :   -0.148861
   8 C :   -0.020415
   9 N :   -0.055439
  10 C :   -0.014659
  11 N :   -0.067512
  12 C :   -0.087352
  13 C :    0.059989
  14 C :   -0.151643
  15 C :   -0.035102
  16 N :   -0.061533
  17 C :   -0.003771
  18 N :   -0.061517
  19 C :    0.042509
  20 C :   -0.220502
  21 C :    0.041981
  22 C :   -0.003613
  23 O :   -0.099748
  24 C :    0.172943
  25 N :   -0.007687
  26 C :   -0.137906
  27 S :    0.429061
  28 C :   -0.048919
  29 C :   -0.002423
  30 C :   -0.027617
  31 C :   -0.019523
  32 C :   -0.040148
  33 C :    0.027856
  34 N :   -0.117025
  35 C :    0.029189
  36 N :   -0.120806
  37 C :   -0.025069
  38 C :    0.085706
  39 C :   -0.031126
  40 C :   -0.040001
  41 C :   -0.014755
  42 C :   -0.042776
  43 C :   -0.027655
  44 C :   -0.007116
  45 C :   -0.024605
  46 C :   -0.000431
  47 C :   -0.044474
  48 C :   -0.173223
  49 C :   -0.029600
  50 C :    0.039537
  51 O :   -0.064668
  52 C :    0.168604
  53 N :   -0.061045
  54 C :   -0.206324
  55 S :    0.427029
  56 C :    0.041923
  57 C :   -0.062794
  58 C :    0.080865
  59 C :   -0.134194
  60 C :   -0.022648
  61 N :   -0.044307
  62 C :   -0.018343
  63 N :   -0.048242
  64 C :   -0.016813
  65 C :   -0.007151
  66 C :   -0.003251
  67 C :    0.003262
  68 C :   -0.002840
  69 C :    0.005340
  70 C :    0.063073
  71 C :   -0.130781
  72 C :   -0.019023
  73 N :   -0.056727
  74 C :   -0.022057
  75 N :   -0.051294
  76 H :    0.041125
  77 H :    0.036315
  78 H :    0.036016
  79 H :    0.038539
  80 H :    0.043843
  81 H :    0.022191
  82 H :    0.019740
  83 H :    0.095994
  84 H :    0.014747
  85 H :    0.029089
  86 H :   -0.005144
  87 H :    0.021618
  88 H :    0.046705
  89 H :    0.050049
  90 H :   -0.002062
  91 H :    0.012279
  92 H :    0.050754
  93 H :    0.055336
  94 H :    0.035924
  95 H :    0.070682
  96 H :    0.024644
  97 H :    0.029319
  98 H :    0.027486
  99 H :    0.028220
 100 H :    0.024187
 101 H :    0.033433
 102 H :    0.021887
 103 H :    0.020965
 104 H :    0.083755
 105 H :    0.046919
 106 H :    0.039669
 107 H :    0.036631
 108 H :    0.036684
 109 H :    0.040943

  Mayer bond orders larger than 0.100000
B(  0-C ,  1-C ) :   1.3649 B(  0-C ,  5-C ) :   1.3906 B(  0-C , 76-H ) :   0.9830
B(  1-C ,  2-C ) :   1.3853 B(  1-C , 77-H ) :   0.9850 B(  2-C ,  3-C ) :   1.3574
B(  2-C , 78-H ) :   0.9859 B(  3-C ,  4-C ) :   1.3903 B(  3-C , 79-H ) :   0.9865
B(  4-C ,  5-C ) :   1.3138 B(  4-C , 13-C ) :   1.0201 B(  5-C ,  6-C ) :   0.9949
B(  6-C ,  7-C ) :   1.6077 B(  6-C , 12-C ) :   1.0896 B(  7-C ,  8-C ) :   1.1492
B(  7-C , 10-C ) :   1.1462 B(  8-C ,  9-N ) :   2.9747 B( 10-C , 11-N ) :   2.9572
B( 12-C , 13-C ) :   1.0534 B( 12-C , 19-C ) :   1.4834 B( 13-C , 14-C ) :   1.6035
B( 14-C , 15-C ) :   1.1470 B( 14-C , 17-C ) :   1.1605 B( 15-C , 16-N ) :   3.0195
B( 17-C , 18-N ) :   2.9237 B( 19-C , 20-C ) :   1.3101 B( 19-C , 80-H ) :   0.9304
B( 20-C , 21-C ) :   1.3698 B( 20-C , 27-S ) :   1.0186 B( 21-C , 22-C ) :   1.2144
B( 21-C , 25-N ) :   1.2360 B( 22-C , 23-O ) :   1.0869 B( 22-C , 26-C ) :   1.5452
B( 23-O , 24-C ) :   0.9804 B( 24-C , 25-N ) :   0.9818 B( 24-C , 81-H ) :   0.9565
B( 24-C , 82-H ) :   0.9552 B( 25-N , 83-H ) :   0.9196 B( 26-C , 27-S ) :   1.0657
B( 26-C , 28-C ) :   1.1015 B( 28-C , 29-C ) :   1.4720 B( 28-C , 45-C ) :   1.1327
B( 29-C , 30-C ) :   1.1599 B( 29-C , 84-H ) :   0.9778 B( 30-C , 31-C ) :   1.4584
B( 30-C , 43-C ) :   1.1178 B( 31-C , 32-C ) :   1.0365 B( 31-C , 37-C ) :   1.1179
B( 32-C , 33-C ) :   1.0268 B( 32-C , 35-C ) :   1.0321 B( 32-C , 85-H ) :   0.8719
B( 33-C , 34-N ) :   1.1164 B( 33-C , 86-H ) :   0.9180 B( 33-C , 87-H ) :   0.9513
B( 34-N , 88-H ) :   0.9688 B( 34-N , 89-H ) :   0.9609 B( 35-C , 36-N ) :   1.0947
B( 35-C , 90-H ) :   0.9319 B( 35-C , 91-H ) :   0.9366 B( 36-N , 92-H ) :   0.9656
B( 36-N , 93-H ) :   0.9664 B( 37-C , 38-C ) :   1.6831 B( 37-C , 42-C ) :   1.0454
B( 38-C , 39-C ) :   0.9592 B( 38-C , 94-H ) :   0.9614 B( 39-C , 40-C ) :   1.0064
B( 39-C , 46-C ) :   0.9530 B( 39-C , 95-H ) :   0.8384 B( 40-C , 41-C ) :   1.7129
B( 40-C , 96-H ) :   0.9684 B( 41-C , 42-C ) :   1.1255 B( 41-C , 97-H ) :   0.9902
B( 42-C , 43-C ) :   1.4395 B( 43-C , 44-C ) :   1.1383 B( 44-C , 45-C ) :   1.6037
B( 44-C , 98-H ) :   0.9917 B( 45-C , 99-H ) :   0.9824 B( 46-C , 47-C ) :   1.8232
B( 46-C ,100-H ) :   0.9705 B( 47-C , 48-C ) :   1.1249 B( 47-C ,101-H ) :   0.9596
B( 48-C , 49-C ) :   1.5241 B( 48-C , 55-S ) :   1.0541 B( 49-C , 50-C ) :   1.2415
B( 49-C , 53-N ) :   1.1165 B( 50-C , 51-O ) :   1.1404 B( 50-C , 54-C ) :   1.4408
B( 51-O , 52-C ) :   0.9441 B( 52-C , 53-N ) :   1.0144 B( 52-C ,102-H ) :   0.9590
B( 52-C ,103-H ) :   0.9558 B( 53-N ,104-H ) :   0.9215 B( 54-C , 55-S ) :   1.0770
B( 54-C , 56-C ) :   1.2496 B( 56-C , 57-C ) :   1.5649 B( 56-C ,105-H ) :   0.9087
B( 57-C , 58-C ) :   1.0595 B( 57-C , 70-C ) :   1.0561 B( 58-C , 59-C ) :   1.6346
B( 58-C , 64-C ) :   0.9978 B( 59-C , 60-C ) :   1.1333 B( 59-C , 62-C ) :   1.1467
B( 60-C , 61-N ) :   2.9712 B( 62-C , 63-N ) :   2.9755 B( 64-C , 65-C ) :   1.3119
B( 64-C , 69-C ) :   1.3798 B( 65-C , 66-C ) :   1.3854 B( 65-C , 70-C ) :   1.0104
B( 66-C , 67-C ) :   1.3613 B( 66-C ,106-H ) :   0.9868 B( 67-C , 68-C ) :   1.3797
B( 67-C ,107-H ) :   0.9867 B( 68-C , 69-C ) :   1.3698 B( 68-C ,108-H ) :   0.9857
B( 69-C ,109-H ) :   0.9849 B( 70-C , 71-C ) :   1.6209 B( 71-C , 72-C ) :   1.1477
B( 71-C , 74-C ) :   1.1653 B( 72-C , 73-N ) :   2.9822 B( 74-C , 75-N ) :   3.0053

-----------------------------------------------------------------------------
         ABSORPTION SPECTRUM VIA TRANSITION ELECTRIC DIPOLE MOMENTS
-----------------------------------------------------------------------------
State   Energy  Wavelength   fosc         T2         TX        TY        TZ
        (cm-1)    (nm)                  (au**2)     (au)      (au)      (au)
-----------------------------------------------------------------------------
   0   12783.7    782.2   0.100494531   2.58797   0.80413  -0.91746  -1.04863
   1   16665.8    600.0   0.322324604   6.36710  -0.17005   0.51378   2.46459
   2   18370.7    544.3   0.061794170   1.10738   0.17774  -0.81884  -0.63663
   3   18592.9    537.8   0.360144437   6.37684  -1.03020   0.80668   2.15981
   4   20461.6    488.7   0.151395177   2.43583   0.14128  -0.88337  -1.27888
   5   21091.1    474.1   0.300725181   4.69403  -0.77804   1.82007   0.88094
   6   21600.9    462.9   0.272728028   4.15656   1.18132  -0.58616   1.55482
   7   22217.1    450.1   0.041067084   0.60853   0.49744  -0.40833   0.44086
   8   23275.8    429.6   0.160482091   2.26985  -1.07747   0.11376   1.04688
   9   23493.9    425.6   0.089899096   1.25972  -0.63156   0.28124  -0.88418
  10   23824.8    419.7   0.432667432   5.97860   1.78386  -1.59274  -0.50954
  11   24932.8    401.1   0.013441013   0.17747   0.40329  -0.08593  -0.08628
  12   25208.5    396.7   0.051160691   0.66814  -0.22239   0.57917   0.53221
  13   26149.3    382.4   0.171721813   2.16193   0.92452  -0.43477  -1.05743
  14   26476.1    377.7   0.007140666   0.08879   0.09090   0.13555   0.24930
  15   27303.4    366.3   0.116912226   1.40967   0.85613  -0.53019  -0.62898
  16   28108.6    355.8   0.087824781   1.02861  -0.36516   0.02193   0.94594
  17   28453.1    351.5   0.079016712   0.91425   0.22596   0.87333   0.31700
  18   28858.3    346.5   0.116618454   1.33037  -0.43961   0.23331  -1.04052
  19   29277.5    341.6   0.020672883   0.23246  -0.05461  -0.02723  -0.47826
  20   30234.1    330.8   0.004858721   0.05291   0.21150   0.06596  -0.06182
  21   30776.7    324.9   0.003978843   0.04256  -0.14501   0.14493  -0.02301
  22   31199.5    320.5   0.316043478   3.33484  -1.50742   0.08058   1.02763
  23   31497.2    317.5   0.498578098   5.21120  -1.52829   1.30246  -1.08588
  24   31918.2    313.3   0.049041569   0.50583   0.03222  -0.06474  -0.70753
  25   31980.8    312.7   0.015306614   0.15757  -0.16138   0.08836   0.35173
  26   32016.8    312.3   0.002009238   0.02066   0.09878   0.08888   0.05479
  27   32134.0    311.2   0.051222630   0.52477   0.34941  -0.21045  -0.59867
  28   32169.9    310.8   0.012631095   0.12926   0.35755   0.01010  -0.03626
  29   32851.5    304.4   0.389457782   3.90283   1.35309  -0.79919  -1.19719
  30   32941.3    303.6   0.005242700   0.05239  -0.15216   0.07193   0.15513
  31   33620.6    297.4   0.305495356   2.99140  -1.05276  -0.28151   1.34308
  32   33686.6    296.9   0.005572203   0.05446   0.17403   0.06671  -0.14042
  33   33925.9    294.8   0.002573878   0.02498  -0.15054   0.04254  -0.02249
  34   34081.7    293.4   0.002542233   0.02456   0.08321  -0.00768   0.13257
  35   34226.3    292.2   0.301603147   2.90103  -0.96923  -0.30666  -1.36659
  36   34339.9    291.2   0.003440074   0.03298   0.17010  -0.04460   0.04533
  37   34728.0    288.0   0.061531244   0.58330   0.58995  -0.38524   0.29470
  38   34894.8    286.6   0.513769926   4.84712  -1.45618   1.46340  -0.76493
  39   35045.9    285.3   0.206026282   1.93535  -0.14307  -1.38207   0.06909
  40   35634.7    280.6   0.107829047   0.99618   0.60398  -0.70485   0.36684
  41   36019.8    277.6   0.145320271   1.32819   0.76197  -0.64991   0.57026
  42   36363.0    275.0   0.000290689   0.00263  -0.02938   0.03429  -0.02435
  43   36531.2    273.7   0.029931815   0.26974   0.35022  -0.07139  -0.37682
  44   36891.2    271.1   0.000008417   0.00008  -0.00188  -0.00827   0.00180
  45   36963.7    270.5   0.003276967   0.02919   0.15962  -0.03611   0.04904
  46   37044.9    269.9   0.028055220   0.24932   0.38012  -0.14895  -0.28748
  47   38009.3    263.1   0.001529678   0.01325   0.10580   0.01459   0.04291
  48   38187.2    261.9   0.012666208   0.10920   0.17397   0.08089  -0.26904
  49   38579.9    259.2   0.006170103   0.05265  -0.11569  -0.09524  -0.17377
  50   38737.5    258.1   0.054684556   0.46474  -0.21357  -0.45544  -0.46011
  51   38843.4    257.4   0.298895569   2.53325  -0.07929   1.37611   0.79580
  52   39074.9    255.9   0.505449843   4.25849   0.17085  -1.60320  -1.28804
  53   39323.4    254.3   0.017315560   0.14496  -0.01938  -0.37658  -0.05269
  54   39413.2    253.7   0.026174636   0.21863  -0.36748   0.28897  -0.00936
  55   39768.6    251.5   0.111457971   0.92267   0.94795   0.00410   0.15508

FINAL SINGLE POINT ENERGY     -3906.195581326017

DIPOLE MOMENT
-------------
                                X             Y             Z
Electronic contribution:      0.95626      -6.26164      -3.12901
Nuclear contribution   :     -4.03198       5.33326       1.35888
                        -----------------------------------------
Total Dipole Moment    :     -3.07572      -0.92838      -1.77013
                        -----------------------------------------
Magnitude (a.u.)       :      3.66815
Magnitude (Debye)      :      9.32369

Rotational constants in cm-1:     0.001920     0.000237     0.000223
Rotational constants in MHz :    57.557701     7.119643     6.679934

                             ****ORCA TERMINATED NORMALLY****
TOTAL RUN TIME: 0 days 0 hours 13 minutes 5 seconds 805 msec
