                         Program Version 4.2.0 -  RELEASE  -
|  1> # ORCA input file
|  2> # SCF done       -196.915370589234          0.000816533529
|  3> ! CAM-B3LYP def2-SVP def2/J RIJCOSX Grid4 TightSCF
|  4> %maxcore 5000
|  5> %tddft
|  6>     Mode sTDDFT
|  7>     Ethresh 5.0
|  8>     maxcore 5000
|  9> end
| 10>
| 11> %pal
| 12>   nprocs 6
| 13>   end
| 14> * xyz 0 1
| 15>    C        6.42234        -5.18161        -3.20919
| 16>    C        7.21949        -6.29425        -3.22557
| 17>    C        8.08953        -6.62557        -4.28652
| 18>    N        8.79544        -6.95371        -5.12921
| 19>    C        7.32462        -7.20172        -2.15201
| 20>    N        7.46897        -7.94824        -1.29252
| 21>    C        6.46960        -4.09479        -4.18588
| 22>    C        5.85629        -2.95432        -3.63412
| 23>    C        5.78987        -1.76072        -4.32390
| 24>    C        6.33893        -1.70421        -5.59892
| 25>    C        6.93982        -2.83845        -6.16032
| 26>    C        7.01218        -4.03709        -5.45881
| 27>   Cl        7.60099        -2.75747        -7.74124
| 28>   Cl        6.27704        -0.23850        -6.48859
| 29>    C        5.33127        -3.27818        -2.29262
| 30>    O        4.78955        -2.54294        -1.50187
| 31>    C        5.56376        -4.74133        -2.12743
| 32>    C        4.91964        -5.38748        -1.12092
| 33>    C        4.69035        -6.77593        -0.92764
| 34>    C        4.51392        -7.73589        -1.89303
| 35>    C        4.12819        -8.96802        -1.25702
| 36>    C        3.71760       -10.17450        -1.82758
| 37>    N        3.24557       -11.16465        -2.17440
| 38>    C        4.05279        -8.76415         0.09892
| 39>    C        4.32751        -7.38491         0.36505
| 40>    C        4.17901        -6.77213         1.58524
| 41>    C        3.34651        -7.31864         2.69861
| 42>    C        3.59428        -6.54754         3.79973
| 43>    C        4.52043        -5.50632         3.42659
| 44>    C        4.82436        -5.60809         2.08596
| 45>    C        5.01742        -4.54442         4.31796
| 46>    N        5.41256        -3.76273         5.05929
| 47>    C        2.38458        -8.33984         2.49046
| 48>    C        1.70154        -9.02373         3.44456
| 49>    C        0.80709       -10.10352         3.16725
| 50>    C       -0.02409       -10.58601         4.17697
| 51>    C       -0.94523       -11.60714         3.98563
| 52>    C       -1.07339       -12.27148         2.77177
| 53>    C       -0.18794       -11.87921         1.72826
| 54>    C        0.72699       -10.77682         1.90500
| 55>    N        1.46238       -10.51880         0.82863
| 56>   Se        1.04382       -11.63174        -0.46058
| 57>    N       -0.15205       -12.43059         0.52407
| 58>    C       -2.02070       -13.33332         2.56663
| 59>    C       -1.82107       -14.46520         1.83828
| 60>    C       -2.95686       -15.34348         2.03375
| 61>    C       -3.10524       -16.59299         1.41467
| 62>    N       -3.22393       -17.61486         0.90665
| 63>    C       -3.84210       -14.75874         2.90065
| 64>    C       -3.34797       -13.44912         3.21942
| 65>    C       -4.07062       -12.43062         3.78353
| 66>    C       -5.32468       -12.54224         4.55976
| 67>    C       -5.81003       -11.27364         4.73481
| 68>    C       -4.91057       -10.33996         4.09942
| 69>    C       -3.85327       -11.02584         3.56232
| 70>    C       -5.10090        -8.95086         4.05453
| 71>    N       -5.24955        -7.81356         4.02816
| 72>    C       -5.83550       -13.73615         5.14124
| 73>    C       -7.10902       -13.87789         5.59622
| 74>    C       -7.55509       -15.08300         6.18329
| 75>    C       -8.83213       -15.31758         6.60981
| 76>    C       -9.34033       -16.53997         7.20670
| 77>    C       -8.61402       -17.63746         7.58643
| 78>    C       -9.17333       -18.79173         8.17711
| 79>    N       -9.56192       -19.75549         8.66348
| 80>    C       -7.21404       -17.77322         7.46917
| 81>    N       -6.08148       -17.95392         7.41278
| 82>    C      -10.78340       -16.38134         7.36990
| 83>    C      -11.15280       -15.09170         6.94897
| 84>    C       -9.95892       -14.35845         6.48008
| 85>    O       -9.92658       -13.21724         6.07432
| 86>    C      -12.46229       -14.65809         6.99129
| 87>    C      -13.43221       -15.53427         7.46162
| 88>    C      -13.07467       -16.82250         7.87928
| 89>    C      -11.75329       -17.25345         7.83802
| 90>   Cl      -14.28312       -17.89788         8.45256
| 91>   Cl      -15.07261       -15.03592         7.52707
| 92>    H        5.32349        -0.89486        -3.88114
| 93>    H        7.47810        -4.89117        -5.92283
| 94>    H        4.44541        -4.72429        -0.40317
| 95>    H        4.58700        -7.59980        -2.95656
| 96>    H        3.90529        -9.53256         0.83131
| 97>    H        3.15108        -6.63311         4.77347
| 98>    H        5.53484        -5.00152         1.55819
| 99>    H        2.16916        -8.58940         1.46327
|100>    H        1.82163        -8.76473         4.48857
|101>    H        0.03619       -10.12460         5.15191
|102>    H       -1.56371       -11.91144         4.81685
|103>    H       -0.95955       -14.70735         1.24752
|104>    H       -4.80473       -15.14908         3.16761
|105>    H       -6.68676       -10.98513         5.28295
|106>    H       -3.06436       -10.60224         2.97236
|107>    H       -5.15340       -14.57157         5.23774
|108>    H       -7.81931       -13.07265         5.49096
|109>    H       -6.82023       -15.87217         6.28038
|110>    H      -12.72253       -13.66368         6.66450
|111>    H      -11.51790       -18.25252         8.16597
|112> *
|113>
|114>                          ****END OF INPUT****

CARTESIAN COORDINATES (ANGSTROEM)
---------------------------------
  C      6.422340   -5.181610   -3.209190
  C      7.219490   -6.294250   -3.225570
  C      8.089530   -6.625570   -4.286520
  N      8.795440   -6.953710   -5.129210
  C      7.324620   -7.201720   -2.152010
  N      7.468970   -7.948240   -1.292520
  C      6.469600   -4.094790   -4.185880
  C      5.856290   -2.954320   -3.634120
  C      5.789870   -1.760720   -4.323900
  C      6.338930   -1.704210   -5.598920
  C      6.939820   -2.838450   -6.160320
  C      7.012180   -4.037090   -5.458810
  Cl     7.600990   -2.757470   -7.741240
  Cl     6.277040   -0.238500   -6.488590
  C      5.331270   -3.278180   -2.292620
  O      4.789550   -2.542940   -1.501870
  C      5.563760   -4.741330   -2.127430
  C      4.919640   -5.387480   -1.120920
  C      4.690350   -6.775930   -0.927640
  C      4.513920   -7.735890   -1.893030
  C      4.128190   -8.968020   -1.257020
  C      3.717600  -10.174500   -1.827580
  N      3.245570  -11.164650   -2.174400
  C      4.052790   -8.764150    0.098920
  C      4.327510   -7.384910    0.365050
  C      4.179010   -6.772130    1.585240
  C      3.346510   -7.318640    2.698610
  C      3.594280   -6.547540    3.799730
  C      4.520430   -5.506320    3.426590
  C      4.824360   -5.608090    2.085960
  C      5.017420   -4.544420    4.317960
  N      5.412560   -3.762730    5.059290
  C      2.384580   -8.339840    2.490460
  C      1.701540   -9.023730    3.444560
  C      0.807090  -10.103520    3.167250
  C     -0.024090  -10.586010    4.176970
  C     -0.945230  -11.607140    3.985630
  C     -1.073390  -12.271480    2.771770
  C     -0.187940  -11.879210    1.728260
  C      0.726990  -10.776820    1.905000
  N      1.462380  -10.518800    0.828630
  Se     1.043820  -11.631740   -0.460580
  N     -0.152050  -12.430590    0.524070
  C     -2.020700  -13.333320    2.566630
  C     -1.821070  -14.465200    1.838280
  C     -2.956860  -15.343480    2.033750
  C     -3.105240  -16.592990    1.414670
  N     -3.223930  -17.614860    0.906650
  C     -3.842100  -14.758740    2.900650
  C     -3.347970  -13.449120    3.219420
  C     -4.070620  -12.430620    3.783530
  C     -5.324680  -12.542240    4.559760
  C     -5.810030  -11.273640    4.734810
  C     -4.910570  -10.339960    4.099420
  C     -3.853270  -11.025840    3.562320
  C     -5.100900   -8.950860    4.054530
  N     -5.249550   -7.813560    4.028160
  C     -5.835500  -13.736150    5.141240
  C     -7.109020  -13.877890    5.596220
  C     -7.555090  -15.083000    6.183290
  C     -8.832130  -15.317580    6.609810
  C     -9.340330  -16.539970    7.206700
  C     -8.614020  -17.637460    7.586430
  C     -9.173330  -18.791730    8.177110
  N     -9.561920  -19.755490    8.663480
  C     -7.214040  -17.773220    7.469170
  N     -6.081480  -17.953920    7.412780
  C    -10.783400  -16.381340    7.369900
  C    -11.152800  -15.091700    6.948970
  C     -9.958920  -14.358450    6.480080
  O     -9.926580  -13.217240    6.074320
  C    -12.462290  -14.658090    6.991290
  C    -13.432210  -15.534270    7.461620
  C    -13.074670  -16.822500    7.879280
  C    -11.753290  -17.253450    7.838020
  Cl   -14.283120  -17.897880    8.452560
  Cl   -15.072610  -15.035920    7.527070
  H      5.323490   -0.894860   -3.881140
  H      7.478100   -4.891170   -5.922830
  H      4.445410   -4.724290   -0.403170
  H      4.587000   -7.599800   -2.956560
  H      3.905290   -9.532560    0.831310
  H      3.151080   -6.633110    4.773470
  H      5.534840   -5.001520    1.558190
  H      2.169160   -8.589400    1.463270
  H      1.821630   -8.764730    4.488570
  H      0.036190  -10.124600    5.151910
  H     -1.563710  -11.911440    4.816850
  H     -0.959550  -14.707350    1.247520
  H     -4.804730  -15.149080    3.167610
  H     -6.686760  -10.985130    5.282950
  H     -3.064360  -10.602240    2.972360
  H     -5.153400  -14.571570    5.237740
  H     -7.819310  -13.072650    5.490960
  H     -6.820230  -15.872170    6.280380
  H    -12.722530  -13.663680    6.664500
  H    -11.517900  -18.252520    8.165970

 Total Charge           Charge          ....    0
 Multiplicity           Mult            ....    1
 Number of Electrons    NEL             ....  568
 Basis Dimension        Dim             .... 1212

ORBITAL ENERGIES
----------------

  NO   OCC          E(Eh)            E(eV)
   0   2.0000    -453.991020    -12353.7237
   1   2.0000    -101.610438     -2764.9606
   2   2.0000    -101.609600     -2764.9378
   3   2.0000    -101.606637     -2764.8571
   4   2.0000    -101.604989     -2764.8123
   5   2.0000     -58.204220     -1583.8173
   6   2.0000     -52.274888     -1422.4720
   7   2.0000     -52.272562     -1422.4087
   8   2.0000     -52.272076     -1422.3955
   9   2.0000     -19.234748      -523.4041
  10   2.0000     -19.232089      -523.3317
  11   2.0000     -14.450681      -393.2230
  12   2.0000     -14.447013      -393.1232
  13   2.0000     -14.437491      -392.8641
  14   2.0000     -14.434144      -392.7730
  15   2.0000     -14.432351      -392.7242
  16   2.0000     -14.428534      -392.6204
  17   2.0000     -14.427359      -392.5884
  18   2.0000     -14.424997      -392.5241
  19   2.0000     -14.424190      -392.5022
  20   2.0000     -14.423752      -392.4902
  21   2.0000     -10.385368      -282.6002
  22   2.0000     -10.382880      -282.5325
  23   2.0000     -10.368442      -282.1397
  24   2.0000     -10.367824      -282.1228
  25   2.0000     -10.363951      -282.0175
  26   2.0000     -10.363392      -282.0022
  27   2.0000     -10.362989      -281.9913
  28   2.0000     -10.362093      -281.9669
  29   2.0000     -10.356210      -281.8068
  30   2.0000     -10.354077      -281.7488
  31   2.0000     -10.345031      -281.5026
  32   2.0000     -10.344454      -281.4869
  33   2.0000     -10.344079      -281.4767
  34   2.0000     -10.341938      -281.4184
  35   2.0000     -10.341512      -281.4068
  36   2.0000     -10.340427      -281.3773
  37   2.0000     -10.339387      -281.3490
  38   2.0000     -10.339352      -281.3481
  39   2.0000     -10.339310      -281.3469
  40   2.0000     -10.338962      -281.3375
  41   2.0000     -10.338097      -281.3139
  42   2.0000     -10.336502      -281.2705
  43   2.0000     -10.334981      -281.2291
  44   2.0000     -10.333988      -281.2021
  45   2.0000     -10.330780      -281.1148
  46   2.0000     -10.330722      -281.1132
  47   2.0000     -10.330331      -281.1026
  48   2.0000     -10.327507      -281.0258
  49   2.0000     -10.327133      -281.0156
  50   2.0000     -10.323948      -280.9289
  51   2.0000     -10.323877      -280.9270
  52   2.0000     -10.323077      -280.9052
  53   2.0000     -10.322731      -280.8958
  54   2.0000     -10.322071      -280.8778
  55   2.0000     -10.322025      -280.8766
  56   2.0000     -10.321904      -280.8733
  57   2.0000     -10.320977      -280.8480
  58   2.0000     -10.320938      -280.8470
  59   2.0000     -10.320761      -280.8422
  60   2.0000     -10.320071      -280.8234
  61   2.0000     -10.319217      -280.8002
  62   2.0000     -10.317001      -280.7399
  63   2.0000     -10.316865      -280.7362
  64   2.0000     -10.316607      -280.7292
  65   2.0000     -10.316186      -280.7177
  66   2.0000     -10.316119      -280.7159
  67   2.0000     -10.315504      -280.6991
  68   2.0000     -10.314937      -280.6837
  69   2.0000     -10.313984      -280.6578
  70   2.0000     -10.313020      -280.6316
  71   2.0000     -10.311212      -280.5823
  72   2.0000     -10.310944      -280.5751
  73   2.0000     -10.309463      -280.5347
  74   2.0000     -10.308427      -280.5065
  75   2.0000     -10.307994      -280.4948
  76   2.0000     -10.307544      -280.4825
  77   2.0000     -10.306645      -280.4581
  78   2.0000     -10.306405      -280.4515
  79   2.0000     -10.300488      -280.2905
  80   2.0000     -10.297210      -280.2013
  81   2.0000      -9.565394      -260.2876
  82   2.0000      -9.564628      -260.2668
  83   2.0000      -9.561633      -260.1853
  84   2.0000      -9.559972      -260.1401
  85   2.0000      -7.979963      -217.1458
  86   2.0000      -7.335818      -199.6178
  87   2.0000      -7.335065      -199.5973
  88   2.0000      -7.332046      -199.5151
  89   2.0000      -7.330403      -199.4704
  90   2.0000      -7.325655      -199.3412
  91   2.0000      -7.324889      -199.3204
  92   2.0000      -7.324875      -199.3200
  93   2.0000      -7.324110      -199.2992
  94   2.0000      -7.321894      -199.2389
  95   2.0000      -7.321137      -199.2183
  96   2.0000      -7.320213      -199.1931
  97   2.0000      -7.319482      -199.1732
  98   2.0000      -5.930023      -161.3641
  99   2.0000      -5.923286      -161.1808
 100   2.0000      -5.919856      -161.0875
 101   2.0000      -2.284053       -62.1522
 102   2.0000      -2.283429       -62.1353
 103   2.0000      -2.279188       -62.0199
 104   2.0000      -2.274050       -61.8801
 105   2.0000      -2.273808       -61.8734
 106   2.0000      -1.150335       -31.3022
 107   2.0000      -1.147053       -31.2129
 108   2.0000      -1.104350       -30.0509
 109   2.0000      -1.044814       -28.4308
 110   2.0000      -1.038813       -28.2675
 111   2.0000      -1.037506       -28.2320
 112   2.0000      -1.032455       -28.0945
 113   2.0000      -1.030471       -28.0405
 114   2.0000      -1.025528       -27.9060
 115   2.0000      -1.023252       -27.8441
 116   2.0000      -1.016613       -27.6634
 117   2.0000      -1.012917       -27.5629
 118   2.0000      -1.009956       -27.4823
 119   2.0000      -1.005461       -27.3600
 120   2.0000      -1.005165       -27.3519
 121   2.0000      -1.002901       -27.2903
 122   2.0000      -0.999950       -27.2100
 123   2.0000      -0.996885       -27.1266
 124   2.0000      -0.995124       -27.0787
 125   2.0000      -0.983623       -26.7657
 126   2.0000      -0.974715       -26.5233
 127   2.0000      -0.972748       -26.4698
 128   2.0000      -0.968301       -26.3488
 129   2.0000      -0.948808       -25.8184
 130   2.0000      -0.948625       -25.8134
 131   2.0000      -0.933425       -25.3998
 132   2.0000      -0.924788       -25.1648
 133   2.0000      -0.919835       -25.0300
 134   2.0000      -0.905645       -24.6439
 135   2.0000      -0.901497       -24.5310
 136   2.0000      -0.897873       -24.4324
 137   2.0000      -0.893082       -24.3020
 138   2.0000      -0.883670       -24.0459
 139   2.0000      -0.874336       -23.7919
 140   2.0000      -0.873830       -23.7781
 141   2.0000      -0.868384       -23.6299
 142   2.0000      -0.864013       -23.5110
 143   2.0000      -0.849226       -23.1086
 144   2.0000      -0.842996       -22.9391
 145   2.0000      -0.830226       -22.5916
 146   2.0000      -0.820042       -22.3145
 147   2.0000      -0.815757       -22.1979
 148   2.0000      -0.812153       -22.0998
 149   2.0000      -0.795501       -21.6467
 150   2.0000      -0.787269       -21.4227
 151   2.0000      -0.779193       -21.2029
 152   2.0000      -0.774779       -21.0828
 153   2.0000      -0.765182       -20.8217
 154   2.0000      -0.744608       -20.2618
 155   2.0000      -0.743721       -20.2377
 156   2.0000      -0.742835       -20.2136
 157   2.0000      -0.739050       -20.1106
 158   2.0000      -0.734481       -19.9862
 159   2.0000      -0.718159       -19.5421
 160   2.0000      -0.715599       -19.4724
 161   2.0000      -0.711241       -19.3538
 162   2.0000      -0.706817       -19.2335
 163   2.0000      -0.704274       -19.1643
 164   2.0000      -0.698629       -19.0107
 165   2.0000      -0.689436       -18.7605
 166   2.0000      -0.682060       -18.5598
 167   2.0000      -0.674464       -18.3531
 168   2.0000      -0.666765       -18.1436
 169   2.0000      -0.658621       -17.9220
 170   2.0000      -0.657586       -17.8938
 171   2.0000      -0.655567       -17.8389
 172   2.0000      -0.642478       -17.4827
 173   2.0000      -0.638158       -17.3652
 174   2.0000      -0.634151       -17.2561
 175   2.0000      -0.631663       -17.1884
 176   2.0000      -0.625694       -17.0260
 177   2.0000      -0.620374       -16.8812
 178   2.0000      -0.613387       -16.6911
 179   2.0000      -0.612269       -16.6607
 180   2.0000      -0.608928       -16.5698
 181   2.0000      -0.598753       -16.2929
 182   2.0000      -0.596984       -16.2448
 183   2.0000      -0.595198       -16.1962
 184   2.0000      -0.587581       -15.9889
 185   2.0000      -0.584177       -15.8963
 186   2.0000      -0.579360       -15.7652
 187   2.0000      -0.570209       -15.5162
 188   2.0000      -0.570109       -15.5134
 189   2.0000      -0.562161       -15.2972
 190   2.0000      -0.559162       -15.2156
 191   2.0000      -0.557762       -15.1775
 192   2.0000      -0.556159       -15.1339
 193   2.0000      -0.554409       -15.0862
 194   2.0000      -0.553107       -15.0508
 195   2.0000      -0.549782       -14.9603
 196   2.0000      -0.548613       -14.9285
 197   2.0000      -0.545696       -14.8492
 198   2.0000      -0.542043       -14.7497
 199   2.0000      -0.538600       -14.6560
 200   2.0000      -0.537426       -14.6241
 201   2.0000      -0.533134       -14.5073
 202   2.0000      -0.532610       -14.4931
 203   2.0000      -0.530202       -14.4275
 204   2.0000      -0.529177       -14.3996
 205   2.0000      -0.526989       -14.3401
 206   2.0000      -0.523096       -14.2342
 207   2.0000      -0.520696       -14.1689
 208   2.0000      -0.517373       -14.0784
 209   2.0000      -0.516686       -14.0597
 210   2.0000      -0.515916       -14.0388
 211   2.0000      -0.515233       -14.0202
 212   2.0000      -0.512221       -13.9382
 213   2.0000      -0.510665       -13.8959
 214   2.0000      -0.508455       -13.8358
 215   2.0000      -0.507485       -13.8094
 216   2.0000      -0.507297       -13.8042
 217   2.0000      -0.505195       -13.7471
 218   2.0000      -0.503939       -13.7129
 219   2.0000      -0.498265       -13.5585
 220   2.0000      -0.495065       -13.4714
 221   2.0000      -0.492395       -13.3988
 222   2.0000      -0.489180       -13.3113
 223   2.0000      -0.485038       -13.1986
 224   2.0000      -0.483336       -13.1523
 225   2.0000      -0.480107       -13.0644
 226   2.0000      -0.478383       -13.0175
 227   2.0000      -0.474032       -12.8991
 228   2.0000      -0.471292       -12.8245
 229   2.0000      -0.467595       -12.7239
 230   2.0000      -0.465916       -12.6782
 231   2.0000      -0.461587       -12.5604
 232   2.0000      -0.460882       -12.5412
 233   2.0000      -0.459651       -12.5077
 234   2.0000      -0.458598       -12.4791
 235   2.0000      -0.458254       -12.4697
 236   2.0000      -0.453208       -12.3324
 237   2.0000      -0.453077       -12.3288
 238   2.0000      -0.451959       -12.2984
 239   2.0000      -0.451560       -12.2876
 240   2.0000      -0.451129       -12.2758
 241   2.0000      -0.449836       -12.2407
 242   2.0000      -0.449121       -12.2212
 243   2.0000      -0.446590       -12.1523
 244   2.0000      -0.445519       -12.1232
 245   2.0000      -0.444282       -12.0895
 246   2.0000      -0.439694       -11.9647
 247   2.0000      -0.438779       -11.9398
 248   2.0000      -0.437402       -11.9023
 249   2.0000      -0.436999       -11.8913
 250   2.0000      -0.435148       -11.8410
 251   2.0000      -0.434783       -11.8311
 252   2.0000      -0.432275       -11.7628
 253   2.0000      -0.426413       -11.6033
 254   2.0000      -0.425186       -11.5699
 255   2.0000      -0.424174       -11.5424
 256   2.0000      -0.422422       -11.4947
 257   2.0000      -0.420612       -11.4454
 258   2.0000      -0.419553       -11.4166
 259   2.0000      -0.417561       -11.3624
 260   2.0000      -0.414320       -11.2742
 261   2.0000      -0.413256       -11.2453
 262   2.0000      -0.395734       -10.7685
 263   2.0000      -0.394350       -10.7308
 264   2.0000      -0.391781       -10.6609
 265   2.0000      -0.389825       -10.6077
 266   2.0000      -0.387520       -10.5450
 267   2.0000      -0.375642       -10.2217
 268   2.0000      -0.372738       -10.1427
 269   2.0000      -0.358232        -9.7480
 270   2.0000      -0.357154        -9.7187
 271   2.0000      -0.353112        -9.6087
 272   2.0000      -0.350499        -9.5376
 273   2.0000      -0.350114        -9.5271
 274   2.0000      -0.345641        -9.4054
 275   2.0000      -0.343986        -9.3603
 276   2.0000      -0.339643        -9.2422
 277   2.0000      -0.338735        -9.2175
 278   2.0000      -0.324658        -8.8344
 279   2.0000      -0.319600        -8.6968
 280   2.0000      -0.316259        -8.6059
 281   2.0000      -0.307044        -8.3551
 282   2.0000      -0.291200        -7.9240
 283   2.0000      -0.271168        -7.3789
 284   0.0000      -0.150429        -4.0934
 285   0.0000      -0.140127        -3.8131
 286   0.0000      -0.102161        -2.7799
 287   0.0000      -0.100375        -2.7313
 288   0.0000      -0.089132        -2.4254

MULLIKEN ATOMIC CHARGES
-----------------------
   0 C :    0.273544
   1 C :   -0.333069
   2 C :   -0.180620
   3 N :    0.166997
   4 C :   -0.194182
   5 N :    0.176707
   6 C :    0.017577
   7 C :    0.000171
   8 C :   -0.026777
   9 C :    0.059097
  10 C :    0.052367
  11 C :   -0.016842
  12 Cl:   -0.029240
  13 Cl:   -0.035368
  14 C :    0.136445
  15 O :   -0.131930
  16 C :   -0.121706
  17 C :   -0.004024
  18 C :    0.071962
  19 C :    0.023246
  20 C :   -0.104837
  21 C :   -0.070370
  22 N :    0.069798
  23 C :   -0.008628
  24 C :    0.047764
  25 C :    0.060595
  26 C :    0.108123
  27 C :   -0.029416
  28 C :   -0.090044
  29 C :   -0.026995
  30 C :   -0.128368
  31 N :    0.155403
  32 C :   -0.029295
  33 C :   -0.028380
  34 C :    0.099477
  35 C :   -0.036820
  36 C :   -0.048445
  37 C :    0.057733
  38 C :    0.004334
  39 C :    0.042462
  40 N :   -0.329517
  41 Se:    0.584703
  42 N :   -0.267184
  43 C :    0.048399
  44 C :    0.014531
  45 C :   -0.093749
  46 C :   -0.129563
  47 N :    0.155631
  48 C :   -0.034127
  49 C :    0.045777
  50 C :    0.042304
  51 C :    0.078310
  52 C :    0.001119
  53 C :   -0.103236
  54 C :   -0.011944
  55 C :   -0.130542
  56 N :    0.147670
  57 C :   -0.001706
  58 C :   -0.003800
  59 C :   -0.038475
  60 C :   -0.064895
  61 C :    0.323635
  62 C :   -0.342646
  63 C :   -0.189121
  64 N :    0.166190
  65 C :   -0.190769
  66 N :    0.152378
  67 C :    0.031658
  68 C :   -0.016351
  69 C :    0.149789
  70 O :   -0.144465
  71 C :   -0.026834
  72 C :    0.061255
  73 C :    0.049278
  74 C :   -0.012631
  75 Cl:   -0.031684
  76 Cl:   -0.038950
  77 H :    0.004532
  78 H :    0.004738
  79 H :    0.031704
  80 H :    0.009728
  81 H :    0.032346
  82 H :   -0.003331
  83 H :    0.012774
  84 H :    0.038406
  85 H :   -0.017273
  86 H :   -0.011825
  87 H :   -0.007830
  88 H :    0.002948
  89 H :    0.003732
  90 H :    0.012821
  91 H :    0.022690
  92 H :    0.021796
  93 H :    0.029574
  94 H :    0.011836
  95 H :    0.000712
  96 H :    0.001037
Sum of atomic charges:   -0.0000000

LOEWDIN ATOMIC CHARGES
----------------------
   0 C :    0.064863
   1 C :   -0.131794
   2 C :   -0.022961
   3 N :   -0.036957
   4 C :   -0.016788
   5 N :   -0.036832
   6 C :   -0.012644
   7 C :   -0.046430
   8 C :    0.004149
   9 C :   -0.133169
  10 C :   -0.127965
  11 C :   -0.013530
  12 Cl:    0.168060
  13 Cl:    0.165077
  14 C :    0.084162
  15 O :   -0.131821
  16 C :   -0.089507
  17 C :    0.066588
  18 C :   -0.046910
  19 C :    0.055425
  20 C :   -0.071285
  21 C :   -0.006192
  22 N :   -0.075098
  23 C :    0.052481
  24 C :    0.029090
  25 C :    0.060250
  26 C :   -0.016274
  27 C :   -0.000946
  28 C :   -0.024007
  29 C :   -0.020573
  30 C :   -0.028939
  31 N :   -0.025185
  32 C :   -0.019826
  33 C :    0.005077
  34 C :   -0.025018
  35 C :   -0.007886
  36 C :   -0.014564
  37 C :   -0.022557
  38 C :   -0.040959
  39 C :   -0.031171
  40 N :   -0.258528
  41 Se:    0.629140
  42 N :   -0.244818
  43 C :   -0.022620
  44 C :    0.029360
  45 C :   -0.036930
  46 C :   -0.030116
  47 N :   -0.028172
  48 C :   -0.007231
  49 C :    0.051118
  50 C :    0.028291
  51 C :   -0.044468
  52 C :    0.045137
  53 C :   -0.062112
  54 C :    0.020723
  55 C :   -0.032831
  56 N :   -0.036802
  57 C :    0.027051
  58 C :   -0.023535
  59 C :    0.067213
  60 C :   -0.092554
  61 C :    0.073208
  62 C :   -0.130867
  63 C :   -0.020679
  64 N :   -0.041388
  65 C :   -0.019295
  66 N :   -0.046272
  67 C :   -0.013358
  68 C :   -0.044321
  69 C :    0.085925
  70 O :   -0.138960
  71 C :    0.001965
  72 C :   -0.133302
  73 C :   -0.129062
  74 C :   -0.011368
  75 Cl:    0.165638
  76 Cl:    0.162852
  77 H :    0.047969
  78 H :    0.044981
  79 H :    0.048326
  80 H :    0.037581
  81 H :    0.041923
  82 H :    0.033690
  83 H :    0.038107
  84 H :    0.033244
  85 H :    0.030565
  86 H :    0.035183
  87 H :    0.034366
  88 H :    0.036698
  89 H :    0.035760
  90 H :    0.040834
  91 H :    0.040113
  92 H :    0.037405
  93 H :    0.034106
  94 H :    0.042457
  95 H :    0.046380
  96 H :    0.044850

  Mayer bond orders larger than 0.100000
B(  0-C ,  1-C ) :   1.6670 B(  0-C ,  6-C ) :   1.0038 B(  0-C , 16-C ) :   1.0233
B(  1-C ,  2-C ) :   1.1208 B(  1-C ,  4-C ) :   1.1720 B(  2-C ,  3-N ) :   2.9904
B(  4-C ,  5-N ) :   2.9916 B(  6-C ,  7-C ) :   1.3267 B(  6-C , 11-C ) :   1.3447
B(  7-C ,  8-C ) :   1.3487 B(  7-C , 14-C ) :   0.9234 B(  8-C ,  9-C ) :   1.3458
B(  8-C , 77-H ) :   1.0163 B(  9-C , 10-C ) :   1.4012 B(  9-C , 13-Cl) :   1.0544
B( 10-C , 11-C ) :   1.3603 B( 10-C , 12-Cl) :   1.0770 B( 11-C , 78-H ) :   0.9893
B( 14-C , 15-O ) :   2.2671 B( 14-C , 16-C ) :   0.9354 B( 16-C , 17-C ) :   1.7039
B( 17-C , 18-C ) :   1.0472 B( 17-C , 79-H ) :   0.9278 B( 18-C , 19-C ) :   1.5407
B( 18-C , 24-C ) :   1.0802 B( 19-C , 20-C ) :   1.1237 B( 19-C , 80-H ) :   1.0117
B( 20-C , 21-C ) :   1.0635 B( 20-C , 23-C ) :   1.6047 B( 21-C , 22-N ) :   2.9261
B( 23-C , 24-C ) :   1.0968 B( 23-C , 81-H ) :   1.0085 B( 24-C , 25-C ) :   1.4718
B( 25-C , 26-C ) :   1.0218 B( 25-C , 29-C ) :   1.1075 B( 26-C , 27-C ) :   1.5925
B( 26-C , 32-C ) :   1.0927 B( 27-C , 28-C ) :   1.1084 B( 27-C , 82-H ) :   1.0141
B( 28-C , 29-C ) :   1.5893 B( 28-C , 30-C ) :   1.0624 B( 29-C , 83-H ) :   1.0162
B( 30-C , 31-N ) :   3.0350 B( 32-C , 33-C ) :   1.6450 B( 32-C , 84-H ) :   0.9484
B( 33-C , 34-C ) :   1.1328 B( 33-C , 85-H ) :   0.9773 B( 34-C , 35-C ) :   1.4218
B( 34-C , 37-C ) :   0.1109 B( 34-C , 39-C ) :   1.1249 B( 35-C , 36-C ) :   1.2173
B( 35-C , 86-H ) :   1.0015 B( 36-C , 37-C ) :   1.4594 B( 36-C , 87-H ) :   0.9940
B( 37-C , 38-C ) :   1.1856 B( 37-C , 43-C ) :   1.0051 B( 38-C , 39-C ) :   1.1345
B( 38-C , 42-N ) :   1.6029 B( 39-C , 40-N ) :   1.5473 B( 40-N , 41-Se) :   1.2198
B( 40-N , 42-N ) :   0.1175 B( 41-Se, 42-N ) :   1.2473 B( 43-C , 44-C ) :   1.6552
B( 43-C , 49-C ) :   1.0501 B( 44-C , 45-C ) :   1.0732 B( 44-C , 88-H ) :   1.0172
B( 45-C , 46-C ) :   1.0639 B( 45-C , 48-C ) :   1.6274 B( 46-C , 47-N ) :   3.0391
B( 48-C , 49-C ) :   1.0867 B( 48-C , 89-H ) :   1.0131 B( 49-C , 50-C ) :   1.4890
B( 50-C , 51-C ) :   1.0453 B( 50-C , 54-C ) :   1.0945 B( 51-C , 52-C ) :   1.5839
B( 51-C , 57-C ) :   1.0601 B( 52-C , 53-C ) :   1.1071 B( 52-C , 90-H ) :   1.0146
B( 53-C , 54-C ) :   1.6200 B( 53-C , 55-C ) :   1.0566 B( 54-C , 91-H ) :   1.0075
B( 55-C , 56-N ) :   3.0453 B( 57-C , 58-C ) :   1.5954 B( 57-C , 92-H ) :   0.9718
B( 58-C , 59-C ) :   1.1549 B( 58-C , 93-H ) :   0.9817 B( 59-C , 60-C ) :   1.5479
B( 59-C , 94-H ) :   0.9621 B( 60-C , 61-C ) :   1.0615 B( 60-C , 69-C ) :   0.9467
B( 61-C , 62-C ) :   1.6431 B( 61-C , 67-C ) :   0.9933 B( 62-C , 63-C ) :   1.1393
B( 62-C , 65-C ) :   1.1475 B( 63-C , 64-N ) :   2.9753 B( 65-C , 66-N ) :   2.9656
B( 67-C , 68-C ) :   1.3286 B( 67-C , 74-C ) :   1.3406 B( 68-C , 69-C ) :   0.9445
B( 68-C , 71-C ) :   1.3470 B( 69-C , 70-O ) :   2.2033 B( 71-C , 72-C ) :   1.3437
B( 71-C , 95-H ) :   1.0153 B( 72-C , 73-C ) :   1.4018 B( 72-C , 76-Cl) :   1.0500
B( 73-C , 74-C ) :   1.3627 B( 73-C , 75-Cl) :   1.0794 B( 74-C , 96-H ) :   0.9853

-----------------------------------------------------------------------------
         ABSORPTION SPECTRUM VIA TRANSITION ELECTRIC DIPOLE MOMENTS
-----------------------------------------------------------------------------
State   Energy  Wavelength   fosc         T2         TX        TY        TZ
        (cm-1)    (nm)                  (au**2)     (au)      (au)      (au)
-----------------------------------------------------------------------------
   0    8860.3   1128.6   0.195914806   7.27940  -1.94597  -1.48506   1.13455
   1   11410.3    876.4   0.082833385   2.38992   1.38032   0.59513  -0.36117
   2   14770.5    677.0   0.047921864   1.06811  -0.71968  -0.41428   0.61525
   3   15004.7    666.5   0.035369840   0.77604   0.38076   0.36078  -0.70774
   4   19702.3    507.6   0.073431087   1.22698   0.76291   0.72548   0.34442
   5   21093.5    474.1   0.304275546   4.74892   1.47695   1.59532  -0.15001
   6   21839.7    457.9   0.202374671   3.05060   1.38698   0.79369  -0.70494
   7   22112.9    452.2   0.055035398   0.81935   0.56047   0.70649  -0.07813
   8   23151.3    431.9   0.015758417   0.22408   0.06848  -0.41625   0.21478
   9   23843.6    419.4   0.486123814   6.71199   1.58684   0.87763  -1.85032
  10   23950.5    417.5   0.221777806   3.04845   1.29629   0.96776  -0.65691
  11   24720.4    404.5   0.004366517   0.05815  -0.15174  -0.14554  -0.11809
  12   24789.1    403.4   0.321330307   4.26743   0.83604   0.31603  -1.86242
  13   25554.1    391.3   0.035925046   0.46282  -0.26939   0.61565  -0.10595
  14   26023.7    384.3   0.129480563   1.63799  -0.89958  -0.71388   0.56492
  15   26309.7    380.1   0.007323638   0.09164   0.27494  -0.11284  -0.05761
  16   26547.2    376.7   0.007995685   0.09915  -0.00154   0.07945   0.30470
  17   27065.6    369.5   0.063375977   0.77087   0.26270   0.38502   0.74405
  18   27190.0    367.8   0.054781040   0.66328   0.15068   0.61954   0.50670
  19   27268.9    366.7   0.001177726   0.01422   0.00585   0.11898  -0.00529
  20   27768.0    360.1   0.088511438   1.04937   0.46639  -0.79336   0.44994
  21   28091.4    356.0   0.203155566   2.38084  -0.01354   0.88065   1.26693
  22   28523.2    350.6   0.016954129   0.19568  -0.27504   0.33913  -0.07089
  23   29041.4    344.3   0.259635351   2.94322   1.50134   0.78913  -0.25780
  24   29594.1    337.9   0.149350975   1.66142   0.83907  -0.60052  -0.77250
  25   29798.0    335.6   0.060936890   0.67324  -0.26692   0.75643  -0.17263
  26   30105.4    332.2   0.040513066   0.44302   0.44457  -0.23226  -0.43754
  27   30514.7    327.7   0.021986729   0.23721  -0.25985  -0.41193  -0.00109
  28   30658.7    326.2   0.202565137   2.17513   0.82911  -1.18444  -0.29122
  29   31046.0    322.1   0.028016773   0.29709  -0.46265   0.02625  -0.28698
  30   31198.3    320.5   0.089180225   0.94105  -0.00194  -0.83664  -0.49099
  31   31410.0    318.4   0.114302145   1.19801  -0.18046   1.07571  -0.09110
  32   31719.7    315.3   0.043270445   0.44909  -0.38856   0.31942  -0.44282
  33   31806.1    314.4   0.000476922   0.00494   0.02434  -0.05020   0.04271
  34   31927.6    313.2   0.042200937   0.43514   0.62652   0.20605   0.01259
  35   32180.3    310.7   0.051609498   0.52798  -0.03301   0.69207  -0.21892
  36   32190.7    310.6   0.004309305   0.04407  -0.17141   0.11792  -0.02797
  37   32226.6    310.3   0.046457937   0.47459  -0.68072   0.08314  -0.06554
  38   32756.6    305.3   0.090849511   0.91306  -0.89690  -0.26200   0.19999
  39   32916.8    303.8   0.150909790   1.50930  -0.14480   1.11555  -0.49384
  40   33081.9    302.3   0.065501333   0.65183  -0.04516  -0.69011   0.41658
  41   33183.4    301.4   0.008280029   0.08215   0.19257  -0.11252   0.18000
  42   33519.0    298.3   0.114838241   1.12790   0.11575   0.97111  -0.41406
  43   33545.2    298.1   0.048037882   0.47144   0.46159   0.49665  -0.10824
  44   33554.1    298.0   0.021691467   0.21282  -0.45116  -0.07548  -0.05986
  45   33738.9    296.4   0.012490543   0.12188  -0.02045   0.34721   0.03006
  46   33935.8    294.7   0.002256212   0.02189   0.13325   0.06289   0.01336
  47   33994.2    294.2   0.017685537   0.17127  -0.05341   0.14794   0.38280
  48   34357.6    291.1   0.018710815   0.17929  -0.05237  -0.33380  -0.25519
  49   34999.2    285.7   0.257050388   2.41789   1.18911  -0.91121   0.41664
  50   35073.5    285.1   0.265446473   2.49157   1.33474  -0.84066   0.05767
  51   35136.5    284.6   0.383200579   3.59041   0.67299  -1.62862   0.69649
  52   35379.6    282.6   0.060449077   0.56249  -0.56732  -0.43896  -0.21898
  53   35393.7    282.5   0.170228607   1.58337   0.52389  -1.13080   0.17375
  54   35718.2    280.0   0.876312655   8.07691  -1.07613  -2.57992  -0.51269
  55   35882.8    278.7   0.055266917   0.50705  -0.16460  -0.69107  -0.04880
  56   36508.8    273.9   0.136765617   1.23326  -0.50060   0.01512   0.99118
  57   36811.7    271.7   0.138526644   1.23886   0.30131   1.01684  -0.33780
  58   37086.4    269.6   0.341514920   3.03159   0.27821   1.47867   0.87621
  59   37173.9    269.0   0.004420774   0.03915   0.10110  -0.09612  -0.14032
  60   37203.3    268.8   0.098623753   0.87272  -0.60031  -0.55231   0.45531
  61   37441.7    267.1   0.105127094   0.92435   0.30663   0.89684  -0.16125
  62   38183.6    261.9   0.007448617   0.06422  -0.02373   0.23280   0.09728
  63   38338.3    260.8   0.000508795   0.00437   0.01834  -0.01293  -0.06217
  64   38346.4    260.8   0.003074141   0.02639  -0.01300  -0.14967  -0.06183
  65   38510.4    259.7   0.003002750   0.02567   0.07459   0.00302  -0.14176
  66   38583.8    259.2   0.238564393   2.03552   0.03803  -1.29806  -0.59085
  67   39445.7    253.5   0.014293951   0.11930   0.09091  -0.11789   0.31166
  68   39694.0    251.9   0.089154933   0.73943  -0.15985   0.82518   0.18155
  69   39899.2    250.6   0.008228398   0.06789  -0.17923  -0.17817  -0.06347
  70   40002.0    250.0   0.004049029   0.03332  -0.05718  -0.07229   0.15757
  71   40191.0    248.8   0.018191349   0.14901  -0.32399   0.10557   0.18137
  72   40284.5    248.2   0.000592744   0.00484  -0.00896   0.05285  -0.04439

FINAL SINGLE POINT ENERGY     -7233.863972283902

DIPOLE MOMENT
-------------
                                X             Y             Z
Electronic contribution:      7.21327      -5.32372     -48.53945
Nuclear contribution   :     -7.90650       7.18756      47.98390
                        -----------------------------------------
Total Dipole Moment    :     -0.69323       1.86384      -0.55555
                        -----------------------------------------
Magnitude (a.u.)       :      2.06473
Magnitude (Debye)      :      5.24814

Rotational constants in cm-1:     0.001737     0.000166     0.000163
Rotational constants in MHz :    52.077728     4.961904     4.880320

                             ****ORCA TERMINATED NORMALLY****
TOTAL RUN TIME: 0 days 0 hours 12 minutes 5 seconds 803 msec
