                         Program Version 4.2.0 -  RELEASE  -
|  1> # ORCA input file
|  2> # SCF done       -193.921127185530          0.000585999758
|  3> ! CAM-B3LYP def2-SVP def2/J RIJCOSX Grid4 TightSCF
|  4> %maxcore 5000
|  5> %tddft
|  6>     Mode sTDDFT
|  7>     Ethresh 5.0
|  8>     maxcore 5000
|  9> end
| 10>
| 11> %pal
| 12>   nprocs 6
| 13>   end
| 14> * xyz 0 1
| 15>    C       -4.13803         5.05393        -0.33983
| 16>    C       -3.15685         5.81464        -0.91063
| 17>    C       -3.41589         6.88991        -1.78679
| 18>    N       -3.58664         7.76823        -2.50461
| 19>    C       -1.78766         5.70165        -0.58212
| 20>    N       -0.68498         5.74407        -0.26578
| 21>    C       -5.57114         5.32325        -0.39368
| 22>    C       -6.20588         4.64747         0.69214
| 23>    C       -7.54988         4.75390         0.91709
| 24>    C       -8.33279         5.54549         0.04880
| 25>    C       -7.70726         6.20932        -1.04748
| 26>    C       -6.31396         6.08530        -1.25438
| 27>    C       -8.50218         6.99076        -1.91012
| 28>    C       -9.84911         7.11358        -1.70134
| 29>    C      -10.46377         6.46034        -0.62217
| 30>    C       -9.72195         5.69347         0.23460
| 31>    C       -5.20671         3.87061         1.43663
| 32>    O       -5.34889         3.20840         2.43692
| 33>    C       -3.94363         3.99711         0.63397
| 34>    C       -2.96577         3.07345         0.81299
| 35>    C       -1.89326         2.76946        -0.06871
| 36>    N       -1.80586         3.30529        -1.27722
| 37>    C       -0.64509         2.86505        -1.80067
| 38>    C        0.06741         2.00418        -0.84519
| 39>    C        1.34739         1.54195        -1.41278
| 40>    O        2.17792         0.82169        -0.91128
| 41>    C        1.34571         2.17513        -2.74941
| 42>    C        0.10600         2.96662        -2.94235
| 43>    N        0.08250         3.52556        -4.17781
| 44>    C        1.19670         3.14309        -4.74697
| 45>    C        2.02921         2.28938        -3.91342
| 46>    C       -0.74434         1.88410         0.24808
| 47>    C       -0.50292         1.10291         1.42517
| 48>    C       -1.44604         0.45165         2.13061
| 49>    C       -1.21369        -0.36523         3.30082
| 50>    C       -2.25510        -1.22900         3.71697
| 51>    C       -2.14701        -2.05501         4.80614
| 52>    C       -0.95207        -2.00701         5.52399
| 53>    C        0.08741        -1.12614         5.12399
| 54>    C       -0.01865        -0.30783         4.02001
| 55>    O        1.09991        -1.27665         5.99771
| 56>    C        0.66848        -2.22254         6.87271
| 57>    N       -0.53261        -2.67386         6.62655
| 58>    C        1.54193        -2.65338         7.91729
| 59>    N        2.69684        -2.04872         8.11517
| 60>    C        3.33356        -2.77042         9.06311
| 61>    C        2.53071        -3.93919         9.45871
| 62>    C        3.23486        -4.73530        10.48229
| 63>    O        2.88087        -5.75661        11.02140
| 64>    C        4.47929        -3.96109        10.67977
| 65>    C        4.49536        -2.77355         9.79017
| 66>    N        5.62593        -2.04874         9.98399
| 67>    C        6.28719        -2.68669        10.91469
| 68>    C        5.62403        -3.88643        11.40057
| 69>    C        1.35434        -3.85469         8.76777
| 70>    C        0.24874        -4.76210         8.76526
| 71>    C       -1.04828        -4.39335         8.70749
| 72>    C       -2.14303        -5.29223         8.55883
| 73>    C       -2.14364        -6.39996         7.76704
| 74>    C       -3.27675        -7.28503         7.55198
| 75>    C       -4.32208        -7.47474         8.41560
| 76>    C       -5.38951        -8.36510         8.17694
| 77>    N       -6.28507        -9.06815         8.03106
| 78>    C       -4.45316        -6.82878         9.66376
| 79>    N       -4.61723        -6.34936        10.69380
| 80>    C       -3.06396        -7.98432         6.29248
| 81>    C       -1.78276        -7.62172         5.78739
| 82>    C       -1.11946        -6.69629         6.72415
| 83>    O        0.00521        -6.25897         6.62245
| 84>    C       -1.30653        -8.11692         4.60778
| 85>    C       -2.10622        -9.01356         3.86440
| 86>    C       -3.39083        -9.37902         4.36146
| 87>    C       -3.85710        -8.85043         5.58703
| 88>    C       -4.18033       -10.27242         3.60901
| 89>    C       -3.72460       -10.78182         2.42359
| 90>    C       -2.45959       -10.42158         1.93550
| 91>    C       -1.66739        -9.55694         2.64094
| 92>    H       -8.00940         4.23954         1.74807
| 93>    H       -5.86709         6.58928        -2.09691
| 94>    H       -8.02465         7.49420        -2.73761
| 95>    H      -10.44895         7.71589        -2.36678
| 96>    H      -11.52755         6.56829        -0.47315
| 97>    H      -10.18912         5.18876         1.06746
| 98>    H       -3.06328         2.46417         1.70323
| 99>    H        1.43233         3.46030        -5.74812
|100>    H        2.97292         1.86980        -4.20055
|101>    H        0.54351         0.98295         1.67173
|102>    H       -2.47205         0.46711         1.78615
|103>    H       -3.16818        -1.23700         3.13979
|104>    H       -2.94339        -2.71484         5.10844
|105>    H        0.78571         0.35309         3.74476
|106>    H        7.23892        -2.31733        11.25579
|107>    H        6.00040        -4.54031        12.16206
|108>    H        0.51260        -5.80182         8.90218
|109>    H       -1.30850        -3.34797         8.79927
|110>    H       -3.07445        -4.99288         9.02581
|111>    H       -0.33047        -7.82852         4.24664
|112>    H       -4.83666        -9.13891         5.93454
|113>    H       -5.15273       -10.54850         3.98965
|114>    H       -4.33645       -11.46616         1.85525
|115>    H       -2.11595       -10.83265         0.99807
|116>    H       -0.69217        -9.27618         2.27078
|117> *
|118>
|119>                          ****END OF INPUT****

CARTESIAN COORDINATES (ANGSTROEM)
---------------------------------
  C     -4.138030    5.053930   -0.339830
  C     -3.156850    5.814640   -0.910630
  C     -3.415890    6.889910   -1.786790
  N     -3.586640    7.768230   -2.504610
  C     -1.787660    5.701650   -0.582120
  N     -0.684980    5.744070   -0.265780
  C     -5.571140    5.323250   -0.393680
  C     -6.205880    4.647470    0.692140
  C     -7.549880    4.753900    0.917090
  C     -8.332790    5.545490    0.048800
  C     -7.707260    6.209320   -1.047480
  C     -6.313960    6.085300   -1.254380
  C     -8.502180    6.990760   -1.910120
  C     -9.849110    7.113580   -1.701340
  C    -10.463770    6.460340   -0.622170
  C     -9.721950    5.693470    0.234600
  C     -5.206710    3.870610    1.436630
  O     -5.348890    3.208400    2.436920
  C     -3.943630    3.997110    0.633970
  C     -2.965770    3.073450    0.812990
  C     -1.893260    2.769460   -0.068710
  N     -1.805860    3.305290   -1.277220
  C     -0.645090    2.865050   -1.800670
  C      0.067410    2.004180   -0.845190
  C      1.347390    1.541950   -1.412780
  O      2.177920    0.821690   -0.911280
  C      1.345710    2.175130   -2.749410
  C      0.106000    2.966620   -2.942350
  N      0.082500    3.525560   -4.177810
  C      1.196700    3.143090   -4.746970
  C      2.029210    2.289380   -3.913420
  C     -0.744340    1.884100    0.248080
  C     -0.502920    1.102910    1.425170
  C     -1.446040    0.451650    2.130610
  C     -1.213690   -0.365230    3.300820
  C     -2.255100   -1.229000    3.716970
  C     -2.147010   -2.055010    4.806140
  C     -0.952070   -2.007010    5.523990
  C      0.087410   -1.126140    5.123990
  C     -0.018650   -0.307830    4.020010
  O      1.099910   -1.276650    5.997710
  C      0.668480   -2.222540    6.872710
  N     -0.532610   -2.673860    6.626550
  C      1.541930   -2.653380    7.917290
  N      2.696840   -2.048720    8.115170
  C      3.333560   -2.770420    9.063110
  C      2.530710   -3.939190    9.458710
  C      3.234860   -4.735300   10.482290
  O      2.880870   -5.756610   11.021400
  C      4.479290   -3.961090   10.679770
  C      4.495360   -2.773550    9.790170
  N      5.625930   -2.048740    9.983990
  C      6.287190   -2.686690   10.914690
  C      5.624030   -3.886430   11.400570
  C      1.354340   -3.854690    8.767770
  C      0.248740   -4.762100    8.765260
  C     -1.048280   -4.393350    8.707490
  C     -2.143030   -5.292230    8.558830
  C     -2.143640   -6.399960    7.767040
  C     -3.276750   -7.285030    7.551980
  C     -4.322080   -7.474740    8.415600
  C     -5.389510   -8.365100    8.176940
  N     -6.285070   -9.068150    8.031060
  C     -4.453160   -6.828780    9.663760
  N     -4.617230   -6.349360   10.693800
  C     -3.063960   -7.984320    6.292480
  C     -1.782760   -7.621720    5.787390
  C     -1.119460   -6.696290    6.724150
  O      0.005210   -6.258970    6.622450
  C     -1.306530   -8.116920    4.607780
  C     -2.106220   -9.013560    3.864400
  C     -3.390830   -9.379020    4.361460
  C     -3.857100   -8.850430    5.587030
  C     -4.180330  -10.272420    3.609010
  C     -3.724600  -10.781820    2.423590
  C     -2.459590  -10.421580    1.935500
  C     -1.667390   -9.556940    2.640940
  H     -8.009400    4.239540    1.748070
  H     -5.867090    6.589280   -2.096910
  H     -8.024650    7.494200   -2.737610
  H    -10.448950    7.715890   -2.366780
  H    -11.527550    6.568290   -0.473150
  H    -10.189120    5.188760    1.067460
  H     -3.063280    2.464170    1.703230
  H      1.432330    3.460300   -5.748120
  H      2.972920    1.869800   -4.200550
  H      0.543510    0.982950    1.671730
  H     -2.472050    0.467110    1.786150
  H     -3.168180   -1.237000    3.139790
  H     -2.943390   -2.714840    5.108440
  H      0.785710    0.353090    3.744760
  H      7.238920   -2.317330   11.255790
  H      6.000400   -4.540310   12.162060
  H      0.512600   -5.801820    8.902180
  H     -1.308500   -3.347970    8.799270
  H     -3.074450   -4.992880    9.025810
  H     -0.330470   -7.828520    4.246640
  H     -4.836660   -9.138910    5.934540
  H     -5.152730  -10.548500    3.989650
  H     -4.336450  -11.466160    1.855250
  H     -2.115950  -10.832650    0.998070
  H     -0.692170   -9.276180    2.270780

 Total Charge           Charge          ....    0
 Multiplicity           Mult            ....    1
 Number of Electrons    NEL             ....  506
 Basis Dimension        Dim             .... 1203

ORBITAL ENERGIES
----------------

  NO   OCC          E(Eh)            E(eV)
   0   2.0000     -19.312817      -525.5285
   1   2.0000     -19.230596      -523.2911
   2   2.0000     -19.215886      -522.8908
   3   2.0000     -19.215520      -522.8809
   4   2.0000     -19.214626      -522.8566
   5   2.0000     -14.432203      -392.7202
   6   2.0000     -14.425958      -392.5503
   7   2.0000     -14.423403      -392.4808
   8   2.0000     -14.422657      -392.4604
   9   2.0000     -14.417134      -392.3101
  10   2.0000     -14.414077      -392.2270
  11   2.0000     -14.413424      -392.2092
  12   2.0000     -14.413330      -392.2067
  13   2.0000     -14.411678      -392.1617
  14   2.0000     -10.387921      -282.6697
  15   2.0000     -10.380091      -282.4566
  16   2.0000     -10.376727      -282.3651
  17   2.0000     -10.375744      -282.3383
  18   2.0000     -10.367022      -282.1010
  19   2.0000     -10.356330      -281.8101
  20   2.0000     -10.354755      -281.7672
  21   2.0000     -10.354137      -281.7504
  22   2.0000     -10.351245      -281.6717
  23   2.0000     -10.345951      -281.5276
  24   2.0000     -10.340360      -281.3755
  25   2.0000     -10.339641      -281.3559
  26   2.0000     -10.338868      -281.3349
  27   2.0000     -10.337846      -281.3071
  28   2.0000     -10.335613      -281.2463
  29   2.0000     -10.335598      -281.2459
  30   2.0000     -10.335568      -281.2451
  31   2.0000     -10.335048      -281.2310
  32   2.0000     -10.324294      -280.9383
  33   2.0000     -10.324090      -280.9328
  34   2.0000     -10.322533      -280.8904
  35   2.0000     -10.320942      -280.8471
  36   2.0000     -10.319005      -280.7944
  37   2.0000     -10.316135      -280.7163
  38   2.0000     -10.314314      -280.6667
  39   2.0000     -10.313420      -280.6424
  40   2.0000     -10.312949      -280.6296
  41   2.0000     -10.312523      -280.6180
  42   2.0000     -10.312003      -280.6039
  43   2.0000     -10.306557      -280.4557
  44   2.0000     -10.305162      -280.4177
  45   2.0000     -10.304739      -280.4062
  46   2.0000     -10.304498      -280.3996
  47   2.0000     -10.302760      -280.3524
  48   2.0000     -10.301971      -280.3309
  49   2.0000     -10.299368      -280.2601
  50   2.0000     -10.298971      -280.2492
  51   2.0000     -10.298398      -280.2337
  52   2.0000     -10.297824      -280.2180
  53   2.0000     -10.297767      -280.2165
  54   2.0000     -10.297665      -280.2137
  55   2.0000     -10.297541      -280.2103
  56   2.0000     -10.297408      -280.2067
  57   2.0000     -10.297298      -280.2037
  58   2.0000     -10.296952      -280.1943
  59   2.0000     -10.296503      -280.1821
  60   2.0000     -10.296485      -280.1816
  61   2.0000     -10.296444      -280.1805
  62   2.0000     -10.296062      -280.1701
  63   2.0000     -10.295917      -280.1661
  64   2.0000     -10.295709      -280.1605
  65   2.0000     -10.294208      -280.1196
  66   2.0000     -10.292782      -280.0808
  67   2.0000     -10.292313      -280.0681
  68   2.0000     -10.291905      -280.0570
  69   2.0000     -10.291216      -280.0382
  70   2.0000     -10.291123      -280.0357
  71   2.0000     -10.288265      -279.9579
  72   2.0000     -10.286576      -279.9120
  73   2.0000     -10.286046      -279.8975
  74   2.0000     -10.285850      -279.8922
  75   2.0000     -10.285395      -279.8798
  76   2.0000     -10.283906      -279.8393
  77   2.0000      -1.245660       -33.8961
  78   2.0000      -1.145431       -31.1688
  79   2.0000      -1.131151       -30.7802
  80   2.0000      -1.131051       -30.7774
  81   2.0000      -1.130019       -30.7494
  82   2.0000      -1.090006       -29.6606
  83   2.0000      -1.087895       -29.6031
  84   2.0000      -1.069772       -29.1100
  85   2.0000      -1.068734       -29.0817
  86   2.0000      -1.040794       -28.3215
  87   2.0000      -1.024340       -27.8737
  88   2.0000      -1.015800       -27.6413
  89   2.0000      -1.005598       -27.3637
  90   2.0000      -0.997979       -27.1564
  91   2.0000      -0.996828       -27.1251
  92   2.0000      -0.991079       -26.9686
  93   2.0000      -0.979381       -26.6503
  94   2.0000      -0.974390       -26.5145
  95   2.0000      -0.970848       -26.4181
  96   2.0000      -0.946860       -25.7654
  97   2.0000      -0.944205       -25.6931
  98   2.0000      -0.932121       -25.3643
  99   2.0000      -0.930560       -25.3218
 100   2.0000      -0.925510       -25.1844
 101   2.0000      -0.918807       -25.0020
 102   2.0000      -0.909853       -24.7584
 103   2.0000      -0.897703       -24.4277
 104   2.0000      -0.889120       -24.1942
 105   2.0000      -0.887067       -24.1383
 106   2.0000      -0.881652       -23.9910
 107   2.0000      -0.880844       -23.9690
 108   2.0000      -0.874360       -23.7925
 109   2.0000      -0.869823       -23.6691
 110   2.0000      -0.863432       -23.4952
 111   2.0000      -0.862580       -23.4720
 112   2.0000      -0.837350       -22.7855
 113   2.0000      -0.835478       -22.7345
 114   2.0000      -0.832018       -22.6404
 115   2.0000      -0.827588       -22.5198
 116   2.0000      -0.818679       -22.2774
 117   2.0000      -0.801135       -21.8000
 118   2.0000      -0.791161       -21.5286
 119   2.0000      -0.773873       -21.0582
 120   2.0000      -0.766391       -20.8546
 121   2.0000      -0.760783       -20.7020
 122   2.0000      -0.760578       -20.6964
 123   2.0000      -0.759749       -20.6738
 124   2.0000      -0.746110       -20.3027
 125   2.0000      -0.735037       -20.0014
 126   2.0000      -0.730722       -19.8840
 127   2.0000      -0.723016       -19.6743
 128   2.0000      -0.714133       -19.4326
 129   2.0000      -0.712082       -19.3767
 130   2.0000      -0.707712       -19.2578
 131   2.0000      -0.703370       -19.1397
 132   2.0000      -0.702301       -19.1106
 133   2.0000      -0.697413       -18.9776
 134   2.0000      -0.683807       -18.6073
 135   2.0000      -0.678955       -18.4753
 136   2.0000      -0.678126       -18.4528
 137   2.0000      -0.667914       -18.1749
 138   2.0000      -0.664691       -18.0872
 139   2.0000      -0.659682       -17.9509
 140   2.0000      -0.655951       -17.8493
 141   2.0000      -0.646322       -17.5873
 142   2.0000      -0.640148       -17.4193
 143   2.0000      -0.639134       -17.3917
 144   2.0000      -0.634796       -17.2737
 145   2.0000      -0.624776       -17.0010
 146   2.0000      -0.621605       -16.9147
 147   2.0000      -0.618321       -16.8254
 148   2.0000      -0.616828       -16.7848
 149   2.0000      -0.614415       -16.7191
 150   2.0000      -0.606330       -16.4991
 151   2.0000      -0.603539       -16.4231
 152   2.0000      -0.598535       -16.2870
 153   2.0000      -0.596305       -16.2263
 154   2.0000      -0.593146       -16.1403
 155   2.0000      -0.589453       -16.0398
 156   2.0000      -0.588263       -16.0075
 157   2.0000      -0.576816       -15.6960
 158   2.0000      -0.568634       -15.4733
 159   2.0000      -0.567698       -15.4478
 160   2.0000      -0.561579       -15.2814
 161   2.0000      -0.557707       -15.1760
 162   2.0000      -0.556877       -15.1534
 163   2.0000      -0.553531       -15.0624
 164   2.0000      -0.552006       -15.0208
 165   2.0000      -0.549520       -14.9532
 166   2.0000      -0.546254       -14.8643
 167   2.0000      -0.545565       -14.8456
 168   2.0000      -0.544960       -14.8291
 169   2.0000      -0.541970       -14.7478
 170   2.0000      -0.540392       -14.7048
 171   2.0000      -0.538331       -14.6487
 172   2.0000      -0.537727       -14.6323
 173   2.0000      -0.533954       -14.5296
 174   2.0000      -0.530519       -14.4361
 175   2.0000      -0.529014       -14.3952
 176   2.0000      -0.526939       -14.3387
 177   2.0000      -0.524594       -14.2749
 178   2.0000      -0.519286       -14.1305
 179   2.0000      -0.519113       -14.1258
 180   2.0000      -0.518742       -14.1157
 181   2.0000      -0.515270       -14.0212
 182   2.0000      -0.512072       -13.9342
 183   2.0000      -0.510579       -13.8936
 184   2.0000      -0.506987       -13.7958
 185   2.0000      -0.506259       -13.7760
 186   2.0000      -0.504915       -13.7394
 187   2.0000      -0.500829       -13.6283
 188   2.0000      -0.498227       -13.5574
 189   2.0000      -0.496778       -13.5180
 190   2.0000      -0.494709       -13.4617
 191   2.0000      -0.493691       -13.4340
 192   2.0000      -0.491960       -13.3869
 193   2.0000      -0.485255       -13.2044
 194   2.0000      -0.484128       -13.1738
 195   2.0000      -0.481994       -13.1157
 196   2.0000      -0.479904       -13.0588
 197   2.0000      -0.478416       -13.0183
 198   2.0000      -0.476621       -12.9695
 199   2.0000      -0.473705       -12.8902
 200   2.0000      -0.471601       -12.8329
 201   2.0000      -0.469396       -12.7729
 202   2.0000      -0.467910       -12.7325
 203   2.0000      -0.464779       -12.6473
 204   2.0000      -0.457325       -12.4444
 205   2.0000      -0.454589       -12.3700
 206   2.0000      -0.454025       -12.3547
 207   2.0000      -0.448925       -12.2159
 208   2.0000      -0.448034       -12.1916
 209   2.0000      -0.446426       -12.1479
 210   2.0000      -0.446324       -12.1451
 211   2.0000      -0.442069       -12.0293
 212   2.0000      -0.439659       -11.9637
 213   2.0000      -0.439455       -11.9582
 214   2.0000      -0.437909       -11.9161
 215   2.0000      -0.437111       -11.8944
 216   2.0000      -0.432844       -11.7783
 217   2.0000      -0.432714       -11.7747
 218   2.0000      -0.430986       -11.7277
 219   2.0000      -0.424993       -11.5646
 220   2.0000      -0.424457       -11.5501
 221   2.0000      -0.417879       -11.3711
 222   2.0000      -0.417501       -11.3608
 223   2.0000      -0.414528       -11.2799
 224   2.0000      -0.409785       -11.1508
 225   2.0000      -0.407340       -11.0843
 226   2.0000      -0.402157       -10.9432
 227   2.0000      -0.394702       -10.7404
 228   2.0000      -0.386428       -10.5152
 229   2.0000      -0.378833       -10.3086
 230   2.0000      -0.374655       -10.1949
 231   2.0000      -0.371198       -10.1008
 232   2.0000      -0.369711       -10.0604
 233   2.0000      -0.363906        -9.9024
 234   2.0000      -0.361752        -9.8438
 235   2.0000      -0.360496        -9.8096
 236   2.0000      -0.356434        -9.6991
 237   2.0000      -0.350008        -9.5242
 238   2.0000      -0.346587        -9.4311
 239   2.0000      -0.342747        -9.3266
 240   2.0000      -0.341217        -9.2850
 241   2.0000      -0.336327        -9.1519
 242   2.0000      -0.335478        -9.1288
 243   2.0000      -0.334062        -9.0903
 244   2.0000      -0.333746        -9.0817
 245   2.0000      -0.326552        -8.8859
 246   2.0000      -0.324484        -8.8297
 247   2.0000      -0.316524        -8.6130
 248   2.0000      -0.315179        -8.5765
 249   2.0000      -0.299394        -8.1469
 250   2.0000      -0.296322        -8.0633
 251   2.0000      -0.283024        -7.7015
 252   2.0000      -0.277860        -7.5609
 253   0.0000      -0.134620        -3.6632
 254   0.0000      -0.124434        -3.3860
 255   0.0000      -0.089568        -2.4373
 256   0.0000      -0.081991        -2.2311
 257   0.0000      -0.062991        -1.7141

MULLIKEN ATOMIC CHARGES
-----------------------
   0 C :    0.264793
   1 C :   -0.259372
   2 C :   -0.186887
   3 N :    0.160964
   4 C :   -0.172077
   5 N :    0.160248
   6 C :    0.044148
   7 C :    0.003391
   8 C :   -0.073990
   9 C :    0.093462
  10 C :    0.095282
  11 C :   -0.080362
  12 C :   -0.017777
  13 C :    0.038140
  14 C :    0.034437
  15 C :   -0.013418
  16 C :    0.137716
  17 O :   -0.132860
  18 C :   -0.064192
  19 C :   -0.003530
  20 C :    0.024449
  21 N :   -0.060202
  22 C :    0.079640
  23 C :   -0.114371
  24 C :    0.209478
  25 O :   -0.121196
  26 C :   -0.038691
  27 C :   -0.008182
  28 N :   -0.054634
  29 C :    0.098364
  30 C :   -0.087072
  31 C :    0.041086
  32 C :   -0.020941
  33 C :   -0.009389
  34 C :    0.103970
  35 C :   -0.013361
  36 C :   -0.028960
  37 C :    0.019228
  38 C :    0.251177
  39 C :   -0.128023
  40 O :   -0.155449
  41 C :    0.075158
  42 N :   -0.028389
  43 C :    0.000522
  44 N :   -0.020549
  45 C :    0.075170
  46 C :   -0.132539
  47 C :    0.211607
  48 O :   -0.112667
  49 C :   -0.043110
  50 C :   -0.006879
  51 N :   -0.049323
  52 C :    0.097707
  53 C :   -0.089817
  54 C :    0.010961
  55 C :    0.046200
  56 C :    0.058857
  57 C :   -0.006358
  58 C :   -0.107941
  59 C :    0.289304
  60 C :   -0.335286
  61 C :   -0.180279
  62 N :    0.145280
  63 C :   -0.208579
  64 N :    0.165227
  65 C :    0.051288
  66 C :   -0.005988
  67 C :    0.158482
  68 O :   -0.144739
  69 C :   -0.078246
  70 C :    0.094279
  71 C :    0.094925
  72 C :   -0.081976
  73 C :   -0.016957
  74 C :    0.032409
  75 C :    0.037133
  76 C :   -0.013777
  77 H :   -0.009078
  78 H :   -0.001471
  79 H :   -0.007820
  80 H :   -0.001228
  81 H :   -0.001551
  82 H :   -0.015268
  83 H :    0.008555
  84 H :    0.015236
  85 H :   -0.000589
  86 H :    0.023867
  87 H :   -0.001162
  88 H :   -0.012074
  89 H :   -0.015916
  90 H :   -0.003425
  91 H :    0.015475
  92 H :    0.000713
  93 H :    0.030831
  94 H :    0.009260
  95 H :    0.030858
  96 H :   -0.014675
  97 H :   -0.008745
  98 H :   -0.010349
  99 H :   -0.003969
 100 H :   -0.005653
 101 H :   -0.017969
Sum of atomic charges:   -0.0000000

LOEWDIN ATOMIC CHARGES
----------------------
   0 C :    0.059666
   1 C :   -0.092234
   2 C :   -0.014298
   3 N :   -0.037619
   4 C :   -0.013198
   5 N :   -0.046470
   6 C :   -0.018884
   7 C :   -0.062481
   8 C :    0.038233
   9 C :   -0.010040
  10 C :   -0.001843
  11 C :    0.016172
  12 C :   -0.005922
  13 C :   -0.008774
  14 C :   -0.011934
  15 C :   -0.007382
  16 C :    0.085122
  17 O :   -0.131250
  18 C :   -0.017041
  19 C :    0.026366
  20 C :    0.059048
  21 N :   -0.074466
  22 C :    0.044507
  23 C :   -0.037387
  24 C :    0.066839
  25 O :   -0.131960
  26 C :   -0.036549
  27 C :    0.041223
  28 N :   -0.094628
  29 C :    0.087187
  30 C :   -0.029268
  31 C :   -0.020387
  32 C :   -0.013276
  33 C :   -0.005832
  34 C :   -0.015169
  35 C :   -0.015347
  36 C :   -0.011155
  37 C :   -0.033525
  38 C :    0.043984
  39 C :   -0.025112
  40 O :    0.028273
  41 C :    0.053858
  42 N :   -0.058598
  43 C :    0.044834
  44 N :   -0.075907
  45 C :    0.039261
  46 C :   -0.032754
  47 C :    0.065495
  48 O :   -0.126477
  49 C :   -0.037455
  50 C :    0.040096
  51 N :   -0.093475
  52 C :    0.086596
  53 C :   -0.030026
  54 C :   -0.017247
  55 C :    0.039499
  56 C :   -0.017339
  57 C :    0.070563
  58 C :   -0.087476
  59 C :    0.074584
  60 C :   -0.137363
  61 C :   -0.017121
  62 N :   -0.054007
  63 C :   -0.025526
  64 N :   -0.048305
  65 C :   -0.026530
  66 C :   -0.054154
  67 C :    0.085748
  68 O :   -0.130345
  69 C :    0.031177
  70 C :   -0.008540
  71 C :   -0.006919
  72 C :    0.019020
  73 C :   -0.005484
  74 C :   -0.014253
  75 C :   -0.012502
  76 C :   -0.009695
  77 H :    0.040495
  78 H :    0.040102
  79 H :    0.035463
  80 H :    0.034497
  81 H :    0.034031
  82 H :    0.032673
  83 H :    0.044680
  84 H :    0.026317
  85 H :    0.036443
  86 H :    0.042107
  87 H :    0.029889
  88 H :    0.032107
  89 H :    0.038455
  90 H :    0.040688
  91 H :    0.026307
  92 H :    0.036817
  93 H :    0.045206
  94 H :    0.032851
  95 H :    0.045196
  96 H :    0.038467
  97 H :    0.038766
  98 H :    0.034448
  99 H :    0.033169
 100 H :    0.032633
 101 H :    0.031766

  Mayer bond orders larger than 0.100000
B(  0-C ,  1-C ) :   1.7051 B(  0-C ,  6-C ) :   0.9976 B(  0-C , 18-C ) :   1.0095
B(  1-C ,  2-C ) :   1.1432 B(  1-C ,  4-C ) :   1.1523 B(  2-C ,  3-N ) :   2.9823
B(  4-C ,  5-N ) :   2.9706 B(  6-C ,  7-C ) :   1.2075 B(  6-C , 11-C ) :   1.4610
B(  7-C ,  8-C ) :   1.4656 B(  7-C , 16-C ) :   0.9330 B(  8-C ,  9-C ) :   1.1935
B(  8-C , 77-H ) :   1.0157 B(  9-C , 10-C ) :   1.2516 B(  9-C , 15-C ) :   1.2414
B( 10-C , 11-C ) :   1.2060 B( 10-C , 12-C ) :   1.2418 B( 11-C , 78-H ) :   0.9932
B( 12-C , 13-C ) :   1.4909 B( 12-C , 79-H ) :   0.9977 B( 13-C , 14-C ) :   1.2585
B( 13-C , 80-H ) :   0.9888 B( 14-C , 15-C ) :   1.4917 B( 14-C , 81-H ) :   0.9887
B( 15-C , 82-H ) :   0.9979 B( 16-C , 17-O ) :   2.2614 B( 16-C , 18-C ) :   0.9145
B( 18-C , 19-C ) :   1.6986 B( 19-C , 20-C ) :   1.0842 B( 19-C , 83-H ) :   0.9346
B( 20-C , 21-N ) :   1.5690 B( 20-C , 22-C ) :   0.1079 B( 20-C , 31-C ) :   1.0278
B( 21-N , 22-C ) :   1.3016 B( 22-C , 23-C ) :   1.0520 B( 22-C , 27-C ) :   1.4392
B( 23-C , 24-C ) :   0.8851 B( 23-C , 31-C ) :   1.5916 B( 24-C , 25-O ) :   2.2976
B( 24-C , 26-C ) :   0.8953 B( 26-C , 27-C ) :   1.0430 B( 26-C , 30-C ) :   1.6340
B( 27-C , 28-N ) :   1.3024 B( 28-N , 29-C ) :   1.6665 B( 29-C , 30-C ) :   1.0547
B( 29-C , 84-H ) :   0.9887 B( 30-C , 85-H ) :   1.0090 B( 31-C , 32-C ) :   1.0885
B( 32-C , 33-C ) :   1.7015 B( 32-C , 86-H ) :   0.9587 B( 33-C , 34-C ) :   1.0801
B( 33-C , 87-H ) :   0.9797 B( 34-C , 35-C ) :   1.2831 B( 34-C , 39-C ) :   1.3440
B( 35-C , 36-C ) :   1.4220 B( 35-C , 88-H ) :   0.9943 B( 36-C , 37-C ) :   1.2711
B( 36-C , 39-C ) :   0.1031 B( 36-C , 89-H ) :   1.0174 B( 37-C , 38-C ) :   1.2444
B( 37-C , 42-N ) :   1.3184 B( 38-C , 39-C ) :   1.3159 B( 38-C , 40-O ) :   1.1334
B( 39-C , 90-H ) :   1.0153 B( 40-O , 41-C ) :   1.2049 B( 41-C , 42-N ) :   1.7214
B( 41-C , 43-C ) :   0.9988 B( 43-C , 44-N ) :   1.6415 B( 43-C , 45-C ) :   0.1246
B( 43-C , 54-C ) :   1.0771 B( 44-N , 45-C ) :   1.3169 B( 45-C , 46-C ) :   1.0454
B( 45-C , 50-C ) :   1.4362 B( 46-C , 47-C ) :   0.8840 B( 46-C , 54-C ) :   1.5810
B( 47-C , 48-O ) :   2.3111 B( 47-C , 49-C ) :   0.8863 B( 49-C , 50-C ) :   1.0404
B( 49-C , 53-C ) :   1.6377 B( 50-C , 51-N ) :   1.3015 B( 51-N , 52-C ) :   1.6682
B( 52-C , 53-C ) :   1.0541 B( 52-C , 91-H ) :   0.9885 B( 53-C , 92-H ) :   1.0098
B( 54-C , 55-C ) :   1.1169 B( 55-C , 56-C ) :   1.7030 B( 55-C , 93-H ) :   0.9431
B( 56-C , 57-C ) :   1.1618 B( 56-C , 94-H ) :   0.9323 B( 57-C , 58-C ) :   1.6385
B( 57-C , 95-H ) :   0.9512 B( 58-C , 59-C ) :   1.0464 B( 58-C , 67-C ) :   0.9329
B( 59-C , 60-C ) :   1.6558 B( 59-C , 65-C ) :   0.9980 B( 60-C , 61-C ) :   1.1396
B( 60-C , 63-C ) :   1.1371 B( 61-C , 62-N ) :   2.9701 B( 63-C , 64-N ) :   3.0090
B( 65-C , 66-C ) :   1.2123 B( 65-C , 72-C ) :   1.4490 B( 66-C , 67-C ) :   0.9484
B( 66-C , 69-C ) :   1.4747 B( 67-C , 68-O ) :   2.2005 B( 69-C , 70-C ) :   1.1791
B( 69-C , 96-H ) :   1.0163 B( 70-C , 71-C ) :   1.2573 B( 70-C , 76-C ) :   1.2448
B( 71-C , 72-C ) :   1.2069 B( 71-C , 73-C ) :   1.2389 B( 72-C , 97-H ) :   0.9913
B( 73-C , 74-C ) :   1.4899 B( 73-C , 98-H ) :   0.9975 B( 74-C , 75-C ) :   1.2593
B( 74-C , 99-H ) :   0.9888 B( 75-C , 76-C ) :   1.4886 B( 75-C ,100-H ) :   0.9891
B( 76-C ,101-H ) :   0.9976

-----------------------------------------------------------------------------
         ABSORPTION SPECTRUM VIA TRANSITION ELECTRIC DIPOLE MOMENTS
-----------------------------------------------------------------------------
State   Energy  Wavelength   fosc         T2         TX        TY        TZ
        (cm-1)    (nm)                  (au**2)     (au)      (au)      (au)
-----------------------------------------------------------------------------
   0   15535.3    643.7   0.070910071   1.50267   0.41564   0.18287  -1.13863
   1   16407.0    609.5   0.085108938   1.70774  -1.16360  -0.35725  -0.47555
   2   19053.0    524.9   0.064116091   1.10785   0.68239  -0.78463  -0.16296
   3   20210.3    494.8   0.916564646  14.93024   1.97738  -1.53446   2.94375
   4   20593.4    485.6   0.026911466   0.43021  -0.00581   0.24598   0.60801
   5   20942.9    477.5   0.009661594   0.15188   0.14884  -0.24707   0.26206
   6   22455.9    445.3   0.109916831   1.61142   1.03076  -0.40805  -0.61842
   7   22746.3    439.6   0.462043911   6.68725   2.09193   1.35397   0.69126
   8   23614.6    423.5   0.004404690   0.06141   0.23841  -0.02463   0.06292
   9   23975.9    417.1   0.008593623   0.11800   0.22149   0.20502  -0.16404
  10   24424.0    409.4   0.021388051   0.28829   0.48103   0.18583  -0.14955
  11   24893.5    401.7   0.142952438   1.89052   1.23614  -0.58028  -0.16044
  12   24927.4    401.2   0.055731146   0.73603  -0.48401   0.17605   0.68613
  13   25320.0    394.9   0.021560326   0.28033   0.29837   0.22861   0.37288
  14   25393.4    393.8   0.000468178   0.00607  -0.04265   0.06442   0.01005
  15   25620.1    390.3   0.283681035   3.64523  -1.39701   1.19246   0.52117
  16   25954.5    385.3   0.015106918   0.19162   0.33661  -0.21261   0.18197
  17   26526.2    377.0   0.005629149   0.06986  -0.24956  -0.04861   0.07223
  18   27276.6    366.6   0.121447221   1.46579  -0.47008  -0.71968   0.85257
  19   27382.8    365.2   0.035674420   0.42890   0.63890   0.06930  -0.12609
  20   27681.2    361.3   0.142974213   1.70039   0.43435  -0.31497   1.18850
  21   27785.9    359.9   0.149991476   1.77713  -0.71331  -0.56574   0.97378
  22   28151.4    355.2   0.076527140   0.89493  -0.39075  -0.20769  -0.83613
  23   28435.6    351.7   0.058233835   0.67420   0.28079  -0.36918  -0.67754
  24   28608.3    349.5   0.127861351   1.47137  -1.07541  -0.02581   0.56053
  25   28820.5    347.0   0.138588492   1.58308  -1.16841   0.09515  -0.45699
  26   29195.2    342.5   0.100388335   1.13200   0.26271  -0.11016  -1.02511
  27   29895.7    334.5   0.098461792   1.08426  -0.94334  -0.06903  -0.43544
  28   30099.6    332.2   0.012578915   0.13758  -0.22237  -0.13497   0.26442
  29   30647.0    326.3   0.001483938   0.01594  -0.05314   0.07158   0.08940
  30   30773.5    325.0   0.016531912   0.17686   0.30967   0.06086  -0.27795
  31   30779.5    324.9   0.002999730   0.03208  -0.15038  -0.00940  -0.09686
  32   30982.4    322.8   0.111015796   1.17963   0.90920  -0.42764   0.41245
  33   31190.0    320.6   0.373649114   3.94389  -0.92441  -1.05318  -1.40718
  34   31279.4    319.7   0.181786543   1.91328   1.33019  -0.13588   0.35415
  35   31518.8    317.3   0.042763982   0.44667  -0.42493   0.01791  -0.51554
  36   31835.7    314.1   0.364746522   3.77183  -1.36057  -0.58446   1.25662
  37   32042.0    312.1   0.051571646   0.52987  -0.61644  -0.33041  -0.20173
  38   32663.7    306.2   0.043865410   0.44211   0.32400  -0.57144   0.10292
  39   32865.9    304.3   0.400719821   4.01394  -1.40083  -0.67022  -1.26587
  40   33597.7    297.6   0.063776115   0.62492  -0.50330   0.35143  -0.49810
  41   33791.8    295.9   0.055804068   0.54366   0.70298  -0.02378   0.22118
  42   33932.1    294.7   0.099975829   0.96997  -0.85977   0.36685   0.31016
  43   34226.7    292.2   0.009020263   0.08676   0.00589   0.22614  -0.18865
  44   34482.4    290.0   0.436217407   4.16468  -0.67852   0.80476   1.74833
  45   34584.8    289.1   0.278516639   2.65120  -0.53901   0.46890   1.46314
  46   34898.0    286.5   0.122685673   1.15736   0.38035  -0.71566   0.70748
  47   35486.8    281.8   0.173624423   1.61072  -1.13558  -0.08285   0.56063
  48   35687.3    280.2   0.055765734   0.51443   0.35246  -0.33773   0.52549
  49   35760.9    279.6   0.036312632   0.33429  -0.00973   0.33048  -0.47432
  50   35870.0    278.8   0.059790746   0.54875  -0.64033  -0.28887   0.23512
  51   36187.6    276.3   0.010577671   0.09623  -0.30510   0.01256   0.05465
  52   36211.2    276.2   0.003579173   0.03254  -0.13744  -0.05580   0.10265
  53   36341.9    275.2   0.097172996   0.88027   0.66954  -0.36721   0.54510
  54   36433.6    274.5   0.011591979   0.10474   0.27094  -0.16818   0.05525
  55   36615.0    273.1   0.019303280   0.17356  -0.40440  -0.09988  -0.00639
  56   36848.8    271.4   0.151014601   1.34919   1.02365   0.10654  -0.53850
  57   37023.1    270.1   0.059652402   0.53043   0.40546   0.25955  -0.54651
  58   37227.0    268.6   0.051715627   0.45734  -0.09773  -0.10459   0.66095
  59   37508.9    266.6   0.113965319   1.00026   0.43751   0.66268  -0.60803
  60   37582.9    266.1   0.209827344   1.83801   1.28026   0.28316  -0.34462
  61   37665.7    265.5   0.017202971   0.15036  -0.37544  -0.01376   0.09601
  62   38122.5    262.3   0.081978648   0.70794  -0.66384   0.04214  -0.51525
  63   38301.7    261.1   0.043009163   0.36967   0.31039  -0.48361   0.19863
  64   38426.5    260.2   0.069123994   0.59221  -0.69514  -0.01799   0.32963
  65   38624.9    258.9   0.002746136   0.02341  -0.14766  -0.01173  -0.03827
  66   38657.0    258.7   0.000740591   0.00631  -0.04515   0.00086  -0.06533
  67   38679.2    258.5   0.082288017   0.70038  -0.73344   0.36801  -0.16437
  68   38772.7    257.9   0.013447369   0.11418  -0.25378   0.22050   0.03401
  69   39070.8    255.9   0.195592627   1.64807  -1.23446   0.25953   0.23835
  70   39110.8    255.7   0.153552778   1.29252  -1.01633   0.41310   0.29824
  71   39237.8    254.9   0.086484464   0.72562   0.61973   0.25163  -0.52748
  72   39387.7    253.9   0.054602943   0.45638  -0.44292   0.19653  -0.47073
  73   39503.8    253.1   0.076769166   0.63977   0.39024   0.18140  -0.67422
  74   39778.0    251.4   0.038302533   0.31700   0.44983  -0.33846  -0.01010
  75   40000.4    250.0   0.024883935   0.20480   0.19158  -0.01444  -0.40974
  76   40108.8    249.3   0.015900212   0.13051  -0.05721   0.25841  -0.24588

FINAL SINGLE POINT ENERGY     -3280.253748865730

DIPOLE MOMENT
-------------
                                X             Y             Z
Electronic contribution:     21.68623       8.37160      14.52758
Nuclear contribution   :    -22.81154      -8.38363     -17.35133
                        -----------------------------------------
Total Dipole Moment    :     -1.12531      -0.01203      -2.82374
                        -----------------------------------------
Magnitude (a.u.)       :      3.03974
Magnitude (Debye)      :      7.72640

Rotational constants in cm-1:     0.000946     0.000337     0.000303
Rotational constants in MHz :    28.363262    10.090533     9.069218

                             ****ORCA TERMINATED NORMALLY****
TOTAL RUN TIME: 0 days 0 hours 10 minutes 43 seconds 37 msec
