                         Program Version 4.2.0 -  RELEASE  -
|  1> # ORCA input file
|  2> # SCF done       -182.986020475585          0.000492428629
|  3> ! CAM-B3LYP def2-SVP def2/J RIJCOSX Grid4 TightSCF
|  4> %maxcore 5000
|  5> %tddft
|  6>     Mode sTDDFT
|  7>     Ethresh 5.0
|  8>     maxcore 5000
|  9> end
| 10>
| 11> %pal
| 12>   nprocs 6
| 13>   end
| 14> * xyz 0 1
| 15>    C        4.76990         6.91550         4.37847
| 16>    C        4.38073         7.67926         3.33519
| 17>    C        3.02703         7.30751         2.96854
| 18>    C        2.65115         6.21571         3.88493
| 19>    C        3.70290         5.99617         4.71927
| 20>    C        1.46357         5.47596         3.87033
| 21>    N        0.51958         4.82160         3.86736
| 22>    C        2.24572         7.86698         2.00121
| 23>    C        0.86707         7.57392         1.72050
| 24>    C        0.44802         8.34860         0.67227
| 25>    C        1.57738         9.16687         0.23582
| 26>    C        2.64190         8.91213         1.03702
| 27>    C        3.88917         9.53803         0.92871
| 28>    N        4.89641        10.07562         0.80517
| 29>    C       -0.84549         8.42450         0.06594
| 30>    C       -2.09875         8.46780         0.65150
| 31>    N       -2.44008         8.44898         2.02068
| 32>    O       -3.61370         8.62841         2.29443
| 33>    O       -1.55944         8.29194         2.84635
| 34>    C       -3.09387         8.70662        -0.36686
| 35>    C       -2.47084         8.85605        -1.56061
| 36>    C       -1.05718         8.66036        -1.36765
| 37>    C       -0.10276         8.52167        -2.35514
| 38>    C        1.05198         7.68267        -2.29548
| 39>    C        1.59444         7.58952        -3.54415
| 40>    C        0.85797         8.43150        -4.43295
| 41>    N        1.24419         8.65439        -5.76915
| 42>    O        0.74863         9.59208        -6.37084
| 43>    O        2.06969         7.89319        -6.24097
| 44>    C       -0.18693         9.04059        -3.73626
| 45>    C       -1.03944        10.04915        -4.21631
| 46>    C       -1.61003        11.01815        -3.43214
| 47>    C       -2.42357        12.03613        -3.95767
| 48>    N       -2.84504        13.13349        -3.24810
| 49>    C       -2.64062        13.37982        -1.83988
| 50>    C       -3.58737        12.55022        -0.97633
| 51>    C       -3.55684        14.04783        -4.05222
| 52>    O       -4.00689        15.09361        -3.64830
| 53>    C       -3.57740        13.41616        -5.36033
| 54>    C       -2.90227        12.18967        -5.27059
| 55>    C       -2.97305        11.55392        -6.57110
| 56>    O       -2.62235        10.46514        -6.96341
| 57>    N       -3.64629        12.49503        -7.38738
| 58>    C       -3.88431        12.17581        -8.77518
| 59>    C       -2.72984        12.63537        -9.66310
| 60>    C       -4.00176        13.61457        -6.68350
| 61>    C       -4.64357        14.80088        -7.11461
| 62>    C       -4.86096        15.24691        -8.37889
| 63>    C       -5.47648        16.50184        -8.62364
| 64>    S       -5.63826        17.16807       -10.24868
| 65>    C       -6.38720        18.55165        -9.46334
| 66>    N       -6.45551        18.40752        -8.16413
| 67>    N       -5.96266        17.30146        -7.71146
| 68>    C       -6.83805        19.68716       -10.18457
| 69>    C       -7.41044        20.74815        -9.56543
| 70>    C       -7.85901        21.92445       -10.22757
| 71>    C       -7.78318        22.25370       -11.55841
| 72>    C       -8.35254        23.55443       -11.75869
| 73>    C       -8.80112        24.00794       -10.42465
| 74>    C       -8.50012        23.03534        -9.52961
| 75>    C       -9.42888        25.22057       -10.11444
| 76>    N       -9.94692        26.20282        -9.82209
| 77>    C       -8.45101        24.24131       -12.93453
| 78>    C       -9.01519        25.55999       -13.14601
| 79>    C       -8.91093        25.87052       -14.45690
| 80>    C       -8.27782        24.77343       -15.15598
| 81>    C       -7.99514        23.78742       -14.26031
| 82>    C       -7.38148        22.56938       -14.56470
| 83>    N       -6.87377        21.57574       -14.84056
| 84>    H        5.71250         6.95645         4.89174
| 85>    H        4.94391         8.45397         2.85368
| 86>    H        3.75050         5.26188         5.50233
| 87>    H        0.28103         6.85631         2.25789
| 88>    H        1.54005         9.88526        -0.56256
| 89>    H       -4.14631         8.74857        -0.16036
| 90>    H       -2.93861         8.97783        -2.51804
| 91>    H        1.35240         7.11897        -1.43394
| 92>    H        2.43958         7.00035        -3.84676
| 93>    H       -1.16415        10.10147        -5.29244
| 94>    H       -1.37137        11.05804        -2.37886
| 95>    H       -2.84279        14.44367        -1.68857
| 96>    H       -1.59725        13.18030        -1.58002
| 97>    H       -4.61901        12.79332        -1.21775
| 98>    H       -3.41717        12.77370         0.07296
| 99>    H       -3.43552        11.48454        -1.13467
|100>    H       -4.83769        12.60767        -9.08567
|101>    H       -3.95781        11.08527        -8.82990
|102>    H       -2.54732        13.70279        -9.55818
|103>    H       -2.95474        12.41534       -10.70294
|104>    H       -1.82313        12.10418        -9.38500
|105>    H       -4.94398        15.45220        -6.30292
|106>    H       -4.54289        14.70540        -9.25506
|107>    H       -6.69763        19.67184       -11.25524
|108>    H       -7.53377        20.70479        -8.49167
|109>    H       -7.36390        21.65809       -12.34417
|110>    H       -8.69418        23.05613        -8.47283
|111>    H       -9.43796        26.16563       -12.36920
|112>    H       -9.23606        26.77679       -14.93266
|113>    H       -8.06998        24.75226       -16.21015
|114> *
|115>
|116>                          ****END OF INPUT****

CARTESIAN COORDINATES (ANGSTROEM)
---------------------------------
  C      4.769900    6.915500    4.378470
  C      4.380730    7.679260    3.335190
  C      3.027030    7.307510    2.968540
  C      2.651150    6.215710    3.884930
  C      3.702900    5.996170    4.719270
  C      1.463570    5.475960    3.870330
  N      0.519580    4.821600    3.867360
  C      2.245720    7.866980    2.001210
  C      0.867070    7.573920    1.720500
  C      0.448020    8.348600    0.672270
  C      1.577380    9.166870    0.235820
  C      2.641900    8.912130    1.037020
  C      3.889170    9.538030    0.928710
  N      4.896410   10.075620    0.805170
  C     -0.845490    8.424500    0.065940
  C     -2.098750    8.467800    0.651500
  N     -2.440080    8.448980    2.020680
  O     -3.613700    8.628410    2.294430
  O     -1.559440    8.291940    2.846350
  C     -3.093870    8.706620   -0.366860
  C     -2.470840    8.856050   -1.560610
  C     -1.057180    8.660360   -1.367650
  C     -0.102760    8.521670   -2.355140
  C      1.051980    7.682670   -2.295480
  C      1.594440    7.589520   -3.544150
  C      0.857970    8.431500   -4.432950
  N      1.244190    8.654390   -5.769150
  O      0.748630    9.592080   -6.370840
  O      2.069690    7.893190   -6.240970
  C     -0.186930    9.040590   -3.736260
  C     -1.039440   10.049150   -4.216310
  C     -1.610030   11.018150   -3.432140
  C     -2.423570   12.036130   -3.957670
  N     -2.845040   13.133490   -3.248100
  C     -2.640620   13.379820   -1.839880
  C     -3.587370   12.550220   -0.976330
  C     -3.556840   14.047830   -4.052220
  O     -4.006890   15.093610   -3.648300
  C     -3.577400   13.416160   -5.360330
  C     -2.902270   12.189670   -5.270590
  C     -2.973050   11.553920   -6.571100
  O     -2.622350   10.465140   -6.963410
  N     -3.646290   12.495030   -7.387380
  C     -3.884310   12.175810   -8.775180
  C     -2.729840   12.635370   -9.663100
  C     -4.001760   13.614570   -6.683500
  C     -4.643570   14.800880   -7.114610
  C     -4.860960   15.246910   -8.378890
  C     -5.476480   16.501840   -8.623640
  S     -5.638260   17.168070  -10.248680
  C     -6.387200   18.551650   -9.463340
  N     -6.455510   18.407520   -8.164130
  N     -5.962660   17.301460   -7.711460
  C     -6.838050   19.687160  -10.184570
  C     -7.410440   20.748150   -9.565430
  C     -7.859010   21.924450  -10.227570
  C     -7.783180   22.253700  -11.558410
  C     -8.352540   23.554430  -11.758690
  C     -8.801120   24.007940  -10.424650
  C     -8.500120   23.035340   -9.529610
  C     -9.428880   25.220570  -10.114440
  N     -9.946920   26.202820   -9.822090
  C     -8.451010   24.241310  -12.934530
  C     -9.015190   25.559990  -13.146010
  C     -8.910930   25.870520  -14.456900
  C     -8.277820   24.773430  -15.155980
  C     -7.995140   23.787420  -14.260310
  C     -7.381480   22.569380  -14.564700
  N     -6.873770   21.575740  -14.840560
  H      5.712500    6.956450    4.891740
  H      4.943910    8.453970    2.853680
  H      3.750500    5.261880    5.502330
  H      0.281030    6.856310    2.257890
  H      1.540050    9.885260   -0.562560
  H     -4.146310    8.748570   -0.160360
  H     -2.938610    8.977830   -2.518040
  H      1.352400    7.118970   -1.433940
  H      2.439580    7.000350   -3.846760
  H     -1.164150   10.101470   -5.292440
  H     -1.371370   11.058040   -2.378860
  H     -2.842790   14.443670   -1.688570
  H     -1.597250   13.180300   -1.580020
  H     -4.619010   12.793320   -1.217750
  H     -3.417170   12.773700    0.072960
  H     -3.435520   11.484540   -1.134670
  H     -4.837690   12.607670   -9.085670
  H     -3.957810   11.085270   -8.829900
  H     -2.547320   13.702790   -9.558180
  H     -2.954740   12.415340  -10.702940
  H     -1.823130   12.104180   -9.385000
  H     -4.943980   15.452200   -6.302920
  H     -4.542890   14.705400   -9.255060
  H     -6.697630   19.671840  -11.255240
  H     -7.533770   20.704790   -8.491670
  H     -7.363900   21.658090  -12.344170
  H     -8.694180   23.056130   -8.472830
  H     -9.437960   26.165630  -12.369200
  H     -9.236060   26.776790  -14.932660
  H     -8.069980   24.752260  -16.210150

 Total Charge           Charge          ....    0
 Multiplicity           Mult            ....    1
 Number of Electrons    NEL             ....  476
 Basis Dimension        Dim             .... 1120

ORBITAL ENERGIES
----------------

  NO   OCC          E(Eh)            E(eV)
   0   2.0000     -88.985860     -2421.4284
   1   2.0000     -19.245879      -523.7070
   2   2.0000     -19.244772      -523.6769
   3   2.0000     -19.239686      -523.5385
   4   2.0000     -19.239285      -523.5276
   5   2.0000     -19.210629      -522.7478
   6   2.0000     -19.200372      -522.4687
   7   2.0000     -14.654679      -398.7741
   8   2.0000     -14.649040      -398.6206
   9   2.0000     -14.470033      -393.7496
  10   2.0000     -14.465079      -393.6148
  11   2.0000     -14.450730      -393.2243
  12   2.0000     -14.449739      -393.1974
  13   2.0000     -14.414457      -392.2373
  14   2.0000     -14.413841      -392.2206
  15   2.0000     -14.412743      -392.1907
  16   2.0000     -14.408732      -392.0815
  17   2.0000     -10.391111      -282.7565
  18   2.0000     -10.385560      -282.6055
  19   2.0000     -10.356701      -281.8202
  20   2.0000     -10.355574      -281.7895
  21   2.0000     -10.354666      -281.7648
  22   2.0000     -10.353986      -281.7463
  23   2.0000     -10.344068      -281.4764
  24   2.0000     -10.342227      -281.4263
  25   2.0000     -10.339202      -281.3440
  26   2.0000     -10.336244      -281.2635
  27   2.0000     -10.333085      -281.1775
  28   2.0000     -10.332041      -281.1491
  29   2.0000     -10.331897      -281.1452
  30   2.0000     -10.330700      -281.1126
  31   2.0000     -10.330044      -281.0948
  32   2.0000     -10.329958      -281.0925
  33   2.0000     -10.323179      -280.9080
  34   2.0000     -10.323065      -280.9049
  35   2.0000     -10.320907      -280.8462
  36   2.0000     -10.320646      -280.8391
  37   2.0000     -10.317839      -280.7627
  38   2.0000     -10.317697      -280.7588
  39   2.0000     -10.317507      -280.7536
  40   2.0000     -10.317209      -280.7455
  41   2.0000     -10.316853      -280.7358
  42   2.0000     -10.316802      -280.7345
  43   2.0000     -10.316399      -280.7235
  44   2.0000     -10.316033      -280.7135
  45   2.0000     -10.315811      -280.7075
  46   2.0000     -10.315759      -280.7061
  47   2.0000     -10.313891      -280.6553
  48   2.0000     -10.313632      -280.6482
  49   2.0000     -10.312519      -280.6179
  50   2.0000     -10.312223      -280.6099
  51   2.0000     -10.310838      -280.5722
  52   2.0000     -10.310531      -280.5638
  53   2.0000     -10.309730      -280.5420
  54   2.0000     -10.309266      -280.5294
  55   2.0000     -10.305357      -280.4230
  56   2.0000     -10.304339      -280.3953
  57   2.0000     -10.299455      -280.2624
  58   2.0000     -10.299296      -280.2581
  59   2.0000     -10.298176      -280.2276
  60   2.0000     -10.297260      -280.2027
  61   2.0000     -10.296912      -280.1932
  62   2.0000     -10.293969      -280.1131
  63   2.0000     -10.292890      -280.0838
  64   2.0000     -10.291978      -280.0590
  65   2.0000     -10.282805      -279.8094
  66   2.0000     -10.279470      -279.7186
  67   2.0000     -10.272948      -279.5411
  68   2.0000     -10.270633      -279.4781
  69   2.0000      -8.082236      -219.9288
  70   2.0000      -6.050825      -164.6513
  71   2.0000      -6.047575      -164.5629
  72   2.0000      -6.044637      -164.4829
  73   2.0000      -1.325601       -36.0714
  74   2.0000      -1.319345       -35.9012
  75   2.0000      -1.156047       -31.4576
  76   2.0000      -1.150718       -31.3126
  77   2.0000      -1.142916       -31.1003
  78   2.0000      -1.140817       -31.0432
  79   2.0000      -1.136900       -30.9366
  80   2.0000      -1.079331       -29.3701
  81   2.0000      -1.069789       -29.1104
  82   2.0000      -1.032454       -28.0945
  83   2.0000      -1.021023       -27.7835
  84   2.0000      -1.020498       -27.7692
  85   2.0000      -1.008106       -27.4319
  86   2.0000      -1.004504       -27.3339
  87   2.0000      -1.002666       -27.2839
  88   2.0000      -0.990916       -26.9642
  89   2.0000      -0.989291       -26.9200
  90   2.0000      -0.983948       -26.7746
  91   2.0000      -0.981770       -26.7153
  92   2.0000      -0.961531       -26.1646
  93   2.0000      -0.943921       -25.6854
  94   2.0000      -0.941411       -25.6171
  95   2.0000      -0.929256       -25.2863
  96   2.0000      -0.919554       -25.0223
  97   2.0000      -0.904924       -24.6242
  98   2.0000      -0.894919       -24.3520
  99   2.0000      -0.892324       -24.2814
 100   2.0000      -0.885950       -24.1079
 101   2.0000      -0.881686       -23.9919
 102   2.0000      -0.869367       -23.6567
 103   2.0000      -0.867204       -23.5978
 104   2.0000      -0.856406       -23.3040
 105   2.0000      -0.851462       -23.1695
 106   2.0000      -0.849280       -23.1101
 107   2.0000      -0.840045       -22.8588
 108   2.0000      -0.835247       -22.7282
 109   2.0000      -0.832430       -22.6516
 110   2.0000      -0.816431       -22.2162
 111   2.0000      -0.807831       -21.9822
 112   2.0000      -0.790198       -21.5024
 113   2.0000      -0.776412       -21.1272
 114   2.0000      -0.774588       -21.0776
 115   2.0000      -0.771568       -20.9954
 116   2.0000      -0.749804       -20.4032
 117   2.0000      -0.739938       -20.1347
 118   2.0000      -0.736070       -20.0295
 119   2.0000      -0.724034       -19.7020
 120   2.0000      -0.722608       -19.6632
 121   2.0000      -0.721105       -19.6223
 122   2.0000      -0.714029       -19.4297
 123   2.0000      -0.711504       -19.3610
 124   2.0000      -0.704242       -19.1634
 125   2.0000      -0.695576       -18.9276
 126   2.0000      -0.691539       -18.8177
 127   2.0000      -0.688606       -18.7379
 128   2.0000      -0.680537       -18.5183
 129   2.0000      -0.677065       -18.4239
 130   2.0000      -0.675791       -18.3892
 131   2.0000      -0.666057       -18.1243
 132   2.0000      -0.662674       -18.0323
 133   2.0000      -0.657016       -17.8783
 134   2.0000      -0.645256       -17.5583
 135   2.0000      -0.641346       -17.4519
 136   2.0000      -0.638754       -17.3814
 137   2.0000      -0.635769       -17.3001
 138   2.0000      -0.630741       -17.1633
 139   2.0000      -0.629935       -17.1414
 140   2.0000      -0.623846       -16.9757
 141   2.0000      -0.618347       -16.8261
 142   2.0000      -0.608653       -16.5623
 143   2.0000      -0.605630       -16.4800
 144   2.0000      -0.603425       -16.4200
 145   2.0000      -0.597359       -16.2550
 146   2.0000      -0.593074       -16.1384
 147   2.0000      -0.586209       -15.9516
 148   2.0000      -0.584877       -15.9153
 149   2.0000      -0.580335       -15.7917
 150   2.0000      -0.578327       -15.7371
 151   2.0000      -0.575100       -15.6493
 152   2.0000      -0.574650       -15.6370
 153   2.0000      -0.558305       -15.1923
 154   2.0000      -0.553930       -15.0732
 155   2.0000      -0.552768       -15.0416
 156   2.0000      -0.546497       -14.8709
 157   2.0000      -0.544095       -14.8056
 158   2.0000      -0.543931       -14.8011
 159   2.0000      -0.541943       -14.7470
 160   2.0000      -0.541529       -14.7358
 161   2.0000      -0.540883       -14.7182
 162   2.0000      -0.534044       -14.5321
 163   2.0000      -0.531540       -14.4639
 164   2.0000      -0.528724       -14.3873
 165   2.0000      -0.526996       -14.3403
 166   2.0000      -0.525452       -14.2983
 167   2.0000      -0.524117       -14.2619
 168   2.0000      -0.523103       -14.2344
 169   2.0000      -0.518746       -14.1158
 170   2.0000      -0.518289       -14.1034
 171   2.0000      -0.516858       -14.0644
 172   2.0000      -0.514148       -13.9907
 173   2.0000      -0.512752       -13.9527
 174   2.0000      -0.511892       -13.9293
 175   2.0000      -0.506788       -13.7904
 176   2.0000      -0.502614       -13.6768
 177   2.0000      -0.496169       -13.5015
 178   2.0000      -0.493312       -13.4237
 179   2.0000      -0.491008       -13.3610
 180   2.0000      -0.490716       -13.3531
 181   2.0000      -0.489892       -13.3306
 182   2.0000      -0.487779       -13.2731
 183   2.0000      -0.487226       -13.2581
 184   2.0000      -0.485146       -13.2015
 185   2.0000      -0.484161       -13.1747
 186   2.0000      -0.481610       -13.1053
 187   2.0000      -0.480673       -13.0798
 188   2.0000      -0.478725       -13.0268
 189   2.0000      -0.477696       -12.9988
 190   2.0000      -0.471066       -12.8183
 191   2.0000      -0.466995       -12.7076
 192   2.0000      -0.466677       -12.6989
 193   2.0000      -0.463306       -12.6072
 194   2.0000      -0.462551       -12.5866
 195   2.0000      -0.457922       -12.4607
 196   2.0000      -0.455764       -12.4020
 197   2.0000      -0.446368       -12.1463
 198   2.0000      -0.445067       -12.1109
 199   2.0000      -0.444333       -12.0909
 200   2.0000      -0.443369       -12.0647
 201   2.0000      -0.442807       -12.0494
 202   2.0000      -0.438462       -11.9312
 203   2.0000      -0.436774       -11.8852
 204   2.0000      -0.435926       -11.8621
 205   2.0000      -0.434655       -11.8276
 206   2.0000      -0.433556       -11.7977
 207   2.0000      -0.426552       -11.6071
 208   2.0000      -0.422469       -11.4960
 209   2.0000      -0.421417       -11.4673
 210   2.0000      -0.420324       -11.4376
 211   2.0000      -0.403771       -10.9872
 212   2.0000      -0.401672       -10.9300
 213   2.0000      -0.401657       -10.9296
 214   2.0000      -0.397102       -10.8057
 215   2.0000      -0.392959       -10.6929
 216   2.0000      -0.391540       -10.6543
 217   2.0000      -0.384586       -10.4651
 218   2.0000      -0.381321       -10.3763
 219   2.0000      -0.377499       -10.2723
 220   2.0000      -0.375481       -10.2174
 221   2.0000      -0.371846       -10.1185
 222   2.0000      -0.366319        -9.9681
 223   2.0000      -0.362894        -9.8748
 224   2.0000      -0.357510        -9.7283
 225   2.0000      -0.348923        -9.4947
 226   2.0000      -0.345607        -9.4044
 227   2.0000      -0.343899        -9.3580
 228   2.0000      -0.335208        -9.1215
 229   2.0000      -0.333631        -9.0785
 230   2.0000      -0.331823        -9.0294
 231   2.0000      -0.329147        -8.9565
 232   2.0000      -0.314200        -8.5498
 233   2.0000      -0.313951        -8.5430
 234   2.0000      -0.310837        -8.4583
 235   2.0000      -0.295624        -8.0443
 236   2.0000      -0.287013        -7.8100
 237   2.0000      -0.246305        -6.7023
 238   0.0000      -0.151507        -4.1227
 239   0.0000      -0.127215        -3.4617
 240   0.0000      -0.117805        -3.2056
 241   0.0000      -0.095230        -2.5913
 242   0.0000      -0.057972        -1.5775

MULLIKEN ATOMIC CHARGES
-----------------------
   0 C :    0.047389
   1 C :   -0.012580
   2 C :    0.061650
   3 C :   -0.099052
   4 C :    0.016821
   5 C :   -0.175791
   6 N :    0.135698
   7 C :    0.100364
   8 C :   -0.022292
   9 C :   -0.034446
  10 C :   -0.014251
  11 C :   -0.092780
  12 C :   -0.181870
  13 N :    0.146766
  14 C :    0.096485
  15 C :    0.084421
  16 N :    0.262856
  17 O :   -0.239070
  18 O :   -0.233829
  19 C :    0.010919
  20 C :    0.001992
  21 C :    0.002983
  22 C :    0.001918
  23 C :    0.004745
  24 C :    0.029911
  25 C :    0.091274
  26 N :    0.272016
  27 O :   -0.242148
  28 O :   -0.247560
  29 C :    0.046761
  30 C :   -0.016155
  31 C :   -0.043942
  32 C :    0.135890
  33 N :   -0.264103
  34 C :    0.098093
  35 C :    0.002169
  36 C :    0.147133
  37 O :   -0.172398
  38 C :   -0.040536
  39 C :   -0.045030
  40 C :    0.156246
  41 O :   -0.179996
  42 N :   -0.262237
  43 C :    0.103476
  44 C :   -0.001276
  45 C :    0.127246
  46 C :   -0.027528
  47 C :    0.067697
  48 C :   -0.113970
  49 S :    0.114165
  50 C :   -0.099161
  51 N :   -0.042312
  52 N :   -0.028964
  53 C :    0.071471
  54 C :    0.004737
  55 C :    0.113209
  56 C :   -0.100954
  57 C :    0.112167
  58 C :   -0.088788
  59 C :    0.003619
  60 C :   -0.180689
  61 N :    0.142019
  62 C :    0.069228
  63 C :   -0.009488
  64 C :    0.042008
  65 C :    0.019855
  66 C :   -0.116010
  67 C :   -0.164242
  68 N :    0.122020
  69 H :    0.004112
  70 H :    0.013685
  71 H :    0.008194
  72 H :    0.013292
  73 H :    0.006494
  74 H :    0.010351
  75 H :    0.013777
  76 H :    0.010289
  77 H :    0.012776
  78 H :    0.048793
  79 H :   -0.001009
  80 H :    0.048964
  81 H :    0.022953
  82 H :    0.030742
  83 H :    0.029931
  84 H :    0.007838
  85 H :    0.024558
  86 H :    0.044893
  87 H :    0.019443
  88 H :    0.026218
  89 H :    0.042189
  90 H :    0.044364
  91 H :   -0.012451
  92 H :    0.007167
  93 H :    0.017336
  94 H :    0.004084
  95 H :    0.006006
  96 H :    0.013495
  97 H :    0.002259
  98 H :    0.005286
Sum of atomic charges:   -0.0000000

LOEWDIN ATOMIC CHARGES
----------------------
   0 C :   -0.000876
   1 C :   -0.014242
   2 C :    0.050368
   3 C :   -0.090237
   4 C :    0.053096
   5 C :   -0.032956
   6 N :   -0.058658
   7 C :    0.035575
   8 C :    0.023455
   9 C :   -0.035257
  10 C :    0.056081
  11 C :   -0.087959
  12 C :   -0.032950
  13 N :   -0.059751
  14 C :    0.001040
  15 C :   -0.025805
  16 N :    0.282657
  17 O :   -0.203992
  18 O :   -0.195695
  19 C :    0.001994
  20 C :   -0.035223
  21 C :    0.029335
  22 C :    0.043608
  23 C :   -0.045389
  24 C :    0.035777
  25 C :   -0.045528
  26 N :    0.283581
  27 O :   -0.205597
  28 O :   -0.211765
  29 C :    0.004605
  30 C :    0.031107
  31 C :   -0.019025
  32 C :    0.069257
  33 N :   -0.002875
  34 C :    0.037493
  35 C :   -0.063468
  36 C :    0.078232
  37 O :   -0.178923
  38 C :   -0.104860
  39 C :   -0.102555
  40 C :    0.083494
  41 O :   -0.169930
  42 N :    0.001108
  43 C :    0.036297
  44 C :   -0.062221
  45 C :    0.075315
  46 C :    0.004473
  47 C :   -0.035761
  48 C :   -0.151478
  49 S :    0.396499
  50 C :   -0.145918
  51 N :   -0.069106
  52 N :   -0.060693
  53 C :   -0.029120
  54 C :    0.015924
  55 C :   -0.018244
  56 C :   -0.012440
  57 C :    0.041940
  58 C :   -0.080115
  59 C :    0.060159
  60 C :   -0.031665
  61 N :   -0.058235
  62 C :    0.041036
  63 C :   -0.011929
  64 C :   -0.006805
  65 C :    0.051535
  66 C :   -0.095678
  67 C :   -0.028909
  68 N :   -0.072765
  69 H :    0.033805
  70 H :    0.038153
  71 H :    0.039194
  72 H :    0.036863
  73 H :    0.036444
  74 H :    0.039521
  75 H :    0.034381
  76 H :    0.035684
  77 H :    0.042962
  78 H :    0.046224
  79 H :    0.032268
  80 H :    0.039893
  81 H :    0.022589
  82 H :    0.033349
  83 H :    0.033728
  84 H :    0.019303
  85 H :    0.023584
  86 H :    0.038938
  87 H :    0.020787
  88 H :    0.032132
  89 H :    0.038057
  90 H :    0.057365
  91 H :    0.031720
  92 H :    0.038271
  93 H :    0.041927
  94 H :    0.032971
  95 H :    0.040281
  96 H :    0.037919
  97 H :    0.033027
  98 H :    0.038217

  Mayer bond orders larger than 0.100000
B(  0-C ,  1-C ) :   1.6643 B(  0-C ,  4-C ) :   1.0570 B(  0-C , 69-H ) :   1.0032
B(  1-C ,  2-C ) :   1.0805 B(  1-C , 70-H ) :   0.9996 B(  2-C ,  3-C ) :   1.0975
B(  2-C ,  7-C ) :   1.4869 B(  3-C ,  4-C ) :   1.6739 B(  3-C ,  5-C ) :   1.1054
B(  4-C , 71-H ) :   1.0154 B(  5-C ,  6-N ) :   2.9700 B(  7-C ,  8-C ) :   1.0777
B(  7-C , 11-C ) :   1.0995 B(  8-C ,  9-C ) :   1.6144 B(  8-C , 72-H ) :   0.9964
B(  9-C , 10-C ) :   1.0626 B(  9-C , 14-C ) :   0.9617 B( 10-C , 11-C ) :   1.6723
B( 10-C , 73-H ) :   1.0141 B( 11-C , 12-C ) :   1.0858 B( 12-C , 13-N ) :   2.9798
B( 14-C , 15-C ) :   1.5892 B( 14-C , 21-C ) :   1.0744 B( 15-C , 16-N ) :   0.9347
B( 15-C , 19-C ) :   1.1234 B( 16-N , 17-O ) :   1.5354 B( 16-N , 18-O ) :   1.5151
B( 17-O , 18-O ) :   0.2700 B( 19-C , 20-C ) :   1.5706 B( 19-C , 74-H ) :   1.0103
B( 20-C , 21-C ) :   1.1214 B( 20-C , 75-H ) :   0.9992 B( 21-C , 22-C ) :   1.4712
B( 22-C , 23-C ) :   1.1714 B( 22-C , 29-C ) :   0.9965 B( 23-C , 24-C ) :   1.5307
B( 23-C , 76-H ) :   0.9956 B( 24-C , 25-C ) :   1.1535 B( 24-C , 77-H ) :   1.0142
B( 25-C , 26-N ) :   0.9428 B( 25-C , 29-C ) :   1.4727 B( 26-N , 27-O ) :   1.5018
B( 26-N , 28-O ) :   1.5242 B( 27-O , 28-O ) :   0.2639 B( 29-C , 30-C ) :   1.2178
B( 30-C , 31-C ) :   1.4942 B( 30-C , 78-H ) :   0.9285 B( 31-C , 32-C ) :   1.2076
B( 31-C , 79-H ) :   0.9519 B( 32-C , 33-N ) :   1.1675 B( 32-C , 39-C ) :   1.2951
B( 33-N , 34-C ) :   0.9402 B( 33-N , 36-C ) :   1.0309 B( 34-C , 35-C ) :   1.1172
B( 34-C , 80-H ) :   0.9278 B( 34-C , 81-H ) :   0.9491 B( 35-C , 82-H ) :   0.9605
B( 35-C , 83-H ) :   0.9665 B( 35-C , 84-H ) :   0.9666 B( 36-C , 37-O ) :   2.1566
B( 36-C , 38-C ) :   0.9680 B( 38-C , 39-C ) :   1.2871 B( 38-C , 45-C ) :   1.3097
B( 39-C , 40-C ) :   0.9735 B( 40-C , 41-O ) :   2.0731 B( 40-C , 42-N ) :   1.0414
B( 42-N , 43-C ) :   0.9375 B( 42-N , 45-C ) :   1.1859 B( 43-C , 44-C ) :   1.1171
B( 43-C , 85-H ) :   0.9503 B( 43-C , 86-H ) :   0.9273 B( 44-C , 87-H ) :   0.9665
B( 44-C , 88-H ) :   0.9689 B( 44-C , 89-H ) :   0.9602 B( 45-C , 46-C ) :   1.1630
B( 46-C , 47-C ) :   1.6258 B( 46-C , 90-H ) :   0.9519 B( 47-C , 48-C ) :   1.1170
B( 47-C , 91-H ) :   0.9495 B( 48-C , 49-S ) :   1.0924 B( 48-C , 52-N ) :   1.6577
B( 49-S , 50-C ) :   1.1013 B( 50-C , 51-N ) :   1.6510 B( 50-C , 53-C ) :   1.1100
B( 51-N , 52-N ) :   1.2526 B( 53-C , 54-C ) :   1.7020 B( 53-C , 92-H ) :   0.9533
B( 54-C , 55-C ) :   1.0742 B( 54-C , 93-H ) :   0.9823 B( 55-C , 56-C ) :   1.5703
B( 55-C , 59-C ) :   1.0303 B( 56-C , 57-C ) :   1.1026 B( 56-C , 94-H ) :   0.9932
B( 57-C , 58-C ) :   1.0929 B( 57-C , 62-C ) :   1.4822 B( 58-C , 59-C ) :   1.6794
B( 58-C , 60-C ) :   1.0884 B( 59-C , 95-H ) :   1.0243 B( 60-C , 61-N ) :   2.9771
B( 62-C , 63-C ) :   1.0848 B( 62-C , 66-C ) :   1.1048 B( 63-C , 64-C ) :   1.6575
B( 63-C , 96-H ) :   0.9976 B( 64-C , 65-C ) :   1.0670 B( 64-C , 97-H ) :   1.0033
B( 65-C , 66-C ) :   1.6615 B( 65-C , 98-H ) :   1.0147 B( 66-C , 67-C ) :   1.1079
B( 67-C , 68-N ) :   2.9619

-----------------------------------------------------------------------------
         ABSORPTION SPECTRUM VIA TRANSITION ELECTRIC DIPOLE MOMENTS
-----------------------------------------------------------------------------
State   Energy  Wavelength   fosc         T2         TX        TY        TZ
        (cm-1)    (nm)                  (au**2)     (au)      (au)      (au)
-----------------------------------------------------------------------------
   0    6065.4   1648.7   0.361995562  19.64798   1.94791  -2.76899   2.86118
   1   12785.7    782.1   0.018755994   0.48294   0.46912  -0.03195   0.51171
   2   14587.9    685.5   0.547387867  12.35314   1.41475  -2.49829   2.02736
   3   16029.8    623.8   0.025196498   0.51747  -0.09379  -0.43960   0.56163
   4   16242.8    615.7   0.070036668   1.41952  -0.24563   0.61462  -0.99067
   5   17852.1    560.2   0.085684491   1.58012   0.86654  -0.36278   0.83524
   6   18708.7    534.5   0.010052668   0.17689   0.04027   0.33668  -0.24883
   7   19114.1    523.2   0.132019671   2.27384   0.67514  -0.82498   1.06651
   8   19340.6    517.0   0.013963864   0.23769  -0.20524   0.26608  -0.35323
   9   19822.8    504.5   0.031218745   0.51847   0.31995  -0.63178   0.13024
  10   20928.1    477.8   0.155433263   2.44506   0.56072  -1.43245   0.28059
  11   21365.2    468.1   0.018137638   0.27948   0.24147  -0.22844   0.41108
  12   22214.8    450.1   0.002596537   0.03848   0.00514  -0.16489   0.10613
  13   23976.9    417.1   0.001005213   0.01380  -0.02379   0.04300   0.10671
  14   24982.1    400.3   0.032508774   0.42840  -0.53632  -0.01685   0.37480
  15   25140.0    397.8   0.003997841   0.05235  -0.06827   0.17679  -0.12820
  16   25229.7    396.4   0.000415592   0.00542   0.04451  -0.05716   0.01318
  17   25444.2    393.0   0.116796050   1.51118  -0.56113   0.50487  -0.97027
  18   25591.0    390.8   0.024665682   0.31731   0.43900   0.33396  -0.11425
  19   25843.3    386.9   0.013725345   0.17484   0.31087  -0.13411   0.24539
  20   26423.5    378.5   0.616812975   7.68490  -0.67668   2.25588  -1.46219
  21   26948.0    371.1   0.326796233   3.99232   0.18888  -0.78442   1.82793
  22   27390.1    365.1   0.114661302   1.37816  -0.62861   0.15857  -0.97870
  23   27833.2    359.3   0.027389390   0.32396   0.20969  -0.52069   0.09422
  24   27920.4    358.2   0.020369732   0.24018   0.19932  -0.07714   0.44102
  25   28287.3    353.5   0.051530604   0.59972  -0.16708   0.67325   0.34430
  26   29120.7    343.4   0.001363978   0.01542   0.08238   0.09039  -0.02153
  27   29149.2    343.1   0.029564742   0.33390   0.48479  -0.31217   0.03792
  28   29451.2    339.5   0.164518179   1.83902   1.25835  -0.46941   0.18768
  29   29709.2    336.6   0.001934347   0.02143   0.00109   0.10131  -0.10569
  30   29971.5    333.6   0.004086405   0.04489   0.16451  -0.12357  -0.05052
  31   30058.8    332.7   0.133752895   1.46490  -1.00803   0.51118   0.43299
  32   30443.1    328.5   0.159316076   1.72285   0.96030  -0.71238  -0.54146
  33   30767.8    325.0   0.030647812   0.32793  -0.38037   0.19861   0.37921
  34   30857.2    324.1   0.026822878   0.28617  -0.07904   0.33052  -0.41313
  35   31240.9    320.1   0.233013342   2.45546   0.64922  -1.38873  -0.32464
  36   31434.5    318.1   0.050678762   0.53076  -0.36560   0.60394  -0.17987
  37   31625.7    316.2   0.028253538   0.29411   0.42683  -0.29753  -0.15298
  38   31810.4    314.4   0.006766463   0.07003   0.24738  -0.08973  -0.02787
  39   31875.8    313.7   0.176156523   1.81934   0.82806  -0.73006  -0.77503
  40   32701.3    305.8   0.000314604   0.00317   0.05001   0.02524  -0.00542
  41   32808.8    304.8   0.022682310   0.22760   0.36925  -0.23154  -0.19402
  42   33470.8    298.8   0.042303175   0.41609   0.20856  -0.12837  -0.59675
  43   33733.0    296.4   0.161432323   1.57547   0.26477   0.11876  -1.22117
  44   34131.9    293.0   0.039045960   0.37661   0.43215  -0.06849  -0.43031
  45   34220.5    292.2   0.004272022   0.04110  -0.14281  -0.07127   0.12499
  46   34673.6    288.4   0.267573639   2.54050   0.32190   0.58227  -1.44839
  47   34829.3    287.1   0.166691465   1.57559  -1.13627   0.41414   0.33610
  48   35320.0    283.1   0.017281522   0.16108  -0.06829   0.39425   0.03135
  49   35676.8    280.3   0.033402326   0.30822  -0.25842   0.37693  -0.31523
  50   35721.3    279.9   0.004930424   0.04544   0.18361  -0.09247   0.05635
  51   35874.5    278.7   0.025154979   0.23084   0.23264  -0.41111   0.08780
  52   35993.0    277.8   0.020261247   0.18532   0.33936  -0.25770  -0.06124
  53   36181.7    276.4   0.161815102   1.47233  -0.35270   0.82030  -0.82161
  54   36307.7    275.4   0.007850004   0.07118  -0.14058   0.00804   0.22661
  55   36680.3    272.6   0.018183070   0.16320  -0.20213   0.34976   0.00309
  56   36731.4    272.2   0.028368274   0.25426   0.18698  -0.45805   0.09740
  57   36939.9    270.7   0.000007885   0.00007  -0.00369  -0.00749  -0.00074
  58   37009.4    270.2   0.026073877   0.23194   0.30242  -0.25632  -0.27346
  59   37237.6    268.5   0.136955454   1.21080   0.37713  -0.63250   0.81763
  60   37300.9    268.1   0.014705261   0.12979  -0.05839   0.15828  -0.31831
  61   38088.3    262.5   0.100096915   0.86518   0.15559  -0.41338   0.81859
  62   38139.4    262.2   0.003918719   0.03383   0.12892   0.05318  -0.11990
  63   38542.3    259.5   0.020910223   0.17861   0.15879  -0.05463  -0.38782
  64   38698.1    258.4   0.041055138   0.34926  -0.22530  -0.07851   0.54068
  65   38890.0    257.1   0.002834157   0.02399  -0.13408  -0.07723   0.00698
  66   39331.0    254.3   0.126564776   1.05938   0.49486  -0.64572  -0.63051
  67   39393.7    253.8   0.011500695   0.09611  -0.14515  -0.13430   0.23876
  68   39689.9    252.0   0.192958164   1.60051  -0.76310  -0.07904   1.00595
  69   39847.2    251.0   0.004877086   0.04029   0.01187   0.17912  -0.08982
  70   39940.5    250.4   0.001212957   0.01000  -0.05873   0.02180  -0.07793
  71   39983.7    250.1   0.064954132   0.53481  -0.15017  -0.49552   0.51644
  72   40172.2    248.9   0.000162588   0.00133   0.03476  -0.01011   0.00470
  73   40290.9    248.2   0.113244185   0.92530   0.49634  -0.65713  -0.49712

FINAL SINGLE POINT ENERGY     -3392.282386641730

DIPOLE MOMENT
-------------
                                X             Y             Z
Electronic contribution:      2.86547      -2.40771       4.94331
Nuclear contribution   :     -2.98495       2.90264      -6.50914
                        -----------------------------------------
Total Dipole Moment    :     -0.11948       0.49493      -1.56584
                        -----------------------------------------
Magnitude (a.u.)       :      1.64654
Magnitude (Debye)      :      4.18516

Rotational constants in cm-1:     0.002627     0.000229     0.000221
Rotational constants in MHz :    78.753382     6.877891     6.635429

                             ****ORCA TERMINATED NORMALLY****
TOTAL RUN TIME: 0 days 0 hours 10 minutes 59 seconds 927 msec
