                         Program Version 4.2.0 -  RELEASE  -
|  1> # ORCA input file
|  2> # SCF done       -206.417152558705          0.000800954432
|  3> ! CAM-B3LYP def2-SVP def2/J RIJCOSX Grid4 TightSCF
|  4> %maxcore 5000
|  5> %tddft
|  6>     Mode sTDDFT
|  7>     Ethresh 5.0
|  8>     maxcore 5000
|  9> end
| 10>
| 11> %pal
| 12>   nprocs 6
| 13>   end
| 14> * xyz 0 1
| 15>    C        1.98013        -3.38996         5.46927
| 16>    O        1.85279        -4.44565         4.87339
| 17>    C        0.89700        -2.49859         5.91870
| 18>    C        1.45311        -1.38769         6.57955
| 19>    C        0.61761        -0.40822         7.08927
| 20>    C       -0.75677        -0.55419         6.93063
| 21>    C       -1.29807        -1.66198         6.27313
| 22>    C       -0.46500        -2.64789         5.75982
| 23>   Br       -3.16803        -1.83462         6.07213
| 24>   Br       -1.89544         0.78366         7.62551
| 25>    C        2.91001        -1.51911         6.58319
| 26>    C        3.78145        -0.63809         7.16561
| 27>    C        3.38298         0.53485         7.84456
| 28>    N        3.11979         1.49844         8.40830
| 29>    C        5.18705        -0.77026         7.18468
| 30>    N        6.33263        -0.81954         7.23857
| 31>    C        3.23082        -2.74877         5.88013
| 32>    C        4.49346        -3.22434         5.62131
| 33>    C        4.90663        -4.39025         4.96852
| 34>    S        3.87783        -5.62408         4.30389
| 35>    C        5.21361        -6.56721         3.78569
| 36>    C        6.45076        -5.96446         4.09602
| 37>    C        6.27386        -4.72646         4.77406
| 38>    C        7.40546        -3.99257         5.17027
| 39>    C        8.65520        -4.48403         4.89213
| 40>    C        9.88756        -3.72021         5.30540
| 41>    F        9.59835        -2.57064         5.92415
| 42>    F       10.65559        -4.42642         6.15000
| 43>    F       10.65770        -3.40254         4.25246
| 44>    C        8.83045        -5.71885         4.21350
| 45>    C       10.13183        -6.20872         3.93668
| 46>    N       11.17308        -6.62161         3.70191
| 47>    C        7.73376        -6.45500         3.81830
| 48>    C        5.02816        -7.81295         3.13848
| 49>    S        3.44251        -8.52275         2.85518
| 50>    C        4.32135        -9.86720         2.14338
| 51>    N        5.61147        -9.68943         2.16774
| 52>    N        5.99824        -8.57629         2.70526
| 53>    C        3.66470       -11.02181         1.61862
| 54>    C        4.36597       -12.06359         1.14144
| 55>    C        3.80633       -13.29884         0.64059
| 56>    C        2.72239       -13.42925        -0.24436
| 57>    C        2.07317       -12.27071        -0.90457
| 58>    O        2.34925       -11.11329        -0.81249
| 59>    S        0.76590       -12.86050        -1.96969
| 60>    C        1.07130       -14.57511        -1.55694
| 61>    O        0.36241       -15.44570        -1.96670
| 62>    C        2.25094       -14.67598        -0.65989
| 63>    C        2.82933       -15.91228        -0.26193
| 64>    C        3.90729       -15.77539         0.64610
| 65>    C        4.36433       -14.51991         1.03922
| 66>    C        5.50958       -14.70300         1.96146
| 67>    O        6.17815       -13.89904         2.52798
| 68>    O        5.69277       -16.05488         2.09261
| 69>    C        4.76768       -16.75591         1.37899
| 70>    O        4.72454       -17.94676         1.45468
| 71>    C        2.36032       -17.12816        -0.86957
| 72>    C        2.73591       -18.39585        -0.59427
| 73>    C        2.26865       -19.50989        -1.35198
| 74>    C        2.88416       -20.71655        -1.40395
| 75>    C        2.16938       -21.93211        -1.89456
| 76>    O        1.14477       -21.96637        -2.52743
| 77>    C        2.96454       -23.06573        -1.37449
| 78>    C        4.13228       -22.58317        -0.75083
| 79>    C        4.18096       -21.13058        -0.89456
| 80>    C        5.29879       -20.35170        -0.78735
| 81>    C        5.37611       -19.00600        -1.20971
| 82>    N        5.51568       -17.93286        -1.59093
| 83>    C        6.54990       -20.84097        -0.34764
| 84>    N        7.57752       -21.20134         0.01009
| 85>    C        5.01493       -23.47082        -0.15860
| 86>    C        4.72380       -24.82945        -0.20547
| 87>    C        3.57046       -25.30216        -0.83985
| 88>    C        2.67879       -24.41484        -1.42891
| 89>   Br        3.20654       -27.15382        -0.89868
| 90>   Br        5.91923       -26.04226         0.61014
| 91>    H        0.99581         0.46131         7.60160
| 92>    H       -0.87059        -3.50761         5.24958
| 93>    H        5.31282        -2.61093         5.96911
| 94>    H        7.31039        -3.05194         5.69093
| 95>    H        7.84597        -7.39611         3.30374
| 96>    H        2.58561       -11.01950         1.65587
| 97>    H        5.44480       -12.02625         1.21672
| 98>    H        1.66741       -16.99229        -1.68743
| 99>    H        3.40162       -18.61714         0.22314
|100>    H        1.33048       -19.41663        -1.88799
|101>    H        5.90913       -23.13810         0.34375
|102>    H        1.78435       -24.76967        -1.91712
|103> *
|104>
|105>                          ****END OF INPUT****

CARTESIAN COORDINATES (ANGSTROEM)
---------------------------------
  C      1.980130   -3.389960    5.469270
  O      1.852790   -4.445650    4.873390
  C      0.897000   -2.498590    5.918700
  C      1.453110   -1.387690    6.579550
  C      0.617610   -0.408220    7.089270
  C     -0.756770   -0.554190    6.930630
  C     -1.298070   -1.661980    6.273130
  C     -0.465000   -2.647890    5.759820
  Br    -3.168030   -1.834620    6.072130
  Br    -1.895440    0.783660    7.625510
  C      2.910010   -1.519110    6.583190
  C      3.781450   -0.638090    7.165610
  C      3.382980    0.534850    7.844560
  N      3.119790    1.498440    8.408300
  C      5.187050   -0.770260    7.184680
  N      6.332630   -0.819540    7.238570
  C      3.230820   -2.748770    5.880130
  C      4.493460   -3.224340    5.621310
  C      4.906630   -4.390250    4.968520
  S      3.877830   -5.624080    4.303890
  C      5.213610   -6.567210    3.785690
  C      6.450760   -5.964460    4.096020
  C      6.273860   -4.726460    4.774060
  C      7.405460   -3.992570    5.170270
  C      8.655200   -4.484030    4.892130
  C      9.887560   -3.720210    5.305400
  F      9.598350   -2.570640    5.924150
  F     10.655590   -4.426420    6.150000
  F     10.657700   -3.402540    4.252460
  C      8.830450   -5.718850    4.213500
  C     10.131830   -6.208720    3.936680
  N     11.173080   -6.621610    3.701910
  C      7.733760   -6.455000    3.818300
  C      5.028160   -7.812950    3.138480
  S      3.442510   -8.522750    2.855180
  C      4.321350   -9.867200    2.143380
  N      5.611470   -9.689430    2.167740
  N      5.998240   -8.576290    2.705260
  C      3.664700  -11.021810    1.618620
  C      4.365970  -12.063590    1.141440
  C      3.806330  -13.298840    0.640590
  C      2.722390  -13.429250   -0.244360
  C      2.073170  -12.270710   -0.904570
  O      2.349250  -11.113290   -0.812490
  S      0.765900  -12.860500   -1.969690
  C      1.071300  -14.575110   -1.556940
  O      0.362410  -15.445700   -1.966700
  C      2.250940  -14.675980   -0.659890
  C      2.829330  -15.912280   -0.261930
  C      3.907290  -15.775390    0.646100
  C      4.364330  -14.519910    1.039220
  C      5.509580  -14.703000    1.961460
  O      6.178150  -13.899040    2.527980
  O      5.692770  -16.054880    2.092610
  C      4.767680  -16.755910    1.378990
  O      4.724540  -17.946760    1.454680
  C      2.360320  -17.128160   -0.869570
  C      2.735910  -18.395850   -0.594270
  C      2.268650  -19.509890   -1.351980
  C      2.884160  -20.716550   -1.403950
  C      2.169380  -21.932110   -1.894560
  O      1.144770  -21.966370   -2.527430
  C      2.964540  -23.065730   -1.374490
  C      4.132280  -22.583170   -0.750830
  C      4.180960  -21.130580   -0.894560
  C      5.298790  -20.351700   -0.787350
  C      5.376110  -19.006000   -1.209710
  N      5.515680  -17.932860   -1.590930
  C      6.549900  -20.840970   -0.347640
  N      7.577520  -21.201340    0.010090
  C      5.014930  -23.470820   -0.158600
  C      4.723800  -24.829450   -0.205470
  C      3.570460  -25.302160   -0.839850
  C      2.678790  -24.414840   -1.428910
  Br     3.206540  -27.153820   -0.898680
  Br     5.919230  -26.042260    0.610140
  H      0.995810    0.461310    7.601600
  H     -0.870590   -3.507610    5.249580
  H      5.312820   -2.610930    5.969110
  H      7.310390   -3.051940    5.690930
  H      7.845970   -7.396110    3.303740
  H      2.585610  -11.019500    1.655870
  H      5.444800  -12.026250    1.216720
  H      1.667410  -16.992290   -1.687430
  H      3.401620  -18.617140    0.223140
  H      1.330480  -19.416630   -1.887990
  H      5.909130  -23.138100    0.343750
  H      1.784350  -24.769670   -1.917120

 Total Charge           Charge          ....    0
 Multiplicity           Mult            ....    1
 Number of Electrons    NEL             ....  644
 Basis Dimension        Dim             .... 1208

ORBITAL ENERGIES
----------------

  NO   OCC          E(Eh)            E(eV)
   0   2.0000    -482.887047    -13140.0246
   1   2.0000    -482.884742    -13139.9618
   2   2.0000    -482.884725    -13139.9614
   3   2.0000    -482.883533    -13139.9289
   4   2.0000     -89.010824     -2422.1077
   5   2.0000     -89.001023     -2421.8410
   6   2.0000     -88.973430     -2421.0901
   7   2.0000     -62.564637     -1702.4703
   8   2.0000     -62.562360     -1702.4084
   9   2.0000     -62.562346     -1702.4080
  10   2.0000     -62.561151     -1702.3755
  11   2.0000     -56.398592     -1534.6837
  12   2.0000     -56.396331     -1534.6222
  13   2.0000     -56.396303     -1534.6214
  14   2.0000     -56.395938     -1534.6115
  15   2.0000     -56.395827     -1534.6085
  16   2.0000     -56.395121     -1534.5893
  17   2.0000     -56.393646     -1534.5491
  18   2.0000     -56.393639     -1534.5489
  19   2.0000     -56.393546     -1534.5464
  20   2.0000     -56.393540     -1534.5463
  21   2.0000     -56.392439     -1534.5163
  22   2.0000     -56.392340     -1534.5136
  23   2.0000     -24.803971      -674.9504
  24   2.0000     -24.798478      -674.8009
  25   2.0000     -24.798178      -674.7927
  26   2.0000     -19.313109      -525.5364
  27   2.0000     -19.265907      -524.2520
  28   2.0000     -19.263627      -524.1899
  29   2.0000     -19.261811      -524.1405
  30   2.0000     -19.259225      -524.0702
  31   2.0000     -19.245948      -523.7089
  32   2.0000     -19.235773      -523.4320
  33   2.0000     -14.469140      -393.7253
  34   2.0000     -14.462875      -393.5548
  35   2.0000     -14.436899      -392.8480
  36   2.0000     -14.432300      -392.7228
  37   2.0000     -14.430630      -392.6774
  38   2.0000     -14.430011      -392.6606
  39   2.0000     -14.409328      -392.0978
  40   2.0000     -10.523277      -286.3529
  41   2.0000     -10.459089      -284.6063
  42   2.0000     -10.451324      -284.3950
  43   2.0000     -10.429545      -283.8023
  44   2.0000     -10.428248      -283.7671
  45   2.0000     -10.393039      -282.8090
  46   2.0000     -10.386571      -282.6330
  47   2.0000     -10.375357      -282.3278
  48   2.0000     -10.368888      -282.1518
  49   2.0000     -10.365516      -282.0600
  50   2.0000     -10.364931      -282.0441
  51   2.0000     -10.364537      -282.0334
  52   2.0000     -10.363691      -282.0104
  53   2.0000     -10.362999      -281.9915
  54   2.0000     -10.362798      -281.9861
  55   2.0000     -10.362533      -281.9788
  56   2.0000     -10.361014      -281.9375
  57   2.0000     -10.360071      -281.9119
  58   2.0000     -10.357843      -281.8512
  59   2.0000     -10.355265      -281.7811
  60   2.0000     -10.353749      -281.7398
  61   2.0000     -10.353052      -281.7209
  62   2.0000     -10.351963      -281.6912
  63   2.0000     -10.348829      -281.6059
  64   2.0000     -10.346747      -281.5493
  65   2.0000     -10.344503      -281.4882
  66   2.0000     -10.338899      -281.3357
  67   2.0000     -10.337034      -281.2850
  68   2.0000     -10.335586      -281.2456
  69   2.0000     -10.332133      -281.1516
  70   2.0000     -10.331544      -281.1356
  71   2.0000     -10.330468      -281.1063
  72   2.0000     -10.330267      -281.1008
  73   2.0000     -10.330141      -281.0974
  74   2.0000     -10.330045      -281.0948
  75   2.0000     -10.329236      -281.0728
  76   2.0000     -10.324372      -280.9404
  77   2.0000     -10.323820      -280.9254
  78   2.0000     -10.323477      -280.9161
  79   2.0000     -10.322691      -280.8947
  80   2.0000     -10.322075      -280.8779
  81   2.0000     -10.321647      -280.8663
  82   2.0000     -10.319099      -280.7970
  83   2.0000     -10.319077      -280.7964
  84   2.0000     -10.318784      -280.7884
  85   2.0000     -10.317259      -280.7469
  86   2.0000     -10.316810      -280.7347
  87   2.0000     -10.315464      -280.6980
  88   2.0000     -10.314715      -280.6777
  89   2.0000     -10.314380      -280.6686
  90   2.0000     -10.310634      -280.5666
  91   2.0000     -10.307793      -280.4893
  92   2.0000      -8.793953      -239.2956
  93   2.0000      -8.791690      -239.2340
  94   2.0000      -8.791683      -239.2339
  95   2.0000      -8.790478      -239.2011
  96   2.0000      -8.103448      -220.5060
  97   2.0000      -8.097349      -220.3401
  98   2.0000      -8.072839      -219.6731
  99   2.0000      -6.630101      -180.4142
 100   2.0000      -6.627906      -180.3545
 101   2.0000      -6.627848      -180.3529
 102   2.0000      -6.626679      -180.3211
 103   2.0000      -6.616086      -180.0328
 104   2.0000      -6.615264      -180.0105
 105   2.0000      -6.613803      -179.9707
 106   2.0000      -6.613771      -179.9699
 107   2.0000      -6.612982      -179.9484
 108   2.0000      -6.612977      -179.9483
 109   2.0000      -6.612576      -179.9374
 110   2.0000      -6.611765      -179.9153
 111   2.0000      -6.072554      -165.2426
 112   2.0000      -6.067846      -165.1145
 113   2.0000      -6.066559      -165.0795
 114   2.0000      -6.066051      -165.0656
 115   2.0000      -6.062607      -164.9719
 116   2.0000      -6.059657      -164.8916
 117   2.0000      -6.041670      -164.4022
 118   2.0000      -6.038389      -164.3129
 119   2.0000      -6.033902      -164.1908
 120   2.0000      -2.746006       -74.7226
 121   2.0000      -2.743767       -74.6617
 122   2.0000      -2.743740       -74.6610
 123   2.0000      -2.742583       -74.6295
 124   2.0000      -2.742224       -74.6197
 125   2.0000      -2.741631       -74.6036
 126   2.0000      -2.740024       -74.5598
 127   2.0000      -2.739991       -74.5589
 128   2.0000      -2.739377       -74.5422
 129   2.0000      -2.739350       -74.5415
 130   2.0000      -2.738789       -74.5262
 131   2.0000      -2.738146       -74.5087
 132   2.0000      -2.730461       -74.2996
 133   2.0000      -2.730440       -74.2991
 134   2.0000      -2.728171       -74.2373
 135   2.0000      -2.728166       -74.2372
 136   2.0000      -2.728149       -74.2367
 137   2.0000      -2.728131       -74.2362
 138   2.0000      -2.726939       -74.2038
 139   2.0000      -2.726923       -74.2033
 140   2.0000      -1.391654       -37.8688
 141   2.0000      -1.294903       -35.2361
 142   2.0000      -1.290813       -35.1248
 143   2.0000      -1.266731       -34.4695
 144   2.0000      -1.192237       -32.4424
 145   2.0000      -1.189739       -32.3744
 146   2.0000      -1.187662       -32.3179
 147   2.0000      -1.172326       -31.9006
 148   2.0000      -1.161431       -31.6042
 149   2.0000      -1.151939       -31.3459
 150   2.0000      -1.151450       -31.3326
 151   2.0000      -1.041930       -28.3524
 152   2.0000      -1.039453       -28.2849
 153   2.0000      -1.038886       -28.2695
 154   2.0000      -1.037925       -28.2434
 155   2.0000      -1.023712       -27.8566
 156   2.0000      -1.020837       -27.7784
 157   2.0000      -1.011324       -27.5195
 158   2.0000      -1.009970       -27.4827
 159   2.0000      -1.001604       -27.2550
 160   2.0000      -0.991364       -26.9764
 161   2.0000      -0.990019       -26.9398
 162   2.0000      -0.978333       -26.6218
 163   2.0000      -0.975735       -26.5511
 164   2.0000      -0.971885       -26.4463
 165   2.0000      -0.958329       -26.0775
 166   2.0000      -0.950258       -25.8578
 167   2.0000      -0.934615       -25.4322
 168   2.0000      -0.934234       -25.4218
 169   2.0000      -0.928867       -25.2758
 170   2.0000      -0.925487       -25.1838
 171   2.0000      -0.921171       -25.0663
 172   2.0000      -0.920255       -25.0414
 173   2.0000      -0.909835       -24.7579
 174   2.0000      -0.901079       -24.5196
 175   2.0000      -0.891591       -24.2614
 176   2.0000      -0.890773       -24.2392
 177   2.0000      -0.878559       -23.9068
 178   2.0000      -0.876274       -23.8446
 179   2.0000      -0.865052       -23.5393
 180   2.0000      -0.863331       -23.4924
 181   2.0000      -0.848789       -23.0967
 182   2.0000      -0.837115       -22.7790
 183   2.0000      -0.821814       -22.3627
 184   2.0000      -0.810210       -22.0469
 185   2.0000      -0.801415       -21.8076
 186   2.0000      -0.791264       -21.5314
 187   2.0000      -0.790124       -21.5004
 188   2.0000      -0.784793       -21.3553
 189   2.0000      -0.783207       -21.3121
 190   2.0000      -0.776232       -21.1224
 191   2.0000      -0.770518       -20.9669
 192   2.0000      -0.758775       -20.6473
 193   2.0000      -0.747800       -20.3487
 194   2.0000      -0.739764       -20.1300
 195   2.0000      -0.731716       -19.9110
 196   2.0000      -0.721478       -19.6324
 197   2.0000      -0.717679       -19.5290
 198   2.0000      -0.709817       -19.3151
 199   2.0000      -0.707933       -19.2638
 200   2.0000      -0.705473       -19.1969
 201   2.0000      -0.697334       -18.9754
 202   2.0000      -0.689451       -18.7609
 203   2.0000      -0.684135       -18.6163
 204   2.0000      -0.677989       -18.4490
 205   2.0000      -0.672839       -18.3089
 206   2.0000      -0.672742       -18.3062
 207   2.0000      -0.665488       -18.1088
 208   2.0000      -0.657435       -17.8897
 209   2.0000      -0.654992       -17.8232
 210   2.0000      -0.647439       -17.6177
 211   2.0000      -0.646621       -17.5954
 212   2.0000      -0.639313       -17.3966
 213   2.0000      -0.637110       -17.3366
 214   2.0000      -0.634783       -17.2733
 215   2.0000      -0.628448       -17.1009
 216   2.0000      -0.625606       -17.0236
 217   2.0000      -0.621449       -16.9105
 218   2.0000      -0.615205       -16.7406
 219   2.0000      -0.608223       -16.5506
 220   2.0000      -0.602132       -16.3848
 221   2.0000      -0.597459       -16.2577
 222   2.0000      -0.592040       -16.1102
 223   2.0000      -0.588194       -16.0056
 224   2.0000      -0.584845       -15.9145
 225   2.0000      -0.576538       -15.6884
 226   2.0000      -0.575952       -15.6724
 227   2.0000      -0.573934       -15.6175
 228   2.0000      -0.571172       -15.5424
 229   2.0000      -0.567534       -15.4434
 230   2.0000      -0.565121       -15.3777
 231   2.0000      -0.563546       -15.3349
 232   2.0000      -0.562471       -15.3056
 233   2.0000      -0.561777       -15.2867
 234   2.0000      -0.559066       -15.2129
 235   2.0000      -0.555921       -15.1274
 236   2.0000      -0.555560       -15.1176
 237   2.0000      -0.554528       -15.0895
 238   2.0000      -0.552237       -15.0271
 239   2.0000      -0.551796       -15.0151
 240   2.0000      -0.549709       -14.9583
 241   2.0000      -0.547466       -14.8973
 242   2.0000      -0.544800       -14.8248
 243   2.0000      -0.540163       -14.6986
 244   2.0000      -0.539288       -14.6748
 245   2.0000      -0.536640       -14.6027
 246   2.0000      -0.534567       -14.5463
 247   2.0000      -0.531386       -14.4598
 248   2.0000      -0.528827       -14.3901
 249   2.0000      -0.522391       -14.2150
 250   2.0000      -0.520127       -14.1534
 251   2.0000      -0.517095       -14.0709
 252   2.0000      -0.516950       -14.0669
 253   2.0000      -0.514975       -14.0132
 254   2.0000      -0.513790       -13.9809
 255   2.0000      -0.512679       -13.9507
 256   2.0000      -0.510514       -13.8918
 257   2.0000      -0.509324       -13.8594
 258   2.0000      -0.507219       -13.8021
 259   2.0000      -0.505853       -13.7650
 260   2.0000      -0.501774       -13.6540
 261   2.0000      -0.500554       -13.6208
 262   2.0000      -0.497597       -13.5403
 263   2.0000      -0.487448       -13.2641
 264   2.0000      -0.485989       -13.2244
 265   2.0000      -0.480975       -13.0880
 266   2.0000      -0.478484       -13.0202
 267   2.0000      -0.477569       -12.9953
 268   2.0000      -0.476032       -12.9535
 269   2.0000      -0.474124       -12.9016
 270   2.0000      -0.473796       -12.8926
 271   2.0000      -0.469372       -12.7723
 272   2.0000      -0.468714       -12.7544
 273   2.0000      -0.466190       -12.6857
 274   2.0000      -0.465416       -12.6646
 275   2.0000      -0.463927       -12.6241
 276   2.0000      -0.458072       -12.4648
 277   2.0000      -0.457738       -12.4557
 278   2.0000      -0.454442       -12.3660
 279   2.0000      -0.450979       -12.2718
 280   2.0000      -0.447101       -12.1662
 281   2.0000      -0.445795       -12.1307
 282   2.0000      -0.443390       -12.0653
 283   2.0000      -0.439247       -11.9525
 284   2.0000      -0.437480       -11.9044
 285   2.0000      -0.435403       -11.8479
 286   2.0000      -0.435221       -11.8430
 287   2.0000      -0.430552       -11.7159
 288   2.0000      -0.428692       -11.6653
 289   2.0000      -0.426589       -11.6081
 290   2.0000      -0.425300       -11.5730
 291   2.0000      -0.418895       -11.3987
 292   2.0000      -0.416438       -11.3318
 293   2.0000      -0.411600       -11.2002
 294   2.0000      -0.411457       -11.1963
 295   2.0000      -0.410538       -11.1713
 296   2.0000      -0.408766       -11.1231
 297   2.0000      -0.404132       -10.9970
 298   2.0000      -0.399510       -10.8712
 299   2.0000      -0.397976       -10.8295
 300   2.0000      -0.397849       -10.8260
 301   2.0000      -0.396517       -10.7898
 302   2.0000      -0.392811       -10.6889
 303   2.0000      -0.390668       -10.6306
 304   2.0000      -0.385341       -10.4857
 305   2.0000      -0.374861       -10.2005
 306   2.0000      -0.369741       -10.0612
 307   2.0000      -0.367097        -9.9892
 308   2.0000      -0.363299        -9.8859
 309   2.0000      -0.361762        -9.8440
 310   2.0000      -0.357593        -9.7306
 311   2.0000      -0.355534        -9.6746
 312   2.0000      -0.352637        -9.5957
 313   2.0000      -0.349674        -9.5151
 314   2.0000      -0.347666        -9.4605
 315   2.0000      -0.346161        -9.4195
 316   2.0000      -0.344138        -9.3645
 317   2.0000      -0.335659        -9.1338
 318   2.0000      -0.324113        -8.8195
 319   2.0000      -0.322145        -8.7660
 320   2.0000      -0.311237        -8.4692
 321   2.0000      -0.280414        -7.6305
 322   0.0000      -0.130141        -3.5413
 323   0.0000      -0.118255        -3.2179
 324   0.0000      -0.115227        -3.1355
 325   0.0000      -0.090383        -2.4595
 326   0.0000      -0.085882        -2.3370

MULLIKEN ATOMIC CHARGES
-----------------------
   0 C :    0.168095
   1 O :   -0.185025
   2 C :   -0.009420
   3 C :    0.029418
   4 C :   -0.007062
   5 C :   -0.025930
   6 C :   -0.017234
   7 C :   -0.020340
   8 Br:    0.020207
   9 Br:    0.029756
  10 C :    0.319650
  11 C :   -0.338446
  12 C :   -0.184828
  13 N :    0.165542
  14 C :   -0.185378
  15 N :    0.159734
  16 C :   -0.096948
  17 C :   -0.023752
  18 C :   -0.073579
  19 S :    0.251228
  20 C :   -0.022671
  21 C :    0.080162
  22 C :    0.122137
  23 C :   -0.084589
  24 C :   -0.047801
  25 C :    0.527539
  26 F :   -0.141343
  27 F :   -0.154677
  28 F :   -0.154961
  29 C :   -0.072837
  30 C :   -0.156590
  31 N :    0.146182
  32 C :   -0.024473
  33 C :   -0.115537
  34 S :    0.131806
  35 C :   -0.105945
  36 N :   -0.024856
  37 N :   -0.042055
  38 C :    0.117943
  39 C :   -0.026447
  40 C :    0.019250
  41 C :    0.008216
  42 C :    0.038531
  43 O :   -0.115467
  44 S :    0.044599
  45 C :    0.042551
  46 O :   -0.128400
  47 C :    0.032898
  48 C :    0.085031
  49 C :   -0.056502
  50 C :   -0.074775
  51 C :    0.240146
  52 O :   -0.084966
  53 O :   -0.209153
  54 C :    0.269247
  55 O :   -0.116295
  56 C :   -0.039135
  57 C :    0.016302
  58 C :    0.021741
  59 C :   -0.099643
  60 C :    0.147627
  61 O :   -0.120921
  62 C :   -0.010321
  63 C :    0.029163
  64 C :    0.257815
  65 C :   -0.303586
  66 C :   -0.190581
  67 N :    0.156092
  68 C :   -0.181551
  69 N :    0.173323
  70 C :   -0.006439
  71 C :   -0.023724
  72 C :   -0.016989
  73 C :   -0.017887
  74 Br:    0.021786
  75 Br:    0.029252
  76 H :    0.010147
  77 H :    0.006310
  78 H :   -0.009496
  79 H :    0.015274
  80 H :    0.020786
  81 H :   -0.000143
  82 H :    0.063060
  83 H :    0.024307
  84 H :    0.051307
  85 H :    0.028784
  86 H :    0.014615
  87 H :    0.011137
Sum of atomic charges:   -0.0000000

LOEWDIN ATOMIC CHARGES
----------------------
   0 C :    0.086105
   1 O :   -0.169152
   2 C :   -0.043124
   3 C :   -0.010369
   4 C :   -0.005145
   5 C :   -0.117485
   6 C :   -0.122557
   7 C :    0.007057
   8 Br:    0.142486
   9 Br:    0.147795
  10 C :    0.073996
  11 C :   -0.130886
  12 C :   -0.020504
  13 N :   -0.038064
  14 C :   -0.017949
  15 N :   -0.042277
  16 C :   -0.105626
  17 C :    0.053407
  18 C :   -0.186672
  19 S :    0.579238
  20 C :   -0.183870
  21 C :   -0.036956
  22 C :   -0.011556
  23 C :    0.007250
  24 C :   -0.046927
  25 C :    0.167654
  26 F :   -0.044473
  27 F :   -0.052469
  28 F :   -0.052648
  29 C :   -0.053539
  30 C :   -0.040312
  31 N :   -0.030429
  32 C :    0.045885
  33 C :   -0.164757
  34 S :    0.409558
  35 C :   -0.136065
  36 N :   -0.059486
  37 N :   -0.055275
  38 C :   -0.016123
  39 C :    0.013705
  40 C :    0.025950
  41 C :   -0.050879
  42 C :   -0.048344
  43 O :   -0.104958
  44 S :    0.326892
  45 C :   -0.042168
  46 O :   -0.107586
  47 C :   -0.044697
  48 C :    0.032672
  49 C :   -0.031672
  50 C :   -0.036948
  51 C :    0.106840
  52 O :   -0.079133
  53 O :   -0.036625
  54 C :    0.122926
  55 O :   -0.095702
  56 C :   -0.004264
  57 C :    0.007878
  58 C :    0.066332
  59 C :   -0.069762
  60 C :    0.083881
  61 O :   -0.122222
  62 C :   -0.045220
  63 C :   -0.009085
  64 C :    0.067317
  65 C :   -0.114159
  66 C :   -0.011583
  67 N :   -0.054382
  68 C :   -0.018680
  69 N :   -0.030628
  70 C :   -0.006657
  71 C :   -0.116484
  72 C :   -0.122255
  73 C :    0.009045
  74 Br:    0.143760
  75 Br:    0.148584
  76 H :    0.045688
  77 H :    0.046295
  78 H :    0.049421
  79 H :    0.041586
  80 H :    0.046509
  81 H :    0.032444
  82 H :    0.050446
  83 H :    0.037415
  84 H :    0.028503
  85 H :    0.050215
  86 H :    0.046150
  87 H :    0.047905

  Mayer bond orders larger than 0.100000
B(  0-C ,  1-O ) :   2.1105 B(  0-C ,  2-C ) :   0.9652 B(  0-C , 16-C ) :   0.9861
B(  2-C ,  3-C ) :   1.3266 B(  2-C ,  7-C ) :   1.3679 B(  3-C ,  4-C ) :   1.3744
B(  3-C , 10-C ) :   0.9883 B(  4-C ,  5-C ) :   1.3639 B(  4-C , 76-H ) :   0.9778
B(  5-C ,  6-C ) :   1.4223 B(  5-C ,  9-Br) :   1.0624 B(  6-C ,  7-C ) :   1.3502
B(  6-C ,  8-Br) :   1.0365 B(  7-C , 77-H ) :   1.0084 B( 10-C , 11-C ) :   1.6398
B( 10-C , 16-C ) :   1.0784 B( 11-C , 12-C ) :   1.1399 B( 11-C , 14-C ) :   1.1446
B( 12-C , 13-N ) :   2.9702 B( 14-C , 15-N ) :   2.9769 B( 16-C , 17-C ) :   1.5082
B( 17-C , 18-C ) :   1.2965 B( 17-C , 78-H ) :   0.9291 B( 18-C , 19-S ) :   1.1158
B( 18-C , 20-C ) :   0.1041 B( 18-C , 22-C ) :   1.2358 B( 19-S , 20-C ) :   1.1927
B( 20-C , 21-C ) :   1.2731 B( 20-C , 33-C ) :   1.1246 B( 21-C , 22-C ) :   1.2379
B( 21-C , 32-C ) :   1.2369 B( 22-C , 23-C ) :   1.2103 B( 23-C , 24-C ) :   1.5462
B( 23-C , 79-H ) :   0.9794 B( 24-C , 25-C ) :   0.9338 B( 24-C , 29-C ) :   1.2387
B( 25-C , 26-F ) :   1.1746 B( 25-C , 27-F ) :   1.1626 B( 25-C , 28-F ) :   1.1623
B( 29-C , 30-C ) :   1.0639 B( 29-C , 32-C ) :   1.4923 B( 30-C , 31-N ) :   3.0477
B( 32-C , 80-H ) :   0.9866 B( 33-C , 34-S ) :   1.1094 B( 33-C , 37-N ) :   1.6546
B( 34-S , 35-C ) :   1.0949 B( 35-C , 36-N ) :   1.6701 B( 35-C , 38-C ) :   1.1198
B( 36-N , 37-N ) :   1.2523 B( 38-C , 39-C ) :   1.7728 B( 38-C , 81-H ) :   0.9399
B( 39-C , 40-C ) :   1.0663 B( 39-C , 82-H ) :   0.9351 B( 40-C , 41-C ) :   1.3749
B( 40-C , 50-C ) :   1.3443 B( 41-C , 42-C ) :   0.8371 B( 41-C , 47-C ) :   1.3286
B( 42-C , 43-O ) :   2.1903 B( 42-C , 44-S ) :   1.0320 B( 43-O , 44-S ) :   0.1075
B( 44-S , 45-C ) :   1.0394 B( 44-S , 46-O ) :   0.1025 B( 45-C , 46-O ) :   2.1338
B( 45-C , 47-C ) :   0.8476 B( 47-C , 48-C ) :   1.3530 B( 48-C , 49-C ) :   1.2788
B( 48-C , 56-C ) :   1.1280 B( 49-C , 50-C ) :   1.3860 B( 49-C , 54-C ) :   0.8996
B( 50-C , 51-C ) :   0.9055 B( 51-C , 52-O ) :   2.2505 B( 51-C , 53-O ) :   1.0497
B( 53-O , 54-C ) :   1.0877 B( 54-C , 55-O ) :   2.1415 B( 56-C , 57-C ) :   1.6813
B( 56-C , 83-H ) :   0.9623 B( 57-C , 58-C ) :   1.0817 B( 57-C , 84-H ) :   0.9211
B( 58-C , 59-C ) :   1.6782 B( 58-C , 85-H ) :   0.9642 B( 59-C , 60-C ) :   0.9248
B( 59-C , 64-C ) :   1.0218 B( 60-C , 61-O ) :   2.2928 B( 60-C , 62-C ) :   0.9223
B( 62-C , 63-C ) :   1.3212 B( 62-C , 73-C ) :   1.3726 B( 63-C , 64-C ) :   1.0085
B( 63-C , 70-C ) :   1.3694 B( 64-C , 65-C ) :   1.6798 B( 65-C , 66-C ) :   1.1657
B( 65-C , 68-C ) :   1.1291 B( 66-C , 67-N ) :   2.9763 B( 68-C , 69-N ) :   2.9936
B( 70-C , 71-C ) :   1.3720 B( 70-C , 86-H ) :   0.9818 B( 71-C , 72-C ) :   1.4132
B( 71-C , 75-Br) :   1.0577 B( 72-C , 73-C ) :   1.3610 B( 72-C , 74-Br) :   1.0387
B( 73-C , 87-H ) :   1.0067

-----------------------------------------------------------------------------
         ABSORPTION SPECTRUM VIA TRANSITION ELECTRIC DIPOLE MOMENTS
-----------------------------------------------------------------------------
State   Energy  Wavelength   fosc         T2         TX        TY        TZ
        (cm-1)    (nm)                  (au**2)     (au)      (au)      (au)
-----------------------------------------------------------------------------
   0   17489.7    571.8   1.574915839  29.64486  -1.03929   4.80076   2.34893
   1   21321.0    469.0   0.053126386   0.82031   0.80792   0.03791   0.40759
   2   23456.9    426.3   0.412522178   5.78964  -0.25126  -2.38030  -0.24632
   3   24678.7    405.2   0.025056666   0.33425  -0.15318   0.50706   0.23169
   4   25144.9    397.7   0.034606298   0.45309  -0.47503  -0.41872   0.22828
   5   26131.7    382.7   0.114388976   1.44109  -0.64021   1.01008   0.10474
   6   26358.2    379.4   0.097755110   1.22095   0.82721  -0.73259   0.00154
   7   27138.9    368.5   0.159451932   1.93425  -0.23691  -1.36717  -0.09475
   8   27437.6    364.5   0.139219748   1.67044   0.82233  -0.98591   0.14897
   9   27543.2    363.1   0.061965627   0.74065   0.58172   0.62467   0.10968
  10   27786.8    359.9   0.014629616   0.17333   0.27366   0.31335   0.01585
  11   28048.6    356.5   0.259985285   3.05150  -1.58511  -0.56616  -0.46731
  12   28941.6    345.5   0.029711615   0.33797  -0.17798  -0.54564   0.09261
  13   29379.9    340.4   0.013737847   0.15394   0.24784   0.30129  -0.04172
  14   30649.8    326.3   0.034166963   0.36699   0.50299   0.33651  -0.02748
  15   30859.6    324.0   0.183423794   1.95677   0.67900   1.21310   0.15531
  16   31171.7    320.8   0.253907864   2.68159  -1.33849   0.90827   0.25510
  17   31725.2    315.2   0.121684673   1.26272  -1.02648   0.39855   0.22409
  18   31746.3    315.0   0.096254349   0.99817   0.99845   0.00066   0.03554
  19   32136.0    311.2   0.009014474   0.09235   0.09244   0.22733   0.17923
  20   32456.0    308.1   0.036797232   0.37325  -0.14442  -0.59297  -0.02789
  21   32755.5    305.3   0.110063756   1.10621   0.16437   1.03884  -0.00192
  22   32848.9    304.4   0.022029043   0.22078  -0.34081  -0.32304  -0.01647
  23   33072.1    302.4   0.000346791   0.00345  -0.03419  -0.00427  -0.04759
  24   33221.1    301.0   0.039797957   0.39439  -0.08366  -0.45725  -0.42227
  25   33798.0    295.9   0.002799202   0.02727  -0.15554  -0.05536  -0.00296
  26   33879.8    295.2   0.478961436   4.65410   2.00398   0.55182   0.57762
  27   34216.1    292.3   0.105823696   1.01819  -0.65593  -0.71068  -0.28788
  28   34365.6    291.0   0.022178445   0.21246   0.08064   0.43692   0.12271
  29   34772.6    287.6   0.192504397   1.82255  -0.60124  -1.20603  -0.08089
  30   35082.0    285.0   0.283931221   2.66443  -0.96983  -1.19451  -0.54497
  31   35423.8    282.3   0.097448962   0.90564  -0.63569  -0.70696   0.04184
  32   35631.2    280.7   0.025519965   0.23579   0.09185   0.43115  -0.20364
  33   35708.1    280.0   0.018227370   0.16805  -0.27048  -0.30769   0.01485
  34   36040.2    277.5   0.009310455   0.08505   0.04127  -0.28857  -0.00849
  35   36237.6    276.0   0.000120273   0.00109  -0.00054  -0.03166   0.00947
  36   36391.0    274.8   0.173069201   1.56567  -0.78706  -0.93748  -0.25951
  37   36616.0    273.1   0.106181761   0.95467  -0.43485  -0.87216  -0.07008
  38   36660.7    272.8   0.067439791   0.60561  -0.44944  -0.62546  -0.11142
  39   36700.3    272.5   0.074239422   0.66595  -0.33613   0.66730   0.32814
  40   37040.5    270.0   0.076654584   0.68130  -0.54060   0.43760  -0.44447
  41   37332.1    267.9   0.008432023   0.07436   0.20447  -0.14221   0.11102
  42   37740.4    265.0   0.136712403   1.19255   0.92724  -0.52627  -0.23626
  43   38048.5    262.8   0.042233690   0.36542  -0.52405   0.04565  -0.29785
  44   38169.3    262.0   0.067389452   0.58124   0.59586   0.03235   0.47449
  45   38311.1    261.0   0.050075065   0.43030   0.61046  -0.22295  -0.08908
  46   38525.9    259.6   0.042282261   0.36131   0.55756  -0.16239  -0.15512
  47   38720.2    258.3   0.019492610   0.16573  -0.03366  -0.40557   0.01053
  48   38893.5    257.1   0.093574750   0.79206   0.36384   0.65035   0.48654
  49   39587.3    252.6   0.028500812   0.23702  -0.34147  -0.28584  -0.19675
  50   39664.0    252.1   0.000587377   0.00488   0.00933   0.01663  -0.06717
  51   39763.6    251.5   0.008738620   0.07235  -0.13178   0.11593   0.20382
  52   39858.7    250.9   0.000042154   0.00035  -0.00680   0.00766   0.01559
  53   39899.8    250.6   0.001195847   0.00987   0.02544  -0.09048  -0.03214
  54   40255.2    248.4   0.053104543   0.43430  -0.64688   0.01930  -0.12437

FINAL SINGLE POINT ENERGY    -14684.204062663155

DIPOLE MOMENT
-------------
                                X             Y             Z
Electronic contribution:    -81.15892     -54.69074      39.19623
Nuclear contribution   :     76.17832      52.92692     -39.83991
                        -----------------------------------------
Total Dipole Moment    :     -4.98060      -1.76382      -0.64368
                        -----------------------------------------
Magnitude (a.u.)       :      5.32276
Magnitude (Debye)      :     13.52937

Rotational constants in cm-1:     0.000995     0.000132     0.000121
Rotational constants in MHz :    29.820831     3.952408     3.618590

                             ****ORCA TERMINATED NORMALLY****
TOTAL RUN TIME: 0 days 0 hours 9 minutes 43 seconds 696 msec
