                         Program Version 4.2.0 -  RELEASE  -
|  1> # ORCA input file
|  2> # SCF done       -185.486928259102          0.000787320840
|  3> ! CAM-B3LYP def2-SVP def2/J RIJCOSX Grid4 TightSCF
|  4> %maxcore 5000
|  5> %tddft
|  6>     Mode sTDDFT
|  7>     Ethresh 5.0
|  8>     maxcore 5000
|  9> end
| 10>
| 11> %pal
| 12>   nprocs 6
| 13>   end
| 14> * xyz 0 1
| 15>    C        3.19795         3.18048         1.48272
| 16>    C        2.90696         4.31625         2.19429
| 17>    C        3.87476         5.23444         2.64646
| 18>    N        4.61563         6.03367         3.00752
| 19>    C        1.60555         4.65277         2.61597
| 20>    N        0.56418         4.93822         3.00774
| 21>    C        4.52873         2.61710         1.29595
| 22>    C        4.39205         1.23032         0.99163
| 23>    C        5.48115         0.42673         0.81530
| 24>    C        6.77528         0.98392         0.92901
| 25>    C        6.91698         2.37231         1.21805
| 26>    C        5.77163         3.18049         1.40107
| 27>    C        8.21347         2.91517         1.32560
| 28>    C        9.31878         2.12574         1.16042
| 29>    C        9.17864         0.75892         0.87718
| 30>    C        7.93429         0.20035         0.76393
| 31>    C        2.96020         0.88437         0.91081
| 32>    O        2.46220        -0.20036         0.72146
| 33>    C        2.24179         2.18496         1.04552
| 34>    C        0.93993         2.28767         0.67071
| 35>    C        0.21227         3.45314         0.32910
| 36>    S        0.95035         4.92146        -0.25473
| 37>    C       -0.58152         5.69741        -0.45535
| 38>    C       -1.61923         4.85077        -0.07696
| 39>    C       -1.17313         3.57211         0.34002
| 40>    O       -1.96190         2.57393         0.74809
| 41>    C       -2.96738         5.22651         0.04953
| 42>    N       -4.06876         5.46342         0.26461
| 43>    C       -0.76125         6.99522        -1.00906
| 44>    N        0.09557         8.06020        -0.89599
| 45>    C        1.29802         8.13360        -0.10042
| 46>    C        0.99872         8.14444         1.39534
| 47>    C       -0.41805         9.20956        -1.54498
| 48>    O        0.15349        10.27624        -1.56529
| 49>    C       -1.66214         8.75841        -2.12502
| 50>    C       -1.84621         7.39844        -1.77729
| 51>    C       -3.02587         6.92450        -2.47038
| 52>    O       -3.51150         5.82106        -2.58448
| 53>    N       -3.53265         8.07095        -3.12120
| 54>    C       -4.75706         7.96846        -3.87833
| 55>    C       -5.97515         8.28863        -3.01504
| 56>    C       -2.72407         9.16415        -2.92958
| 57>    C       -2.84258        10.48270        -3.44923
| 58>    C       -3.91560        11.09508        -3.99929
| 59>    C       -3.87869        12.42483        -4.50029
| 60>    S       -2.42037        13.39574        -4.64655
| 61>    C       -3.47799        14.63360        -5.31984
| 62>    N       -4.72617        14.25205        -5.36651
| 63>    N       -4.94355        13.05072        -4.92908
| 64>    C       -3.02513        15.89703        -5.78088
| 65>    C       -1.71990        16.25235        -5.84948
| 66>    C       -1.31139        17.51546        -6.34950
| 67>    C       -0.01415        17.89290        -6.52702
| 68>    C        0.46230        19.16465        -7.04819
| 69>    C       -0.29374        20.27228        -7.32874
| 70>    C        0.23353        21.48532        -7.82182
| 71>    N        0.59477        22.49834        -8.22278
| 72>    C       -1.69000        20.38244        -7.15678
| 73>    N       -2.81926        20.55723        -7.04306
| 74>    C        1.90991        19.07001        -7.19622
| 75>    C        2.33566        17.79449        -6.72704
| 76>    C        1.16919        17.02064        -6.27431
| 77>    O        1.17926        15.90166        -5.80822
| 78>    C        3.64828        17.41875        -6.74346
| 79>    C        4.61548        18.31688        -7.24590
| 80>    C        4.19828        19.59360        -7.72238
| 81>    C        2.83258        19.95622        -7.68807
| 82>    C        5.17098        20.48034        -8.22794
| 83>    C        6.49174        20.12457        -8.26245
| 84>    C        6.90121        18.86748        -7.79260
| 85>    C        5.98328        17.98314        -7.29442
| 86>    H        5.35861        -0.62335         0.59527
| 87>    H        5.90413         4.23053         1.61165
| 88>    H        8.31591         3.96737         1.54720
| 89>    H       10.30765         2.55022         1.24810
| 90>    H       10.06149         0.15068         0.74942
| 91>    H        7.82073        -0.85154         0.54627
| 92>    H        0.39560         1.35523         0.55565
| 93>    H       -2.89206         2.84148         0.72620
| 94>    H        1.78140         9.07185        -0.38781
| 95>    H        1.96204         7.30338        -0.35855
| 96>    H        0.37436         8.99877         1.64489
| 97>    H        1.92852         8.21838         1.95244
| 98>    H        0.48439         7.23730         1.70575
| 99>    H       -4.82087         6.92773        -4.21088
|100>    H       -4.69716         8.61625        -4.75522
|101>    H       -6.03967         7.57350        -2.19866
|102>    H       -6.87959         8.21853        -3.61266
|103>    H       -5.90883         9.28818        -2.59098
|104>    H       -1.92806        11.05450        -3.33289
|105>    H       -4.88700        10.63208        -4.07006
|106>    H       -3.80567        16.57177        -6.10756
|107>    H       -0.95105        15.56015        -5.53412
|108>    H       -2.10390        18.20168        -6.61966
|109>    H        3.94307        16.44558        -6.37973
|110>    H        2.55081        20.92862        -8.05920
|111>    H        4.85113        21.44717        -8.58787
|112>    H        7.22897        20.81021        -8.65236
|113>    H        7.94755        18.60344        -7.82777
|114>    H        6.29228        17.01393        -6.93123
|115> *
|116>
|117>                          ****END OF INPUT****

CARTESIAN COORDINATES (ANGSTROEM)
---------------------------------
  C      3.197950    3.180480    1.482720
  C      2.906960    4.316250    2.194290
  C      3.874760    5.234440    2.646460
  N      4.615630    6.033670    3.007520
  C      1.605550    4.652770    2.615970
  N      0.564180    4.938220    3.007740
  C      4.528730    2.617100    1.295950
  C      4.392050    1.230320    0.991630
  C      5.481150    0.426730    0.815300
  C      6.775280    0.983920    0.929010
  C      6.916980    2.372310    1.218050
  C      5.771630    3.180490    1.401070
  C      8.213470    2.915170    1.325600
  C      9.318780    2.125740    1.160420
  C      9.178640    0.758920    0.877180
  C      7.934290    0.200350    0.763930
  C      2.960200    0.884370    0.910810
  O      2.462200   -0.200360    0.721460
  C      2.241790    2.184960    1.045520
  C      0.939930    2.287670    0.670710
  C      0.212270    3.453140    0.329100
  S      0.950350    4.921460   -0.254730
  C     -0.581520    5.697410   -0.455350
  C     -1.619230    4.850770   -0.076960
  C     -1.173130    3.572110    0.340020
  O     -1.961900    2.573930    0.748090
  C     -2.967380    5.226510    0.049530
  N     -4.068760    5.463420    0.264610
  C     -0.761250    6.995220   -1.009060
  N      0.095570    8.060200   -0.895990
  C      1.298020    8.133600   -0.100420
  C      0.998720    8.144440    1.395340
  C     -0.418050    9.209560   -1.544980
  O      0.153490   10.276240   -1.565290
  C     -1.662140    8.758410   -2.125020
  C     -1.846210    7.398440   -1.777290
  C     -3.025870    6.924500   -2.470380
  O     -3.511500    5.821060   -2.584480
  N     -3.532650    8.070950   -3.121200
  C     -4.757060    7.968460   -3.878330
  C     -5.975150    8.288630   -3.015040
  C     -2.724070    9.164150   -2.929580
  C     -2.842580   10.482700   -3.449230
  C     -3.915600   11.095080   -3.999290
  C     -3.878690   12.424830   -4.500290
  S     -2.420370   13.395740   -4.646550
  C     -3.477990   14.633600   -5.319840
  N     -4.726170   14.252050   -5.366510
  N     -4.943550   13.050720   -4.929080
  C     -3.025130   15.897030   -5.780880
  C     -1.719900   16.252350   -5.849480
  C     -1.311390   17.515460   -6.349500
  C     -0.014150   17.892900   -6.527020
  C      0.462300   19.164650   -7.048190
  C     -0.293740   20.272280   -7.328740
  C      0.233530   21.485320   -7.821820
  N      0.594770   22.498340   -8.222780
  C     -1.690000   20.382440   -7.156780
  N     -2.819260   20.557230   -7.043060
  C      1.909910   19.070010   -7.196220
  C      2.335660   17.794490   -6.727040
  C      1.169190   17.020640   -6.274310
  O      1.179260   15.901660   -5.808220
  C      3.648280   17.418750   -6.743460
  C      4.615480   18.316880   -7.245900
  C      4.198280   19.593600   -7.722380
  C      2.832580   19.956220   -7.688070
  C      5.170980   20.480340   -8.227940
  C      6.491740   20.124570   -8.262450
  C      6.901210   18.867480   -7.792600
  C      5.983280   17.983140   -7.294420
  H      5.358610   -0.623350    0.595270
  H      5.904130    4.230530    1.611650
  H      8.315910    3.967370    1.547200
  H     10.307650    2.550220    1.248100
  H     10.061490    0.150680    0.749420
  H      7.820730   -0.851540    0.546270
  H      0.395600    1.355230    0.555650
  H     -2.892060    2.841480    0.726200
  H      1.781400    9.071850   -0.387810
  H      1.962040    7.303380   -0.358550
  H      0.374360    8.998770    1.644890
  H      1.928520    8.218380    1.952440
  H      0.484390    7.237300    1.705750
  H     -4.820870    6.927730   -4.210880
  H     -4.697160    8.616250   -4.755220
  H     -6.039670    7.573500   -2.198660
  H     -6.879590    8.218530   -3.612660
  H     -5.908830    9.288180   -2.590980
  H     -1.928060   11.054500   -3.332890
  H     -4.887000   10.632080   -4.070060
  H     -3.805670   16.571770   -6.107560
  H     -0.951050   15.560150   -5.534120
  H     -2.103900   18.201680   -6.619660
  H      3.943070   16.445580   -6.379730
  H      2.550810   20.928620   -8.059200
  H      4.851130   21.447170   -8.587870
  H      7.228970   20.810210   -8.652360
  H      7.947550   18.603440   -7.827770
  H      6.292280   17.013930   -6.931230

 Total Charge           Charge          ....    0
 Multiplicity           Mult            ....    1
 Number of Electrons    NEL             ....  494
 Basis Dimension        Dim             .... 1147

ORBITAL ENERGIES
----------------

  NO   OCC          E(Eh)            E(eV)
   0   2.0000     -88.994237     -2421.6563
   1   2.0000     -88.984529     -2421.3921
   2   2.0000     -19.287654      -524.8437
   3   2.0000     -19.223290      -523.0923
   4   2.0000     -19.216257      -522.9009
   5   2.0000     -19.206098      -522.6245
   6   2.0000     -19.200481      -522.4716
   7   2.0000     -14.467433      -393.6789
   8   2.0000     -14.466185      -393.6449
   9   2.0000     -14.450768      -393.2254
  10   2.0000     -14.450027      -393.2052
  11   2.0000     -14.421435      -392.4272
  12   2.0000     -14.421171      -392.4200
  13   2.0000     -14.420194      -392.3934
  14   2.0000     -14.419936      -392.3864
  15   2.0000     -14.419138      -392.3647
  16   2.0000     -10.388118      -282.6751
  17   2.0000     -10.385630      -282.6074
  18   2.0000     -10.383401      -282.5467
  19   2.0000     -10.373864      -282.2872
  20   2.0000     -10.368277      -282.1352
  21   2.0000     -10.362020      -281.9649
  22   2.0000     -10.358150      -281.8596
  23   2.0000     -10.356856      -281.8244
  24   2.0000     -10.355603      -281.7903
  25   2.0000     -10.353921      -281.7445
  26   2.0000     -10.348142      -281.5873
  27   2.0000     -10.347437      -281.5681
  28   2.0000     -10.346339      -281.5382
  29   2.0000     -10.345710      -281.5211
  30   2.0000     -10.335419      -281.2410
  31   2.0000     -10.327725      -281.0317
  32   2.0000     -10.327240      -281.0185
  33   2.0000     -10.324006      -280.9305
  34   2.0000     -10.323442      -280.9151
  35   2.0000     -10.322893      -280.9002
  36   2.0000     -10.321881      -280.8727
  37   2.0000     -10.321640      -280.8661
  38   2.0000     -10.320284      -280.8292
  39   2.0000     -10.317724      -280.7596
  40   2.0000     -10.316351      -280.7222
  41   2.0000     -10.315318      -280.6941
  42   2.0000     -10.315232      -280.6917
  43   2.0000     -10.312493      -280.6172
  44   2.0000     -10.307748      -280.4881
  45   2.0000     -10.307387      -280.4782
  46   2.0000     -10.307127      -280.4712
  47   2.0000     -10.301857      -280.3278
  48   2.0000     -10.301634      -280.3217
  49   2.0000     -10.301496      -280.3180
  50   2.0000     -10.301187      -280.3095
  51   2.0000     -10.301151      -280.3086
  52   2.0000     -10.301077      -280.3065
  53   2.0000     -10.300905      -280.3019
  54   2.0000     -10.300776      -280.2984
  55   2.0000     -10.300637      -280.2946
  56   2.0000     -10.299970      -280.2764
  57   2.0000     -10.292872      -280.0833
  58   2.0000     -10.292525      -280.0738
  59   2.0000     -10.290366      -280.0151
  60   2.0000     -10.289841      -280.0008
  61   2.0000     -10.289521      -279.9921
  62   2.0000     -10.289421      -279.9894
  63   2.0000     -10.289040      -279.9790
  64   2.0000     -10.289036      -279.9789
  65   2.0000     -10.288809      -279.9727
  66   2.0000     -10.288435      -279.9625
  67   2.0000     -10.283093      -279.8172
  68   2.0000     -10.277142      -279.6552
  69   2.0000     -10.266435      -279.3639
  70   2.0000     -10.259283      -279.1693
  71   2.0000      -8.088366      -220.0956
  72   2.0000      -8.080337      -219.8771
  73   2.0000      -6.057889      -164.8435
  74   2.0000      -6.053629      -164.7276
  75   2.0000      -6.050228      -164.6351
  76   2.0000      -6.048957      -164.6005
  77   2.0000      -6.045702      -164.5119
  78   2.0000      -6.042700      -164.4302
  79   2.0000      -1.186511       -32.2866
  80   2.0000      -1.155454       -31.4415
  81   2.0000      -1.147314       -31.2200
  82   2.0000      -1.139310       -31.0022
  83   2.0000      -1.138217       -30.9725
  84   2.0000      -1.131819       -30.7984
  85   2.0000      -1.078402       -29.3448
  86   2.0000      -1.069935       -29.1144
  87   2.0000      -1.027594       -27.9623
  88   2.0000      -1.022871       -27.8337
  89   2.0000      -1.019234       -27.7348
  90   2.0000      -1.003082       -27.2953
  91   2.0000      -1.002449       -27.2780
  92   2.0000      -1.000900       -27.2359
  93   2.0000      -0.998257       -27.1640
  94   2.0000      -0.997210       -27.1355
  95   2.0000      -0.976314       -26.5669
  96   2.0000      -0.975189       -26.5363
  97   2.0000      -0.962076       -26.1794
  98   2.0000      -0.949166       -25.8281
  99   2.0000      -0.942002       -25.6332
 100   2.0000      -0.931586       -25.3498
 101   2.0000      -0.929209       -25.2851
 102   2.0000      -0.918291       -24.9880
 103   2.0000      -0.913844       -24.8669
 104   2.0000      -0.900670       -24.5085
 105   2.0000      -0.892828       -24.2951
 106   2.0000      -0.890023       -24.2188
 107   2.0000      -0.884703       -24.0740
 108   2.0000      -0.884643       -24.0723
 109   2.0000      -0.879761       -23.9395
 110   2.0000      -0.875181       -23.8149
 111   2.0000      -0.858538       -23.3620
 112   2.0000      -0.851439       -23.1688
 113   2.0000      -0.832380       -22.6502
 114   2.0000      -0.831656       -22.6305
 115   2.0000      -0.827085       -22.5061
 116   2.0000      -0.826065       -22.4784
 117   2.0000      -0.811504       -22.0822
 118   2.0000      -0.799534       -21.7564
 119   2.0000      -0.787719       -21.4349
 120   2.0000      -0.766650       -20.8616
 121   2.0000      -0.766611       -20.8606
 122   2.0000      -0.764499       -20.8031
 123   2.0000      -0.755488       -20.5579
 124   2.0000      -0.731065       -19.8933
 125   2.0000      -0.726677       -19.7739
 126   2.0000      -0.723635       -19.6911
 127   2.0000      -0.715623       -19.4731
 128   2.0000      -0.708829       -19.2882
 129   2.0000      -0.708355       -19.2753
 130   2.0000      -0.703884       -19.1537
 131   2.0000      -0.702697       -19.1214
 132   2.0000      -0.701109       -19.0781
 133   2.0000      -0.694361       -18.8945
 134   2.0000      -0.688286       -18.7292
 135   2.0000      -0.681851       -18.5541
 136   2.0000      -0.680740       -18.5239
 137   2.0000      -0.667314       -18.1585
 138   2.0000      -0.663981       -18.0678
 139   2.0000      -0.662837       -18.0367
 140   2.0000      -0.658536       -17.9197
 141   2.0000      -0.642979       -17.4963
 142   2.0000      -0.636542       -17.3212
 143   2.0000      -0.628492       -17.1021
 144   2.0000      -0.616756       -16.7828
 145   2.0000      -0.614813       -16.7299
 146   2.0000      -0.610929       -16.6242
 147   2.0000      -0.610786       -16.6203
 148   2.0000      -0.603592       -16.4246
 149   2.0000      -0.602370       -16.3913
 150   2.0000      -0.595449       -16.2030
 151   2.0000      -0.592201       -16.1146
 152   2.0000      -0.590109       -16.0577
 153   2.0000      -0.587887       -15.9972
 154   2.0000      -0.573161       -15.5965
 155   2.0000      -0.566765       -15.4225
 156   2.0000      -0.561343       -15.2749
 157   2.0000      -0.559391       -15.2218
 158   2.0000      -0.555655       -15.1201
 159   2.0000      -0.554151       -15.0792
 160   2.0000      -0.551999       -15.0206
 161   2.0000      -0.550902       -14.9908
 162   2.0000      -0.549440       -14.9510
 163   2.0000      -0.548267       -14.9191
 164   2.0000      -0.544064       -14.8047
 165   2.0000      -0.543883       -14.7998
 166   2.0000      -0.542036       -14.7496
 167   2.0000      -0.541649       -14.7390
 168   2.0000      -0.537782       -14.6338
 169   2.0000      -0.531390       -14.4599
 170   2.0000      -0.530569       -14.4375
 171   2.0000      -0.526300       -14.3213
 172   2.0000      -0.523393       -14.2423
 173   2.0000      -0.521625       -14.1941
 174   2.0000      -0.520302       -14.1581
 175   2.0000      -0.517945       -14.0940
 176   2.0000      -0.516638       -14.0584
 177   2.0000      -0.514307       -13.9950
 178   2.0000      -0.513466       -13.9721
 179   2.0000      -0.511723       -13.9247
 180   2.0000      -0.508165       -13.8279
 181   2.0000      -0.507398       -13.8070
 182   2.0000      -0.505021       -13.7423
 183   2.0000      -0.501495       -13.6464
 184   2.0000      -0.496251       -13.5037
 185   2.0000      -0.492745       -13.4083
 186   2.0000      -0.491176       -13.3656
 187   2.0000      -0.488241       -13.2857
 188   2.0000      -0.485352       -13.2071
 189   2.0000      -0.483550       -13.1581
 190   2.0000      -0.481937       -13.1142
 191   2.0000      -0.478297       -13.0151
 192   2.0000      -0.473998       -12.8982
 193   2.0000      -0.471405       -12.8276
 194   2.0000      -0.470227       -12.7955
 195   2.0000      -0.467511       -12.7216
 196   2.0000      -0.466606       -12.6970
 197   2.0000      -0.463892       -12.6231
 198   2.0000      -0.459998       -12.5172
 199   2.0000      -0.457679       -12.4541
 200   2.0000      -0.456368       -12.4184
 201   2.0000      -0.454203       -12.3595
 202   2.0000      -0.453064       -12.3285
 203   2.0000      -0.450150       -12.2492
 204   2.0000      -0.448642       -12.2082
 205   2.0000      -0.448528       -12.2051
 206   2.0000      -0.447446       -12.1756
 207   2.0000      -0.444223       -12.0879
 208   2.0000      -0.443433       -12.0664
 209   2.0000      -0.441699       -12.0192
 210   2.0000      -0.439034       -11.9467
 211   2.0000      -0.437850       -11.9145
 212   2.0000      -0.437043       -11.8925
 213   2.0000      -0.433925       -11.8077
 214   2.0000      -0.433372       -11.7927
 215   2.0000      -0.432368       -11.7653
 216   2.0000      -0.430648       -11.7185
 217   2.0000      -0.429810       -11.6957
 218   2.0000      -0.424805       -11.5595
 219   2.0000      -0.423975       -11.5369
 220   2.0000      -0.420334       -11.4379
 221   2.0000      -0.417214       -11.3530
 222   2.0000      -0.412256       -11.2180
 223   2.0000      -0.410770       -11.1776
 224   2.0000      -0.409524       -11.1437
 225   2.0000      -0.400482       -10.8977
 226   2.0000      -0.399986       -10.8842
 227   2.0000      -0.393779       -10.7153
 228   2.0000      -0.382370       -10.4048
 229   2.0000      -0.380906       -10.3650
 230   2.0000      -0.371117       -10.0986
 231   2.0000      -0.364772        -9.9260
 232   2.0000      -0.359131        -9.7724
 233   2.0000      -0.345526        -9.4022
 234   2.0000      -0.343712        -9.3529
 235   2.0000      -0.341898        -9.3035
 236   2.0000      -0.338245        -9.2041
 237   2.0000      -0.334857        -9.1119
 238   2.0000      -0.331971        -9.0334
 239   2.0000      -0.328514        -8.9393
 240   2.0000      -0.321697        -8.7538
 241   2.0000      -0.319678        -8.6989
 242   2.0000      -0.305135        -8.3031
 243   2.0000      -0.302544        -8.2327
 244   2.0000      -0.296047        -8.0559
 245   2.0000      -0.292565        -7.9611
 246   2.0000      -0.255480        -6.9520
 247   0.0000      -0.120411        -3.2765
 248   0.0000      -0.103878        -2.8267
 249   0.0000      -0.081535        -2.2187
 250   0.0000      -0.063728        -1.7341
 251   0.0000      -0.057012        -1.5514

MULLIKEN ATOMIC CHARGES
-----------------------
   0 C :    0.252247
   1 C :   -0.343500
   2 C :   -0.169028
   3 N :    0.147958
   4 C :   -0.167329
   5 N :    0.151773
   6 C :    0.039021
   7 C :    0.006326
   8 C :   -0.078371
   9 C :    0.092801
  10 C :    0.094381
  11 C :   -0.079230
  12 C :   -0.016985
  13 C :    0.036063
  14 C :    0.035240
  15 C :   -0.014881
  16 C :    0.141398
  17 O :   -0.136736
  18 C :   -0.133710
  19 C :    0.066352
  20 C :   -0.207513
  21 S :    0.179889
  22 C :   -0.095341
  23 C :    0.014634
  24 C :    0.187696
  25 O :   -0.138112
  26 C :   -0.294426
  27 N :    0.181167
  28 C :    0.095388
  29 N :   -0.258508
  30 C :    0.085157
  31 C :   -0.007616
  32 C :    0.152814
  33 O :   -0.182782
  34 C :   -0.056434
  35 C :   -0.027822
  36 C :    0.139789
  37 O :   -0.177349
  38 N :   -0.264126
  39 C :    0.099680
  40 C :   -0.001570
  41 C :    0.128154
  42 C :   -0.041545
  43 C :    0.058817
  44 C :   -0.077640
  45 S :    0.117016
  46 C :   -0.070930
  47 N :   -0.035378
  48 N :   -0.041544
  49 C :    0.075798
  50 C :   -0.008484
  51 C :   -0.038990
  52 C :   -0.062131
  53 C :    0.332940
  54 C :   -0.348761
  55 C :   -0.182090
  56 N :    0.155017
  57 C :   -0.195065
  58 N :    0.154487
  59 C :    0.049003
  60 C :   -0.006736
  61 C :    0.151691
  62 O :   -0.146224
  63 C :   -0.077301
  64 C :    0.098602
  65 C :    0.096881
  66 C :   -0.083886
  67 C :   -0.018216
  68 C :    0.038209
  69 C :    0.035206
  70 C :   -0.014819
  71 H :   -0.009903
  72 H :   -0.007091
  73 H :   -0.010027
  74 H :   -0.004565
  75 H :   -0.004043
  76 H :   -0.015991
  77 H :    0.040704
  78 H :    0.209231
  79 H :    0.049072
  80 H :    0.024995
  81 H :    0.025073
  82 H :    0.033568
  83 H :    0.037895
  84 H :    0.043276
  85 H :    0.026434
  86 H :    0.043324
  87 H :    0.028304
  88 H :    0.021100
  89 H :    0.027517
  90 H :    0.015695
  91 H :    0.030193
  92 H :    0.039512
  93 H :    0.016279
  94 H :   -0.011980
  95 H :   -0.007669
  96 H :   -0.008739
  97 H :   -0.002825
  98 H :   -0.003193
  99 H :   -0.016630
Sum of atomic charges:   -0.0000000

LOEWDIN ATOMIC CHARGES
----------------------
   0 C :    0.063566
   1 C :   -0.149449
   2 C :   -0.019819
   3 N :   -0.053404
   4 C :   -0.028135
   5 N :   -0.054569
   6 C :   -0.024045
   7 C :   -0.056742
   8 C :    0.033354
   9 C :   -0.008593
  10 C :   -0.005691
  11 C :    0.015556
  12 C :   -0.006582
  13 C :   -0.012427
  14 C :   -0.012231
  15 C :   -0.008709
  16 C :    0.083045
  17 O :   -0.139664
  18 C :   -0.098267
  19 C :    0.061543
  20 C :   -0.219182
  21 S :    0.508838
  22 C :   -0.128990
  23 C :   -0.115595
  24 C :    0.077250
  25 O :   -0.008859
  26 C :   -0.038701
  27 N :   -0.039702
  28 C :    0.048063
  29 N :   -0.003254
  30 C :    0.028595
  31 C :   -0.063927
  32 C :    0.080545
  33 O :   -0.186086
  34 C :   -0.113911
  35 C :   -0.101501
  36 C :    0.086230
  37 O :   -0.166603
  38 N :    0.002062
  39 C :    0.035805
  40 C :   -0.061261
  41 C :    0.082278
  42 C :   -0.018383
  43 C :   -0.017809
  44 C :   -0.143975
  45 S :    0.415780
  46 C :   -0.146858
  47 N :   -0.060205
  48 N :   -0.068158
  49 C :    0.005625
  50 C :   -0.017206
  51 C :    0.065300
  52 C :   -0.078951
  53 C :    0.073764
  54 C :   -0.132485
  55 C :   -0.016783
  56 N :   -0.049010
  57 C :   -0.021289
  58 N :   -0.046459
  59 C :   -0.025900
  60 C :   -0.056896
  61 C :    0.086033
  62 O :   -0.140649
  63 C :    0.034517
  64 C :   -0.007676
  65 C :   -0.005293
  66 C :    0.020622
  67 C :   -0.004601
  68 C :   -0.011866
  69 C :   -0.010924
  70 C :   -0.008825
  71 H :    0.040009
  72 H :    0.038263
  73 H :    0.034291
  74 H :    0.033334
  75 H :    0.033185
  76 H :    0.032350
  77 H :    0.056789
  78 H :    0.112798
  79 H :    0.039919
  80 H :    0.010458
  81 H :    0.031671
  82 H :    0.035534
  83 H :    0.022334
  84 H :    0.038331
  85 H :    0.024385
  86 H :    0.038293
  87 H :    0.033112
  88 H :    0.021963
  89 H :    0.043724
  90 H :    0.046538
  91 H :    0.052011
  92 H :    0.030299
  93 H :    0.044447
  94 H :    0.039560
  95 H :    0.039270
  96 H :    0.035090
  97 H :    0.034017
  98 H :    0.033490
  99 H :    0.032266

  Mayer bond orders larger than 0.100000
B(  0-C ,  1-C ) :   1.6368 B(  0-C ,  6-C ) :   1.0084 B(  0-C , 18-C ) :   1.0425
B(  1-C ,  2-C ) :   1.1396 B(  1-C ,  4-C ) :   1.1709 B(  2-C ,  3-N ) :   2.9703
B(  4-C ,  5-N ) :   2.9288 B(  6-C ,  7-C ) :   1.2124 B(  6-C , 11-C ) :   1.4569
B(  7-C ,  8-C ) :   1.4783 B(  7-C , 16-C ) :   0.9205 B(  8-C ,  9-C ) :   1.1853
B(  8-C , 71-H ) :   1.0151 B(  9-C , 10-C ) :   1.2553 B(  9-C , 15-C ) :   1.2462
B( 10-C , 11-C ) :   1.2050 B( 10-C , 12-C ) :   1.2412 B( 11-C , 72-H ) :   0.9932
B( 12-C , 13-C ) :   1.4891 B( 12-C , 73-H ) :   0.9973 B( 13-C , 14-C ) :   1.2596
B( 13-C , 74-H ) :   0.9894 B( 14-C , 15-C ) :   1.4892 B( 14-C , 75-H ) :   0.9893
B( 15-C , 76-H ) :   0.9973 B( 16-C , 17-O ) :   2.2837 B( 16-C , 18-C ) :   0.9335
B( 18-C , 19-C ) :   1.6307 B( 19-C , 20-C ) :   1.1229 B( 19-C , 77-H ) :   0.9497
B( 20-C , 21-S ) :   1.0743 B( 20-C , 22-C ) :   0.1023 B( 20-C , 24-C ) :   1.4178
B( 21-S , 22-C ) :   1.1572 B( 22-C , 23-C ) :   1.4693 B( 22-C , 28-C ) :   1.1046
B( 23-C , 24-C ) :   1.2066 B( 23-C , 26-C ) :   1.1097 B( 24-C , 25-O ) :   1.3649
B( 25-O , 78-H ) :   0.9376 B( 26-C , 27-N ) :   3.0072 B( 28-C , 29-N ) :   1.2088
B( 28-C , 35-C ) :   1.4066 B( 29-N , 30-C ) :   0.9356 B( 29-N , 32-C ) :   1.0186
B( 30-C , 31-C ) :   1.1140 B( 30-C , 79-H ) :   0.9233 B( 30-C , 80-H ) :   0.9461
B( 31-C , 81-H ) :   0.9595 B( 31-C , 82-H ) :   0.9652 B( 31-C , 83-H ) :   0.9621
B( 32-C , 33-O ) :   2.1402 B( 32-C , 34-C ) :   0.9802 B( 34-C , 35-C ) :   1.2287
B( 34-C , 41-C ) :   1.3479 B( 35-C , 36-C ) :   0.9541 B( 36-C , 37-O ) :   2.1272
B( 36-C , 38-N ) :   1.0340 B( 38-N , 39-C ) :   0.9366 B( 38-N , 41-C ) :   1.1866
B( 39-C , 40-C ) :   1.1190 B( 39-C , 84-H ) :   0.9253 B( 39-C , 85-H ) :   0.9500
B( 40-C , 86-H ) :   0.9595 B( 40-C , 87-H ) :   0.9689 B( 40-C , 88-H ) :   0.9664
B( 41-C , 42-C ) :   1.1756 B( 42-C , 43-C ) :   1.5831 B( 42-C , 89-H ) :   0.9467
B( 43-C , 44-C ) :   1.1241 B( 43-C , 90-H ) :   0.9801 B( 44-C , 45-S ) :   1.1039
B( 44-C , 48-N ) :   1.6455 B( 45-S , 46-C ) :   1.0958 B( 46-C , 47-N ) :   1.6407
B( 46-C , 49-C ) :   1.1098 B( 47-N , 48-N ) :   1.2483 B( 49-C , 50-C ) :   1.5750
B( 49-C , 91-H ) :   0.9889 B( 50-C , 51-C ) :   1.1464 B( 50-C , 92-H ) :   0.9723
B( 51-C , 52-C ) :   1.5823 B( 51-C , 93-H ) :   0.9616 B( 52-C , 53-C ) :   1.0494
B( 52-C , 61-C ) :   0.9343 B( 53-C , 54-C ) :   1.6381 B( 53-C , 59-C ) :   0.9914
B( 54-C , 55-C ) :   1.1466 B( 54-C , 57-C ) :   1.1453 B( 55-C , 56-N ) :   2.9647
B( 57-C , 58-N ) :   2.9660 B( 59-C , 60-C ) :   1.2127 B( 59-C , 66-C ) :   1.4476
B( 60-C , 61-C ) :   0.9477 B( 60-C , 63-C ) :   1.4700 B( 61-C , 62-O ) :   2.2018
B( 63-C , 64-C ) :   1.1824 B( 63-C , 94-H ) :   1.0155 B( 64-C , 65-C ) :   1.2517
B( 64-C , 70-C ) :   1.2436 B( 65-C , 66-C ) :   1.2100 B( 65-C , 67-C ) :   1.2403
B( 66-C , 95-H ) :   0.9880 B( 67-C , 68-C ) :   1.4917 B( 67-C , 96-H ) :   0.9963
B( 68-C , 69-C ) :   1.2578 B( 68-C , 97-H ) :   0.9881 B( 69-C , 70-C ) :   1.4902
B( 69-C , 98-H ) :   0.9890 B( 70-C , 99-H ) :   0.9973

-----------------------------------------------------------------------------
         ABSORPTION SPECTRUM VIA TRANSITION ELECTRIC DIPOLE MOMENTS
-----------------------------------------------------------------------------
State   Energy  Wavelength   fosc         T2         TX        TY        TZ
        (cm-1)    (nm)                  (au**2)     (au)      (au)      (au)
-----------------------------------------------------------------------------
   0   14346.9    697.0   0.998356329  22.90881  -2.03400   3.51241  -2.53666
   1   19876.6    503.1   0.282616749   4.68092   1.74793   1.25764  -0.20980
   2   23201.6    431.0   0.099004318   1.40479  -0.75674   0.65054  -0.63948
   3   23789.4    420.4   0.386087306   5.34291   1.34194   1.85511  -0.31729
   4   24247.6    412.4   0.120294694   1.63325  -0.18996   1.09052  -0.63870
   5   25297.0    395.3   0.173311384   2.25546  -1.37427   0.59968  -0.08498
   6   25385.6    393.9   0.429035764   5.56393   1.57464   1.62270  -0.67178
   7   25571.6    391.1   0.080579275   1.03739  -0.34611  -0.87533   0.38909
   8   25710.5    388.9   0.001298877   0.01663   0.11465   0.05021  -0.03106
   9   26577.6    376.3   0.008947230   0.11083  -0.14275  -0.27844   0.11367
  10   27279.8    366.6   0.004030589   0.04864   0.03951   0.01273  -0.21661
  11   27434.0    364.5   0.031972939   0.38368   0.49830  -0.36348  -0.05703
  12   28257.9    353.9   0.040000373   0.46601   0.55454   0.36267  -0.16421
  13   28840.3    346.7   0.013358673   0.15249   0.16458   0.31878   0.15422
  14   28954.5    345.4   0.015579835   0.17714   0.21734  -0.05463  -0.35626
  15   29479.4    339.2   0.011701076   0.13067  -0.12634   0.29414  -0.16791
  16   29655.6    337.2   0.141831378   1.57449   0.99385  -0.75048  -0.15345
  17   30578.5    327.0   0.053996081   0.58133   0.14872   0.73379   0.14408
  18   30700.8    325.7   0.006095723   0.06537   0.16669  -0.10807  -0.16094
  19   30859.2    324.1   0.126103637   1.34530  -0.65079  -0.96002  -0.01123
  20   31534.6    317.1   0.193789870   2.02311   1.42075  -0.03850  -0.05564
  21   32519.4    307.5   0.216762081   2.19440   1.28338  -0.67100  -0.31160
  22   32596.7    306.8   0.808935652   8.16987   2.80469  -0.46406  -0.29706
  23   32939.4    303.6   0.067226354   0.67189   0.02103  -0.81942   0.00105
  24   33283.4    300.4   0.067373824   0.66641   0.73549  -0.21576  -0.28091
  25   33453.4    298.9   0.003471595   0.03416   0.12563   0.02637   0.13298
  26   33551.1    298.1   0.002177346   0.02136  -0.01500   0.10947  -0.09569
  27   33667.4    297.0   0.192460700   1.88195   1.23833  -0.58109  -0.10408
  28   34460.1    290.2   0.143651622   1.37237   0.94591  -0.69108  -0.00476
  29   34632.1    288.7   0.019342435   0.18387  -0.33855  -0.19745  -0.17397
  30   35183.4    284.2   0.009189011   0.08598   0.28402   0.06283   0.03696
  31   35328.0    283.1   0.084553693   0.78793  -0.60728   0.56461  -0.31678
  32   35644.5    280.5   0.020888076   0.19292   0.37545   0.07155   0.21642
  33   36263.9    275.8   0.193487157   1.75652  -0.91959   0.93854   0.17327
  34   36312.5    275.4   0.044590011   0.40426  -0.42458  -0.37747   0.28549
  35   37018.1    270.1   0.129980698   1.15595  -0.20715   1.04694   0.13023
  36   37120.2    269.4   0.577297710   5.11995  -2.16299   0.60112   0.28297
  37   37407.9    267.3   0.107188548   0.94332  -0.27512   0.89468  -0.25920
  38   37799.8    264.6   0.042953423   0.37410   0.11752  -0.57648  -0.16719
  39   38100.0    262.5   0.012760286   0.11026   0.30043   0.13327  -0.04729
  40   38369.0    260.6   0.022126251   0.18985  -0.40314  -0.16515  -0.00709
  41   38729.5    258.2   0.011762165   0.09998   0.12244  -0.28825   0.04360
  42   38869.3    257.3   0.002851043   0.02415  -0.13856   0.02683  -0.06503
  43   38953.8    256.7   0.048337989   0.40852  -0.01823   0.63592  -0.06163
  44   39351.5    254.1   0.047681702   0.39890  -0.22348  -0.57838  -0.12017
  45   39456.0    253.4   0.050971376   0.42529   0.19156  -0.62337  -0.00348
  46   39565.0    252.7   0.030807496   0.25634  -0.44819  -0.14998  -0.18160
  47   40142.2    249.1   0.275213842   2.25707   0.68832   1.29660  -0.31953

FINAL SINGLE POINT ENERGY     -3774.499661651793

DIPOLE MOMENT
-------------
                                X             Y             Z
Electronic contribution:    -13.52088       0.83133       1.32306
Nuclear contribution   :     17.43138      -2.71658      -2.62044
                        -----------------------------------------
Total Dipole Moment    :      3.91051      -1.88525      -1.29737
                        -----------------------------------------
Magnitude (a.u.)       :      4.53094
Magnitude (Debye)      :     11.51673

Rotational constants in cm-1:     0.001214     0.000298     0.000246
Rotational constants in MHz :    36.404492     8.924555     7.378606

                             ****ORCA TERMINATED NORMALLY****
TOTAL RUN TIME: 0 days 0 hours 9 minutes 48 seconds 640 msec
