                         Program Version 4.2.0 -  RELEASE  -
|  1> # ORCA input file
|  2> # SCF done       -183.120432844854          0.000591693809
|  3> ! CAM-B3LYP def2-SVP def2/J RIJCOSX Grid4 TightSCF
|  4> %maxcore 5000
|  5> %tddft
|  6>     Mode sTDDFT
|  7>     Ethresh 5.0
|  8>     maxcore 5000
|  9> end
| 10>
| 11> %pal
| 12>   nprocs 6
| 13>   end
| 14> * xyz 0 1
| 15>    C        3.08337         3.68970        -1.73935
| 16>    C        2.68859         2.79619        -0.77867
| 17>    C        3.44254         1.66452        -0.39928
| 18>    N        4.00550         0.73142        -0.03912
| 19>    C        1.47369         2.83224        -0.06098
| 20>    N        0.50183         2.77443         0.54834
| 21>    C        4.29052         3.57408        -2.54668
| 22>    C        4.25796         4.58101        -3.55170
| 23>    C        5.25562         4.71605        -4.47413
| 24>    C        6.35693         3.83295        -4.43001
| 25>    C        6.40102         2.82507        -3.42334
| 26>    C        5.35204         2.70983        -2.48284
| 27>    C        7.50530         1.94926        -3.38782
| 28>    C        8.51723         2.06148        -4.30202
| 29>    C        8.47305         3.05465        -5.29205
| 30>    C        7.41590         3.92153        -5.35484
| 31>    C        3.03404         5.38484        -3.41019
| 32>    O        2.69184         6.29142        -4.14001
| 33>    C        2.34737         4.86183        -2.19887
| 34>    C        1.29792         5.40492        -1.51640
| 35>    C        0.45018         6.49655        -1.81822
| 36>    S       -0.69046         6.96296        -0.56717
| 37>    C       -1.36205         8.20522        -1.55861
| 38>    C       -0.72258         8.23581        -2.80519
| 39>    C        0.28850         7.27969        -2.94492
| 40>    C       -1.09861         9.14228        -3.81303
| 41>    N       -1.43027         9.87767        -4.62808
| 42>    C       -2.41287         9.06911        -1.15900
| 43>    C       -3.03081         8.99525         0.04301
| 44>    C       -4.10301         9.79862         0.52074
| 45>    S       -4.89011         9.24624         1.97314
| 46>    C       -6.02794        10.54637         1.91164
| 47>    C       -5.80692        11.36381         0.80972
| 48>    C       -4.70512        10.95670         0.03983
| 49>    C       -4.22059        11.77942        -1.12072
| 50>    F       -2.84825        11.94526        -1.03181
| 51>    C       -4.86772        13.16205        -1.13061
| 52>    C       -6.37366        13.03348        -0.96836
| 53>    C       -6.70038        12.50991         0.42611
| 54>    F       -8.01745        12.07724         0.43441
| 55>    C       -7.00401        10.71962         2.93169
| 56>    O       -7.70585        11.86176         2.98422
| 57>    C       -8.55878        11.80779         4.02824
| 58>    C       -8.39864        10.59099         4.69029
| 59>    C       -7.38725         9.88372         3.98116
| 60>    C       -6.89066         8.60777         4.27838
| 61>    N       -6.48978         7.56362         4.52950
| 62>    C       -9.09616        10.15592         5.82545
| 63>    N       -9.66720         9.80669         6.75574
| 64>    C       -9.42158        12.90433         4.28214
| 65>    C       -9.41151        13.99993         3.47893
| 66>    C      -10.24699        15.12242         3.67879
| 67>    C      -10.20802        16.24356         2.90064
| 68>    C      -11.05835        17.41677         3.01986
| 69>    C      -11.99100        17.66140         3.99344
| 70>    C      -12.78311        18.82823         4.05424
| 71>    N      -13.45839        19.74995         4.16342
| 72>    C      -12.29262        16.81287         5.07982
| 73>    N      -12.59288        16.18620         5.99394
| 74>    C      -10.73220        18.31620         1.91912
| 75>    C       -9.67263        17.74300         1.15935
| 76>    C       -9.28686        16.45187         1.74816
| 77>    O       -8.39005        15.72600         1.36697
| 78>    C       -9.15047        18.36726         0.06265
| 79>    C       -9.67587        19.61611        -0.33567
| 80>    C      -10.73853        20.19518         0.41674
| 81>    C      -11.25733        19.52647         1.54891
| 82>    C      -11.25711        21.44171         0.01087
| 83>    C      -10.75133        22.08668        -1.08487
| 84>    C       -9.70502        21.51562        -1.82487
| 85>    C       -9.17866        20.30667        -1.45841
| 86>    H        5.20399         5.48807        -5.22752
| 87>    H        5.41962         1.94073        -1.73016
| 88>    H        7.53436         1.18551        -2.62462
| 89>    H        9.35794         1.38497        -4.26742
| 90>    H        9.28077         3.12931        -6.00461
| 91>    H        7.37612         4.68811        -6.11482
| 92>    H        1.06068         4.94588        -0.56335
| 93>    H        0.88471         7.16437        -3.83197
| 94>    H       -2.69390         9.80187        -1.89857
| 95>    H       -2.71902         8.21378         0.72680
| 96>    H       -4.40225        11.25859        -2.07278
| 97>    H       -4.61955        13.66493        -2.06538
| 98>    H       -4.44917        13.74645        -0.30807
| 99>    H       -6.77390        12.33330        -1.70544
|100>    H       -6.86402        13.99637        -1.10888
|101>    H       -6.64776        13.31612         1.17055
|102>    H      -10.07625        12.82651         5.13894
|103>    H       -8.73668        14.02252         2.63611
|104>    H      -10.95655        15.06315         4.49369
|105>    H       -8.34550        17.91247        -0.49563
|106>    H      -12.06220        19.99202         2.09469
|107>    H      -12.06225        21.87744         0.58392
|108>    H      -11.15493        23.04110        -1.38768
|109>    H       -9.31824        22.03850        -2.68666
|110>    H       -8.37298        19.86247        -2.02450
|111> *
|112>
|113>                          ****END OF INPUT****

CARTESIAN COORDINATES (ANGSTROEM)
---------------------------------
  C      3.083370    3.689700   -1.739350
  C      2.688590    2.796190   -0.778670
  C      3.442540    1.664520   -0.399280
  N      4.005500    0.731420   -0.039120
  C      1.473690    2.832240   -0.060980
  N      0.501830    2.774430    0.548340
  C      4.290520    3.574080   -2.546680
  C      4.257960    4.581010   -3.551700
  C      5.255620    4.716050   -4.474130
  C      6.356930    3.832950   -4.430010
  C      6.401020    2.825070   -3.423340
  C      5.352040    2.709830   -2.482840
  C      7.505300    1.949260   -3.387820
  C      8.517230    2.061480   -4.302020
  C      8.473050    3.054650   -5.292050
  C      7.415900    3.921530   -5.354840
  C      3.034040    5.384840   -3.410190
  O      2.691840    6.291420   -4.140010
  C      2.347370    4.861830   -2.198870
  C      1.297920    5.404920   -1.516400
  C      0.450180    6.496550   -1.818220
  S     -0.690460    6.962960   -0.567170
  C     -1.362050    8.205220   -1.558610
  C     -0.722580    8.235810   -2.805190
  C      0.288500    7.279690   -2.944920
  C     -1.098610    9.142280   -3.813030
  N     -1.430270    9.877670   -4.628080
  C     -2.412870    9.069110   -1.159000
  C     -3.030810    8.995250    0.043010
  C     -4.103010    9.798620    0.520740
  S     -4.890110    9.246240    1.973140
  C     -6.027940   10.546370    1.911640
  C     -5.806920   11.363810    0.809720
  C     -4.705120   10.956700    0.039830
  C     -4.220590   11.779420   -1.120720
  F     -2.848250   11.945260   -1.031810
  C     -4.867720   13.162050   -1.130610
  C     -6.373660   13.033480   -0.968360
  C     -6.700380   12.509910    0.426110
  F     -8.017450   12.077240    0.434410
  C     -7.004010   10.719620    2.931690
  O     -7.705850   11.861760    2.984220
  C     -8.558780   11.807790    4.028240
  C     -8.398640   10.590990    4.690290
  C     -7.387250    9.883720    3.981160
  C     -6.890660    8.607770    4.278380
  N     -6.489780    7.563620    4.529500
  C     -9.096160   10.155920    5.825450
  N     -9.667200    9.806690    6.755740
  C     -9.421580   12.904330    4.282140
  C     -9.411510   13.999930    3.478930
  C    -10.246990   15.122420    3.678790
  C    -10.208020   16.243560    2.900640
  C    -11.058350   17.416770    3.019860
  C    -11.991000   17.661400    3.993440
  C    -12.783110   18.828230    4.054240
  N    -13.458390   19.749950    4.163420
  C    -12.292620   16.812870    5.079820
  N    -12.592880   16.186200    5.993940
  C    -10.732200   18.316200    1.919120
  C     -9.672630   17.743000    1.159350
  C     -9.286860   16.451870    1.748160
  O     -8.390050   15.726000    1.366970
  C     -9.150470   18.367260    0.062650
  C     -9.675870   19.616110   -0.335670
  C    -10.738530   20.195180    0.416740
  C    -11.257330   19.526470    1.548910
  C    -11.257110   21.441710    0.010870
  C    -10.751330   22.086680   -1.084870
  C     -9.705020   21.515620   -1.824870
  C     -9.178660   20.306670   -1.458410
  H      5.203990    5.488070   -5.227520
  H      5.419620    1.940730   -1.730160
  H      7.534360    1.185510   -2.624620
  H      9.357940    1.384970   -4.267420
  H      9.280770    3.129310   -6.004610
  H      7.376120    4.688110   -6.114820
  H      1.060680    4.945880   -0.563350
  H      0.884710    7.164370   -3.831970
  H     -2.693900    9.801870   -1.898570
  H     -2.719020    8.213780    0.726800
  H     -4.402250   11.258590   -2.072780
  H     -4.619550   13.664930   -2.065380
  H     -4.449170   13.746450   -0.308070
  H     -6.773900   12.333300   -1.705440
  H     -6.864020   13.996370   -1.108880
  H     -6.647760   13.316120    1.170550
  H    -10.076250   12.826510    5.138940
  H     -8.736680   14.022520    2.636110
  H    -10.956550   15.063150    4.493690
  H     -8.345500   17.912470   -0.495630
  H    -12.062200   19.992020    2.094690
  H    -12.062250   21.877440    0.583920
  H    -11.154930   23.041100   -1.387680
  H     -9.318240   22.038500   -2.686660
  H     -8.372980   19.862470   -2.024500

 Total Charge           Charge          ....    0
 Multiplicity           Mult            ....    1
 Number of Electrons    NEL             ....  490
 Basis Dimension        Dim             .... 1127

ORBITAL ENERGIES
----------------

  NO   OCC          E(Eh)            E(eV)
   0   2.0000     -88.991195     -2421.5735
   1   2.0000     -88.988135     -2421.4903
   2   2.0000     -24.765602      -673.9063
   3   2.0000     -24.760440      -673.7658
   4   2.0000     -19.339525      -526.2552
   5   2.0000     -19.230759      -523.2956
   6   2.0000     -19.225992      -523.1658
   7   2.0000     -14.426839      -392.5742
   8   2.0000     -14.426743      -392.5716
   9   2.0000     -14.424550      -392.5120
  10   2.0000     -14.422375      -392.4528
  11   2.0000     -14.421355      -392.4250
  12   2.0000     -14.418493      -392.3471
  13   2.0000     -14.415453      -392.2644
  14   2.0000     -10.395976      -282.8889
  15   2.0000     -10.383606      -282.5523
  16   2.0000     -10.380735      -282.4742
  17   2.0000     -10.376974      -282.3718
  18   2.0000     -10.370235      -282.1884
  19   2.0000     -10.365258      -282.0530
  20   2.0000     -10.351908      -281.6897
  21   2.0000     -10.349313      -281.6191
  22   2.0000     -10.348589      -281.5994
  23   2.0000     -10.347591      -281.5723
  24   2.0000     -10.347313      -281.5647
  25   2.0000     -10.346245      -281.5356
  26   2.0000     -10.344855      -281.4978
  27   2.0000     -10.340933      -281.3911
  28   2.0000     -10.337822      -281.3064
  29   2.0000     -10.333498      -281.1888
  30   2.0000     -10.333003      -281.1753
  31   2.0000     -10.327610      -281.0286
  32   2.0000     -10.326960      -281.0109
  33   2.0000     -10.326684      -281.0034
  34   2.0000     -10.326445      -280.9969
  35   2.0000     -10.325928      -280.9828
  36   2.0000     -10.325463      -280.9701
  37   2.0000     -10.324835      -280.9530
  38   2.0000     -10.323966      -280.9294
  39   2.0000     -10.321252      -280.8556
  40   2.0000     -10.319217      -280.8002
  41   2.0000     -10.315699      -280.7044
  42   2.0000     -10.315230      -280.6917
  43   2.0000     -10.312781      -280.6250
  44   2.0000     -10.311812      -280.5987
  45   2.0000     -10.311496      -280.5901
  46   2.0000     -10.310781      -280.5706
  47   2.0000     -10.310531      -280.5638
  48   2.0000     -10.307899      -280.4922
  49   2.0000     -10.307214      -280.4735
  50   2.0000     -10.306396      -280.4513
  51   2.0000     -10.306006      -280.4407
  52   2.0000     -10.305695      -280.4322
  53   2.0000     -10.304724      -280.4058
  54   2.0000     -10.304376      -280.3963
  55   2.0000     -10.301833      -280.3271
  56   2.0000     -10.301619      -280.3213
  57   2.0000     -10.301241      -280.3110
  58   2.0000     -10.301035      -280.3054
  59   2.0000     -10.297850      -280.2188
  60   2.0000     -10.294257      -280.1210
  61   2.0000     -10.293770      -280.1077
  62   2.0000     -10.293287      -280.0946
  63   2.0000     -10.293244      -280.0934
  64   2.0000     -10.292738      -280.0796
  65   2.0000     -10.290280      -280.0128
  66   2.0000     -10.290158      -280.0094
  67   2.0000     -10.289784      -279.9992
  68   2.0000     -10.289483      -279.9911
  69   2.0000     -10.289000      -279.9779
  70   2.0000     -10.287983      -279.9503
  71   2.0000      -8.086133      -220.0349
  72   2.0000      -8.083741      -219.9698
  73   2.0000      -6.055374      -164.7751
  74   2.0000      -6.052809      -164.7053
  75   2.0000      -6.051147      -164.6601
  76   2.0000      -6.048837      -164.5972
  77   2.0000      -6.048390      -164.5850
  78   2.0000      -6.046031      -164.5209
  79   2.0000      -1.277111       -34.7520
  80   2.0000      -1.273117       -34.6433
  81   2.0000      -1.262468       -34.3535
  82   2.0000      -1.143833       -31.1253
  83   2.0000      -1.140901       -31.0455
  84   2.0000      -1.027425       -27.9576
  85   2.0000      -1.026578       -27.9346
  86   2.0000      -1.024850       -27.8876
  87   2.0000      -1.022357       -27.8197
  88   2.0000      -1.016392       -27.6574
  89   2.0000      -1.007499       -27.4154
  90   2.0000      -1.007188       -27.4070
  91   2.0000      -1.003618       -27.3098
  92   2.0000      -1.001551       -27.2536
  93   2.0000      -0.998189       -27.1621
  94   2.0000      -0.994744       -27.0684
  95   2.0000      -0.980415       -26.6784
  96   2.0000      -0.976254       -26.5652
  97   2.0000      -0.959664       -26.1138
  98   2.0000      -0.958498       -26.0821
  99   2.0000      -0.943384       -25.6708
 100   2.0000      -0.937758       -25.5177
 101   2.0000      -0.932558       -25.3762
 102   2.0000      -0.927488       -25.2382
 103   2.0000      -0.918334       -24.9891
 104   2.0000      -0.908347       -24.7174
 105   2.0000      -0.896054       -24.3829
 106   2.0000      -0.890030       -24.2189
 107   2.0000      -0.888589       -24.1797
 108   2.0000      -0.885003       -24.0822
 109   2.0000      -0.876717       -23.8567
 110   2.0000      -0.865649       -23.5555
 111   2.0000      -0.861468       -23.4417
 112   2.0000      -0.849228       -23.1087
 113   2.0000      -0.838807       -22.8251
 114   2.0000      -0.836544       -22.7635
 115   2.0000      -0.832509       -22.6537
 116   2.0000      -0.817821       -22.2540
 117   2.0000      -0.806964       -21.9586
 118   2.0000      -0.801719       -21.8159
 119   2.0000      -0.781117       -21.2553
 120   2.0000      -0.771168       -20.9845
 121   2.0000      -0.767554       -20.8862
 122   2.0000      -0.760470       -20.6934
 123   2.0000      -0.751548       -20.4506
 124   2.0000      -0.739832       -20.1319
 125   2.0000      -0.739236       -20.1156
 126   2.0000      -0.736807       -20.0495
 127   2.0000      -0.718397       -19.5486
 128   2.0000      -0.712255       -19.3814
 129   2.0000      -0.709013       -19.2932
 130   2.0000      -0.706064       -19.2130
 131   2.0000      -0.703138       -19.1334
 132   2.0000      -0.695807       -18.9339
 133   2.0000      -0.689950       -18.7745
 134   2.0000      -0.685756       -18.6604
 135   2.0000      -0.678386       -18.4598
 136   2.0000      -0.673109       -18.3162
 137   2.0000      -0.666057       -18.1243
 138   2.0000      -0.660029       -17.9603
 139   2.0000      -0.650665       -17.7055
 140   2.0000      -0.641661       -17.4605
 141   2.0000      -0.637061       -17.3353
 142   2.0000      -0.633147       -17.2288
 143   2.0000      -0.625817       -17.0293
 144   2.0000      -0.625051       -17.0085
 145   2.0000      -0.619114       -16.8469
 146   2.0000      -0.614958       -16.7339
 147   2.0000      -0.612149       -16.6574
 148   2.0000      -0.610750       -16.6194
 149   2.0000      -0.608869       -16.5682
 150   2.0000      -0.599781       -16.3209
 151   2.0000      -0.598038       -16.2734
 152   2.0000      -0.593987       -16.1632
 153   2.0000      -0.587764       -15.9939
 154   2.0000      -0.581326       -15.8187
 155   2.0000      -0.571562       -15.5530
 156   2.0000      -0.566071       -15.4036
 157   2.0000      -0.565417       -15.3858
 158   2.0000      -0.561512       -15.2795
 159   2.0000      -0.560757       -15.2590
 160   2.0000      -0.555208       -15.1080
 161   2.0000      -0.551742       -15.0137
 162   2.0000      -0.550349       -14.9758
 163   2.0000      -0.547555       -14.8997
 164   2.0000      -0.545815       -14.8524
 165   2.0000      -0.544631       -14.8202
 166   2.0000      -0.544164       -14.8075
 167   2.0000      -0.541739       -14.7415
 168   2.0000      -0.536543       -14.6001
 169   2.0000      -0.531370       -14.4593
 170   2.0000      -0.530772       -14.4430
 171   2.0000      -0.526240       -14.3197
 172   2.0000      -0.524125       -14.2622
 173   2.0000      -0.523357       -14.2413
 174   2.0000      -0.521055       -14.1786
 175   2.0000      -0.518322       -14.1043
 176   2.0000      -0.515821       -14.0362
 177   2.0000      -0.515034       -14.0148
 178   2.0000      -0.512101       -13.9350
 179   2.0000      -0.506158       -13.7733
 180   2.0000      -0.505636       -13.7591
 181   2.0000      -0.505505       -13.7555
 182   2.0000      -0.500733       -13.6256
 183   2.0000      -0.499455       -13.5909
 184   2.0000      -0.498340       -13.5605
 185   2.0000      -0.496315       -13.5054
 186   2.0000      -0.495966       -13.4959
 187   2.0000      -0.493552       -13.4302
 188   2.0000      -0.491038       -13.3618
 189   2.0000      -0.488112       -13.2822
 190   2.0000      -0.484391       -13.1809
 191   2.0000      -0.472626       -12.8608
 192   2.0000      -0.472393       -12.8545
 193   2.0000      -0.469915       -12.7870
 194   2.0000      -0.468485       -12.7481
 195   2.0000      -0.466921       -12.7056
 196   2.0000      -0.456154       -12.4126
 197   2.0000      -0.454131       -12.3575
 198   2.0000      -0.453246       -12.3335
 199   2.0000      -0.452723       -12.3192
 200   2.0000      -0.452254       -12.3064
 201   2.0000      -0.451848       -12.2954
 202   2.0000      -0.451262       -12.2795
 203   2.0000      -0.449505       -12.2316
 204   2.0000      -0.448062       -12.1924
 205   2.0000      -0.447400       -12.1744
 206   2.0000      -0.446708       -12.1555
 207   2.0000      -0.444248       -12.0886
 208   2.0000      -0.441681       -12.0188
 209   2.0000      -0.441499       -12.0138
 210   2.0000      -0.441165       -12.0047
 211   2.0000      -0.439609       -11.9624
 212   2.0000      -0.437929       -11.9167
 213   2.0000      -0.437577       -11.9071
 214   2.0000      -0.435751       -11.8574
 215   2.0000      -0.433930       -11.8078
 216   2.0000      -0.432962       -11.7815
 217   2.0000      -0.430405       -11.7119
 218   2.0000      -0.427774       -11.6403
 219   2.0000      -0.426505       -11.6058
 220   2.0000      -0.424231       -11.5439
 221   2.0000      -0.419417       -11.4129
 222   2.0000      -0.417327       -11.3561
 223   2.0000      -0.415788       -11.3142
 224   2.0000      -0.413902       -11.2628
 225   2.0000      -0.411461       -11.1964
 226   2.0000      -0.410495       -11.1701
 227   2.0000      -0.407122       -11.0783
 228   2.0000      -0.401537       -10.9264
 229   2.0000      -0.387526       -10.5451
 230   2.0000      -0.383827       -10.4445
 231   2.0000      -0.378255       -10.2928
 232   2.0000      -0.371269       -10.1027
 233   2.0000      -0.356567        -9.7027
 234   2.0000      -0.349022        -9.4974
 235   2.0000      -0.348727        -9.4894
 236   2.0000      -0.348217        -9.4755
 237   2.0000      -0.344777        -9.3819
 238   2.0000      -0.331557        -9.0221
 239   2.0000      -0.324747        -8.8368
 240   2.0000      -0.320928        -8.7329
 241   2.0000      -0.304912        -8.2971
 242   2.0000      -0.299627        -8.1533
 243   2.0000      -0.292326        -7.9546
 244   2.0000      -0.266551        -7.2532
 245   0.0000      -0.118451        -3.2232
 246   0.0000      -0.106932        -2.9098
 247   0.0000      -0.076801        -2.0899
 248   0.0000      -0.069037        -1.8786
 249   0.0000      -0.061091        -1.6624

MULLIKEN ATOMIC CHARGES
-----------------------
   0 C :    0.307350
   1 C :   -0.348006
   2 C :   -0.182579
   3 N :    0.150567
   4 C :   -0.197397
   5 N :    0.159347
   6 C :    0.049264
   7 C :   -0.003176
   8 C :   -0.080378
   9 C :    0.099641
  10 C :    0.097214
  11 C :   -0.083213
  12 C :   -0.020677
  13 C :    0.036170
  14 C :    0.035864
  15 C :   -0.017763
  16 C :    0.161550
  17 O :   -0.154784
  18 C :   -0.082700
  19 C :    0.050454
  20 C :   -0.102760
  21 S :    0.160091
  22 C :   -0.039419
  23 C :   -0.077190
  24 C :    0.044858
  25 C :   -0.176253
  26 N :    0.131489
  27 C :    0.007667
  28 C :    0.059182
  29 C :   -0.100846
  30 S :    0.194110
  31 C :   -0.212283
  32 C :   -0.050569
  33 C :   -0.081435
  34 C :    0.283377
  35 F :   -0.247459
  36 C :    0.019948
  37 C :    0.022518
  38 C :    0.310006
  39 F :   -0.257006
  40 C :    0.186122
  41 O :   -0.176897
  42 C :    0.140879
  43 C :   -0.002462
  44 C :   -0.020133
  45 C :   -0.339871
  46 N :    0.257868
  47 C :   -0.301159
  48 N :    0.244336
  49 C :   -0.026700
  50 C :    0.011597
  51 C :   -0.031681
  52 C :   -0.062574
  53 C :    0.328080
  54 C :   -0.345216
  55 C :   -0.179861
  56 N :    0.153807
  57 C :   -0.191774
  58 N :    0.153899
  59 C :    0.051795
  60 C :   -0.001949
  61 C :    0.157069
  62 O :   -0.163844
  63 C :   -0.077061
  64 C :    0.097183
  65 C :    0.095214
  66 C :   -0.082310
  67 C :   -0.019743
  68 C :    0.039331
  69 C :    0.037513
  70 C :   -0.015839
  71 H :   -0.010016
  72 H :   -0.005353
  73 H :   -0.006524
  74 H :   -0.002361
  75 H :   -0.002507
  76 H :   -0.014698
  77 H :    0.014322
  78 H :    0.028849
  79 H :    0.017432
  80 H :    0.001898
  81 H :    0.028308
  82 H :    0.025227
  83 H :    0.025004
  84 H :    0.022257
  85 H :    0.027349
  86 H :    0.031682
  87 H :    0.035397
  88 H :    0.039385
  89 H :    0.016534
  90 H :   -0.017269
  91 H :   -0.006966
  92 H :   -0.006473
  93 H :   -0.002294
  94 H :   -0.002411
  95 H :   -0.017167
Sum of atomic charges:   -0.0000000

LOEWDIN ATOMIC CHARGES
----------------------
   0 C :    0.075919
   1 C :   -0.137367
   2 C :   -0.016993
   3 N :   -0.050238
   4 C :   -0.025799
   5 N :   -0.048014
   6 C :   -0.026814
   7 C :   -0.056387
   8 C :    0.033808
   9 C :   -0.007953
  10 C :   -0.005545
  11 C :    0.020608
  12 C :   -0.004945
  13 C :   -0.012012
  14 C :   -0.011086
  15 C :   -0.009111
  16 C :    0.089085
  17 O :   -0.139892
  18 C :   -0.084926
  19 C :    0.044806
  20 C :   -0.173219
  21 S :    0.477674
  22 C :   -0.122173
  23 C :   -0.106548
  24 C :    0.019931
  25 C :   -0.030109
  26 N :   -0.050799
  27 C :   -0.026301
  28 C :   -0.023407
  29 C :   -0.148649
  30 S :    0.505779
  31 C :   -0.192845
  32 C :   -0.050991
  33 C :   -0.067855
  34 C :    0.111886
  35 F :   -0.122494
  36 C :   -0.033888
  37 C :   -0.034436
  38 C :    0.110844
  39 F :   -0.129670
  40 C :    0.068438
  41 O :    0.055608
  42 C :    0.062584
  43 C :   -0.068763
  44 C :   -0.094451
  45 C :   -0.049490
  46 N :   -0.022018
  47 C :   -0.035982
  48 N :   -0.018487
  49 C :    0.005061
  50 C :   -0.006544
  51 C :    0.064044
  52 C :   -0.077775
  53 C :    0.072424
  54 C :   -0.131110
  55 C :   -0.016796
  56 N :   -0.047549
  57 C :   -0.021423
  58 N :   -0.044734
  59 C :   -0.025253
  60 C :   -0.057349
  61 C :    0.090316
  62 O :   -0.152674
  63 C :    0.033216
  64 C :   -0.008104
  65 C :   -0.004831
  66 C :    0.021159
  67 C :   -0.004166
  68 C :   -0.010480
  69 C :   -0.009983
  70 C :   -0.009420
  71 H :    0.039684
  72 H :    0.039570
  73 H :    0.035465
  74 H :    0.034041
  75 H :    0.033636
  76 H :    0.032580
  77 H :    0.043858
  78 H :    0.043273
  79 H :    0.040900
  80 H :    0.028197
  81 H :    0.024376
  82 H :    0.036459
  83 H :    0.032854
  84 H :    0.031386
  85 H :    0.037829
  86 H :    0.025444
  87 H :    0.051767
  88 H :    0.036269
  89 H :    0.044054
  90 H :    0.037320
  91 H :    0.039744
  92 H :    0.035799
  93 H :    0.034373
  94 H :    0.033902
  95 H :    0.031878

  Mayer bond orders larger than 0.100000
B(  0-C ,  1-C ) :   1.6321 B(  0-C ,  6-C ) :   0.9882 B(  0-C , 18-C ) :   1.0662
B(  1-C ,  2-C ) :   1.1485 B(  1-C ,  4-C ) :   1.1370 B(  2-C ,  3-N ) :   2.9656
B(  4-C ,  5-N ) :   2.9835 B(  6-C ,  7-C ) :   1.2142 B(  6-C , 11-C ) :   1.4487
B(  7-C ,  8-C ) :   1.4687 B(  7-C , 16-C ) :   0.9574 B(  8-C ,  9-C ) :   1.1814
B(  8-C , 71-H ) :   1.0164 B(  9-C , 10-C ) :   1.2533 B(  9-C , 15-C ) :   1.2441
B( 10-C , 11-C ) :   1.2086 B( 10-C , 12-C ) :   1.2398 B( 11-C , 72-H ) :   0.9904
B( 12-C , 13-C ) :   1.4914 B( 12-C , 73-H ) :   0.9974 B( 13-C , 14-C ) :   1.2589
B( 13-C , 74-H ) :   0.9882 B( 14-C , 15-C ) :   1.4905 B( 14-C , 75-H ) :   0.9884
B( 15-C , 76-H ) :   0.9979 B( 16-C , 17-O ) :   2.1698 B( 16-C , 18-C ) :   0.9327
B( 18-C , 19-C ) :   1.6269 B( 19-C , 20-C ) :   1.1825 B( 19-C , 77-H ) :   0.9144
B( 20-C , 21-S ) :   1.1008 B( 20-C , 24-C ) :   1.4535 B( 21-S , 22-C ) :   1.1585
B( 22-C , 23-C ) :   1.4024 B( 22-C , 27-C ) :   1.2065 B( 23-C , 24-C ) :   1.2838
B( 23-C , 25-C ) :   1.1053 B( 24-C , 78-H ) :   0.9795 B( 25-C , 26-N ) :   3.0112
B( 27-C , 28-C ) :   1.6499 B( 27-C , 79-H ) :   0.9476 B( 28-C , 29-C ) :   1.1384
B( 28-C , 80-H ) :   0.9483 B( 29-C , 30-S ) :   1.1340 B( 29-C , 31-C ) :   0.1198
B( 29-C , 33-C ) :   1.4847 B( 30-S , 31-C ) :   1.1591 B( 31-C , 32-C ) :   1.4743
B( 31-C , 40-C ) :   1.1488 B( 32-C , 33-C ) :   1.3680 B( 32-C , 38-C ) :   0.9795
B( 33-C , 34-C ) :   0.9735 B( 34-C , 35-F ) :   1.0286 B( 34-C , 36-C ) :   1.0747
B( 34-C , 81-H ) :   0.9140 B( 36-C , 37-C ) :   1.0414 B( 36-C , 82-H ) :   0.9265
B( 36-C , 83-H ) :   0.9371 B( 37-C , 38-C ) :   1.0776 B( 37-C , 84-H ) :   0.9335
B( 37-C , 85-H ) :   0.9231 B( 38-C , 39-F ) :   1.0179 B( 38-C , 86-H ) :   0.9122
B( 40-C , 41-O ) :   1.1862 B( 40-C , 44-C ) :   1.4020 B( 41-O , 42-C ) :   1.1418
B( 42-C , 43-C ) :   1.3740 B( 42-C , 49-C ) :   1.1683 B( 43-C , 44-C ) :   1.3260
B( 43-C , 47-C ) :   1.1544 B( 44-C , 45-C ) :   1.1495 B( 44-C , 46-N ) :   0.1013
B( 45-C , 46-N ) :   3.0071 B( 47-C , 48-N ) :   3.0215 B( 49-C , 50-C ) :   1.5644
B( 49-C , 87-H ) :   0.9699 B( 50-C , 51-C ) :   1.1313 B( 50-C , 88-H ) :   0.9861
B( 51-C , 52-C ) :   1.5661 B( 51-C , 89-H ) :   0.9638 B( 52-C , 53-C ) :   1.0531
B( 52-C , 61-C ) :   0.9393 B( 53-C , 54-C ) :   1.6374 B( 53-C , 59-C ) :   0.9917
B( 54-C , 55-C ) :   1.1456 B( 54-C , 57-C ) :   1.1443 B( 55-C , 56-N ) :   2.9620
B( 57-C , 58-N ) :   2.9609 B( 59-C , 60-C ) :   1.2145 B( 59-C , 66-C ) :   1.4459
B( 60-C , 61-C ) :   0.9508 B( 60-C , 63-C ) :   1.4664 B( 61-C , 62-O ) :   2.1767
B( 63-C , 64-C ) :   1.1833 B( 63-C , 90-H ) :   1.0153 B( 64-C , 65-C ) :   1.2558
B( 64-C , 70-C ) :   1.2422 B( 65-C , 66-C ) :   1.2086 B( 65-C , 67-C ) :   1.2386
B( 66-C , 91-H ) :   0.9892 B( 67-C , 68-C ) :   1.4907 B( 67-C , 92-H ) :   0.9976
B( 68-C , 69-C ) :   1.2597 B( 68-C , 93-H ) :   0.9881 B( 69-C , 70-C ) :   1.4889
B( 69-C , 94-H ) :   0.9891 B( 70-C , 95-H ) :   0.9981

-----------------------------------------------------------------------------
         ABSORPTION SPECTRUM VIA TRANSITION ELECTRIC DIPOLE MOMENTS
-----------------------------------------------------------------------------
State   Energy  Wavelength   fosc         T2         TX        TY        TZ
        (cm-1)    (nm)                  (au**2)     (au)      (au)      (au)
-----------------------------------------------------------------------------
   0   17719.5    564.3   2.172803885  40.36866   4.34857  -4.39809  -1.45446
   1   21136.4    473.1   0.223946948   3.48811   1.54712  -0.06255  -1.04433
   2   24575.5    406.9   0.013280698   0.17791   0.18129   0.11630  -0.36265
   3   25316.6    395.0   0.057320781   0.74539   0.70786  -0.15277  -0.47009
   4   26479.4    377.7   0.023827841   0.29625   0.32459   0.37866  -0.21796
   5   26619.6    375.7   0.000507562   0.00628  -0.02442   0.06087   0.04445
   6   27298.9    366.3   0.456348883   5.50336   0.50159   1.43162  -1.78948
   7   27857.7    359.0   0.028476488   0.33652  -0.20257   0.51987  -0.15883
   8   28031.3    356.7   0.007616207   0.08945  -0.01491   0.26445  -0.13890
   9   28741.2    347.9   0.058269991   0.66745   0.29106  -0.71432   0.26923
  10   29536.2    338.6   0.308137638   3.43452   1.40545  -0.64345  -1.02235
  11   29849.6    335.0   0.371739158   4.09992  -0.18757  -1.51583   1.32929
  12   30472.8    328.2   0.153862968   1.66225  -1.12080   0.44460   0.45651
  13   32657.2    306.2   0.365808823   3.68766   0.61637   1.01211  -1.51108
  14   32921.0    303.8   0.416026630   4.16029  -1.66415  -0.01978   1.17919
  15   33105.9    302.1   0.372511611   3.70433   0.45630  -1.49681   1.12057
  16   33673.3    297.0   0.354874608   3.46948   0.96033   0.74517  -1.41137
  17   33957.0    294.5   0.002932402   0.02843  -0.03565  -0.12082   0.11208
  18   34402.4    290.7   0.041206241   0.39432   0.16511  -0.38643   0.46662
  19   34616.7    288.9   0.087725347   0.83429  -0.61671   0.00210   0.67376
  20   35027.5    285.5   0.048591716   0.45670   0.11484   0.28871  -0.60013
  21   35264.8    283.6   0.019325037   0.18041   0.14485   0.32361  -0.23389
  22   35486.8    281.8   0.006504215   0.06034  -0.22420   0.10032   0.00361
  23   35738.3    279.8   0.037150347   0.34222  -0.40574  -0.26397   0.32850
  24   36226.6    276.0   0.072096937   0.65519  -0.68415   0.38886   0.18950
  25   36483.6    274.1   0.254550621   2.29695  -0.14295  -1.17761   0.94326
  26   37049.6    269.9   0.046208488   0.41060  -0.31676  -0.24533   0.50007
  27   37821.5    264.4   0.119837125   1.04311  -0.39893  -0.60656   0.71836
  28   38188.5    261.9   0.310794822   2.67927   1.01549   0.07685  -1.28146
  29   38392.3    260.5   0.020750538   0.17793  -0.31484   0.25678   0.11349
  30   38713.5    258.3   0.190830934   1.62279  -0.16767   1.11748  -0.58815
  31   39383.0    253.9   0.134013903   1.12025  -0.31765  -0.55740   0.84182
  32   39560.3    252.8   0.248985335   2.07200   0.43816  -1.23871   0.58790
  33   39759.0    251.5   0.005401032   0.04472   0.07104  -0.04912   0.19303
  34   40256.1    248.4   0.018654269   0.15255   0.34981   0.03060  -0.17103

FINAL SINGLE POINT ENERGY     -3788.014402172653

DIPOLE MOMENT
-------------
                                X             Y             Z
Electronic contribution:    -14.48291     -20.93032      27.42699
Nuclear contribution   :     17.18200      23.67468     -31.27284
                        -----------------------------------------
Total Dipole Moment    :      2.69909       2.74435      -3.84585
                        -----------------------------------------
Magnitude (a.u.)       :      5.44124
Magnitude (Debye)      :     13.83054

Rotational constants in cm-1:     0.002098     0.000244     0.000220
Rotational constants in MHz :    62.890802     7.316695     6.608855

                             ****ORCA TERMINATED NORMALLY****
TOTAL RUN TIME: 0 days 0 hours 9 minutes 7 seconds 263 msec
