                         Program Version 4.2.0 -  RELEASE  -
|  1> # ORCA input file
|  2> # SCF done       -208.155940028205          0.000980339317
|  3> ! CAM-B3LYP def2-SVP def2/J RIJCOSX Grid4 TightSCF
|  4> %maxcore 5000
|  5> %tddft
|  6>     Mode sTDDFT
|  7>     Ethresh 5.0
|  8>     maxcore 5000
|  9> end
| 10>
| 11> %pal
| 12>   nprocs 6
| 13>   end
| 14> * xyz 0 1
| 15>    C        1.98690         3.39498        -9.81405
| 16>    C        2.19230         2.10902       -10.23500
| 17>    C        3.14080         1.73839       -11.21084
| 18>    N        3.89113         1.38723       -12.00490
| 19>    C        1.51909         0.99310        -9.69322
| 20>    N        1.04007         0.05148        -9.24489
| 21>    C        2.76164         4.56683       -10.19488
| 22>    C        2.35091         5.66626        -9.38494
| 23>    C        2.92727         6.89944        -9.50232
| 24>    C        3.95670         7.09242       -10.44995
| 25>    C        4.36493         6.00004       -11.26954
| 26>    C        3.75041         4.73490       -11.12721
| 27>    C        5.38975         6.20608       -12.21490
| 28>    C        5.98644         7.43091       -12.34453
| 29>    C        5.58507         8.50521       -11.53658
| 30>    C        4.59198         8.33977       -10.60950
| 31>    C        1.26751         5.24180        -8.48880
| 32>    O        0.63691         5.94422        -7.72138
| 33>    C        1.03134         3.80759        -8.80381
| 34>    C       -0.04408         3.11396        -8.34444
| 35>    C       -0.82188         3.55457        -7.23723
| 36>    C       -2.19563         3.72966        -7.17363
| 37>    N       -3.09698         3.46539        -8.21688
| 38>    O       -4.28391         3.62530        -7.99612
| 39>    O       -2.63644         3.08566        -9.28322
| 40>    C       -2.53921         4.33693        -5.92154
| 41>    C       -1.38893         4.57128        -5.23003
| 42>    C       -0.27897         4.07370        -5.98826
| 43>    C        1.04250         3.95281        -5.58592
| 44>    C        1.95527         2.93017        -5.94091
| 45>    C        3.09386         3.08849        -5.19739
| 46>    C        2.97954         4.25643        -4.38502
| 47>    N        4.02639         4.65727        -3.54764
| 48>    O        3.82166         5.52162        -2.70521
| 49>    O        5.10293         4.09995        -3.69159
| 50>    C        1.73068         4.85333        -4.62918
| 51>    C        1.19733         6.12406        -4.41213
| 52>    C        1.64085         7.14169        -3.59406
| 53>    C        1.03167         8.39648        -3.57808
| 54>    S        1.33750         9.48344        -2.24036
| 55>    C        0.16226        10.64738        -2.79349
| 56>    C       -0.36715        10.22280        -4.01399
| 57>    C        0.11962         8.98069        -4.48047
| 58>    C       -0.39599         8.64961        -5.75922
| 59>    C       -1.26431         9.58047        -6.23470
| 60>    C       -2.00065         9.55694        -7.52013
| 61>    S       -1.48648        10.92294        -5.13215
| 62>    C       -0.18199        11.77459        -2.01002
| 63>    C       -1.24344        12.58850        -2.29637
| 64>    C       -1.66675        13.62297        -1.43501
| 65>    C       -0.93131        14.02454        -0.35897
| 66>    C        0.47156        13.46746        -0.21001
| 67>    C        0.59827        12.02206        -0.72841
| 68>    N        1.97538        11.64189        -0.94392
| 69>    C        2.80071        12.53207        -1.27887
| 70>    C        2.42710        13.95982        -1.36714
| 71>    N        1.35654        14.39910        -0.87787
| 72>    F        3.25486        14.77916        -1.99723
| 73>    F        4.05577        12.19519        -1.52893
| 74>    C       -1.29335        15.05484         0.54908
| 75>    C       -2.54549        15.39490         0.97257
| 76>    C       -2.85513        16.48901         1.87840
| 77>    C       -2.04918        17.56063         2.16017
| 78>    C       -2.41485        18.61448         3.02449
| 79>    N       -2.65434        19.49866         3.71602
| 80>    C       -0.76483        17.77987         1.61714
| 81>    N        0.28197        18.03441         1.22042
| 82>    C       -4.20656        16.28493         2.38327
| 83>    C       -4.75423        15.13134         1.75312
| 84>    C       -3.77132        14.55944         0.82023
| 85>    O       -3.92529        13.57754         0.12543
| 86>    C       -6.01483        14.68568         2.03132
| 87>    C       -6.80034        15.38625         2.97303
| 88>    C       -6.25721        16.53753         3.61418
| 89>    C       -4.94921        16.97591         3.30407
| 90>    C       -7.04690        17.22356         4.55912
| 91>    C       -8.31241        16.79574         4.85638
| 92>    C       -8.84672        15.66368         4.22293
| 93>    C       -8.10709        14.97428         3.30055
| 94>    H        2.60525         7.71874        -8.87620
| 95>    H        4.07501         3.92754       -11.76455
| 96>    H        5.69655         5.37553       -12.83323
| 97>    H        6.77197         7.57825       -13.07015
| 98>    H        6.06684         9.46444       -11.65200
| 99>    H        4.27954         9.16359        -9.98450
|100>    H       -0.38147         2.22183        -8.85893
|101>    H       -3.54548         4.56085        -5.62297
|102>    H       -1.32019         4.94887        -4.22753
|103>    H        1.73603         2.10744        -6.59482
|104>    H        3.95771         2.44987        -5.19056
|105>    H        0.30371         6.32222        -4.98361
|106>    H        2.44359         6.96288        -2.89190
|107>    H       -0.11809         7.78474        -6.33417
|108>    H       -1.67300         8.71025        -8.11810
|109>    H       -1.83431        10.47755        -8.07844
|110>    H       -3.07284         9.46747        -7.34384
|111>    H       -1.82925        12.40611        -3.18320
|112>    H       -2.59891        14.11123        -1.66350
|113>    H        0.75875        13.48730         0.85064
|114>    H        0.20858        11.32879         0.03022
|115>    H       -0.45182        15.57626         0.99107
|116>    H       -6.40655        13.80840         1.53818
|117>    H       -4.56471        17.84627         3.81154
|118>    H       -6.63225        18.09537         5.04337
|119>    H       -8.90914        17.32780         5.58186
|120>    H       -9.84675        15.34029         4.46982
|121>    H       -8.51264        14.10174         2.80971
|122> *
|123>
|124>                          ****END OF INPUT****

CARTESIAN COORDINATES (ANGSTROEM)
---------------------------------
  C      1.986900    3.394980   -9.814050
  C      2.192300    2.109020  -10.235000
  C      3.140800    1.738390  -11.210840
  N      3.891130    1.387230  -12.004900
  C      1.519090    0.993100   -9.693220
  N      1.040070    0.051480   -9.244890
  C      2.761640    4.566830  -10.194880
  C      2.350910    5.666260   -9.384940
  C      2.927270    6.899440   -9.502320
  C      3.956700    7.092420  -10.449950
  C      4.364930    6.000040  -11.269540
  C      3.750410    4.734900  -11.127210
  C      5.389750    6.206080  -12.214900
  C      5.986440    7.430910  -12.344530
  C      5.585070    8.505210  -11.536580
  C      4.591980    8.339770  -10.609500
  C      1.267510    5.241800   -8.488800
  O      0.636910    5.944220   -7.721380
  C      1.031340    3.807590   -8.803810
  C     -0.044080    3.113960   -8.344440
  C     -0.821880    3.554570   -7.237230
  C     -2.195630    3.729660   -7.173630
  N     -3.096980    3.465390   -8.216880
  O     -4.283910    3.625300   -7.996120
  O     -2.636440    3.085660   -9.283220
  C     -2.539210    4.336930   -5.921540
  C     -1.388930    4.571280   -5.230030
  C     -0.278970    4.073700   -5.988260
  C      1.042500    3.952810   -5.585920
  C      1.955270    2.930170   -5.940910
  C      3.093860    3.088490   -5.197390
  C      2.979540    4.256430   -4.385020
  N      4.026390    4.657270   -3.547640
  O      3.821660    5.521620   -2.705210
  O      5.102930    4.099950   -3.691590
  C      1.730680    4.853330   -4.629180
  C      1.197330    6.124060   -4.412130
  C      1.640850    7.141690   -3.594060
  C      1.031670    8.396480   -3.578080
  S      1.337500    9.483440   -2.240360
  C      0.162260   10.647380   -2.793490
  C     -0.367150   10.222800   -4.013990
  C      0.119620    8.980690   -4.480470
  C     -0.395990    8.649610   -5.759220
  C     -1.264310    9.580470   -6.234700
  C     -2.000650    9.556940   -7.520130
  S     -1.486480   10.922940   -5.132150
  C     -0.181990   11.774590   -2.010020
  C     -1.243440   12.588500   -2.296370
  C     -1.666750   13.622970   -1.435010
  C     -0.931310   14.024540   -0.358970
  C      0.471560   13.467460   -0.210010
  C      0.598270   12.022060   -0.728410
  N      1.975380   11.641890   -0.943920
  C      2.800710   12.532070   -1.278870
  C      2.427100   13.959820   -1.367140
  N      1.356540   14.399100   -0.877870
  F      3.254860   14.779160   -1.997230
  F      4.055770   12.195190   -1.528930
  C     -1.293350   15.054840    0.549080
  C     -2.545490   15.394900    0.972570
  C     -2.855130   16.489010    1.878400
  C     -2.049180   17.560630    2.160170
  C     -2.414850   18.614480    3.024490
  N     -2.654340   19.498660    3.716020
  C     -0.764830   17.779870    1.617140
  N      0.281970   18.034410    1.220420
  C     -4.206560   16.284930    2.383270
  C     -4.754230   15.131340    1.753120
  C     -3.771320   14.559440    0.820230
  O     -3.925290   13.577540    0.125430
  C     -6.014830   14.685680    2.031320
  C     -6.800340   15.386250    2.973030
  C     -6.257210   16.537530    3.614180
  C     -4.949210   16.975910    3.304070
  C     -7.046900   17.223560    4.559120
  C     -8.312410   16.795740    4.856380
  C     -8.846720   15.663680    4.222930
  C     -8.107090   14.974280    3.300550
  H      2.605250    7.718740   -8.876200
  H      4.075010    3.927540  -11.764550
  H      5.696550    5.375530  -12.833230
  H      6.771970    7.578250  -13.070150
  H      6.066840    9.464440  -11.652000
  H      4.279540    9.163590   -9.984500
  H     -0.381470    2.221830   -8.858930
  H     -3.545480    4.560850   -5.622970
  H     -1.320190    4.948870   -4.227530
  H      1.736030    2.107440   -6.594820
  H      3.957710    2.449870   -5.190560
  H      0.303710    6.322220   -4.983610
  H      2.443590    6.962880   -2.891900
  H     -0.118090    7.784740   -6.334170
  H     -1.673000    8.710250   -8.118100
  H     -1.834310   10.477550   -8.078440
  H     -3.072840    9.467470   -7.343840
  H     -1.829250   12.406110   -3.183200
  H     -2.598910   14.111230   -1.663500
  H      0.758750   13.487300    0.850640
  H      0.208580   11.328790    0.030220
  H     -0.451820   15.576260    0.991070
  H     -6.406550   13.808400    1.538180
  H     -4.564710   17.846270    3.811540
  H     -6.632250   18.095370    5.043370
  H     -8.909140   17.327800    5.581860
  H     -9.846750   15.340290    4.469820
  H     -8.512640   14.101740    2.809710

 Total Charge           Charge          ....    0
 Multiplicity           Mult            ....    1
 Number of Electrons    NEL             ....  548
 Basis Dimension        Dim             .... 1254

ORBITAL ENERGIES
----------------

  NO   OCC          E(Eh)            E(eV)
   0   2.0000     -88.983113     -2421.3536
   1   2.0000     -88.976528     -2421.1744
   2   2.0000     -24.824154      -675.4996
   3   2.0000     -24.816981      -675.3044
   4   2.0000     -19.241944      -523.5999
   5   2.0000     -19.241173      -523.5789
   6   2.0000     -19.231689      -523.3209
   7   2.0000     -19.226700      -523.1851
   8   2.0000     -19.223577      -523.1001
   9   2.0000     -19.222684      -523.0758
  10   2.0000     -14.649292      -398.6275
  11   2.0000     -14.635306      -398.2469
  12   2.0000     -14.451850      -393.2548
  13   2.0000     -14.446496      -393.1092
  14   2.0000     -14.421392      -392.4260
  15   2.0000     -14.421114      -392.4185
  16   2.0000     -14.418034      -392.3346
  17   2.0000     -14.417487      -392.3198
  18   2.0000     -10.439934      -284.0850
  19   2.0000     -10.432330      -283.8781
  20   2.0000     -10.381605      -282.4978
  21   2.0000     -10.374707      -282.3101
  22   2.0000     -10.352443      -281.7043
  23   2.0000     -10.350438      -281.6497
  24   2.0000     -10.346550      -281.5439
  25   2.0000     -10.346452      -281.5413
  26   2.0000     -10.346113      -281.5320
  27   2.0000     -10.343759      -281.4680
  28   2.0000     -10.341920      -281.4179
  29   2.0000     -10.332960      -281.1741
  30   2.0000     -10.329764      -281.0872
  31   2.0000     -10.328879      -281.0631
  32   2.0000     -10.328261      -281.0463
  33   2.0000     -10.326777      -281.0059
  34   2.0000     -10.326403      -280.9957
  35   2.0000     -10.325582      -280.9734
  36   2.0000     -10.323358      -280.9129
  37   2.0000     -10.323089      -280.9055
  38   2.0000     -10.322752      -280.8963
  39   2.0000     -10.321709      -280.8680
  40   2.0000     -10.320708      -280.8408
  41   2.0000     -10.319778      -280.8154
  42   2.0000     -10.317171      -280.7445
  43   2.0000     -10.315431      -280.6972
  44   2.0000     -10.314834      -280.6809
  45   2.0000     -10.310780      -280.5706
  46   2.0000     -10.310767      -280.5702
  47   2.0000     -10.309973      -280.5486
  48   2.0000     -10.309813      -280.5443
  49   2.0000     -10.309450      -280.5344
  50   2.0000     -10.307710      -280.4871
  51   2.0000     -10.307369      -280.4778
  52   2.0000     -10.307204      -280.4733
  53   2.0000     -10.306824      -280.4629
  54   2.0000     -10.306540      -280.4552
  55   2.0000     -10.305518      -280.4274
  56   2.0000     -10.305233      -280.4197
  57   2.0000     -10.304191      -280.3913
  58   2.0000     -10.302423      -280.3432
  59   2.0000     -10.302178      -280.3365
  60   2.0000     -10.301808      -280.3264
  61   2.0000     -10.301101      -280.3072
  62   2.0000     -10.300483      -280.2904
  63   2.0000     -10.298665      -280.2409
  64   2.0000     -10.298335      -280.2319
  65   2.0000     -10.295926      -280.1664
  66   2.0000     -10.293749      -280.1072
  67   2.0000     -10.293492      -280.1002
  68   2.0000     -10.292936      -280.0850
  69   2.0000     -10.292559      -280.0748
  70   2.0000     -10.292434      -280.0714
  71   2.0000     -10.291887      -280.0565
  72   2.0000     -10.291047      -280.0336
  73   2.0000     -10.290555      -280.0202
  74   2.0000     -10.290156      -280.0094
  75   2.0000     -10.290149      -280.0092
  76   2.0000     -10.289625      -279.9949
  77   2.0000     -10.289552      -279.9929
  78   2.0000     -10.278177      -279.6834
  79   2.0000      -8.076931      -219.7845
  80   2.0000      -8.071988      -219.6500
  81   2.0000      -6.046325      -164.5289
  82   2.0000      -6.041905      -164.4086
  83   2.0000      -6.041662      -164.4020
  84   2.0000      -6.039117      -164.3327
  85   2.0000      -6.037284      -164.2829
  86   2.0000      -6.033549      -164.1812
  87   2.0000      -1.352497       -36.8033
  88   2.0000      -1.336328       -36.3633
  89   2.0000      -1.319702       -35.9109
  90   2.0000      -1.303982       -35.4832
  91   2.0000      -1.145119       -31.1603
  92   2.0000      -1.138146       -30.9705
  93   2.0000      -1.137640       -30.9568
  94   2.0000      -1.120587       -30.4927
  95   2.0000      -1.104276       -30.0489
  96   2.0000      -1.037711       -28.2376
  97   2.0000      -1.027613       -27.9628
  98   2.0000      -1.025239       -27.8982
  99   2.0000      -1.021394       -27.7936
 100   2.0000      -1.016035       -27.6477
 101   2.0000      -1.005622       -27.3644
 102   2.0000      -1.002313       -27.2743
 103   2.0000      -0.999681       -27.2027
 104   2.0000      -0.996277       -27.1101
 105   2.0000      -0.995372       -27.0854
 106   2.0000      -0.981425       -26.7059
 107   2.0000      -0.978580       -26.6285
 108   2.0000      -0.975023       -26.5317
 109   2.0000      -0.966369       -26.2962
 110   2.0000      -0.934723       -25.4351
 111   2.0000      -0.932586       -25.3770
 112   2.0000      -0.925307       -25.1789
 113   2.0000      -0.913068       -24.8458
 114   2.0000      -0.910136       -24.7661
 115   2.0000      -0.906700       -24.6726
 116   2.0000      -0.893102       -24.3025
 117   2.0000      -0.889513       -24.2049
 118   2.0000      -0.885500       -24.0957
 119   2.0000      -0.884236       -24.0613
 120   2.0000      -0.882471       -24.0133
 121   2.0000      -0.877093       -23.8669
 122   2.0000      -0.870242       -23.6805
 123   2.0000      -0.867931       -23.6176
 124   2.0000      -0.847996       -23.0751
 125   2.0000      -0.838100       -22.8059
 126   2.0000      -0.835906       -22.7462
 127   2.0000      -0.832757       -22.6605
 128   2.0000      -0.830443       -22.5975
 129   2.0000      -0.811917       -22.0934
 130   2.0000      -0.801265       -21.8035
 131   2.0000      -0.797971       -21.7139
 132   2.0000      -0.791198       -21.5296
 133   2.0000      -0.781982       -21.2788
 134   2.0000      -0.773877       -21.0583
 135   2.0000      -0.769604       -20.9420
 136   2.0000      -0.766146       -20.8479
 137   2.0000      -0.765497       -20.8302
 138   2.0000      -0.738864       -20.1055
 139   2.0000      -0.729207       -19.8427
 140   2.0000      -0.719146       -19.5690
 141   2.0000      -0.714081       -19.4311
 142   2.0000      -0.711429       -19.3590
 143   2.0000      -0.708540       -19.2804
 144   2.0000      -0.706508       -19.2250
 145   2.0000      -0.703156       -19.1339
 146   2.0000      -0.700937       -19.0735
 147   2.0000      -0.686899       -18.6915
 148   2.0000      -0.683833       -18.6080
 149   2.0000      -0.683324       -18.5942
 150   2.0000      -0.676367       -18.4049
 151   2.0000      -0.672519       -18.3002
 152   2.0000      -0.671147       -18.2628
 153   2.0000      -0.663213       -18.0469
 154   2.0000      -0.654522       -17.8105
 155   2.0000      -0.650925       -17.7126
 156   2.0000      -0.646881       -17.6025
 157   2.0000      -0.642805       -17.4916
 158   2.0000      -0.637772       -17.3547
 159   2.0000      -0.636199       -17.3119
 160   2.0000      -0.634516       -17.2661
 161   2.0000      -0.630907       -17.1678
 162   2.0000      -0.629503       -17.1297
 163   2.0000      -0.625280       -17.0147
 164   2.0000      -0.619206       -16.8494
 165   2.0000      -0.616739       -16.7823
 166   2.0000      -0.614402       -16.7187
 167   2.0000      -0.613215       -16.6864
 168   2.0000      -0.611978       -16.6528
 169   2.0000      -0.610746       -16.6193
 170   2.0000      -0.608619       -16.5614
 171   2.0000      -0.589695       -16.0464
 172   2.0000      -0.589238       -16.0340
 173   2.0000      -0.583700       -15.8833
 174   2.0000      -0.581782       -15.8311
 175   2.0000      -0.580084       -15.7849
 176   2.0000      -0.578217       -15.7341
 177   2.0000      -0.573184       -15.5971
 178   2.0000      -0.569876       -15.5071
 179   2.0000      -0.564654       -15.3650
 180   2.0000      -0.562433       -15.3046
 181   2.0000      -0.554640       -15.0925
 182   2.0000      -0.554049       -15.0764
 183   2.0000      -0.551978       -15.0201
 184   2.0000      -0.551478       -15.0065
 185   2.0000      -0.550155       -14.9705
 186   2.0000      -0.547506       -14.8984
 187   2.0000      -0.546263       -14.8646
 188   2.0000      -0.543092       -14.7783
 189   2.0000      -0.541348       -14.7308
 190   2.0000      -0.540140       -14.6980
 191   2.0000      -0.538443       -14.6518
 192   2.0000      -0.534393       -14.5416
 193   2.0000      -0.533546       -14.5185
 194   2.0000      -0.531704       -14.4684
 195   2.0000      -0.529227       -14.4010
 196   2.0000      -0.525088       -14.2884
 197   2.0000      -0.524378       -14.2691
 198   2.0000      -0.519086       -14.1250
 199   2.0000      -0.518873       -14.1193
 200   2.0000      -0.515778       -14.0350
 201   2.0000      -0.515312       -14.0223
 202   2.0000      -0.514812       -14.0087
 203   2.0000      -0.512155       -13.9364
 204   2.0000      -0.510300       -13.8860
 205   2.0000      -0.506812       -13.7911
 206   2.0000      -0.506190       -13.7741
 207   2.0000      -0.502089       -13.6625
 208   2.0000      -0.499483       -13.5916
 209   2.0000      -0.497489       -13.5374
 210   2.0000      -0.496474       -13.5098
 211   2.0000      -0.494242       -13.4490
 212   2.0000      -0.490330       -13.3426
 213   2.0000      -0.489389       -13.3170
 214   2.0000      -0.483191       -13.1483
 215   2.0000      -0.481856       -13.1120
 216   2.0000      -0.481610       -13.1053
 217   2.0000      -0.477071       -12.9818
 218   2.0000      -0.474425       -12.9098
 219   2.0000      -0.471235       -12.8229
 220   2.0000      -0.468598       -12.7512
 221   2.0000      -0.464403       -12.6370
 222   2.0000      -0.459128       -12.4935
 223   2.0000      -0.454041       -12.3551
 224   2.0000      -0.451130       -12.2759
 225   2.0000      -0.450356       -12.2548
 226   2.0000      -0.449654       -12.2357
 227   2.0000      -0.449517       -12.2320
 228   2.0000      -0.446605       -12.1527
 229   2.0000      -0.446517       -12.1504
 230   2.0000      -0.444134       -12.0855
 231   2.0000      -0.442276       -12.0349
 232   2.0000      -0.440301       -11.9812
 233   2.0000      -0.439869       -11.9695
 234   2.0000      -0.437628       -11.9085
 235   2.0000      -0.436276       -11.8717
 236   2.0000      -0.434692       -11.8286
 237   2.0000      -0.432611       -11.7720
 238   2.0000      -0.432226       -11.7615
 239   2.0000      -0.429876       -11.6975
 240   2.0000      -0.429268       -11.6810
 241   2.0000      -0.426009       -11.5923
 242   2.0000      -0.422797       -11.5049
 243   2.0000      -0.418416       -11.3857
 244   2.0000      -0.416024       -11.3206
 245   2.0000      -0.410910       -11.1814
 246   2.0000      -0.407522       -11.0892
 247   2.0000      -0.403718       -10.9857
 248   2.0000      -0.399409       -10.8685
 249   2.0000      -0.390157       -10.6167
 250   2.0000      -0.384174       -10.4539
 251   2.0000      -0.382748       -10.4151
 252   2.0000      -0.380183       -10.3453
 253   2.0000      -0.376424       -10.2430
 254   2.0000      -0.375352       -10.2139
 255   2.0000      -0.373059       -10.1515
 256   2.0000      -0.369693       -10.0599
 257   2.0000      -0.364958        -9.9310
 258   2.0000      -0.361224        -9.8294
 259   2.0000      -0.356782        -9.7085
 260   2.0000      -0.353659        -9.6235
 261   2.0000      -0.352701        -9.5975
 262   2.0000      -0.349308        -9.5052
 263   2.0000      -0.345170        -9.3926
 264   2.0000      -0.330539        -8.9944
 265   2.0000      -0.326288        -8.8787
 266   2.0000      -0.323945        -8.8150
 267   2.0000      -0.320800        -8.7294
 268   2.0000      -0.312202        -8.4954
 269   2.0000      -0.306048        -8.3280
 270   2.0000      -0.300815        -8.1856
 271   2.0000      -0.296332        -8.0636
 272   2.0000      -0.288320        -7.8456
 273   2.0000      -0.246122        -6.6973
 274   0.0000      -0.144528        -3.9328
 275   0.0000      -0.105927        -2.8824
 276   0.0000      -0.091980        -2.5029
 277   0.0000      -0.070261        -1.9119
 278   0.0000      -0.067356        -1.8328

MULLIKEN ATOMIC CHARGES
-----------------------
   0 C :    0.310996
   1 C :   -0.324932
   2 C :   -0.183090
   3 N :    0.151978
   4 C :   -0.202271
   5 N :    0.170572
   6 C :    0.050796
   7 C :   -0.003565
   8 C :   -0.076136
   9 C :    0.096216
  10 C :    0.096370
  11 C :   -0.079266
  12 C :   -0.016833
  13 C :    0.036911
  14 C :    0.038269
  15 C :   -0.014813
  16 C :    0.178838
  17 O :   -0.157345
  18 C :   -0.116251
  19 C :   -0.021345
  20 C :    0.012507
  21 C :    0.104590
  22 N :    0.269823
  23 O :   -0.242405
  24 O :   -0.251594
  25 C :   -0.010142
  26 C :    0.007548
  27 C :    0.054650
  28 C :    0.005764
  29 C :    0.000884
  30 C :    0.031962
  31 C :    0.042908
  32 N :    0.281148
  33 O :   -0.274131
  34 O :   -0.264680
  35 C :    0.113785
  36 C :   -0.106776
  37 C :    0.076396
  38 C :   -0.126724
  39 S :    0.214504
  40 C :   -0.112096
  41 C :   -0.058535
  42 C :    0.141128
  43 C :   -0.016478
  44 C :   -0.193928
  45 C :    0.113923
  46 S :    0.116374
  47 C :    0.013107
  48 C :   -0.038852
  49 C :    0.076270
  50 C :    0.008384
  51 C :    0.051908
  52 C :    0.109937
  53 N :   -0.127799
  54 C :    0.137917
  55 C :    0.121850
  56 N :   -0.067446
  57 F :   -0.133076
  58 F :   -0.128829
  59 C :   -0.016438
  60 C :   -0.080269
  61 C :    0.302294
  62 C :   -0.341644
  63 C :   -0.182036
  64 N :    0.145861
  65 C :   -0.206962
  66 N :    0.171075
  67 C :    0.049967
  68 C :   -0.006870
  69 C :    0.147978
  70 O :   -0.154372
  71 C :   -0.078539
  72 C :    0.097997
  73 C :    0.095695
  74 C :   -0.081767
  75 C :   -0.017118
  76 C :    0.034487
  77 C :    0.037761
  78 C :   -0.016611
  79 H :   -0.018737
  80 H :   -0.005777
  81 H :   -0.006754
  82 H :   -0.000476
  83 H :   -0.002713
  84 H :   -0.017010
  85 H :    0.057629
  86 H :   -0.003284
  87 H :    0.000405
  88 H :   -0.005144
  89 H :    0.008206
  90 H :    0.005827
  91 H :    0.022757
  92 H :   -0.002478
  93 H :    0.039784
  94 H :    0.037657
  95 H :    0.047357
  96 H :   -0.010684
  97 H :    0.003953
  98 H :    0.035789
  99 H :    0.050009
 100 H :    0.029410
 101 H :   -0.014874
 102 H :   -0.007615
 103 H :   -0.008339
 104 H :   -0.002422
 105 H :   -0.004158
 106 H :   -0.017686
Sum of atomic charges:   -0.0000000

LOEWDIN ATOMIC CHARGES
----------------------
   0 C :    0.074736
   1 C :   -0.127993
   2 C :   -0.017599
   3 N :   -0.045584
   4 C :   -0.023937
   5 N :   -0.043569
   6 C :   -0.023389
   7 C :   -0.056560
   8 C :    0.034841
   9 C :   -0.008392
  10 C :   -0.003747
  11 C :    0.022139
  12 C :   -0.004080
  13 C :   -0.009322
  14 C :   -0.009912
  15 C :   -0.008547
  16 C :    0.096739
  17 O :   -0.153385
  18 C :   -0.080727
  19 C :    0.084870
  20 C :   -0.010228
  21 C :   -0.028144
  22 N :    0.285877
  23 O :   -0.206816
  24 O :   -0.212935
  25 C :   -0.003465
  26 C :   -0.028019
  27 C :    0.018621
  28 C :    0.066585
  29 C :   -0.069923
  30 C :    0.046389
  31 C :   -0.085078
  32 N :    0.286934
  33 O :   -0.234067
  34 O :   -0.227965
  35 C :    0.023598
  36 C :   -0.027701
  37 C :    0.025063
  38 C :   -0.174370
  39 S :    0.512079
  40 C :   -0.171427
  41 C :   -0.183648
  42 C :   -0.050845
  43 C :   -0.069249
  44 C :   -0.132018
  45 C :   -0.057496
  46 S :    0.414624
  47 C :   -0.026054
  48 C :   -0.024833
  49 C :    0.047541
  50 C :   -0.040731
  51 C :    0.020494
  52 C :    0.016204
  53 N :   -0.093943
  54 C :    0.063316
  55 C :    0.046160
  56 N :   -0.060893
  57 F :   -0.022703
  58 F :   -0.017862
  59 C :    0.069692
  60 C :   -0.087077
  61 C :    0.072118
  62 C :   -0.136076
  63 C :   -0.017095
  64 N :   -0.052068
  65 C :   -0.027612
  66 N :   -0.043315
  67 C :   -0.026052
  68 C :   -0.056869
  69 C :    0.082003
  70 O :   -0.143774
  71 C :    0.032384
  72 C :   -0.008752
  73 C :   -0.005746
  74 C :    0.019618
  75 C :   -0.004889
  76 C :   -0.012287
  77 C :   -0.011484
  78 C :   -0.009470
  79 H :    0.037507
  80 H :    0.040208
  81 H :    0.035933
  82 H :    0.034819
  83 H :    0.034012
  84 H :    0.032029
  85 H :    0.053815
  86 H :    0.036734
  87 H :    0.031558
  88 H :    0.029810
  89 H :    0.040471
  90 H :    0.036803
  91 H :    0.035440
  92 H :    0.035482
  93 H :    0.046754
  94 H :    0.040546
  95 H :    0.045056
  96 H :    0.021859
  97 H :    0.040193
  98 H :    0.040794
  99 H :    0.049431
 100 H :    0.046094
 101 H :    0.038319
 102 H :    0.039275
 103 H :    0.035162
 104 H :    0.033927
 105 H :    0.033235
 106 H :    0.031835

  Mayer bond orders larger than 0.100000
B(  0-C ,  1-C ) :   1.6676 B(  0-C ,  6-C ) :   1.0002 B(  0-C , 18-C ) :   1.0363
B(  1-C ,  2-C ) :   1.1369 B(  1-C ,  4-C ) :   1.1481 B(  2-C ,  3-N ) :   2.9693
B(  4-C ,  5-N ) :   2.9746 B(  6-C ,  7-C ) :   1.2121 B(  6-C , 11-C ) :   1.4496
B(  7-C ,  8-C ) :   1.4630 B(  7-C , 16-C ) :   0.9592 B(  8-C ,  9-C ) :   1.1834
B(  8-C , 79-H ) :   1.0170 B(  9-C , 10-C ) :   1.2536 B(  9-C , 15-C ) :   1.2434
B( 10-C , 11-C ) :   1.2057 B( 10-C , 12-C ) :   1.2393 B( 11-C , 80-H ) :   0.9903
B( 12-C , 13-C ) :   1.4887 B( 12-C , 81-H ) :   0.9975 B( 13-C , 14-C ) :   1.2597
B( 13-C , 82-H ) :   0.9893 B( 14-C , 15-C ) :   1.4887 B( 14-C , 83-H ) :   0.9889
B( 15-C , 84-H ) :   0.9974 B( 16-C , 17-O ) :   2.1233 B( 16-C , 18-C ) :   0.9576
B( 18-C , 19-C ) :   1.6352 B( 19-C , 20-C ) :   1.1127 B( 19-C , 85-H ) :   0.9247
B( 20-C , 21-C ) :   1.5001 B( 20-C , 27-C ) :   1.0863 B( 21-C , 22-N ) :   0.9385
B( 21-C , 25-C ) :   1.1658 B( 22-N , 23-O ) :   1.5312 B( 22-N , 24-O ) :   1.4952
B( 23-O , 24-O ) :   0.2653 B( 25-C , 26-C ) :   1.5341 B( 25-C , 86-H ) :   1.0171
B( 26-C , 27-C ) :   1.1502 B( 26-C , 87-H ) :   1.0033 B( 27-C , 28-C ) :   1.4044
B( 28-C , 29-C ) :   1.2134 B( 28-C , 35-C ) :   1.0052 B( 29-C , 30-C ) :   1.4884
B( 29-C , 88-H ) :   1.0007 B( 30-C , 31-C ) :   1.1730 B( 30-C , 89-H ) :   1.0074
B( 31-C , 32-N ) :   0.9860 B( 31-C , 35-C ) :   1.3640 B( 32-N , 33-O ) :   1.4581
B( 32-N , 34-O ) :   1.5221 B( 33-O , 34-O ) :   0.2375 B( 35-C , 36-C ) :   1.2944
B( 36-C , 37-C ) :   1.4656 B( 36-C , 90-H ) :   0.9540 B( 37-C , 38-C ) :   1.2391
B( 37-C , 91-H ) :   0.9451 B( 38-C , 39-S ) :   1.0842 B( 38-C , 42-C ) :   1.2648
B( 39-S , 40-C ) :   1.1576 B( 40-C , 41-C ) :   1.4247 B( 40-C , 47-C ) :   1.1933
B( 41-C , 42-C ) :   1.2999 B( 41-C , 46-S ) :   1.0725 B( 42-C , 43-C ) :   1.1614
B( 43-C , 44-C ) :   1.6383 B( 43-C , 92-H ) :   0.9793 B( 44-C , 45-C ) :   1.0698
B( 44-C , 46-S ) :   1.0843 B( 45-C , 93-H ) :   0.9548 B( 45-C , 94-H ) :   0.9476
B( 45-C , 95-H ) :   0.9464 B( 47-C , 48-C ) :   1.6207 B( 47-C , 52-C ) :   0.9296
B( 48-C , 49-C ) :   1.1834 B( 48-C , 96-H ) :   0.9686 B( 49-C , 50-C ) :   1.6219
B( 49-C , 97-H ) :   0.9641 B( 50-C , 51-C ) :   0.9730 B( 50-C , 59-C ) :   1.1702
B( 51-C , 52-C ) :   0.9918 B( 51-C , 56-N ) :   1.0193 B( 51-C , 98-H ) :   0.9071
B( 52-C , 53-N ) :   0.9955 B( 52-C , 99-H ) :   0.8785 B( 53-N , 54-C ) :   1.9014
B( 54-C , 55-C ) :   0.9331 B( 54-C , 58-F ) :   1.1838 B( 55-C , 56-N ) :   1.9493
B( 55-C , 57-F ) :   1.1760 B( 59-C , 60-C ) :   1.5865 B( 59-C ,100-H ) :   0.9499
B( 60-C , 61-C ) :   1.0584 B( 60-C , 69-C ) :   0.9385 B( 61-C , 62-C ) :   1.6431
B( 61-C , 67-C ) :   0.9907 B( 62-C , 63-C ) :   1.1435 B( 62-C , 65-C ) :   1.1411
B( 63-C , 64-N ) :   2.9657 B( 65-C , 66-N ) :   2.9928 B( 67-C , 68-C ) :   1.2127
B( 67-C , 74-C ) :   1.4475 B( 68-C , 69-C ) :   0.9488 B( 68-C , 71-C ) :   1.4668
B( 69-C , 70-O ) :   2.2069 B( 71-C , 72-C ) :   1.1790 B( 71-C ,101-H ) :   1.0173
B( 72-C , 73-C ) :   1.2579 B( 72-C , 78-C ) :   1.2419 B( 73-C , 74-C ) :   1.2040
B( 73-C , 75-C ) :   1.2393 B( 74-C ,102-H ) :   0.9916 B( 75-C , 76-C ) :   1.4877
B( 75-C ,103-H ) :   0.9983 B( 76-C , 77-C ) :   1.2600 B( 76-C ,104-H ) :   0.9891
B( 77-C , 78-C ) :   1.4889 B( 77-C ,105-H ) :   0.9885 B( 78-C ,106-H ) :   0.9987

-----------------------------------------------------------------------------
         ABSORPTION SPECTRUM VIA TRANSITION ELECTRIC DIPOLE MOMENTS
-----------------------------------------------------------------------------
State   Energy  Wavelength   fosc         T2         TX        TY        TZ
        (cm-1)    (nm)                  (au**2)     (au)      (au)      (au)
-----------------------------------------------------------------------------
   0    5993.4   1668.5   0.311679414  17.12028  -0.67218   3.44298   2.19416
   1   15179.8    658.8   0.053626508   1.16302  -0.11102   1.02606  -0.31288
   2   16065.4    622.5   0.790670309  16.20243  -1.70405   3.28784   1.57758
   3   17673.2    565.8   0.320047153   5.96175  -1.00333   1.61630   1.53057
   4   18710.6    534.5   0.085081139   1.49699  -0.33834   0.31635   1.13245
   5   20011.0    499.7   0.081425450   1.33958   0.06958  -0.45647  -1.06131
   6   20145.7    496.4   0.029881735   0.48831  -0.28035   0.07680  -0.63547
   7   22139.3    451.7   0.044390064   0.66008  -0.71062  -0.06131  -0.38902
   8   22634.8    441.8   0.009190926   0.13368   0.05554   0.31407   0.17876
   9   23173.3    431.5   0.008329929   0.11834  -0.31226   0.08906   0.11358
  10   23568.3    424.3   0.013070940   0.18258   0.04065   0.41390   0.09806
  11   24091.6    415.1   0.053629997   0.73286   0.20779   0.32544  -0.76405
  12   24530.0    407.7   0.009861800   0.13235  -0.05424   0.20655  -0.29453
  13   24593.6    406.6   0.045005095   0.60244   0.15855   0.08166  -0.75540
  14   24629.9    406.0   0.007363720   0.09843  -0.06217  -0.08630  -0.29515
  15   24804.6    403.2   0.107898235   1.43205   1.08278  -0.50131  -0.09129
  16   25698.4    389.1   0.035708396   0.45745   0.08255  -0.36563  -0.56298
  17   26777.1    373.5   0.028208426   0.34681   0.48480  -0.15216   0.29770
  18   27052.8    369.6   0.094061000   1.14465   0.69576   0.37127  -0.72300
  19   27501.3    363.6   0.237701357   2.84547  -1.50989   0.73432  -0.16270
  20   27590.9    362.4   0.226398014   2.70135   1.61606  -0.24113  -0.17762
  21   28110.0    355.7   0.074609133   0.87379   0.39122  -0.52802   0.66478
  22   28383.6    352.3   0.179327591   2.07996  -1.31855  -0.55535  -0.18159
  23   28587.9    349.8   0.024477612   0.28188  -0.25791  -0.10694  -0.45158
  24   29088.7    343.8   0.040220233   0.45519   0.55674  -0.38012   0.02724
  25   29297.0    341.3   0.001488844   0.01673  -0.04363  -0.11576   0.03775
  26   29486.1    339.1   0.057872467   0.64614   0.34233  -0.38431  -0.61747
  27   29706.2    336.6   0.152706830   1.69234   1.00856   0.14777  -0.80828
  28   30184.4    331.3   0.063484292   0.69240  -0.78888  -0.26145   0.04141
  29   30268.1    330.4   0.008131318   0.08844  -0.03218  -0.01964  -0.29499
  30   30357.0    329.4   0.035101165   0.38066   0.05986   0.00460  -0.61405
  31   30740.8    325.3   0.040121287   0.42967  -0.59132   0.26058   0.11002
  32   31047.2    322.1   0.060462276   0.64112  -0.27646  -0.53582   0.52686
  33   31280.9    319.7   0.072675358   0.76486   0.34864  -0.27761  -0.75249
  34   31486.1    317.6   0.010118558   0.10580   0.15849   0.26934   0.09021
  35   31638.3    316.1   0.223466382   2.32528   1.10329   1.02244  -0.25028
  36   31742.0    315.0   0.111311633   1.15447   0.53398   0.93102  -0.05038
  37   32207.3    310.5   0.185373102   1.89482   1.03700  -0.14150   0.89411
  38   32538.8    307.3   0.019345945   0.19573   0.36836   0.10829   0.21981
  39   32893.1    304.0   0.066454869   0.66512  -0.59917   0.34805  -0.43009
  40   33296.5    300.3   0.057578617   0.56930   0.71411  -0.11436  -0.21508
  41   33381.0    299.6   0.007561316   0.07457  -0.15855   0.13212  -0.17882
  42   33838.0    295.5   0.082641550   0.80402   0.10741   0.87463  -0.16586
  43   33860.4    295.3   0.026985166   0.26237   0.31510  -0.35809  -0.18670
  44   34197.3    292.4   0.418200343   4.02595  -0.85961  -1.79709   0.23977
  45   34411.0    290.6   0.048075866   0.45994   0.57445   0.21034  -0.29276
  46   34444.6    290.3   0.462857194   4.42387  -1.91282  -0.74239   0.46242
  47   34477.7    290.0   0.033574133   0.32058  -0.10195   0.55648  -0.02277
  48   34592.7    289.1   0.288929843   2.74969   1.36887   0.90388  -0.24263
  49   34747.3    287.8   0.149254006   1.41410   1.14724  -0.19473  -0.24498
  50   35103.6    284.9   0.011551213   0.10833   0.27757   0.17659  -0.00995
  51   35409.8    282.4   0.010358015   0.09630   0.29184   0.05757   0.08842
  52   35443.1    282.1   0.035883773   0.33331   0.13366  -0.45204  -0.33332
  53   35518.6    281.5   0.023361091   0.21653   0.04701  -0.17150   0.43001
  54   35559.4    281.2   0.050785680   0.47018   0.68419  -0.04546  -0.00067
  55   36183.8    276.4   0.058510505   0.53235  -0.72281   0.09426  -0.03184
  56   36294.0    275.5   0.011432783   0.10370   0.15440   0.23993   0.14933
  57   36440.7    274.4   0.060647318   0.54790   0.68500   0.27911  -0.02784
  58   36908.3    270.9   0.037553378   0.33497   0.11098   0.45039  -0.34611
  59   37172.9    269.0   0.035492835   0.31433  -0.48478  -0.19812  -0.20017
  60   37230.3    268.6   0.105425986   0.93224  -0.09905  -0.94124   0.19101
  61   37537.3    266.4   0.053537063   0.46953   0.54491  -0.24807  -0.33326
  62   37749.3    264.9   0.026197393   0.22847  -0.21087   0.28933  -0.31669
  63   37976.7    263.3   0.174511035   1.51280   1.15181   0.40775   0.14098
  64   38182.6    261.9   0.016062848   0.13849   0.36745   0.05890   0.00164
  65   38393.3    260.5   0.073000291   0.62596  -0.66367  -0.42239  -0.08415
  66   38523.9    259.6   0.072742204   0.62163  -0.17012   0.60520   0.47584
  67   39115.2    255.7   0.102566553   0.86325   0.20907   0.69811   0.57636
  68   39217.6    255.0   0.066155310   0.55534   0.53403   0.51913  -0.02559
  69   39271.6    254.6   0.062081197   0.52042  -0.48330   0.34204   0.41213
  70   39404.4    253.8   0.074652620   0.62370  -0.28273  -0.58918  -0.44343
  71   39502.2    253.2   0.003576363   0.02981  -0.14385  -0.08933  -0.03367
  72   39689.6    252.0   0.097997263   0.81285   0.71242  -0.26266   0.48613
  73   39883.9    250.7   0.154707510   1.27700  -0.99569  -0.23108   0.48187
  74   40168.5    249.0   0.028070702   0.23006  -0.09409  -0.46879   0.03795
  75   40284.5    248.2   0.059353445   0.48505   0.47904   0.14366  -0.48469

FINAL SINGLE POINT ENERGY     -4221.880467033709

DIPOLE MOMENT
-------------
                                X             Y             Z
Electronic contribution:     24.22292       1.09707       9.84072
Nuclear contribution   :    -26.27879       1.38189      -9.41254
                        -----------------------------------------
Total Dipole Moment    :     -2.05586       2.47896       0.42818
                        -----------------------------------------
Magnitude (a.u.)       :      3.24887
Magnitude (Debye)      :      8.25796

Rotational constants in cm-1:     0.001497     0.000288     0.000267
Rotational constants in MHz :    44.870828     8.644454     8.003933

                             ****ORCA TERMINATED NORMALLY****
TOTAL RUN TIME: 0 days 0 hours 15 minutes 29 seconds 562 msec
