                         Program Version 4.2.0 -  RELEASE  -
|  1> # ORCA input file
|  2> # SCF done       -158.470295256331          0.000344325512
|  3> ! CAM-B3LYP def2-SVP def2/J RIJCOSX Grid4 TightSCF
|  4> %maxcore 5000
|  5> %tddft
|  6>     Mode sTDDFT
|  7>     Ethresh 5.0
|  8>     maxcore 5000
|  9> end
| 10>
| 11> %pal
| 12>   nprocs 6
| 13>   end
| 14> * xyz 0 1
| 15>    C        9.56554         2.65468        -9.87487
| 16>    O       10.53702         2.32210       -10.73577
| 17>    C       10.97954         3.46234       -11.29570
| 18>    C       10.30387         4.53119       -10.80604
| 19>    C        9.36225         4.01464        -9.86262
| 20>    C        8.43122         4.79312        -9.09458
| 21>    C        7.55416         4.29921        -8.19838
| 22>    C        6.65245         5.11471        -7.45579
| 23>    C        5.77651         4.62171        -6.55082
| 24>    C        4.87525         5.43785        -5.79440
| 25>    C        3.98126         4.96993        -4.87255
| 26>    O        3.14066         5.80550        -4.15206
| 27>    C        3.25453         7.13219        -4.42943
| 28>    C        4.18163         7.62188        -5.39471
| 29>    C        4.14166         8.97002        -5.52596
| 30>    S        2.96764         9.66743        -4.47011
| 31>    C        2.52951         8.11875        -3.84788
| 32>    O        5.00307         6.78989        -6.08815
| 33>    C        3.79383         3.58151        -4.53670
| 34>    C        2.94032         3.15833        -3.59779
| 35>    C        2.75099         1.71114        -3.27497
| 36>    C        2.09090         1.40870        -1.94428
| 37>    C        2.26253        -0.13791        -1.78580
| 38>    C        3.20457        -0.82084        -2.79229
| 39>    C        4.31429        -1.40394        -2.34617
| 40>    O        2.92319        -1.04305        -4.13402
| 41>    C        2.49568        -0.02373        -5.06469
| 42>    C        1.74849         0.97595        -4.21324
| 43>    C        0.70864         2.00936        -4.50409
| 44>    C        0.19120         2.47219        -3.36967
| 45>    C        0.60443         1.91329        -2.01614
| 46>    C        0.32401         2.93781        -0.91663
| 47>    C        1.58375        -0.69155        -6.09041
| 48>    C        2.28416        -1.75605        -6.92832
| 49>    C        1.29567        -2.63555        -7.71788
| 50>    C        0.52569        -1.87577        -8.74175
| 51>    S        1.10825        -1.81523       -10.36059
| 52>    C       -0.19931        -0.77290       -10.80486
| 53>    N       -0.29741        -0.34056       -12.13632
| 54>    O       -1.22370         0.39373       -12.42240
| 55>    O        0.55598        -0.73402       -12.91038
| 56>    C       -1.02979        -0.48145        -9.75574
| 57>    C       -0.62280        -1.11537        -8.56355
| 58>    C       -1.26150        -0.95325        -7.27644
| 59>    C       -1.87981         0.16974        -6.87767
| 60>    C       -2.29561         0.42295        -5.53037
| 61>    C       -2.12621        -0.34059        -4.41178
| 62>    C       -2.52140         0.30562        -3.21411
| 63>    C       -3.02047         1.61210        -3.45514
| 64>    S       -2.99178         1.98854        -5.15235
| 65>    C       -3.43494         2.44523        -2.43834
| 66>    C       -3.33680         1.97715        -1.13132
| 67>    C       -2.83305         0.67354        -0.88845
| 68>    C       -2.43374        -0.16647        -1.90515
| 69>    S       -2.78328         0.32805         0.82005
| 70>    C       -3.42725         1.89614         1.17809
| 71>    C       -3.66956         2.64584         0.08425
| 72>    H        9.09713         1.85551        -9.33633
| 73>    H       11.76733         3.37992       -12.01798
| 74>    H       10.44222         5.55988       -11.06864
| 75>    H        8.46140         5.86053        -9.27042
| 76>    H        7.51743         3.23354        -8.01624
| 77>    H        6.68444         6.18003        -7.63409
| 78>    H        5.74796         3.55906        -6.37220
| 79>    H        4.72557         9.58907        -6.17386
| 80>    H        1.77150         8.02814        -3.09866
| 81>    H        4.37469         2.86455        -5.09413
| 82>    H        2.36984         3.88065        -3.03680
| 83>    H        3.73638         1.23846        -3.32379
| 84>    H        2.59232         1.91101        -1.11433
| 85>    H        1.29387        -0.64456        -1.81786
| 86>    H        2.68364        -0.34503        -0.80195
| 87>    H        4.57695        -1.40810        -1.30529
| 88>    H        4.97302        -1.92082        -3.02095
| 89>    H        3.38648         0.39422        -5.55512
| 90>    H        1.16478         0.27691        -3.60714
| 91>    H        0.45032         2.35930        -5.48862
| 92>    H       -0.55038         3.25540        -3.35391
| 93>    H       -0.05443         1.05470        -1.82396
| 94>    H        0.93892         3.82519        -1.04887
| 95>    H        0.53602         2.51302         0.06231
| 96>    H       -0.72188         3.23743        -0.93687
| 97>    H        0.76526        -1.15035        -5.53525
| 98>    H        1.16942         0.08783        -6.73052
| 99>    H        2.85382        -2.40133        -6.25884
|100>    H        2.98143        -1.28343        -7.62251
|101>    H        0.60657        -3.10789        -7.01472
|102>    H        1.86298        -3.42254        -8.21798
|103>    H       -1.89987         0.14103        -9.85675
|104>    H       -1.13963        -1.77128        -6.58313
|105>    H       -2.00549         0.99256        -7.56782
|106>    H       -1.71720        -1.33479        -4.42106
|107>    H       -3.81336         3.43445        -2.64282
|108>    H       -2.05792        -1.15680        -1.69915
|109>    H       -3.58497         2.15836         2.20620
|110>    H       -4.06879         3.64380         0.11669
|111> *
|112>
|113>                          ****END OF INPUT****

CARTESIAN COORDINATES (ANGSTROEM)
---------------------------------
  C      9.565540    2.654680   -9.874870
  O     10.537020    2.322100  -10.735770
  C     10.979540    3.462340  -11.295700
  C     10.303870    4.531190  -10.806040
  C      9.362250    4.014640   -9.862620
  C      8.431220    4.793120   -9.094580
  C      7.554160    4.299210   -8.198380
  C      6.652450    5.114710   -7.455790
  C      5.776510    4.621710   -6.550820
  C      4.875250    5.437850   -5.794400
  C      3.981260    4.969930   -4.872550
  O      3.140660    5.805500   -4.152060
  C      3.254530    7.132190   -4.429430
  C      4.181630    7.621880   -5.394710
  C      4.141660    8.970020   -5.525960
  S      2.967640    9.667430   -4.470110
  C      2.529510    8.118750   -3.847880
  O      5.003070    6.789890   -6.088150
  C      3.793830    3.581510   -4.536700
  C      2.940320    3.158330   -3.597790
  C      2.750990    1.711140   -3.274970
  C      2.090900    1.408700   -1.944280
  C      2.262530   -0.137910   -1.785800
  C      3.204570   -0.820840   -2.792290
  C      4.314290   -1.403940   -2.346170
  O      2.923190   -1.043050   -4.134020
  C      2.495680   -0.023730   -5.064690
  C      1.748490    0.975950   -4.213240
  C      0.708640    2.009360   -4.504090
  C      0.191200    2.472190   -3.369670
  C      0.604430    1.913290   -2.016140
  C      0.324010    2.937810   -0.916630
  C      1.583750   -0.691550   -6.090410
  C      2.284160   -1.756050   -6.928320
  C      1.295670   -2.635550   -7.717880
  C      0.525690   -1.875770   -8.741750
  S      1.108250   -1.815230  -10.360590
  C     -0.199310   -0.772900  -10.804860
  N     -0.297410   -0.340560  -12.136320
  O     -1.223700    0.393730  -12.422400
  O      0.555980   -0.734020  -12.910380
  C     -1.029790   -0.481450   -9.755740
  C     -0.622800   -1.115370   -8.563550
  C     -1.261500   -0.953250   -7.276440
  C     -1.879810    0.169740   -6.877670
  C     -2.295610    0.422950   -5.530370
  C     -2.126210   -0.340590   -4.411780
  C     -2.521400    0.305620   -3.214110
  C     -3.020470    1.612100   -3.455140
  S     -2.991780    1.988540   -5.152350
  C     -3.434940    2.445230   -2.438340
  C     -3.336800    1.977150   -1.131320
  C     -2.833050    0.673540   -0.888450
  C     -2.433740   -0.166470   -1.905150
  S     -2.783280    0.328050    0.820050
  C     -3.427250    1.896140    1.178090
  C     -3.669560    2.645840    0.084250
  H      9.097130    1.855510   -9.336330
  H     11.767330    3.379920  -12.017980
  H     10.442220    5.559880  -11.068640
  H      8.461400    5.860530   -9.270420
  H      7.517430    3.233540   -8.016240
  H      6.684440    6.180030   -7.634090
  H      5.747960    3.559060   -6.372200
  H      4.725570    9.589070   -6.173860
  H      1.771500    8.028140   -3.098660
  H      4.374690    2.864550   -5.094130
  H      2.369840    3.880650   -3.036800
  H      3.736380    1.238460   -3.323790
  H      2.592320    1.911010   -1.114330
  H      1.293870   -0.644560   -1.817860
  H      2.683640   -0.345030   -0.801950
  H      4.576950   -1.408100   -1.305290
  H      4.973020   -1.920820   -3.020950
  H      3.386480    0.394220   -5.555120
  H      1.164780    0.276910   -3.607140
  H      0.450320    2.359300   -5.488620
  H     -0.550380    3.255400   -3.353910
  H     -0.054430    1.054700   -1.823960
  H      0.938920    3.825190   -1.048870
  H      0.536020    2.513020    0.062310
  H     -0.721880    3.237430   -0.936870
  H      0.765260   -1.150350   -5.535250
  H      1.169420    0.087830   -6.730520
  H      2.853820   -2.401330   -6.258840
  H      2.981430   -1.283430   -7.622510
  H      0.606570   -3.107890   -7.014720
  H      1.862980   -3.422540   -8.217980
  H     -1.899870    0.141030   -9.856750
  H     -1.139630   -1.771280   -6.583130
  H     -2.005490    0.992560   -7.567820
  H     -1.717200   -1.334790   -4.421060
  H     -3.813360    3.434450   -2.642820
  H     -2.057920   -1.156800   -1.699150
  H     -3.584970    2.158360    2.206200
  H     -4.068790    3.643800    0.116690

 Total Charge           Charge          ....    0
 Multiplicity           Mult            ....    1
 Number of Electrons    NEL             ....  434
 Basis Dimension        Dim             .... 1009

ORBITAL ENERGIES
----------------

  NO   OCC          E(Eh)            E(eV)
   0   2.0000     -88.976113     -2421.1631
   1   2.0000     -88.949278     -2420.4329
   2   2.0000     -88.949052     -2420.4267
   3   2.0000     -88.948751     -2420.4186
   4   2.0000     -19.280812      -524.6576
   5   2.0000     -19.263487      -524.1861
   6   2.0000     -19.261442      -524.1305
   7   2.0000     -19.234934      -523.4092
   8   2.0000     -19.234392      -523.3944
   9   2.0000     -19.224056      -523.1132
  10   2.0000     -14.646115      -398.5411
  11   2.0000     -10.339020      -281.3390
  12   2.0000     -10.332747      -281.1683
  13   2.0000     -10.331348      -281.1303
  14   2.0000     -10.331105      -281.1236
  15   2.0000     -10.330751      -281.1140
  16   2.0000     -10.323069      -280.9050
  17   2.0000     -10.320529      -280.8359
  18   2.0000     -10.320202      -280.8270
  19   2.0000     -10.310266      -280.5566
  20   2.0000     -10.309995      -280.5492
  21   2.0000     -10.307790      -280.4892
  22   2.0000     -10.301589      -280.3205
  23   2.0000     -10.301530      -280.3189
  24   2.0000     -10.301240      -280.3110
  25   2.0000     -10.299039      -280.2511
  26   2.0000     -10.295410      -280.1523
  27   2.0000     -10.290782      -280.0264
  28   2.0000     -10.290463      -280.0177
  29   2.0000     -10.289912      -280.0027
  30   2.0000     -10.285271      -279.8764
  31   2.0000     -10.284604      -279.8583
  32   2.0000     -10.284579      -279.8576
  33   2.0000     -10.283834      -279.8373
  34   2.0000     -10.283606      -279.8311
  35   2.0000     -10.283181      -279.8196
  36   2.0000     -10.275833      -279.6196
  37   2.0000     -10.275530      -279.6114
  38   2.0000     -10.271244      -279.4948
  39   2.0000     -10.269883      -279.4577
  40   2.0000     -10.269467      -279.4464
  41   2.0000     -10.268726      -279.4262
  42   2.0000     -10.267390      -279.3899
  43   2.0000     -10.266092      -279.3546
  44   2.0000     -10.265501      -279.3385
  45   2.0000     -10.264507      -279.3114
  46   2.0000     -10.264402      -279.3086
  47   2.0000     -10.264386      -279.3081
  48   2.0000     -10.263431      -279.2822
  49   2.0000     -10.262319      -279.2519
  50   2.0000     -10.262191      -279.2484
  51   2.0000     -10.261925      -279.2412
  52   2.0000     -10.257936      -279.1326
  53   2.0000     -10.257695      -279.1261
  54   2.0000     -10.251026      -278.9446
  55   2.0000     -10.248953      -278.8882
  56   2.0000     -10.239348      -278.6268
  57   2.0000      -8.071803      -219.6449
  58   2.0000      -8.045277      -218.9231
  59   2.0000      -8.045131      -218.9191
  60   2.0000      -8.044492      -218.9018
  61   2.0000      -6.041107      -164.3869
  62   2.0000      -6.036709      -164.2672
  63   2.0000      -6.033983      -164.1930
  64   2.0000      -6.014957      -163.6753
  65   2.0000      -6.014693      -163.6681
  66   2.0000      -6.014004      -163.6494
  67   2.0000      -6.010789      -163.5619
  68   2.0000      -6.010700      -163.5595
  69   2.0000      -6.009886      -163.5373
  70   2.0000      -6.006637      -163.4489
  71   2.0000      -6.006408      -163.4427
  72   2.0000      -6.006153      -163.4357
  73   2.0000      -1.316349       -35.8197
  74   2.0000      -1.198838       -32.6220
  75   2.0000      -1.187992       -32.3269
  76   2.0000      -1.150893       -31.3174
  77   2.0000      -1.135061       -30.8866
  78   2.0000      -1.121478       -30.5170
  79   2.0000      -1.010010       -27.4838
  80   2.0000      -0.999695       -27.2031
  81   2.0000      -0.976499       -26.5719
  82   2.0000      -0.974720       -26.5235
  83   2.0000      -0.955722       -26.0065
  84   2.0000      -0.925756       -25.1911
  85   2.0000      -0.915359       -24.9082
  86   2.0000      -0.914511       -24.8851
  87   2.0000      -0.903311       -24.5803
  88   2.0000      -0.899559       -24.4782
  89   2.0000      -0.888388       -24.1743
  90   2.0000      -0.881455       -23.9856
  91   2.0000      -0.874898       -23.8072
  92   2.0000      -0.866966       -23.5913
  93   2.0000      -0.858461       -23.3599
  94   2.0000      -0.849031       -23.1033
  95   2.0000      -0.844606       -22.9829
  96   2.0000      -0.833119       -22.6703
  97   2.0000      -0.829939       -22.5838
  98   2.0000      -0.828660       -22.5490
  99   2.0000      -0.823013       -22.3953
 100   2.0000      -0.808840       -22.0097
 101   2.0000      -0.805549       -21.9201
 102   2.0000      -0.798904       -21.7393
 103   2.0000      -0.793095       -21.5812
 104   2.0000      -0.778664       -21.1885
 105   2.0000      -0.771520       -20.9941
 106   2.0000      -0.762303       -20.7433
 107   2.0000      -0.751057       -20.4373
 108   2.0000      -0.728699       -19.8289
 109   2.0000      -0.721086       -19.6218
 110   2.0000      -0.707824       -19.2609
 111   2.0000      -0.701286       -19.0830
 112   2.0000      -0.688025       -18.7221
 113   2.0000      -0.683521       -18.5996
 114   2.0000      -0.680062       -18.5054
 115   2.0000      -0.675669       -18.3859
 116   2.0000      -0.671893       -18.2831
 117   2.0000      -0.667030       -18.1508
 118   2.0000      -0.665898       -18.1200
 119   2.0000      -0.664301       -18.0766
 120   2.0000      -0.649818       -17.6824
 121   2.0000      -0.645713       -17.5708
 122   2.0000      -0.642945       -17.4954
 123   2.0000      -0.637248       -17.3404
 124   2.0000      -0.627638       -17.0789
 125   2.0000      -0.627305       -17.0698
 126   2.0000      -0.623604       -16.9691
 127   2.0000      -0.623080       -16.9549
 128   2.0000      -0.617958       -16.8155
 129   2.0000      -0.615339       -16.7442
 130   2.0000      -0.603608       -16.4250
 131   2.0000      -0.596643       -16.2355
 132   2.0000      -0.593969       -16.1627
 133   2.0000      -0.579681       -15.7739
 134   2.0000      -0.577252       -15.7078
 135   2.0000      -0.568406       -15.4671
 136   2.0000      -0.567030       -15.4297
 137   2.0000      -0.565811       -15.3965
 138   2.0000      -0.562508       -15.3066
 139   2.0000      -0.561095       -15.2682
 140   2.0000      -0.555495       -15.1158
 141   2.0000      -0.549124       -14.9424
 142   2.0000      -0.547083       -14.8869
 143   2.0000      -0.545218       -14.8361
 144   2.0000      -0.537966       -14.6388
 145   2.0000      -0.537729       -14.6323
 146   2.0000      -0.534844       -14.5538
 147   2.0000      -0.528379       -14.3779
 148   2.0000      -0.526529       -14.3276
 149   2.0000      -0.522443       -14.2164
 150   2.0000      -0.522076       -14.2064
 151   2.0000      -0.520890       -14.1741
 152   2.0000      -0.509417       -13.8619
 153   2.0000      -0.508716       -13.8429
 154   2.0000      -0.507037       -13.7972
 155   2.0000      -0.502153       -13.6643
 156   2.0000      -0.501728       -13.6527
 157   2.0000      -0.499421       -13.5899
 158   2.0000      -0.495089       -13.4720
 159   2.0000      -0.492503       -13.4017
 160   2.0000      -0.488652       -13.2969
 161   2.0000      -0.488284       -13.2869
 162   2.0000      -0.484392       -13.1810
 163   2.0000      -0.482324       -13.1247
 164   2.0000      -0.479392       -13.0449
 165   2.0000      -0.471636       -12.8339
 166   2.0000      -0.471204       -12.8221
 167   2.0000      -0.470773       -12.8104
 168   2.0000      -0.465319       -12.6620
 169   2.0000      -0.463590       -12.6149
 170   2.0000      -0.459704       -12.5092
 171   2.0000      -0.457593       -12.4518
 172   2.0000      -0.456115       -12.4115
 173   2.0000      -0.454523       -12.3682
 174   2.0000      -0.450322       -12.2539
 175   2.0000      -0.448907       -12.2154
 176   2.0000      -0.448426       -12.2023
 177   2.0000      -0.442347       -12.0369
 178   2.0000      -0.436827       -11.8867
 179   2.0000      -0.435761       -11.8577
 180   2.0000      -0.433525       -11.7968
 181   2.0000      -0.430779       -11.7221
 182   2.0000      -0.426116       -11.5952
 183   2.0000      -0.423976       -11.5370
 184   2.0000      -0.423505       -11.5242
 185   2.0000      -0.420904       -11.4534
 186   2.0000      -0.419449       -11.4138
 187   2.0000      -0.415237       -11.2992
 188   2.0000      -0.414862       -11.2890
 189   2.0000      -0.413507       -11.2521
 190   2.0000      -0.409091       -11.1319
 191   2.0000      -0.405989       -11.0475
 192   2.0000      -0.405376       -11.0308
 193   2.0000      -0.404382       -11.0038
 194   2.0000      -0.386549       -10.5185
 195   2.0000      -0.381740       -10.3877
 196   2.0000      -0.379728       -10.3329
 197   2.0000      -0.377771       -10.2797
 198   2.0000      -0.375468       -10.2170
 199   2.0000      -0.371100       -10.0982
 200   2.0000      -0.368043       -10.0150
 201   2.0000      -0.365238        -9.9386
 202   2.0000      -0.361637        -9.8406
 203   2.0000      -0.355461        -9.6726
 204   2.0000      -0.348885        -9.4936
 205   2.0000      -0.333930        -9.0867
 206   2.0000      -0.324534        -8.8310
 207   2.0000      -0.318608        -8.6698
 208   2.0000      -0.312364        -8.4998
 209   2.0000      -0.302259        -8.2249
 210   2.0000      -0.297367        -8.0918
 211   2.0000      -0.292360        -7.9555
 212   2.0000      -0.291060        -7.9202
 213   2.0000      -0.277770        -7.5585
 214   2.0000      -0.270099        -7.3498
 215   2.0000      -0.254039        -6.9128
 216   2.0000      -0.226925        -6.1749
 217   0.0000      -0.051657        -1.4057
 218   0.0000      -0.041681        -1.1342
 219   0.0000      -0.028333        -0.7710
 220   0.0000       0.014446         0.3931
 221   0.0000       0.026199         0.7129

MULLIKEN ATOMIC CHARGES
-----------------------
   0 C :    0.066258
   1 O :   -0.179059
   2 C :    0.130066
   3 C :   -0.042507
   4 C :    0.044982
   5 C :    0.025961
   6 C :    0.020567
   7 C :    0.035547
   8 C :   -0.065358
   9 C :    0.171391
  10 C :    0.175258
  11 O :   -0.259494
  12 C :    0.226144
  13 C :    0.223213
  14 C :   -0.178784
  15 S :    0.099614
  16 C :   -0.183580
  17 O :   -0.263307
  18 C :   -0.054827
  19 C :    0.068759
  20 C :   -0.056377
  21 C :   -0.074130
  22 C :    0.206954
  23 C :    0.033060
  24 C :   -0.060528
  25 O :   -0.360742
  26 C :    0.260917
  27 C :   -0.076144
  28 C :    0.034897
  29 C :   -0.044559
  30 C :   -0.001038
  31 C :    0.058995
  32 C :    0.031442
  33 C :    0.050321
  34 C :    0.130082
  35 C :   -0.259812
  36 S :    0.192972
  37 C :   -0.019803
  38 N :    0.277156
  39 O :   -0.248412
  40 O :   -0.258802
  41 C :    0.002965
  42 C :    0.111287
  43 C :   -0.016687
  44 C :    0.056272
  45 C :   -0.059700
  46 C :   -0.029485
  47 C :    0.108895
  48 C :   -0.048260
  49 S :    0.106518
  50 C :   -0.051807
  51 C :    0.082614
  52 C :   -0.077164
  53 C :   -0.055936
  54 S :    0.096417
  55 C :   -0.058130
  56 C :    0.031192
  57 H :    0.001012
  58 H :    0.008758
  59 H :   -0.015847
  60 H :   -0.022575
  61 H :   -0.024105
  62 H :   -0.001477
  63 H :   -0.019941
  64 H :    0.021285
  65 H :    0.020333
  66 H :   -0.025240
  67 H :   -0.002764
  68 H :    0.023791
  69 H :   -0.015269
  70 H :   -0.001492
  71 H :   -0.004562
  72 H :    0.003388
  73 H :    0.009190
  74 H :   -0.016329
  75 H :    0.028473
  76 H :   -0.027797
  77 H :   -0.020595
  78 H :    0.022147
  79 H :    0.006903
  80 H :    0.005402
  81 H :    0.013849
  82 H :   -0.024628
  83 H :    0.021858
  84 H :    0.024385
  85 H :   -0.003068
  86 H :    0.019846
  87 H :    0.008297
  88 H :    0.009588
  89 H :   -0.003383
  90 H :   -0.013725
  91 H :   -0.028530
  92 H :   -0.033509
  93 H :   -0.032835
  94 H :    0.030055
  95 H :   -0.017172
Sum of atomic charges:   -0.0000000

LOEWDIN ATOMIC CHARGES
----------------------
   0 C :    0.031199
   1 O :    0.025157
   2 C :    0.028179
   3 C :   -0.070304
   4 C :   -0.079792
   5 C :   -0.016322
   6 C :   -0.026859
   7 C :   -0.014489
   8 C :   -0.048001
   9 C :    0.019767
  10 C :    0.027365
  11 O :   -0.055092
  12 C :   -0.007004
  13 C :   -0.006386
  14 C :   -0.214461
  15 S :    0.426282
  16 C :   -0.215350
  17 O :   -0.059085
  18 C :   -0.057440
  19 C :    0.009285
  20 C :   -0.027474
  21 C :   -0.009791
  22 C :   -0.029780
  23 C :    0.053238
  24 C :   -0.106108
  25 O :   -0.140877
  26 C :    0.096568
  27 C :   -0.043379
  28 C :   -0.017010
  29 C :   -0.021467
  30 C :   -0.032226
  31 C :   -0.045888
  32 C :   -0.037324
  33 C :   -0.021123
  34 C :   -0.041372
  35 C :   -0.145729
  36 S :    0.485186
  37 C :   -0.205034
  38 N :    0.274044
  39 O :   -0.213690
  40 O :   -0.224377
  41 C :   -0.007813
  42 C :   -0.075915
  43 C :   -0.005627
  44 C :   -0.040978
  45 C :   -0.148062
  46 C :   -0.057564
  47 C :   -0.042919
  48 C :   -0.150933
  49 S :    0.396942
  50 C :   -0.037952
  51 C :   -0.048879
  52 C :   -0.157862
  53 C :   -0.041296
  54 S :    0.388344
  55 C :   -0.159174
  56 C :   -0.063177
  57 H :    0.018159
  58 H :    0.021213
  59 H :    0.028552
  60 H :    0.028391
  61 H :    0.022536
  62 H :    0.029849
  63 H :    0.028365
  64 H :    0.027383
  65 H :    0.026775
  66 H :    0.025192
  67 H :    0.022711
  68 H :    0.030181
  69 H :    0.016038
  70 H :    0.024881
  71 H :    0.033860
  72 H :    0.019127
  73 H :    0.020472
  74 H :    0.008100
  75 H :    0.037953
  76 H :    0.017438
  77 H :    0.017176
  78 H :    0.033261
  79 H :    0.019687
  80 H :    0.022470
  81 H :    0.023492
  82 H :    0.020689
  83 H :    0.030208
  84 H :    0.029426
  85 H :    0.020203
  86 H :    0.035310
  87 H :    0.033431
  88 H :    0.043025
  89 H :    0.026399
  90 H :    0.027287
  91 H :    0.025081
  92 H :    0.030196
  93 H :    0.028973
  94 H :    0.025357
  95 H :    0.030979

  Mayer bond orders larger than 0.100000
B(  0-C ,  1-O ) :   1.1716 B(  0-C ,  4-C ) :   1.5099 B(  0-C , 57-H ) :   1.0025
B(  1-O ,  2-C ) :   1.1470 B(  2-C ,  3-C ) :   1.5733 B(  2-C , 58-H ) :   1.0019
B(  3-C ,  4-C ) :   1.2100 B(  3-C , 59-H ) :   1.0090 B(  4-C ,  5-C ) :   1.0668
B(  5-C ,  6-C ) :   1.7060 B(  5-C , 60-H ) :   0.9796 B(  6-C ,  7-C ) :   1.1045
B(  6-C , 61-H ) :   0.9811 B(  7-C ,  8-C ) :   1.6660 B(  7-C , 62-H ) :   0.9904
B(  8-C ,  9-C ) :   1.1402 B(  8-C , 63-H ) :   0.9608 B(  9-C , 10-C ) :   1.4995
B(  9-C , 17-O ) :   1.0451 B( 10-C , 11-O ) :   1.0503 B( 10-C , 18-C ) :   1.1236
B( 11-O , 12-C ) :   1.0579 B( 12-C , 13-C ) :   1.1991 B( 12-C , 16-C ) :   1.5704
B( 13-C , 14-C ) :   1.5736 B( 13-C , 17-O ) :   1.0623 B( 14-C , 15-S ) :   1.1353
B( 14-C , 64-H ) :   0.9722 B( 15-S , 16-C ) :   1.1376 B( 16-C , 65-H ) :   0.9730
B( 18-C , 19-C ) :   1.8005 B( 18-C , 66-H ) :   0.9569 B( 19-C , 20-C ) :   0.9765
B( 19-C , 67-H ) :   0.9721 B( 20-C , 21-C ) :   1.0615 B( 20-C , 27-C ) :   0.9702
B( 20-C , 68-H ) :   0.8875 B( 21-C , 22-C ) :   1.0033 B( 21-C , 30-C ) :   0.9590
B( 21-C , 69-H ) :   0.9233 B( 22-C , 23-C ) :   1.0136 B( 22-C , 70-H ) :   0.8805
B( 22-C , 71-H ) :   0.9088 B( 23-C , 24-C ) :   1.9610 B( 23-C , 25-O ) :   1.0583
B( 24-C , 72-H ) :   0.9483 B( 24-C , 73-H ) :   0.9422 B( 25-O , 26-C ) :   0.9401
B( 26-C , 27-C ) :   1.0043 B( 26-C , 32-C ) :   1.0556 B( 26-C , 74-H ) :   0.9173
B( 27-C , 28-C ) :   0.9739 B( 27-C , 75-H ) :   0.9012 B( 28-C , 29-C ) :   1.8471
B( 28-C , 76-H ) :   0.9934 B( 29-C , 30-C ) :   1.0347 B( 29-C , 77-H ) :   0.9726
B( 30-C , 31-C ) :   1.0737 B( 30-C , 78-H ) :   0.8951 B( 31-C , 79-H ) :   0.9661
B( 31-C , 80-H ) :   0.9603 B( 31-C , 81-H ) :   0.9595 B( 32-C , 33-C ) :   1.0926
B( 32-C , 82-H ) :   0.9150 B( 32-C , 83-H ) :   0.9231 B( 33-C , 34-C ) :   1.0835
B( 33-C , 84-H ) :   0.9343 B( 33-C , 85-H ) :   0.9334 B( 34-C , 35-C ) :   1.0636
B( 34-C , 86-H ) :   0.9222 B( 34-C , 87-H ) :   0.9069 B( 35-C , 36-S ) :   1.1759
B( 35-C , 42-C ) :   1.4862 B( 36-S , 37-C ) :   1.1210 B( 37-C , 38-N ) :   0.9535
B( 37-C , 41-C ) :   1.4869 B( 38-N , 39-O ) :   1.5417 B( 38-N , 40-O ) :   1.5205
B( 39-O , 40-O ) :   0.2649 B( 41-C , 42-C ) :   1.2234 B( 41-C , 88-H ) :   1.0045
B( 42-C , 43-C ) :   1.0602 B( 43-C , 44-C ) :   1.7865 B( 43-C , 89-H ) :   0.9526
B( 44-C , 45-C ) :   1.0868 B( 44-C , 90-H ) :   0.9627 B( 45-C , 46-C ) :   1.5867
B( 45-C , 49-S ) :   1.0720 B( 46-C , 47-C ) :   1.1565 B( 46-C , 91-H ) :   0.9919
B( 47-C , 48-C ) :   1.2894 B( 47-C , 53-C ) :   1.3240 B( 48-C , 49-S ) :   1.0424
B( 48-C , 50-C ) :   1.3801 B( 50-C , 51-C ) :   1.3322 B( 50-C , 53-C ) :   0.1043
B( 50-C , 92-H ) :   1.0002 B( 51-C , 52-C ) :   1.2879 B( 51-C , 56-C ) :   1.1515
B( 52-C , 53-C ) :   1.3846 B( 52-C , 54-S ) :   1.0521 B( 53-C , 93-H ) :   1.0019
B( 54-S , 55-C ) :   1.1098 B( 55-C , 56-C ) :   1.6502 B( 55-C , 94-H ) :   0.9686
B( 56-C , 95-H ) :   0.9983

-----------------------------------------------------------------------------
         ABSORPTION SPECTRUM VIA TRANSITION ELECTRIC DIPOLE MOMENTS
-----------------------------------------------------------------------------
State   Energy  Wavelength   fosc         T2         TX        TY        TZ
        (cm-1)    (nm)                  (au**2)     (au)      (au)      (au)
-----------------------------------------------------------------------------
   0   27345.7    365.7   0.004148181   0.04994  -0.16836  -0.02349   0.14506
   1   27618.4    362.1   0.894696179  10.66481   2.47358   0.02764  -2.13200
   2   28950.6    345.4   0.040128596   0.45632  -0.09246  -0.03332   0.66833
   3   29084.9    343.8   0.172439875   1.95185   0.09247  -0.27649   1.36633
   4   29882.8    334.6   0.782389354   8.61940   0.74230  -0.16898  -2.83546
   5   33086.4    302.2   0.817678749   8.13596  -1.16293   1.38193   2.20768
   6   33234.2    300.9   0.000611075   0.00605  -0.04645   0.05391   0.03146
   7   34930.3    286.3   0.472675204   4.45488  -1.49796   0.52570   1.39090
   8   35840.3    279.0   0.035068501   0.32212  -0.33126   0.39412  -0.23888
   9   36995.3    270.3   0.006051209   0.05385   0.06823  -0.21610   0.04992
  10   37188.3    268.9   0.137015988   1.21294   0.45513  -0.94827  -0.32648
  11   37607.7    265.9   0.000029186   0.00026   0.00789  -0.01390   0.00034
  12   37917.2    263.7   0.000279876   0.00243  -0.01933   0.04530  -0.00202
  13   38325.3    260.9   0.003489102   0.02997  -0.08633  -0.13351   0.06852
  14   39028.2    256.2   0.046550701   0.39267  -0.43106  -0.19823   0.40934
  15   39313.6    254.4   0.000237382   0.00199   0.03297  -0.00577   0.02946
  16   40056.8    249.6   0.000750529   0.00617   0.04268  -0.05160  -0.04104

FINAL SINGLE POINT ENERGY     -3871.592841738907

DIPOLE MOMENT
-------------
                                X             Y             Z
Electronic contribution:    -19.01438      16.11923     -27.09971
Nuclear contribution   :     18.81469     -16.28431      29.37922
                        -----------------------------------------
Total Dipole Moment    :     -0.19969      -0.16508       2.27952
                        -----------------------------------------
Magnitude (a.u.)       :      2.29420
Magnitude (Debye)      :      5.83138

Rotational constants in cm-1:     0.001238     0.000812     0.000612
Rotational constants in MHz :    37.125490    24.357321    18.360233

                             ****ORCA TERMINATED NORMALLY****
TOTAL RUN TIME: 0 days 0 hours 10 minutes 21 seconds 328 msec
