                         Program Version 4.2.0 -  RELEASE  -
|  1> # ORCA input file
|  2> # SCF done       -141.246292286572          0.000492354742
|  3> ! CAM-B3LYP def2-SVP def2/J RIJCOSX Grid4 TightSCF
|  4> %maxcore 5000
|  5> %tddft
|  6>     Mode sTDDFT
|  7>     Ethresh 5.0
|  8>     maxcore 5000
|  9> end
| 10>
| 11> %pal
| 12>   nprocs 6
| 13>   end
| 14> * xyz 0 1
| 15>    C       10.80128         8.09684        -7.47025
| 16>    O       11.66867         8.65852        -8.31814
| 17>    C       11.83652         9.93601        -7.93180
| 18>    C       11.08415        10.20836        -6.83715
| 19>    C       10.39134         8.99998        -6.51595
| 20>    C        9.46229         8.82911        -5.43789
| 21>    C        8.78904         7.69443        -5.15304
| 22>    C        7.84687         7.61117        -4.09363
| 23>    C        7.15042         6.49060        -3.78221
| 24>    C        6.17929         6.45533        -2.73682
| 25>    C        5.42463         5.35448        -2.39705
| 26>    O        4.46572         5.39113        -1.39791
| 27>    C        4.21569         6.61950        -0.86867
| 28>    C        4.99560         7.75646        -1.22071
| 29>    C        4.59427         8.88781        -0.59030
| 30>    S        3.25541         8.57894         0.45020
| 31>    C        3.23650         6.90836         0.02301
| 32>    O        6.02702         7.67130        -2.10627
| 33>    C        5.46944         4.10247        -3.07271
| 34>    C        4.54172         3.13635        -2.86285
| 35>    C        4.44404         1.94439        -3.62746
| 36>    C        3.31179         1.16959        -3.82288
| 37>    C        3.57561         0.02053        -4.64468
| 38>    C        2.70279        -0.97192        -5.08678
| 39>    C        3.18245        -1.98487        -5.90543
| 40>    C        4.52841        -2.02608        -6.30370
| 41>    C        5.39701        -1.03985        -5.89473
| 42>    C        4.91736        -0.02629        -5.07736
| 43>    S        5.83818         1.31804        -4.47763
| 44>    C        2.30028        -2.99388        -6.35856
| 45>    N        1.59181        -3.81202        -6.73568
| 46>    C        2.01357         1.49023        -3.27978
| 47>    S        1.06848         0.22413        -2.55956
| 48>    C       -0.13857         1.36951        -2.09397
| 49>    N       -1.27407         0.90653        -1.41420
| 50>    O       -2.10559         1.72958        -1.07995
| 51>    O       -1.34100        -0.29188        -1.20510
| 52>    C        0.16726         2.65032        -2.47027
| 53>    C        1.38664         2.73515        -3.16803
| 54>    C        1.87257         3.99749        -3.68287
| 55>    C        2.64067         4.15370        -4.77207
| 56>    C        3.27087         5.37781        -5.15273
| 57>    C        4.16495         5.53858        -6.16989
| 58>    C        4.75209         6.82827        -6.22190
| 59>    C        4.27123         7.66946        -5.18535
| 60>    S        3.08941         6.84536        -4.20390
| 61>    C        4.72386         8.95828        -5.00810
| 62>    C        5.68173         9.43829        -5.89753
| 63>    C        6.14358         8.60689        -6.94920
| 64>    C        5.69936         7.31432        -7.11960
| 65>    S        7.30833         9.43758        -7.94385
| 66>    C        7.18418        10.84838        -6.94708
| 67>    C        6.31028        10.71804        -5.92857
| 68>    H       10.54904         7.06889        -7.63645
| 69>    H       12.50821        10.53914        -8.50975
| 70>    H       11.01759        11.13867        -6.31128
| 71>    H        9.29204         9.70638        -4.82677
| 72>    H        8.94635         6.80823        -5.75178
| 73>    H        7.67644         8.50878        -3.51617
| 74>    H        7.31712         5.58707        -4.34496
| 75>    H        5.00869         9.87092        -0.66878
| 76>    H        2.51822         6.24426         0.45570
| 77>    H        6.22285         3.96118        -3.83037
| 78>    H        3.77606         3.29717        -2.11885
| 79>    H        1.66134        -0.96178        -4.80494
| 80>    H        4.86906        -2.83073        -6.93688
| 81>    H        6.43129        -1.04636        -6.20054
| 82>    H       -0.47761         3.48720        -2.27086
| 83>    H        1.58671         4.87156        -3.11087
| 84>    H        2.87595         3.30517        -5.40043
| 85>    H        4.41337         4.75141        -6.85981
| 86>    H        4.35394         9.57765        -4.20616
| 87>    H        6.06707         6.69457        -7.92187
| 88>    H        7.78273        11.70195        -7.19961
| 89>    H        6.10121        11.49339        -5.21334
| 90> *
| 91>
| 92>                          ****END OF INPUT****

CARTESIAN COORDINATES (ANGSTROEM)
---------------------------------
  C     10.801280    8.096840   -7.470250
  O     11.668670    8.658520   -8.318140
  C     11.836520    9.936010   -7.931800
  C     11.084150   10.208360   -6.837150
  C     10.391340    8.999980   -6.515950
  C      9.462290    8.829110   -5.437890
  C      8.789040    7.694430   -5.153040
  C      7.846870    7.611170   -4.093630
  C      7.150420    6.490600   -3.782210
  C      6.179290    6.455330   -2.736820
  C      5.424630    5.354480   -2.397050
  O      4.465720    5.391130   -1.397910
  C      4.215690    6.619500   -0.868670
  C      4.995600    7.756460   -1.220710
  C      4.594270    8.887810   -0.590300
  S      3.255410    8.578940    0.450200
  C      3.236500    6.908360    0.023010
  O      6.027020    7.671300   -2.106270
  C      5.469440    4.102470   -3.072710
  C      4.541720    3.136350   -2.862850
  C      4.444040    1.944390   -3.627460
  C      3.311790    1.169590   -3.822880
  C      3.575610    0.020530   -4.644680
  C      2.702790   -0.971920   -5.086780
  C      3.182450   -1.984870   -5.905430
  C      4.528410   -2.026080   -6.303700
  C      5.397010   -1.039850   -5.894730
  C      4.917360   -0.026290   -5.077360
  S      5.838180    1.318040   -4.477630
  C      2.300280   -2.993880   -6.358560
  N      1.591810   -3.812020   -6.735680
  C      2.013570    1.490230   -3.279780
  S      1.068480    0.224130   -2.559560
  C     -0.138570    1.369510   -2.093970
  N     -1.274070    0.906530   -1.414200
  O     -2.105590    1.729580   -1.079950
  O     -1.341000   -0.291880   -1.205100
  C      0.167260    2.650320   -2.470270
  C      1.386640    2.735150   -3.168030
  C      1.872570    3.997490   -3.682870
  C      2.640670    4.153700   -4.772070
  C      3.270870    5.377810   -5.152730
  C      4.164950    5.538580   -6.169890
  C      4.752090    6.828270   -6.221900
  C      4.271230    7.669460   -5.185350
  S      3.089410    6.845360   -4.203900
  C      4.723860    8.958280   -5.008100
  C      5.681730    9.438290   -5.897530
  C      6.143580    8.606890   -6.949200
  C      5.699360    7.314320   -7.119600
  S      7.308330    9.437580   -7.943850
  C      7.184180   10.848380   -6.947080
  C      6.310280   10.718040   -5.928570
  H     10.549040    7.068890   -7.636450
  H     12.508210   10.539140   -8.509750
  H     11.017590   11.138670   -6.311280
  H      9.292040    9.706380   -4.826770
  H      8.946350    6.808230   -5.751780
  H      7.676440    8.508780   -3.516170
  H      7.317120    5.587070   -4.344960
  H      5.008690    9.870920   -0.668780
  H      2.518220    6.244260    0.455700
  H      6.222850    3.961180   -3.830370
  H      3.776060    3.297170   -2.118850
  H      1.661340   -0.961780   -4.804940
  H      4.869060   -2.830730   -6.936880
  H      6.431290   -1.046360   -6.200540
  H     -0.477610    3.487200   -2.270860
  H      1.586710    4.871560   -3.110870
  H      2.875950    3.305170   -5.400430
  H      4.413370    4.751410   -6.859810
  H      4.353940    9.577650   -4.206160
  H      6.067070    6.694570   -7.921870
  H      7.782730   11.701950   -7.199610
  H      6.101210   11.493390   -5.213340

 Total Charge           Charge          ....    0
 Multiplicity           Mult            ....    1
 Number of Electrons    NEL             ....  402
 Basis Dimension        Dim             ....  872

ORBITAL ENERGIES
----------------

  NO   OCC          E(Eh)            E(eV)
   0   2.0000     -88.981527     -2421.3105
   1   2.0000     -88.968303     -2420.9506
   2   2.0000     -88.960296     -2420.7327
   3   2.0000     -88.950464     -2420.4652
   4   2.0000     -88.948441     -2420.4101
   5   2.0000     -19.291086      -524.9371
   6   2.0000     -19.280044      -524.6367
   7   2.0000     -19.275841      -524.5223
   8   2.0000     -19.237776      -523.4865
   9   2.0000     -19.237216      -523.4713
  10   2.0000     -14.648836      -398.6151
  11   2.0000     -14.399775      -391.8378
  12   2.0000     -10.352220      -281.6982
  13   2.0000     -10.345483      -281.5149
  14   2.0000     -10.343727      -281.4671
  15   2.0000     -10.343503      -281.4610
  16   2.0000     -10.342777      -281.4413
  17   2.0000     -10.330847      -281.1166
  18   2.0000     -10.324282      -280.9380
  19   2.0000     -10.320518      -280.8356
  20   2.0000     -10.320346      -280.8309
  21   2.0000     -10.320010      -280.8218
  22   2.0000     -10.314976      -280.6848
  23   2.0000     -10.308380      -280.5053
  24   2.0000     -10.304669      -280.4043
  25   2.0000     -10.303164      -280.3633
  26   2.0000     -10.303005      -280.3590
  27   2.0000     -10.302953      -280.3576
  28   2.0000     -10.302230      -280.3379
  29   2.0000     -10.300552      -280.2923
  30   2.0000     -10.300003      -280.2773
  31   2.0000     -10.299554      -280.2651
  32   2.0000     -10.299206      -280.2556
  33   2.0000     -10.297962      -280.2218
  34   2.0000     -10.297862      -280.2191
  35   2.0000     -10.297029      -280.1964
  36   2.0000     -10.296176      -280.1732
  37   2.0000     -10.295084      -280.1435
  38   2.0000     -10.289548      -279.9928
  39   2.0000     -10.287755      -279.9440
  40   2.0000     -10.286179      -279.9012
  41   2.0000     -10.285245      -279.8758
  42   2.0000     -10.283737      -279.8347
  43   2.0000     -10.283559      -279.8299
  44   2.0000     -10.282364      -279.7973
  45   2.0000     -10.280241      -279.7396
  46   2.0000     -10.279685      -279.7245
  47   2.0000     -10.279546      -279.7207
  48   2.0000     -10.277896      -279.6758
  49   2.0000     -10.276463      -279.6368
  50   2.0000     -10.273370      -279.5526
  51   2.0000     -10.272530      -279.5297
  52   2.0000     -10.268137      -279.4102
  53   2.0000      -8.076586      -219.7751
  54   2.0000      -8.064097      -219.4352
  55   2.0000      -8.056123      -219.2182
  56   2.0000      -8.045247      -218.9223
  57   2.0000      -8.044065      -218.8901
  58   2.0000      -6.045939      -164.5184
  59   2.0000      -6.041511      -164.3979
  60   2.0000      -6.038741      -164.3225
  61   2.0000      -6.033522      -164.1805
  62   2.0000      -6.029625      -164.0744
  63   2.0000      -6.025638      -163.9660
  64   2.0000      -6.025599      -163.9649
  65   2.0000      -6.021470      -163.8525
  66   2.0000      -6.017762      -163.7516
  67   2.0000      -6.014932      -163.6746
  68   2.0000      -6.013785      -163.6434
  69   2.0000      -6.010951      -163.5663
  70   2.0000      -6.009486      -163.5264
  71   2.0000      -6.006523      -163.4458
  72   2.0000      -6.005468      -163.4171
  73   2.0000      -1.318587       -35.8806
  74   2.0000      -1.209843       -32.9215
  75   2.0000      -1.204209       -32.7682
  76   2.0000      -1.166798       -31.7502
  77   2.0000      -1.137496       -30.9528
  78   2.0000      -1.021613       -27.7995
  79   2.0000      -1.005412       -27.3586
  80   2.0000      -1.000205       -27.2170
  81   2.0000      -0.989698       -26.9311
  82   2.0000      -0.986487       -26.8437
  83   2.0000      -0.975494       -26.5445
  84   2.0000      -0.953237       -25.9389
  85   2.0000      -0.928282       -25.2598
  86   2.0000      -0.924502       -25.1570
  87   2.0000      -0.917598       -24.9691
  88   2.0000      -0.909687       -24.7538
  89   2.0000      -0.898307       -24.4442
  90   2.0000      -0.893039       -24.3008
  91   2.0000      -0.875810       -23.8320
  92   2.0000      -0.874645       -23.8003
  93   2.0000      -0.869085       -23.6490
  94   2.0000      -0.854252       -23.2454
  95   2.0000      -0.850828       -23.1522
  96   2.0000      -0.838527       -22.8175
  97   2.0000      -0.834335       -22.7034
  98   2.0000      -0.830752       -22.6059
  99   2.0000      -0.823849       -22.4181
 100   2.0000      -0.817945       -22.2574
 101   2.0000      -0.804647       -21.8956
 102   2.0000      -0.799406       -21.7530
 103   2.0000      -0.781499       -21.2657
 104   2.0000      -0.765962       -20.8429
 105   2.0000      -0.757067       -20.6008
 106   2.0000      -0.732203       -19.9243
 107   2.0000      -0.730870       -19.8880
 108   2.0000      -0.716689       -19.5021
 109   2.0000      -0.706024       -19.2119
 110   2.0000      -0.698464       -19.0062
 111   2.0000      -0.690312       -18.7843
 112   2.0000      -0.689560       -18.7639
 113   2.0000      -0.682114       -18.5613
 114   2.0000      -0.677181       -18.4270
 115   2.0000      -0.666345       -18.1322
 116   2.0000      -0.658637       -17.9224
 117   2.0000      -0.655663       -17.8415
 118   2.0000      -0.651459       -17.7271
 119   2.0000      -0.642529       -17.4841
 120   2.0000      -0.637368       -17.3437
 121   2.0000      -0.633528       -17.2392
 122   2.0000      -0.629964       -17.1422
 123   2.0000      -0.628051       -17.0901
 124   2.0000      -0.616140       -16.7660
 125   2.0000      -0.615011       -16.7353
 126   2.0000      -0.609923       -16.5969
 127   2.0000      -0.600792       -16.3484
 128   2.0000      -0.589327       -16.0364
 129   2.0000      -0.585358       -15.9284
 130   2.0000      -0.576787       -15.6952
 131   2.0000      -0.575737       -15.6666
 132   2.0000      -0.573478       -15.6051
 133   2.0000      -0.567809       -15.4509
 134   2.0000      -0.566105       -15.4045
 135   2.0000      -0.555954       -15.1283
 136   2.0000      -0.550841       -14.9892
 137   2.0000      -0.548493       -14.9253
 138   2.0000      -0.543391       -14.7864
 139   2.0000      -0.542406       -14.7596
 140   2.0000      -0.538209       -14.6454
 141   2.0000      -0.535551       -14.5731
 142   2.0000      -0.531041       -14.4504
 143   2.0000      -0.526160       -14.3175
 144   2.0000      -0.520322       -14.1587
 145   2.0000      -0.519323       -14.1315
 146   2.0000      -0.511944       -13.9307
 147   2.0000      -0.510165       -13.8823
 148   2.0000      -0.509032       -13.8515
 149   2.0000      -0.506488       -13.7822
 150   2.0000      -0.504754       -13.7351
 151   2.0000      -0.502599       -13.6764
 152   2.0000      -0.497236       -13.5305
 153   2.0000      -0.494927       -13.4677
 154   2.0000      -0.493575       -13.4308
 155   2.0000      -0.483062       -13.1448
 156   2.0000      -0.479762       -13.0550
 157   2.0000      -0.478711       -13.0264
 158   2.0000      -0.477399       -12.9907
 159   2.0000      -0.473733       -12.8909
 160   2.0000      -0.469004       -12.7622
 161   2.0000      -0.464158       -12.6304
 162   2.0000      -0.462907       -12.5963
 163   2.0000      -0.460734       -12.5372
 164   2.0000      -0.456018       -12.4089
 165   2.0000      -0.451525       -12.2866
 166   2.0000      -0.450653       -12.2629
 167   2.0000      -0.444165       -12.0863
 168   2.0000      -0.441656       -12.0181
 169   2.0000      -0.436163       -11.8686
 170   2.0000      -0.435178       -11.8418
 171   2.0000      -0.431673       -11.7464
 172   2.0000      -0.430260       -11.7080
 173   2.0000      -0.428384       -11.6569
 174   2.0000      -0.424851       -11.5608
 175   2.0000      -0.419608       -11.4181
 176   2.0000      -0.418023       -11.3750
 177   2.0000      -0.417444       -11.3592
 178   2.0000      -0.406763       -11.0686
 179   2.0000      -0.405119       -11.0238
 180   2.0000      -0.403215       -10.9720
 181   2.0000      -0.390017       -10.6129
 182   2.0000      -0.384712       -10.4685
 183   2.0000      -0.381028       -10.3683
 184   2.0000      -0.378381       -10.2963
 185   2.0000      -0.377491       -10.2720
 186   2.0000      -0.371571       -10.1110
 187   2.0000      -0.365917        -9.9571
 188   2.0000      -0.364168        -9.9095
 189   2.0000      -0.344069        -9.3626
 190   2.0000      -0.339419        -9.2361
 191   2.0000      -0.329975        -8.9791
 192   2.0000      -0.318096        -8.6558
 193   2.0000      -0.317049        -8.6273
 194   2.0000      -0.308293        -8.3891
 195   2.0000      -0.301161        -8.1950
 196   2.0000      -0.292395        -7.9565
 197   2.0000      -0.281057        -7.6480
 198   2.0000      -0.271511        -7.3882
 199   2.0000      -0.255511        -6.9528
 200   2.0000      -0.232900        -6.3375
 201   0.0000      -0.074167        -2.0182
 202   0.0000      -0.048956        -1.3322
 203   0.0000      -0.042176        -1.1477
 204   0.0000      -0.015792        -0.4297
 205   0.0000      -0.014429        -0.3926

MULLIKEN ATOMIC CHARGES
-----------------------
   0 C :    0.068027
   1 O :   -0.175382
   2 C :    0.133034
   3 C :   -0.053269
   4 C :    0.053250
   5 C :    0.037549
   6 C :    0.026528
   7 C :    0.061926
   8 C :   -0.065119
   9 C :    0.195216
  10 C :    0.166352
  11 O :   -0.266354
  12 C :    0.238071
  13 C :    0.212943
  14 C :   -0.180149
  15 S :    0.110994
  16 C :   -0.180687
  17 O :   -0.258007
  18 C :   -0.073073
  19 C :    0.052825
  20 C :   -0.128086
  21 C :    0.115257
  22 C :    0.103408
  23 C :   -0.048517
  24 C :   -0.095867
  25 C :    0.035968
  26 C :    0.006511
  27 C :   -0.067059
  28 S :    0.128856
  29 C :   -0.143981
  30 N :    0.103343
  31 C :   -0.223969
  32 S :    0.208377
  33 C :    0.010275
  34 N :    0.276013
  35 O :   -0.246810
  36 O :   -0.255128
  37 C :   -0.021474
  38 C :    0.145412
  39 C :   -0.074808
  40 C :    0.088995
  41 C :   -0.041730
  42 C :   -0.047744
  43 C :    0.137249
  44 C :   -0.048834
  45 S :    0.084698
  46 C :   -0.046369
  47 C :    0.099669
  48 C :   -0.059800
  49 C :   -0.069324
  50 S :    0.107708
  51 C :   -0.059606
  52 C :    0.017999
  53 H :    0.000013
  54 H :    0.010216
  55 H :   -0.017109
  56 H :   -0.021700
  57 H :   -0.026144
  58 H :   -0.001218
  59 H :   -0.021700
  60 H :    0.021938
  61 H :    0.024490
  62 H :   -0.002063
  63 H :    0.023970
  64 H :   -0.002146
  65 H :    0.000369
  66 H :   -0.013842
  67 H :    0.007547
  68 H :    0.009125
  69 H :    0.005366
  70 H :   -0.026161
  71 H :   -0.036345
  72 H :   -0.037765
  73 H :    0.027906
  74 H :   -0.020053
Sum of atomic charges:   -0.0000000

LOEWDIN ATOMIC CHARGES
----------------------
   0 C :    0.034202
   1 O :    0.029036
   2 C :    0.029214
   3 C :   -0.073196
   4 C :   -0.084315
   5 C :   -0.007428
   6 C :   -0.028946
   7 C :    0.004156
   8 C :   -0.053707
   9 C :    0.042426
  10 C :    0.008639
  11 O :   -0.054502
  12 C :   -0.009262
  13 C :   -0.011228
  14 C :   -0.215102
  15 S :    0.436818
  16 C :   -0.213324
  17 O :   -0.045268
  18 C :   -0.020914
  19 C :   -0.043579
  20 C :   -0.131389
  21 C :   -0.096028
  22 C :   -0.040245
  23 C :    0.004018
  24 C :   -0.070192
  25 C :    0.003753
  26 C :   -0.032176
  27 C :   -0.144518
  28 S :    0.418653
  29 C :   -0.030006
  30 N :   -0.056674
  31 C :   -0.143430
  32 S :    0.502666
  33 C :   -0.202336
  34 N :    0.273521
  35 O :   -0.212175
  36 O :   -0.221488
  37 C :   -0.007644
  38 C :   -0.063188
  39 C :   -0.032372
  40 C :   -0.016158
  41 C :   -0.147985
  42 C :   -0.052699
  43 C :   -0.046146
  44 C :   -0.150566
  45 S :    0.400878
  46 C :   -0.033752
  47 C :   -0.043955
  48 C :   -0.152031
  49 C :   -0.038139
  50 S :    0.410716
  51 C :   -0.157172
  52 C :   -0.065169
  53 H :    0.018228
  54 H :    0.022013
  55 H :    0.027868
  56 H :    0.028117
  57 H :    0.021730
  58 H :    0.029974
  59 H :    0.028622
  60 H :    0.027663
  61 H :    0.028886
  62 H :    0.025195
  63 H :    0.038779
  64 H :    0.027617
  65 H :    0.040538
  66 H :    0.034876
  67 H :    0.044849
  68 H :    0.026516
  69 H :    0.037556
  70 H :    0.029091
  71 H :    0.029876
  72 H :    0.028300
  73 H :    0.023813
  74 H :    0.029599

  Mayer bond orders larger than 0.100000
B(  0-C ,  1-O ) :   1.1785 B(  0-C ,  4-C ) :   1.5031 B(  0-C , 53-H ) :   1.0035
B(  1-O ,  2-C ) :   1.1456 B(  2-C ,  3-C ) :   1.5681 B(  2-C , 54-H ) :   1.0022
B(  3-C ,  4-C ) :   1.2099 B(  3-C , 55-H ) :   1.0109 B(  4-C ,  5-C ) :   1.0671
B(  5-C ,  6-C ) :   1.6948 B(  5-C , 56-H ) :   0.9759 B(  6-C ,  7-C ) :   1.1206
B(  6-C , 57-H ) :   0.9820 B(  7-C ,  8-C ) :   1.6467 B(  7-C , 58-H ) :   0.9801
B(  8-C ,  9-C ) :   1.1620 B(  8-C , 59-H ) :   0.9597 B(  9-C , 10-C ) :   1.4550
B(  9-C , 17-O ) :   1.0608 B( 10-C , 11-O ) :   1.0500 B( 10-C , 18-C ) :   1.2043
B( 11-O , 12-C ) :   1.0489 B( 12-C , 13-C ) :   1.2070 B( 12-C , 16-C ) :   1.5673
B( 13-C , 14-C ) :   1.5662 B( 13-C , 17-O ) :   1.0476 B( 14-C , 15-S ) :   1.1430
B( 14-C , 60-H ) :   0.9734 B( 15-S , 16-C ) :   1.1399 B( 16-C , 61-H ) :   0.9734
B( 18-C , 19-C ) :   1.6557 B( 18-C , 62-H ) :   0.9552 B( 19-C , 20-C ) :   1.1424
B( 19-C , 63-H ) :   0.9445 B( 20-C , 21-C ) :   1.5334 B( 20-C , 28-S ) :   1.0798
B( 21-C , 22-C ) :   1.1382 B( 21-C , 31-C ) :   1.0215 B( 22-C , 23-C ) :   1.2970
B( 22-C , 27-C ) :   1.3125 B( 23-C , 24-C ) :   1.4284 B( 23-C , 64-H ) :   0.9783
B( 24-C , 25-C ) :   1.3319 B( 24-C , 29-C ) :   1.0579 B( 25-C , 26-C ) :   1.4210
B( 25-C , 65-H ) :   0.9924 B( 26-C , 27-C ) :   1.3457 B( 26-C , 66-H ) :   0.9944
B( 27-C , 28-S ) :   1.0608 B( 29-C , 30-N ) :   3.0526 B( 31-C , 32-S ) :   1.1659
B( 31-C , 33-C ) :   0.1087 B( 31-C , 38-C ) :   1.4663 B( 32-S , 33-C ) :   1.1126
B( 33-C , 34-N ) :   0.9519 B( 33-C , 37-C ) :   1.4813 B( 34-N , 35-O ) :   1.5382
B( 34-N , 36-O ) :   1.5212 B( 35-O , 36-O ) :   0.2670 B( 37-C , 38-C ) :   1.2018
B( 37-C , 67-H ) :   1.0088 B( 38-C , 39-C ) :   1.0716 B( 39-C , 40-C ) :   1.7133
B( 39-C , 68-H ) :   0.9607 B( 40-C , 41-C ) :   1.1517 B( 40-C , 69-H ) :   0.9716
B( 41-C , 42-C ) :   1.5492 B( 41-C , 45-S ) :   1.0679 B( 42-C , 43-C ) :   1.1282
B( 42-C , 70-H ) :   1.0095 B( 43-C , 44-C ) :   1.2779 B( 43-C , 49-C ) :   1.3251
B( 44-C , 45-S ) :   1.0402 B( 44-C , 46-C ) :   1.3924 B( 46-C , 47-C ) :   1.3210
B( 46-C , 49-C ) :   0.1052 B( 46-C , 71-H ) :   1.0021 B( 47-C , 48-C ) :   1.2863
B( 47-C , 52-C ) :   1.1569 B( 48-C , 49-C ) :   1.3739 B( 48-C , 50-S ) :   1.0613
B( 49-C , 72-H ) :   1.0047 B( 50-S , 51-C ) :   1.1198 B( 51-C , 52-C ) :   1.6326
B( 51-C , 73-H ) :   0.9695 B( 52-C , 74-H ) :   1.0001

-----------------------------------------------------------------------------
         ABSORPTION SPECTRUM VIA TRANSITION ELECTRIC DIPOLE MOMENTS
-----------------------------------------------------------------------------
State   Energy  Wavelength   fosc         T2         TX        TY        TZ
        (cm-1)    (nm)                  (au**2)     (au)      (au)      (au)
-----------------------------------------------------------------------------
   0   18589.6    537.9   0.525043046   9.29825  -2.08449  -2.21933   0.16658
   1   22237.7    449.7   0.029405805   0.43533  -0.17645  -0.63555  -0.01649
   2   23488.6    425.7   0.236190813   3.31040   0.90195   1.53125  -0.39009
   3   25488.5    392.3   0.068953517   0.89061   0.07426  -0.93117  -0.13425
   4   26638.7    375.4   0.059213280   0.73178   0.77025   0.37204  -0.00909
   5   28875.1    346.3   0.098458175   1.12254  -0.62330   0.84603   0.13515
   6   29466.8    339.4   0.006854241   0.07658  -0.12610  -0.20902   0.13033
   7   29744.2    336.2   0.497436269   5.50567  -1.10517  -1.76026   1.08893
   8   30473.6    328.2   0.962815446  10.40146  -2.36788  -1.65114   1.43818
   9   31337.6    319.1   0.373687519   3.92571  -1.14469  -1.40237   0.80545
  10   32082.2    311.7   0.018686550   0.19175   0.09425  -0.39107   0.17301
  11   32806.2    304.8   0.629756492   6.31964  -0.17893   2.12511   1.33099
  12   33214.4    301.1   0.034402338   0.34099  -0.37040   0.44018   0.10016
  13   33527.1    298.3   0.047529005   0.46670  -0.62166   0.01446   0.28290
  14   34597.3    289.0   0.153157821   1.45738  -0.88012  -0.47928   0.67309
  15   35405.2    282.4   0.099245471   0.92282   0.28724   0.77056  -0.49655
  16   35606.2    280.9   0.068171345   0.63031  -0.44315  -0.40788   0.51726
  17   35859.7    278.9   0.003235648   0.02971   0.10507   0.04276   0.12976
  18   35906.0    278.5   0.102814706   0.94268  -0.30989   0.44203   0.80700
  19   36467.6    274.2   0.192664981   1.73929   0.67963   0.20073  -1.11225
  20   36892.8    271.1   0.018169916   0.16214   0.01688   0.35290  -0.19317
  21   36976.5    270.4   0.009432912   0.08398  -0.28762   0.02972   0.01931
  22   37291.2    268.2   0.060199788   0.53145  -0.18693  -0.54407  -0.44776
  23   37575.6    266.1   0.082681259   0.72440   0.59882   0.57642  -0.18317
  24   37842.5    264.3   0.165996986   1.44410   0.67192   0.93771  -0.33663
  25   38109.8    262.4   0.040489267   0.34977   0.52215   0.24491   0.13096
  26   38555.2    259.4   0.050826009   0.43399  -0.11279   0.50371   0.40932
  27   38722.1    258.3   0.054770684   0.46566  -0.22548   0.09833   0.63651
  28   39783.0    251.4   0.081393785   0.67355   0.71019   0.24986  -0.32672
  29   40174.0    248.9   0.010750885   0.08810   0.10710  -0.08379  -0.26383

FINAL SINGLE POINT ENERGY     -4048.811096788194

DIPOLE MOMENT
-------------
                                X             Y             Z
Electronic contribution:    -23.62630     -21.32346      12.76130
Nuclear contribution   :     26.87578      24.65579     -13.44213
                        -----------------------------------------
Total Dipole Moment    :      3.24948       3.33233      -0.68083
                        -----------------------------------------
Magnitude (a.u.)       :      4.70395
Magnitude (Debye)      :     11.95648

Rotational constants in cm-1:     0.002343     0.000897     0.000729
Rotational constants in MHz :    70.249959    26.898468    21.866576

                             ****ORCA TERMINATED NORMALLY****
TOTAL RUN TIME: 0 days 0 hours 6 minutes 14 seconds 390 msec
