                         Program Version 4.2.0 -  RELEASE  -
|  1> # ORCA input file
|  2> # SCF done       -143.742225364768          0.000271885067
|  3> ! CAM-B3LYP def2-SVP def2/J RIJCOSX Grid4 TightSCF
|  4> %maxcore 5000
|  5> %tddft
|  6>     Mode sTDDFT
|  7>     Ethresh 5.0
|  8>     maxcore 5000
|  9> end
| 10>
| 11> %pal
| 12>   nprocs 6
| 13>   end
| 14> * xyz 0 1
| 15>    C       -2.81166         2.00225        -0.93515
| 16>    O       -4.10950         2.32553        -0.93867
| 17>    C       -4.19836         3.60656        -0.53743
| 18>    C       -2.97046         4.11919        -0.27832
| 19>    C       -2.03762         3.06777        -0.53885
| 20>    C       -0.60872         3.07981        -0.41869
| 21>    C        0.13354         4.16973        -0.13656
| 22>    C        1.55175         4.12866         0.00328
| 23>    C        2.29275         5.23029         0.26345
| 24>    C        3.70638         5.33931         0.46724
| 25>    C        4.69142         4.49806         0.00761
| 26>    O        6.02308         4.64032         0.36846
| 27>    C        6.31131         5.72781         1.13387
| 28>    C        5.30274         6.64662         1.54483
| 29>    C        5.79273         7.67046         2.28648
| 30>    S        7.49817         7.52904         2.49632
| 31>    C        7.54651         6.07228         1.57288
| 32>    O        3.99343         6.46565         1.21995
| 33>    C        4.46776         3.44235        -0.91780
| 34>    C        5.39809         2.51318        -1.25436
| 35>    C        5.14516         1.46616        -2.16944
| 36>    S        3.59644         1.25217        -2.92202
| 37>    C        4.12759        -0.16866        -3.77040
| 38>    C        5.47202        -0.43183        -3.48717
| 39>    C        6.04677         0.48879        -2.58801
| 40>    O        7.33653         0.58495        -2.15691
| 41>    C        8.07063        -0.59529        -1.91254
| 42>    C        8.29232        -1.46432        -3.14867
| 43>    C        7.03964        -2.25014        -3.52347
| 44>    O        6.04700        -1.46750        -4.15398
| 45>    C        3.31129        -0.97560        -4.59498
| 46>    S        3.97496        -2.45368        -5.22488
| 47>    C        2.43181        -2.85903        -5.90188
| 48>    N        2.31080        -4.06350        -6.59756
| 49>    O        1.22669        -4.33987        -7.08262
| 50>    O        3.30988        -4.76295        -6.66875
| 51>    C        1.47094        -1.90854        -5.67755
| 52>    C        1.95563        -0.81319        -4.94293
| 53>    C        1.18215         0.35339        -4.62374
| 54>    C       -0.16169         0.43511        -4.64337
| 55>    C       -0.88068         1.62873        -4.31934
| 56>    C       -0.41298         2.82649        -3.85877
| 57>    C       -1.42849         3.78812        -3.63507
| 58>    C       -2.71827         3.28456        -3.94798
| 59>    S       -2.62838         1.63740        -4.49963
| 60>    C       -3.86373         4.03554        -3.80018
| 61>    C       -3.73162         5.33078        -3.30834
| 62>    C       -2.44436         5.83063        -2.98670
| 63>    C       -1.29656         5.08805        -3.15057
| 64>    S       -2.54444         7.45315        -2.35443
| 65>    C       -4.26817         7.44266        -2.53311
| 66>    C       -4.75180         6.28993        -3.03746
| 67>    H       -2.54566         1.00764        -1.23470
| 68>    H       -5.17902         4.03522        -0.47827
| 69>    H       -2.74919         5.10949         0.06043
| 70>    H       -0.11853         2.12799        -0.58029
| 71>    H       -0.34787         5.12875        -0.00594
| 72>    H        2.01023         3.15341        -0.06890
| 73>    H        1.77475         6.16555         0.43882
| 74>    H        5.25620         8.48998         2.71627
| 75>    H        8.47198         5.56192         1.40823
| 76>    H        3.50510         3.41745        -1.40283
| 77>    H        6.37947         2.52618        -0.80418
| 78>    H        9.02748        -0.23125        -1.53088
| 79>    H        7.57895        -1.18790        -1.12602
| 80>    H        9.09651        -2.16973        -2.93990
| 81>    H        8.59101        -0.83330        -3.98818
| 82>    H        7.27335        -3.01795        -4.26408
| 83>    H        6.62112        -2.73568        -2.62969
| 84>    H        0.46860        -1.99870        -6.05351
| 85>    H        1.74340         1.23602        -4.36187
| 86>    H       -0.76419        -0.42453        -4.89993
| 87>    H        0.62461         3.02734        -3.66313
| 88>    H       -4.83411         3.63334        -4.04478
| 89>    H       -0.32537         5.48515        -2.90245
| 90>    H       -4.81556         8.31833        -2.24314
| 91>    H       -5.79566         6.10528        -3.21784
| 92> *
| 93>
| 94>                          ****END OF INPUT****

CARTESIAN COORDINATES (ANGSTROEM)
---------------------------------
  C     -2.811660    2.002250   -0.935150
  O     -4.109500    2.325530   -0.938670
  C     -4.198360    3.606560   -0.537430
  C     -2.970460    4.119190   -0.278320
  C     -2.037620    3.067770   -0.538850
  C     -0.608720    3.079810   -0.418690
  C      0.133540    4.169730   -0.136560
  C      1.551750    4.128660    0.003280
  C      2.292750    5.230290    0.263450
  C      3.706380    5.339310    0.467240
  C      4.691420    4.498060    0.007610
  O      6.023080    4.640320    0.368460
  C      6.311310    5.727810    1.133870
  C      5.302740    6.646620    1.544830
  C      5.792730    7.670460    2.286480
  S      7.498170    7.529040    2.496320
  C      7.546510    6.072280    1.572880
  O      3.993430    6.465650    1.219950
  C      4.467760    3.442350   -0.917800
  C      5.398090    2.513180   -1.254360
  C      5.145160    1.466160   -2.169440
  S      3.596440    1.252170   -2.922020
  C      4.127590   -0.168660   -3.770400
  C      5.472020   -0.431830   -3.487170
  C      6.046770    0.488790   -2.588010
  O      7.336530    0.584950   -2.156910
  C      8.070630   -0.595290   -1.912540
  C      8.292320   -1.464320   -3.148670
  C      7.039640   -2.250140   -3.523470
  O      6.047000   -1.467500   -4.153980
  C      3.311290   -0.975600   -4.594980
  S      3.974960   -2.453680   -5.224880
  C      2.431810   -2.859030   -5.901880
  N      2.310800   -4.063500   -6.597560
  O      1.226690   -4.339870   -7.082620
  O      3.309880   -4.762950   -6.668750
  C      1.470940   -1.908540   -5.677550
  C      1.955630   -0.813190   -4.942930
  C      1.182150    0.353390   -4.623740
  C     -0.161690    0.435110   -4.643370
  C     -0.880680    1.628730   -4.319340
  C     -0.412980    2.826490   -3.858770
  C     -1.428490    3.788120   -3.635070
  C     -2.718270    3.284560   -3.947980
  S     -2.628380    1.637400   -4.499630
  C     -3.863730    4.035540   -3.800180
  C     -3.731620    5.330780   -3.308340
  C     -2.444360    5.830630   -2.986700
  C     -1.296560    5.088050   -3.150570
  S     -2.544440    7.453150   -2.354430
  C     -4.268170    7.442660   -2.533110
  C     -4.751800    6.289930   -3.037460
  H     -2.545660    1.007640   -1.234700
  H     -5.179020    4.035220   -0.478270
  H     -2.749190    5.109490    0.060430
  H     -0.118530    2.127990   -0.580290
  H     -0.347870    5.128750   -0.005940
  H      2.010230    3.153410   -0.068900
  H      1.774750    6.165550    0.438820
  H      5.256200    8.489980    2.716270
  H      8.471980    5.561920    1.408230
  H      3.505100    3.417450   -1.402830
  H      6.379470    2.526180   -0.804180
  H      9.027480   -0.231250   -1.530880
  H      7.578950   -1.187900   -1.126020
  H      9.096510   -2.169730   -2.939900
  H      8.591010   -0.833300   -3.988180
  H      7.273350   -3.017950   -4.264080
  H      6.621120   -2.735680   -2.629690
  H      0.468600   -1.998700   -6.053510
  H      1.743400    1.236020   -4.361870
  H     -0.764190   -0.424530   -4.899930
  H      0.624610    3.027340   -3.663130
  H     -4.834110    3.633340   -4.044780
  H     -0.325370    5.485150   -2.902450
  H     -4.815560    8.318330   -2.243140
  H     -5.795660    6.105280   -3.217840

 Total Charge           Charge          ....    0
 Multiplicity           Mult            ....    1
 Number of Electrons    NEL             ....  402
 Basis Dimension        Dim             ....  873

ORBITAL ENERGIES
----------------

  NO   OCC          E(Eh)            E(eV)
   0   2.0000     -88.967070     -2420.9171
   1   2.0000     -88.965208     -2420.8664
   2   2.0000     -88.952782     -2420.5283
   3   2.0000     -88.943156     -2420.2663
   4   2.0000     -88.943108     -2420.2650
   5   2.0000     -19.280697      -524.6544
   6   2.0000     -19.268505      -524.3227
   7   2.0000     -19.268243      -524.3156
   8   2.0000     -19.267477      -524.2947
   9   2.0000     -19.256722      -524.0020
  10   2.0000     -19.224145      -523.1156
  11   2.0000     -19.223849      -523.1075
  12   2.0000     -14.634741      -398.2316
  13   2.0000     -10.350849      -281.6609
  14   2.0000     -10.344524      -281.4888
  15   2.0000     -10.342253      -281.4270
  16   2.0000     -10.342071      -281.4221
  17   2.0000     -10.338852      -281.3345
  18   2.0000     -10.338459      -281.3238
  19   2.0000     -10.335536      -281.2442
  20   2.0000     -10.335061      -281.2313
  21   2.0000     -10.324283      -280.9380
  22   2.0000     -10.323774      -280.9242
  23   2.0000     -10.314243      -280.6648
  24   2.0000     -10.312366      -280.6137
  25   2.0000     -10.309666      -280.5403
  26   2.0000     -10.306720      -280.4601
  27   2.0000     -10.301185      -280.3095
  28   2.0000     -10.293668      -280.1049
  29   2.0000     -10.293412      -280.0980
  30   2.0000     -10.292108      -280.0625
  31   2.0000     -10.291911      -280.0571
  32   2.0000     -10.290300      -280.0133
  33   2.0000     -10.289512      -279.9919
  34   2.0000     -10.288975      -279.9772
  35   2.0000     -10.288732      -279.9706
  36   2.0000     -10.284315      -279.8504
  37   2.0000     -10.282427      -279.7991
  38   2.0000     -10.281152      -279.7644
  39   2.0000     -10.280295      -279.7410
  40   2.0000     -10.279754      -279.7263
  41   2.0000     -10.277451      -279.6637
  42   2.0000     -10.276760      -279.6449
  43   2.0000     -10.275270      -279.6043
  44   2.0000     -10.274819      -279.5920
  45   2.0000     -10.274227      -279.5759
  46   2.0000     -10.272920      -279.5404
  47   2.0000     -10.269993      -279.4607
  48   2.0000     -10.268245      -279.4132
  49   2.0000     -10.268071      -279.4084
  50   2.0000     -10.265298      -279.3330
  51   2.0000     -10.256801      -279.1017
  52   2.0000      -8.061600      -219.3673
  53   2.0000      -8.059207      -219.3022
  54   2.0000      -8.048617      -219.0140
  55   2.0000      -8.039280      -218.7599
  56   2.0000      -8.038918      -218.7501
  57   2.0000      -6.031018      -164.1123
  58   2.0000      -6.028866      -164.0538
  59   2.0000      -6.027204      -164.0086
  60   2.0000      -6.024186      -163.9264
  61   2.0000      -6.023258      -163.9012
  62   2.0000      -6.021058      -163.8413
  63   2.0000      -6.018140      -163.7619
  64   2.0000      -6.013981      -163.6487
  65   2.0000      -6.010251      -163.5473
  66   2.0000      -6.008926      -163.5112
  67   2.0000      -6.008473      -163.4989
  68   2.0000      -6.004719      -163.3967
  69   2.0000      -6.004565      -163.3925
  70   2.0000      -6.000689      -163.2871
  71   2.0000      -6.000231      -163.2746
  72   2.0000      -1.303504       -35.4702
  73   2.0000      -1.199860       -32.6498
  74   2.0000      -1.193948       -32.4890
  75   2.0000      -1.178996       -32.0821
  76   2.0000      -1.156905       -31.4810
  77   2.0000      -1.155861       -31.4526
  78   2.0000      -1.121895       -30.5283
  79   2.0000      -1.006306       -27.3830
  80   2.0000      -0.991911       -26.9913
  81   2.0000      -0.986151       -26.8345
  82   2.0000      -0.981157       -26.6986
  83   2.0000      -0.967745       -26.3337
  84   2.0000      -0.925642       -25.1880
  85   2.0000      -0.915745       -24.9187
  86   2.0000      -0.913403       -24.8550
  87   2.0000      -0.900614       -24.5069
  88   2.0000      -0.899842       -24.4859
  89   2.0000      -0.889063       -24.1926
  90   2.0000      -0.879572       -23.9344
  91   2.0000      -0.866511       -23.5790
  92   2.0000      -0.863413       -23.4947
  93   2.0000      -0.848842       -23.0982
  94   2.0000      -0.837574       -22.7916
  95   2.0000      -0.831541       -22.6274
  96   2.0000      -0.830639       -22.6028
  97   2.0000      -0.821962       -22.3667
  98   2.0000      -0.819794       -22.3077
  99   2.0000      -0.812377       -22.1059
 100   2.0000      -0.799731       -21.7618
 101   2.0000      -0.795204       -21.6386
 102   2.0000      -0.785034       -21.3619
 103   2.0000      -0.770585       -20.9687
 104   2.0000      -0.761120       -20.7111
 105   2.0000      -0.743283       -20.2257
 106   2.0000      -0.726745       -19.7757
 107   2.0000      -0.715859       -19.4795
 108   2.0000      -0.706581       -19.2270
 109   2.0000      -0.698881       -19.0175
 110   2.0000      -0.685220       -18.6458
 111   2.0000      -0.680770       -18.5247
 112   2.0000      -0.675064       -18.3694
 113   2.0000      -0.658846       -17.9281
 114   2.0000      -0.658459       -17.9176
 115   2.0000      -0.652541       -17.7565
 116   2.0000      -0.647527       -17.6201
 117   2.0000      -0.644615       -17.5409
 118   2.0000      -0.641575       -17.4581
 119   2.0000      -0.638211       -17.3666
 120   2.0000      -0.629083       -17.1182
 121   2.0000      -0.622042       -16.9266
 122   2.0000      -0.621678       -16.9167
 123   2.0000      -0.616459       -16.7747
 124   2.0000      -0.615870       -16.7587
 125   2.0000      -0.610593       -16.6151
 126   2.0000      -0.609136       -16.5754
 127   2.0000      -0.587875       -15.9969
 128   2.0000      -0.584160       -15.8958
 129   2.0000      -0.578287       -15.7360
 130   2.0000      -0.573791       -15.6137
 131   2.0000      -0.566131       -15.4052
 132   2.0000      -0.563871       -15.3437
 133   2.0000      -0.563124       -15.3234
 134   2.0000      -0.560845       -15.2614
 135   2.0000      -0.559001       -15.2112
 136   2.0000      -0.552954       -15.0466
 137   2.0000      -0.544210       -14.8087
 138   2.0000      -0.543630       -14.7929
 139   2.0000      -0.540933       -14.7195
 140   2.0000      -0.538714       -14.6592
 141   2.0000      -0.531603       -14.4656
 142   2.0000      -0.527769       -14.3613
 143   2.0000      -0.523086       -14.2339
 144   2.0000      -0.519065       -14.1245
 145   2.0000      -0.515277       -14.0214
 146   2.0000      -0.511579       -13.9208
 147   2.0000      -0.505709       -13.7611
 148   2.0000      -0.502804       -13.6820
 149   2.0000      -0.497396       -13.5348
 150   2.0000      -0.495422       -13.4811
 151   2.0000      -0.494560       -13.4577
 152   2.0000      -0.493869       -13.4389
 153   2.0000      -0.491744       -13.3810
 154   2.0000      -0.490009       -13.3338
 155   2.0000      -0.488892       -13.3034
 156   2.0000      -0.481998       -13.1158
 157   2.0000      -0.475215       -12.9313
 158   2.0000      -0.470793       -12.8109
 159   2.0000      -0.465824       -12.6757
 160   2.0000      -0.464278       -12.6336
 161   2.0000      -0.460881       -12.5412
 162   2.0000      -0.459287       -12.4978
 163   2.0000      -0.456725       -12.4281
 164   2.0000      -0.456060       -12.4100
 165   2.0000      -0.449852       -12.2411
 166   2.0000      -0.444702       -12.1010
 167   2.0000      -0.438890       -11.9428
 168   2.0000      -0.435712       -11.8563
 169   2.0000      -0.432623       -11.7723
 170   2.0000      -0.430090       -11.7033
 171   2.0000      -0.428026       -11.6472
 172   2.0000      -0.427799       -11.6410
 173   2.0000      -0.422988       -11.5101
 174   2.0000      -0.420317       -11.4374
 175   2.0000      -0.417861       -11.3706
 176   2.0000      -0.414350       -11.2750
 177   2.0000      -0.409678       -11.1479
 178   2.0000      -0.405471       -11.0334
 179   2.0000      -0.400367       -10.8945
 180   2.0000      -0.398271       -10.8375
 181   2.0000      -0.391284       -10.6474
 182   2.0000      -0.383534       -10.4365
 183   2.0000      -0.378511       -10.2998
 184   2.0000      -0.368803       -10.0356
 185   2.0000      -0.366657        -9.9773
 186   2.0000      -0.362640        -9.8679
 187   2.0000      -0.361726        -9.8431
 188   2.0000      -0.351539        -9.5658
 189   2.0000      -0.349177        -9.5016
 190   2.0000      -0.328365        -8.9353
 191   2.0000      -0.321933        -8.7602
 192   2.0000      -0.311259        -8.4698
 193   2.0000      -0.305476        -8.3124
 194   2.0000      -0.302555        -8.2330
 195   2.0000      -0.296606        -8.0710
 196   2.0000      -0.279311        -7.6004
 197   2.0000      -0.270419        -7.3585
 198   2.0000      -0.262332        -7.1384
 199   2.0000      -0.246120        -6.6973
 200   2.0000      -0.221500        -6.0273
 201   0.0000      -0.072196        -1.9646
 202   0.0000      -0.039448        -1.0734
 203   0.0000      -0.032841        -0.8936
 204   0.0000      -0.001051        -0.0286
 205   0.0000       0.022959         0.6248

MULLIKEN ATOMIC CHARGES
-----------------------
   0 C :    0.089696
   1 O :   -0.186744
   2 C :    0.139742
   3 C :   -0.016657
   4 C :    0.030114
   5 C :    0.035795
   6 C :   -0.005592
   7 C :    0.011162
   8 C :   -0.027891
   9 C :    0.171024
  10 C :    0.158172
  11 O :   -0.262745
  12 C :    0.224004
  13 C :    0.215451
  14 C :   -0.173983
  15 S :    0.104384
  16 C :   -0.178436
  17 O :   -0.250657
  18 C :   -0.081638
  19 C :    0.022354
  20 C :   -0.105717
  21 S :    0.088102
  22 C :   -0.131512
  23 C :    0.154382
  24 C :    0.164023
  25 O :   -0.309267
  26 C :    0.211005
  27 C :   -0.044010
  28 C :    0.211825
  29 O :   -0.332358
  30 C :   -0.076442
  31 S :    0.189104
  32 C :    0.010120
  33 N :    0.269435
  34 O :   -0.256394
  35 O :   -0.268762
  36 C :   -0.005872
  37 C :    0.094478
  38 C :   -0.050788
  39 C :    0.062285
  40 C :   -0.068213
  41 C :   -0.044550
  42 C :    0.148725
  43 C :   -0.063712
  44 S :    0.098547
  45 C :   -0.038524
  46 C :    0.098394
  47 C :   -0.066138
  48 C :   -0.059549
  49 S :    0.082593
  50 C :   -0.059332
  51 C :    0.012389
  52 H :    0.001899
  53 H :    0.001862
  54 H :   -0.015543
  55 H :   -0.019390
  56 H :   -0.014067
  57 H :    0.001055
  58 H :    0.003428
  59 H :    0.023060
  60 H :    0.021291
  61 H :    0.007018
  62 H :    0.006088
  63 H :    0.027099
  64 H :    0.005933
  65 H :    0.029578
  66 H :    0.038141
  67 H :    0.036319
  68 H :    0.011711
  69 H :    0.001957
  70 H :    0.011963
  71 H :   -0.018031
  72 H :   -0.030587
  73 H :   -0.036606
  74 H :   -0.033470
  75 H :    0.026856
  76 H :   -0.019391
Sum of atomic charges:    0.0000000

LOEWDIN ATOMIC CHARGES
----------------------
   0 C :    0.038282
   1 O :    0.025410
   2 C :    0.034120
   3 C :   -0.061513
   4 C :   -0.079382
   5 C :    0.000960
   6 C :   -0.040368
   7 C :   -0.011281
   8 C :   -0.047720
   9 C :    0.026380
  10 C :    0.019045
  11 O :   -0.059417
  12 C :   -0.006489
  13 C :   -0.008794
  14 C :   -0.211610
  15 S :    0.430602
  16 C :   -0.213755
  17 O :   -0.056563
  18 C :   -0.042834
  19 C :   -0.034302
  20 C :   -0.181778
  21 S :    0.454885
  22 C :   -0.217123
  23 C :   -0.004299
  24 C :   -0.010750
  25 O :   -0.102241
  26 C :    0.083133
  27 C :   -0.065352
  28 C :    0.086161
  29 O :   -0.101495
  30 C :   -0.151677
  31 S :    0.493028
  32 C :   -0.212027
  33 N :    0.273467
  34 O :   -0.222898
  35 O :   -0.235604
  36 C :   -0.007672
  37 C :   -0.073919
  38 C :   -0.023041
  39 C :   -0.039014
  40 C :   -0.154796
  41 C :   -0.054906
  42 C :   -0.039757
  43 C :   -0.152744
  44 S :    0.390649
  45 C :   -0.035335
  46 C :   -0.046525
  47 C :   -0.155791
  48 C :   -0.034166
  49 S :    0.381247
  50 C :   -0.164111
  51 C :   -0.063760
  52 H :    0.018871
  53 H :    0.019420
  54 H :    0.025813
  55 H :    0.029098
  56 H :    0.025504
  57 H :    0.028455
  58 H :    0.036366
  59 H :    0.028459
  60 H :    0.027625
  61 H :    0.025010
  62 H :    0.038370
  63 H :    0.029482
  64 H :    0.012257
  65 H :    0.041951
  66 H :    0.037299
  67 H :    0.032325
  68 H :    0.015030
  69 H :    0.040140
  70 H :    0.011989
  71 H :    0.026519
  72 H :    0.026152
  73 H :    0.029010
  74 H :    0.028855
  75 H :    0.023887
  76 H :    0.029554

  Mayer bond orders larger than 0.100000
B(  0-C ,  1-O ) :   1.1668 B(  0-C ,  4-C ) :   1.4931 B(  0-C , 52-H ) :   1.0078
B(  1-O ,  2-C ) :   1.1271 B(  2-C ,  3-C ) :   1.5876 B(  2-C , 53-H ) :   1.0025
B(  3-C ,  4-C ) :   1.2217 B(  3-C , 54-H ) :   0.9984 B(  4-C ,  5-C ) :   1.0799
B(  5-C ,  6-C ) :   1.6810 B(  5-C , 55-H ) :   0.9762 B(  6-C ,  7-C ) :   1.1272
B(  6-C , 56-H ) :   0.9827 B(  7-C ,  8-C ) :   1.6523 B(  7-C , 57-H ) :   0.9807
B(  8-C ,  9-C ) :   1.1066 B(  8-C , 58-H ) :   0.9567 B(  9-C , 10-C ) :   1.4954
B(  9-C , 17-O ) :   1.0419 B( 10-C , 11-O ) :   1.0575 B( 10-C , 18-C ) :   1.1849
B( 11-O , 12-C ) :   1.0568 B( 12-C , 13-C ) :   1.2000 B( 12-C , 16-C ) :   1.5720
B( 13-C , 14-C ) :   1.5736 B( 13-C , 17-O ) :   1.0620 B( 14-C , 15-S ) :   1.1405
B( 14-C , 59-H ) :   0.9715 B( 15-S , 16-C ) :   1.1372 B( 16-C , 60-H ) :   0.9726
B( 18-C , 19-C ) :   1.5979 B( 18-C , 61-H ) :   0.9530 B( 19-C , 20-C ) :   1.1555
B( 19-C , 62-H ) :   0.9896 B( 20-C , 21-S ) :   1.0929 B( 20-C , 22-C ) :   0.1174
B( 20-C , 24-C ) :   1.4441 B( 21-S , 22-C ) :   1.0935 B( 22-C , 23-C ) :   1.4378
B( 22-C , 30-C ) :   1.2237 B( 23-C , 24-C ) :   1.1951 B( 23-C , 29-O ) :   1.1171
B( 24-C , 25-O ) :   1.1594 B( 25-O , 26-C ) :   0.9592 B( 26-C , 27-C ) :   1.0661
B( 26-C , 63-H ) :   0.9550 B( 26-C , 64-H ) :   0.9445 B( 27-C , 28-C ) :   1.0718
B( 27-C , 65-H ) :   0.9335 B( 27-C , 66-H ) :   0.9333 B( 28-C , 29-O ) :   0.9285
B( 28-C , 67-H ) :   0.9537 B( 28-C , 68-H ) :   0.9463 B( 30-C , 31-S ) :   1.1391
B( 30-C , 37-C ) :   1.3823 B( 31-S , 32-C ) :   1.0749 B( 32-C , 33-N ) :   0.9700
B( 32-C , 36-C ) :   1.4755 B( 33-N , 34-O ) :   1.5301 B( 33-N , 35-O ) :   1.5115
B( 34-O , 35-O ) :   0.2585 B( 36-C , 37-C ) :   1.2387 B( 36-C , 69-H ) :   0.9995
B( 37-C , 38-C ) :   1.0777 B( 38-C , 39-C ) :   1.7506 B( 38-C , 70-H ) :   0.9473
B( 39-C , 40-C ) :   1.0834 B( 39-C , 71-H ) :   0.9645 B( 40-C , 41-C ) :   1.5800
B( 40-C , 44-S ) :   1.0627 B( 41-C , 42-C ) :   1.1498 B( 41-C , 72-H ) :   0.9972
B( 42-C , 43-C ) :   1.2886 B( 42-C , 48-C ) :   1.3198 B( 43-C , 44-S ) :   1.0389
B( 43-C , 45-C ) :   1.3885 B( 45-C , 46-C ) :   1.3287 B( 45-C , 48-C ) :   0.1052
B( 45-C , 73-H ) :   1.0031 B( 46-C , 47-C ) :   1.2913 B( 46-C , 51-C ) :   1.1533
B( 47-C , 48-C ) :   1.3848 B( 47-C , 49-S ) :   1.0466 B( 48-C , 74-H ) :   0.9985
B( 49-S , 50-C ) :   1.1054 B( 50-C , 51-C ) :   1.6466 B( 50-C , 75-H ) :   0.9686
B( 51-C , 76-H ) :   0.9998

-----------------------------------------------------------------------------
         ABSORPTION SPECTRUM VIA TRANSITION ELECTRIC DIPOLE MOMENTS
-----------------------------------------------------------------------------
State   Energy  Wavelength   fosc         T2         TX        TY        TZ
        (cm-1)    (nm)                  (au**2)     (au)      (au)      (au)
-----------------------------------------------------------------------------
   0   16403.2    609.6   0.306753398   6.15654  -0.13498  -1.56724  -1.91888
   1   22518.3    444.1   0.111921783   1.63627   1.13290  -0.59108  -0.05868
   2   24692.8    405.0   0.501214080   6.68233   0.60345  -2.29672  -1.02140
   3   25371.9    394.1   0.446881484   5.79849   2.17771  -0.95977  -0.36733
   4   26362.4    379.3   0.656533204   8.19874  -2.47431  -0.98925  -1.04781
   5   28501.0    350.9   0.071786996   0.82920   0.90860   0.01715   0.05795
   6   29388.3    340.3   0.047750569   0.53491   0.68266  -0.21842  -0.14555
   7   29971.1    333.7   0.562079714   6.17406   1.40763  -1.94971  -0.62551
   8   30829.1    324.4   0.205580633   2.19532  -1.43548  -0.34128  -0.13504
   9   31785.4    314.6   0.192904882   1.99798   0.04397   1.27477   0.60911
  10   31999.8    312.5   0.112593800   1.15836  -1.05470   0.02405  -0.21307
  11   33333.0    300.0   0.390910963   3.86082  -0.59046   1.70075   0.78717
  12   34098.5    293.3   0.421931891   4.07365   0.93990   1.52422   0.93113
  13   34283.5    291.7   0.051728389   0.49673  -0.13931  -0.63815  -0.26475
  14   34674.7    288.4   0.041486591   0.39389  -0.50380   0.34442   0.14645
  15   35582.8    281.0   0.195967188   1.81309   0.04212   1.20944   0.59039
  16   36791.5    271.8   0.145741355   1.30410  -0.86301  -0.68132  -0.30841
  17   37013.4    270.2   0.034110634   0.30339   0.44216   0.24964   0.21346
  18   37290.3    268.2   0.015238425   0.13453  -0.28466   0.21798  -0.07734
  19   37701.9    265.2   0.027595345   0.24096  -0.12633  -0.41472  -0.23024
  20   38033.2    262.9   0.061269958   0.53035  -0.72687  -0.03685  -0.02538
  21   38532.3    259.5   0.058017156   0.49569   0.39652  -0.46133  -0.35445
  22   39253.3    254.8   0.039980145   0.33531  -0.46291  -0.31563  -0.14628
  23   39866.2    250.8   0.158740478   1.31087   0.86098  -0.68152  -0.32422
  24   40322.3    248.0   0.008291640   0.06770  -0.12145   0.17427   0.15025

FINAL SINGLE POINT ENERGY     -4070.082226469611

DIPOLE MOMENT
-------------
                                X             Y             Z
Electronic contribution:     -0.61863      -0.78388      -9.04240
Nuclear contribution   :      1.61172       2.02074      10.80541
                        -----------------------------------------
Total Dipole Moment    :      0.99309       1.23685       1.76301
                        -----------------------------------------
Magnitude (a.u.)       :      2.37155
Magnitude (Debye)      :      6.02799

Rotational constants in cm-1:     0.001341     0.001185     0.000663
Rotational constants in MHz :    40.190301    35.516911    19.879378

                             ****ORCA TERMINATED NORMALLY****
TOTAL RUN TIME: 0 days 0 hours 5 minutes 46 seconds 155 msec
