                         Program Version 4.2.0 -  RELEASE  -
|  1> # ORCA input file
|  2> # SCF done       -159.501188642693          0.000363465013
|  3> ! CAM-B3LYP def2-SVP def2/J RIJCOSX Grid4 TightSCF
|  4> %maxcore 5000
|  5> %tddft
|  6>     Mode sTDDFT
|  7>     Ethresh 5.0
|  8>     maxcore 5000
|  9> end
| 10>
| 11> %pal
| 12>   nprocs 6
| 13>   end
| 14> * xyz 0 1
| 15>    C        4.26838         9.51149       -12.60371
| 16>    S        3.66831         8.14648       -11.68045
| 17>    C        3.08643         7.50216       -13.16242
| 18>    C        3.39248         8.36445       -14.21501
| 19>    N        4.05279         9.47849       -13.87245
| 20>    C        2.89267         7.82065       -15.51531
| 21>    C        2.25871         6.53642       -15.06456
| 22>    C        2.39359         6.38344       -13.67918
| 23>    S        1.68860         4.93068       -13.10935
| 24>    C        1.19700         4.50816       -14.74697
| 25>    C        1.58619         5.48313       -15.66256
| 26>    C        0.50703         3.29768       -14.94008
| 27>    C        0.04890         2.83333       -16.14663
| 28>    C       -0.62645         1.63041       -16.38376
| 29>    C       -0.98254         0.62166       -15.50747
| 30>    C       -1.65014        -0.56618       -15.88074
| 31>    C       -1.88800        -1.43581       -14.85215
| 32>    C       -1.42434        -0.97742       -13.60825
| 33>    S       -0.67763         0.59113       -13.78200
| 34>    C       -1.49102        -1.60022       -12.36684
| 35>    C       -2.01568        -2.86170       -12.04187
| 36>    C       -1.90290        -3.17742       -10.71412
| 37>    C       -1.28852        -2.17927        -9.93420
| 38>    S       -0.85709        -0.81501       -10.93883
| 39>    C       -1.03161        -2.23586        -8.57562
| 40>    C       -0.42895        -1.25243        -7.80652
| 41>    S        0.10755         0.31798        -8.38478
| 42>    C        0.72133         0.85887        -6.81343
| 43>    C        0.50203        -0.17708        -5.87021
| 44>    C       -0.12870        -1.30745        -6.44142
| 45>    O       -0.33609        -2.27081        -5.53087
| 46>    C        0.15524        -1.77127        -4.36499
| 47>    N        0.07844        -2.57115        -3.21170
| 48>    O        0.53101        -2.09330        -2.18360
| 49>    O       -0.42629        -3.67299        -3.31044
| 50>    C        0.67493        -0.50465        -4.50829
| 51>    C        1.26526         2.12594        -6.78390
| 52>    C        1.88918         2.83863        -5.76642
| 53>    C        2.37303         4.15228        -5.90422
| 54>    C        2.98229         4.65321        -4.78295
| 55>    C        3.01059         3.74965        -3.71055
| 56>    S        2.23112         2.25270        -4.15994
| 57>    C        3.56269         3.91222        -2.44461
| 58>    C        4.23021         5.03373        -1.91890
| 59>    C        4.67243         4.85953        -0.63882
| 60>    C        4.37554         3.58916        -0.09079
| 61>    S        3.50226         2.62402        -1.26445
| 62>    C        4.71607         3.14665         1.16395
| 63>    C        4.43748         1.89142         1.72446
| 64>    S        3.55083         0.59327         0.93383
| 65>    C        3.68693        -0.47931         2.26574
| 66>    C        4.38415         0.10817         3.29759
| 67>    C        4.79940         1.43652         2.98433
| 68>    O        5.48118         1.98517         4.00911
| 69>    C        5.50761         1.02481         4.97407
| 70>    N        6.17344         1.32844         6.18360
| 71>    O        6.18311         0.45438         7.03096
| 72>    O        6.68401         2.42269         6.29435
| 73>    C        4.86604        -0.13064         4.61338
| 74>    H        4.78046        10.31020       -12.10736
| 75>    H        3.70621         7.65333       -16.22364
| 76>    H        2.17498         8.49367       -15.98774
| 77>    H        1.38151         5.41054       -16.71467
| 78>    H        0.34188         2.71400       -14.04715
| 79>    H        0.22018         3.44779       -17.02018
| 80>    H       -0.91281         1.44505       -17.41210
| 81>    H       -1.93475        -0.74946       -16.90206
| 82>    H       -2.38177        -2.38415       -14.96462
| 83>    H       -2.45503        -3.50712       -12.78094
| 84>    H       -2.24363        -4.10008       -10.27869
| 85>    H       -1.31912        -3.13733        -8.05054
| 86>    H        1.10627         0.06577        -3.71405
| 87>    H        1.20844         2.65844        -7.72661
| 88>    H        2.26152         4.69764        -6.82470
| 89>    H        3.40677         5.63833        -4.71530
| 90>    H        4.36990         5.93378        -2.49004
| 91>    H        5.20443         5.60241        -0.07170
| 92>    H        5.26429         3.82679         1.80267
| 93>    H        3.25342        -1.45587         2.20906
| 94>    H        4.76631        -1.00933         5.21594
| 95> *
| 96>
| 97>                          ****END OF INPUT****

CARTESIAN COORDINATES (ANGSTROEM)
---------------------------------
  C      4.268380    9.511490  -12.603710
  S      3.668310    8.146480  -11.680450
  C      3.086430    7.502160  -13.162420
  C      3.392480    8.364450  -14.215010
  N      4.052790    9.478490  -13.872450
  C      2.892670    7.820650  -15.515310
  C      2.258710    6.536420  -15.064560
  C      2.393590    6.383440  -13.679180
  S      1.688600    4.930680  -13.109350
  C      1.197000    4.508160  -14.746970
  C      1.586190    5.483130  -15.662560
  C      0.507030    3.297680  -14.940080
  C      0.048900    2.833330  -16.146630
  C     -0.626450    1.630410  -16.383760
  C     -0.982540    0.621660  -15.507470
  C     -1.650140   -0.566180  -15.880740
  C     -1.888000   -1.435810  -14.852150
  C     -1.424340   -0.977420  -13.608250
  S     -0.677630    0.591130  -13.782000
  C     -1.491020   -1.600220  -12.366840
  C     -2.015680   -2.861700  -12.041870
  C     -1.902900   -3.177420  -10.714120
  C     -1.288520   -2.179270   -9.934200
  S     -0.857090   -0.815010  -10.938830
  C     -1.031610   -2.235860   -8.575620
  C     -0.428950   -1.252430   -7.806520
  S      0.107550    0.317980   -8.384780
  C      0.721330    0.858870   -6.813430
  C      0.502030   -0.177080   -5.870210
  C     -0.128700   -1.307450   -6.441420
  O     -0.336090   -2.270810   -5.530870
  C      0.155240   -1.771270   -4.364990
  N      0.078440   -2.571150   -3.211700
  O      0.531010   -2.093300   -2.183600
  O     -0.426290   -3.672990   -3.310440
  C      0.674930   -0.504650   -4.508290
  C      1.265260    2.125940   -6.783900
  C      1.889180    2.838630   -5.766420
  C      2.373030    4.152280   -5.904220
  C      2.982290    4.653210   -4.782950
  C      3.010590    3.749650   -3.710550
  S      2.231120    2.252700   -4.159940
  C      3.562690    3.912220   -2.444610
  C      4.230210    5.033730   -1.918900
  C      4.672430    4.859530   -0.638820
  C      4.375540    3.589160   -0.090790
  S      3.502260    2.624020   -1.264450
  C      4.716070    3.146650    1.163950
  C      4.437480    1.891420    1.724460
  S      3.550830    0.593270    0.933830
  C      3.686930   -0.479310    2.265740
  C      4.384150    0.108170    3.297590
  C      4.799400    1.436520    2.984330
  O      5.481180    1.985170    4.009110
  C      5.507610    1.024810    4.974070
  N      6.173440    1.328440    6.183600
  O      6.183110    0.454380    7.030960
  O      6.684010    2.422690    6.294350
  C      4.866040   -0.130640    4.613380
  H      4.780460   10.310200  -12.107360
  H      3.706210    7.653330  -16.223640
  H      2.174980    8.493670  -15.987740
  H      1.381510    5.410540  -16.714670
  H      0.341880    2.714000  -14.047150
  H      0.220180    3.447790  -17.020180
  H     -0.912810    1.445050  -17.412100
  H     -1.934750   -0.749460  -16.902060
  H     -2.381770   -2.384150  -14.964620
  H     -2.455030   -3.507120  -12.780940
  H     -2.243630   -4.100080  -10.278690
  H     -1.319120   -3.137330   -8.050540
  H      1.106270    0.065770   -3.714050
  H      1.208440    2.658440   -7.726610
  H      2.261520    4.697640   -6.824700
  H      3.406770    5.638330   -4.715300
  H      4.369900    5.933780   -2.490040
  H      5.204430    5.602410   -0.071700
  H      5.264290    3.826790    1.802670
  H      3.253420   -1.455870    2.209060
  H      4.766310   -1.009330    5.215940

 Total Charge           Charge          ....    0
 Multiplicity           Mult            ....    1
 Number of Electrons    NEL             ....  470
 Basis Dimension        Dim             ....  963

ORBITAL ENERGIES
----------------

  NO   OCC          E(Eh)            E(eV)
   0   2.0000     -88.974422     -2421.1171
   1   2.0000     -88.968898     -2420.9668
   2   2.0000     -88.965909     -2420.8855
   3   2.0000     -88.962974     -2420.8056
   4   2.0000     -88.955519     -2420.6027
   5   2.0000     -88.952541     -2420.5217
   6   2.0000     -88.951209     -2420.4854
   7   2.0000     -88.950506     -2420.4663
   8   2.0000     -19.308983      -525.4241
   9   2.0000     -19.308156      -525.4016
  10   2.0000     -19.241062      -523.5759
  11   2.0000     -19.239056      -523.5213
  12   2.0000     -19.235554      -523.4260
  13   2.0000     -19.233828      -523.3791
  14   2.0000     -14.652852      -398.7244
  15   2.0000     -14.647976      -398.5917
  16   2.0000     -14.412107      -392.1734
  17   2.0000     -10.384554      -282.5781
  18   2.0000     -10.378330      -282.4087
  19   2.0000     -10.347745      -281.5765
  20   2.0000     -10.345122      -281.5051
  21   2.0000     -10.327515      -281.0260
  22   2.0000     -10.321567      -280.8641
  23   2.0000     -10.316549      -280.7276
  24   2.0000     -10.316271      -280.7200
  25   2.0000     -10.315833      -280.7081
  26   2.0000     -10.315386      -280.6959
  27   2.0000     -10.314846      -280.6812
  28   2.0000     -10.313105      -280.6339
  29   2.0000     -10.311882      -280.6006
  30   2.0000     -10.311547      -280.5915
  31   2.0000     -10.310480      -280.5624
  32   2.0000     -10.310342      -280.5587
  33   2.0000     -10.310128      -280.5528
  34   2.0000     -10.307270      -280.4751
  35   2.0000     -10.306432      -280.4523
  36   2.0000     -10.305991      -280.4403
  37   2.0000     -10.305383      -280.4237
  38   2.0000     -10.303940      -280.3845
  39   2.0000     -10.302080      -280.3338
  40   2.0000     -10.298805      -280.2447
  41   2.0000     -10.295841      -280.1641
  42   2.0000     -10.295049      -280.1425
  43   2.0000     -10.294312      -280.1225
  44   2.0000     -10.290800      -280.0269
  45   2.0000     -10.289975      -280.0044
  46   2.0000     -10.289857      -280.0012
  47   2.0000     -10.288870      -279.9744
  48   2.0000     -10.288780      -279.9719
  49   2.0000     -10.288070      -279.9526
  50   2.0000     -10.287189      -279.9286
  51   2.0000     -10.286180      -279.9012
  52   2.0000     -10.285230      -279.8753
  53   2.0000     -10.285210      -279.8748
  54   2.0000     -10.283834      -279.8374
  55   2.0000     -10.282650      -279.8051
  56   2.0000     -10.281626      -279.7773
  57   2.0000     -10.278838      -279.7014
  58   2.0000     -10.276239      -279.6307
  59   2.0000      -8.068807      -219.5634
  60   2.0000      -8.064442      -219.4446
  61   2.0000      -8.060373      -219.3339
  62   2.0000      -8.058006      -219.2695
  63   2.0000      -8.051468      -219.0916
  64   2.0000      -8.048598      -219.0135
  65   2.0000      -8.047313      -218.9785
  66   2.0000      -8.046307      -218.9511
  67   2.0000      -6.038167      -164.3069
  68   2.0000      -6.033686      -164.1849
  69   2.0000      -6.033606      -164.1828
  70   2.0000      -6.031273      -164.1193
  71   2.0000      -6.029915      -164.0823
  72   2.0000      -6.029539      -164.0721
  73   2.0000      -6.027330      -164.0120
  74   2.0000      -6.026775      -163.9969
  75   2.0000      -6.025824      -163.9710
  76   2.0000      -6.023276      -163.9017
  77   2.0000      -6.022019      -163.8675
  78   2.0000      -6.021135      -163.8434
  79   2.0000      -6.020118      -163.8157
  80   2.0000      -6.018347      -163.7675
  81   2.0000      -6.017024      -163.7315
  82   2.0000      -6.016997      -163.7308
  83   2.0000      -6.015976      -163.7030
  84   2.0000      -6.014212      -163.6550
  85   2.0000      -6.012825      -163.6173
  86   2.0000      -6.012686      -163.6135
  87   2.0000      -6.011885      -163.5917
  88   2.0000      -6.009613      -163.5299
  89   2.0000      -6.008441      -163.4980
  90   2.0000      -6.007493      -163.4722
  91   2.0000      -1.323947       -36.0264
  92   2.0000      -1.317226       -35.8435
  93   2.0000      -1.229602       -33.4592
  94   2.0000      -1.227964       -33.4146
  95   2.0000      -1.140103       -31.0238
  96   2.0000      -1.132918       -30.8283
  97   2.0000      -1.066233       -29.0137
  98   2.0000      -1.004054       -27.3217
  99   2.0000      -1.000242       -27.2180
 100   2.0000      -0.995806       -27.0973
 101   2.0000      -0.995102       -27.0781
 102   2.0000      -0.990728       -26.9591
 103   2.0000      -0.978017       -26.6132
 104   2.0000      -0.974120       -26.5071
 105   2.0000      -0.933878       -25.4121
 106   2.0000      -0.933204       -25.3938
 107   2.0000      -0.929426       -25.2910
 108   2.0000      -0.907261       -24.6878
 109   2.0000      -0.902696       -24.5636
 110   2.0000      -0.895856       -24.3775
 111   2.0000      -0.894298       -24.3351
 112   2.0000      -0.891949       -24.2712
 113   2.0000      -0.878816       -23.9138
 114   2.0000      -0.869927       -23.6719
 115   2.0000      -0.856816       -23.3151
 116   2.0000      -0.850175       -23.1344
 117   2.0000      -0.844615       -22.9831
 118   2.0000      -0.838116       -22.8063
 119   2.0000      -0.833655       -22.6849
 120   2.0000      -0.829934       -22.5837
 121   2.0000      -0.825343       -22.4587
 122   2.0000      -0.817563       -22.2470
 123   2.0000      -0.800651       -21.7868
 124   2.0000      -0.789594       -21.4859
 125   2.0000      -0.781399       -21.2629
 126   2.0000      -0.778264       -21.1776
 127   2.0000      -0.774353       -21.0712
 128   2.0000      -0.761670       -20.7261
 129   2.0000      -0.747245       -20.3336
 130   2.0000      -0.732523       -19.9330
 131   2.0000      -0.708775       -19.2867
 132   2.0000      -0.707019       -19.2390
 133   2.0000      -0.704800       -19.1786
 134   2.0000      -0.684282       -18.6203
 135   2.0000      -0.677855       -18.4454
 136   2.0000      -0.675120       -18.3709
 137   2.0000      -0.672334       -18.2951
 138   2.0000      -0.664934       -18.0938
 139   2.0000      -0.653826       -17.7915
 140   2.0000      -0.647704       -17.6249
 141   2.0000      -0.641886       -17.4666
 142   2.0000      -0.639022       -17.3887
 143   2.0000      -0.637944       -17.3593
 144   2.0000      -0.635047       -17.2805
 145   2.0000      -0.633346       -17.2342
 146   2.0000      -0.629163       -17.1204
 147   2.0000      -0.625796       -17.0288
 148   2.0000      -0.624948       -17.0057
 149   2.0000      -0.622321       -16.9342
 150   2.0000      -0.619482       -16.8570
 151   2.0000      -0.617115       -16.7925
 152   2.0000      -0.603906       -16.4331
 153   2.0000      -0.600399       -16.3377
 154   2.0000      -0.596396       -16.2288
 155   2.0000      -0.591735       -16.1019
 156   2.0000      -0.587279       -15.9807
 157   2.0000      -0.584495       -15.9049
 158   2.0000      -0.582129       -15.8405
 159   2.0000      -0.572938       -15.5904
 160   2.0000      -0.568920       -15.4811
 161   2.0000      -0.564663       -15.3653
 162   2.0000      -0.564524       -15.3615
 163   2.0000      -0.559551       -15.2262
 164   2.0000      -0.554169       -15.0797
 165   2.0000      -0.550781       -14.9875
 166   2.0000      -0.550025       -14.9669
 167   2.0000      -0.539724       -14.6866
 168   2.0000      -0.535633       -14.5753
 169   2.0000      -0.531120       -14.4525
 170   2.0000      -0.526298       -14.3213
 171   2.0000      -0.520283       -14.1576
 172   2.0000      -0.514664       -14.0047
 173   2.0000      -0.512694       -13.9511
 174   2.0000      -0.507880       -13.8201
 175   2.0000      -0.504274       -13.7220
 176   2.0000      -0.503206       -13.6929
 177   2.0000      -0.500388       -13.6162
 178   2.0000      -0.496537       -13.5115
 179   2.0000      -0.494346       -13.4518
 180   2.0000      -0.493184       -13.4202
 181   2.0000      -0.489772       -13.3274
 182   2.0000      -0.484919       -13.1953
 183   2.0000      -0.483367       -13.1531
 184   2.0000      -0.482609       -13.1325
 185   2.0000      -0.475846       -12.9484
 186   2.0000      -0.475447       -12.9376
 187   2.0000      -0.470737       -12.8094
 188   2.0000      -0.468647       -12.7525
 189   2.0000      -0.468170       -12.7395
 190   2.0000      -0.463956       -12.6249
 191   2.0000      -0.463284       -12.6066
 192   2.0000      -0.458204       -12.4684
 193   2.0000      -0.457778       -12.4568
 194   2.0000      -0.453923       -12.3519
 195   2.0000      -0.452428       -12.3112
 196   2.0000      -0.448750       -12.2111
 197   2.0000      -0.445852       -12.1322
 198   2.0000      -0.436383       -11.8746
 199   2.0000      -0.433995       -11.8096
 200   2.0000      -0.430799       -11.7226
 201   2.0000      -0.425604       -11.5813
 202   2.0000      -0.423960       -11.5365
 203   2.0000      -0.423187       -11.5155
 204   2.0000      -0.418806       -11.3963
 205   2.0000      -0.413920       -11.2633
 206   2.0000      -0.411501       -11.1975
 207   2.0000      -0.404544       -11.0082
 208   2.0000      -0.398682       -10.8487
 209   2.0000      -0.391527       -10.6540
 210   2.0000      -0.387132       -10.5344
 211   2.0000      -0.384442       -10.4612
 212   2.0000      -0.382917       -10.4197
 213   2.0000      -0.382142       -10.3986
 214   2.0000      -0.377016       -10.2591
 215   2.0000      -0.372510       -10.1365
 216   2.0000      -0.368664       -10.0318
 217   2.0000      -0.363700        -9.8968
 218   2.0000      -0.362930        -9.8758
 219   2.0000      -0.353665        -9.6237
 220   2.0000      -0.348497        -9.4831
 221   2.0000      -0.342980        -9.3330
 222   2.0000      -0.342301        -9.3145
 223   2.0000      -0.339033        -9.2256
 224   2.0000      -0.332157        -9.0384
 225   2.0000      -0.330501        -8.9934
 226   2.0000      -0.326004        -8.8710
 227   2.0000      -0.323037        -8.7903
 228   2.0000      -0.315561        -8.5869
 229   2.0000      -0.310903        -8.4601
 230   2.0000      -0.300499        -8.1770
 231   2.0000      -0.276899        -7.5348
 232   2.0000      -0.253975        -6.9110
 233   2.0000      -0.223749        -6.0885
 234   2.0000      -0.187648        -5.1062
 235   0.0000      -0.108772        -2.9598
 236   0.0000      -0.074691        -2.0325
 237   0.0000      -0.060643        -1.6502
 238   0.0000      -0.046217        -1.2576
 239   0.0000      -0.032089        -0.8732

MULLIKEN ATOMIC CHARGES
-----------------------
   0 C :   -0.009214
   1 S :    0.115664
   2 C :   -0.079134
   3 C :   -0.230847
   4 N :   -0.036776
   5 C :    0.373978
   6 C :   -0.165106
   7 C :   -0.098576
   8 S :    0.144835
   9 C :   -0.084559
  10 C :   -0.010003
  11 C :    0.046791
  12 C :   -0.004995
  13 C :    0.009298
  14 C :   -0.030247
  15 C :    0.036361
  16 C :    0.020250
  17 C :   -0.026376
  18 S :    0.055776
  19 C :   -0.032271
  20 C :    0.025554
  21 C :    0.030737
  22 C :   -0.028538
  23 S :    0.063873
  24 C :   -0.011987
  25 C :   -0.141281
  26 S :    0.108247
  27 C :   -0.125653
  28 C :    0.135416
  29 C :    0.159571
  30 O :   -0.171345
  31 C :    0.212925
  32 N :    0.282856
  33 O :   -0.261574
  34 O :   -0.243053
  35 C :   -0.094591
  36 C :    0.023623
  37 C :   -0.025923
  38 C :    0.025418
  39 C :    0.023399
  40 C :   -0.028379
  41 S :    0.059300
  42 C :   -0.032679
  43 C :    0.023786
  44 C :    0.037867
  45 C :   -0.029311
  46 S :    0.063702
  47 C :   -0.003199
  48 C :   -0.191391
  49 S :    0.149762
  50 C :   -0.125891
  51 C :    0.125107
  52 C :    0.190529
  53 O :   -0.182015
  54 C :    0.231219
  55 N :    0.271837
  56 O :   -0.249306
  57 O :   -0.232793
  58 C :   -0.067693
  59 H :    0.036637
  60 H :    0.037595
  61 H :    0.037103
  62 H :   -0.024334
  63 H :   -0.009183
  64 H :   -0.019989
  65 H :   -0.016784
  66 H :   -0.012881
  67 H :   -0.015374
  68 H :   -0.013455
  69 H :   -0.010379
  70 H :    0.003808
  71 H :    0.017710
  72 H :   -0.016442
  73 H :   -0.011556
  74 H :   -0.013619
  75 H :   -0.013284
  76 H :   -0.007980
  77 H :    0.006518
  78 H :    0.039109
  79 H :    0.013807
Sum of atomic charges:   -0.0000000

LOEWDIN ATOMIC CHARGES
----------------------
   0 C :   -0.129582
   1 S :    0.406598
   2 C :   -0.216641
   3 C :   -0.046406
   4 N :   -0.082986
   5 C :   -0.012156
   6 C :   -0.046758
   7 C :   -0.200498
   8 S :    0.435666
   9 C :   -0.162756
  10 C :   -0.050237
  11 C :   -0.044289
  12 C :   -0.044076
  13 C :   -0.051199
  14 C :   -0.152987
  15 C :   -0.027531
  16 C :   -0.045825
  17 C :   -0.173913
  18 S :    0.393780
  19 C :   -0.181941
  20 C :   -0.037552
  21 C :   -0.035293
  22 C :   -0.155124
  23 S :    0.378857
  24 C :   -0.070309
  25 C :   -0.195128
  26 S :    0.433887
  27 C :   -0.160944
  28 C :   -0.082522
  29 C :    0.025226
  30 O :    0.014326
  31 C :    0.011733
  32 N :    0.273244
  33 O :   -0.222923
  34 O :   -0.203728
  35 C :   -0.013280
  36 C :   -0.078808
  37 C :   -0.156029
  38 C :   -0.034393
  39 C :   -0.039337
  40 C :   -0.179449
  41 S :    0.405635
  42 C :   -0.176238
  43 C :   -0.038431
  44 C :   -0.028748
  45 C :   -0.155712
  46 S :    0.371305
  47 C :   -0.062360
  48 C :   -0.205941
  49 S :    0.480116
  50 C :   -0.183641
  51 C :   -0.085726
  52 C :    0.021581
  53 O :    0.003031
  54 C :    0.023629
  55 N :    0.272096
  56 O :   -0.211262
  57 O :   -0.194036
  58 C :   -0.006846
  59 H :    0.016443
  60 H :    0.055928
  61 H :    0.055587
  62 H :    0.029900
  63 H :    0.009337
  64 H :    0.028251
  65 H :    0.035084
  66 H :    0.033172
  67 H :    0.031539
  68 H :    0.032302
  69 H :    0.034533
  70 H :    0.046344
  71 H :    0.028331
  72 H :    0.036085
  73 H :    0.033621
  74 H :    0.032419
  75 H :    0.032550
  76 H :    0.035239
  77 H :    0.046878
  78 H :    0.031880
  79 H :    0.047409

  Mayer bond orders larger than 0.100000
B(  0-C ,  1-S ) :   1.1284 B(  0-C ,  4-N ) :   1.6922 B(  0-C , 59-H ) :   0.9665
B(  1-S ,  2-C ) :   1.0894 B(  2-C ,  3-C ) :   1.5239 B(  2-C ,  7-C ) :   1.1946
B(  3-C ,  4-N ) :   1.4124 B(  3-C ,  5-C ) :   1.0466 B(  5-C ,  6-C ) :   0.9835
B(  5-C , 60-H ) :   0.8658 B(  5-C , 61-H ) :   0.8663 B(  6-C ,  7-C ) :   1.5121
B(  6-C , 10-C ) :   1.3334 B(  7-C ,  8-S ) :   1.0894 B(  8-S ,  9-C ) :   1.1012
B(  9-C , 10-C ) :   1.4293 B(  9-C , 11-C ) :   1.2000 B( 10-C , 62-H ) :   0.9964
B( 11-C , 12-C ) :   1.5772 B( 11-C , 63-H ) :   0.9316 B( 12-C , 13-C ) :   1.2567
B( 12-C , 64-H ) :   0.9666 B( 13-C , 14-C ) :   1.5124 B( 13-C , 65-H ) :   0.9602
B( 14-C , 15-C ) :   1.1860 B( 14-C , 18-S ) :   1.0443 B( 15-C , 16-C ) :   1.5426
B( 15-C , 66-H ) :   0.9986 B( 16-C , 17-C ) :   1.2279 B( 16-C , 67-H ) :   0.9936
B( 17-C , 18-S ) :   1.0535 B( 17-C , 19-C ) :   1.4401 B( 19-C , 20-C ) :   1.2315
B( 19-C , 23-S ) :   1.0524 B( 20-C , 21-C ) :   1.5327 B( 20-C , 68-H ) :   0.9936
B( 21-C , 22-C ) :   1.1959 B( 21-C , 69-H ) :   1.0005 B( 22-C , 23-S ) :   1.0514
B( 22-C , 24-C ) :   1.4588 B( 24-C , 25-C ) :   1.2717 B( 24-C , 70-H ) :   0.9752
B( 25-C , 26-S ) :   1.0609 B( 25-C , 29-C ) :   1.3604 B( 26-S , 27-C ) :   1.1073
B( 27-C , 28-C ) :   1.2121 B( 27-C , 36-C ) :   1.3176 B( 28-C , 29-C ) :   1.2801
B( 28-C , 35-C ) :   1.1290 B( 29-C , 30-O ) :   1.1513 B( 30-O , 31-C ) :   1.1224
B( 31-C , 32-N ) :   0.9373 B( 31-C , 35-C ) :   1.5226 B( 32-N , 33-O ) :   1.5133
B( 32-N , 34-O ) :   1.4960 B( 33-O , 34-O ) :   0.2714 B( 35-C , 71-H ) :   1.0078
B( 36-C , 37-C ) :   1.4829 B( 36-C , 72-H ) :   0.9356 B( 37-C , 38-C ) :   1.2061
B( 37-C , 41-S ) :   1.0493 B( 38-C , 39-C ) :   1.5251 B( 38-C , 73-H ) :   0.9997
B( 39-C , 40-C ) :   1.2343 B( 39-C , 74-H ) :   0.9932 B( 40-C , 41-S ) :   1.0548
B( 40-C , 42-C ) :   1.4458 B( 42-C , 43-C ) :   1.2161 B( 42-C , 46-S ) :   1.0520
B( 43-C , 44-C ) :   1.5621 B( 43-C , 75-H ) :   0.9937 B( 44-C , 45-C ) :   1.1592
B( 44-C , 76-H ) :   1.0003 B( 45-C , 46-S ) :   1.0370 B( 45-C , 47-C ) :   1.5443
B( 47-C , 48-C ) :   1.1902 B( 47-C , 77-H ) :   0.9731 B( 48-C , 49-S ) :   1.1017
B( 48-C , 50-C ) :   0.1053 B( 48-C , 52-C ) :   1.4287 B( 49-S , 50-C ) :   1.1962
B( 50-C , 51-C ) :   1.4049 B( 50-C , 78-H ) :   0.9770 B( 51-C , 52-C ) :   1.2353
B( 51-C , 58-C ) :   1.0625 B( 52-C , 53-O ) :   1.1266 B( 53-O , 54-C ) :   1.1231
B( 54-C , 55-N ) :   0.9167 B( 54-C , 58-C ) :   1.5752 B( 55-N , 56-O ) :   1.5335
B( 55-N , 57-O ) :   1.5130 B( 56-O , 57-O ) :   0.2793 B( 58-C , 79-H ) :   1.0256

-----------------------------------------------------------------------------
         ABSORPTION SPECTRUM VIA TRANSITION ELECTRIC DIPOLE MOMENTS
-----------------------------------------------------------------------------
State   Energy  Wavelength   fosc         T2         TX        TY        TZ
        (cm-1)    (nm)                  (au**2)     (au)      (au)      (au)
-----------------------------------------------------------------------------
   0    5816.9   1719.1   0.745489060  42.19157  -1.58784   0.09396  -6.29774
   1   11883.3    841.5   0.032148638   0.89063  -0.03923   0.35059  -0.87532
   2   13414.6    745.5   0.618380902  15.17589   2.08518   3.28818  -0.12555
   3   15556.1    642.8   0.168390733   3.56365  -0.74022  -0.00780  -1.73656
   4   18188.1    549.8   0.392207143   7.09912  -1.38401  -1.63594  -1.58346
   5   18790.0    532.2   0.147309222   2.58094  -0.44531  -1.48234   0.43048
   6   21125.2    473.4   0.177350120   2.76380  -0.74690  -1.40333  -0.48641
   7   22460.3    445.2   0.772095060  11.31697   1.37287   2.98059   0.74046
   8   23339.7    428.5   0.118797909   1.67567  -0.10722   0.50308  -1.18789
   9   24722.9    404.5   0.213885481   2.84811  -0.57729  -1.57669   0.16997
  10   26582.2    376.2   0.204602157   2.53393   0.44755   1.48459  -0.36000
  11   27211.0    367.5   0.001156914   0.01400  -0.01194  -0.05221   0.10549
  12   27322.5    366.0   0.312279218   3.76269   0.12596  -0.92650   1.69954
  13   27865.7    358.9   0.055743562   0.65857   0.00327   0.41459  -0.69762
  14   28160.2    355.1   0.347427958   4.06166   0.29601  -0.75372   1.84552
  15   29357.1    340.6   0.038155011   0.42787  -0.17798   0.05853  -0.62671
  16   29460.9    339.4   0.214066194   2.39209  -0.42265   0.04516  -1.48708
  17   29743.0    336.2   0.001042134   0.01153   0.01604  -0.07828   0.07176
  18   30218.1    330.9   0.056865473   0.61952  -0.35095  -0.24763  -0.65957
  19   30767.8    325.0   0.006693327   0.07162  -0.09931  -0.19284  -0.15674
  20   31221.8    320.3   0.062484395   0.65885   0.37442   0.69388   0.19286
  21   31653.2    315.9   0.002388584   0.02484   0.06599   0.13977  -0.03087
  22   32407.0    308.6   0.071909683   0.73051  -0.08622  -0.54432   0.65329
  23   33166.2    301.5   0.026852720   0.26654  -0.04272   0.30801  -0.41213
  24   33327.4    300.1   0.011464724   0.11325   0.09269   0.29774  -0.12653
  25   33520.1    298.3   0.186908839   1.83570   0.28145  -0.45154   1.24603
  26   34093.4    293.3   0.026738317   0.25819   0.04700  -0.09883   0.49620
  27   34237.9    292.1   0.008056274   0.07746   0.14727   0.20322  -0.12032
  28   34534.1    289.6   0.066050260   0.62965   0.32522   0.51024   0.51337
  29   35067.5    285.2   0.054078895   0.50769   0.18654  -0.29599   0.62071
  30   35271.5    283.5   0.002668903   0.02491   0.03664  -0.05523   0.14324
  31   35430.8    282.2   0.006606790   0.06139  -0.10400  -0.15089  -0.16674
  32   36176.9    276.4   0.016674190   0.15174  -0.07924   0.10421  -0.36687
  33   36507.8    273.9   0.028448081   0.25653  -0.10078   0.01655  -0.49609
  34   36943.2    270.7   0.086558769   0.77135   0.40506   0.55333   0.54873
  35   37028.1    270.1   0.057549052   0.51166  -0.17553  -0.07427  -0.68944
  36   37264.3    268.4   0.173005578   1.52842  -0.68796  -0.66006  -0.78705
  37   37469.5    266.9   0.040693269   0.35754  -0.16106   0.22400  -0.53049
  38   38297.5    261.1   0.001327252   0.01141   0.01436   0.08423   0.06410
  39   38425.2    260.2   0.096318277   0.82522   0.52767   0.52250   0.52323
  40   38502.3    259.7   0.039990438   0.34194  -0.26989  -0.29554  -0.42632
  41   39072.7    255.9   0.243401444   2.05081   0.44673  -0.09126   1.35754
  42   39484.6    253.3   0.018636871   0.15539   0.16869   0.15530   0.32065
  43   39610.8    252.5   0.000945139   0.00786  -0.00433   0.01532  -0.08719
  44   39876.4    250.8   0.170264913   1.40567   0.01218   0.58534  -1.03097
  45   39935.2    250.4   0.000728322   0.00600   0.04059  -0.05590   0.03510

FINAL SINGLE POINT ENERGY     -5410.146099381263

DIPOLE MOMENT
-------------
                                X             Y             Z
Electronic contribution:      5.81797      -9.34372      41.16274
Nuclear contribution   :     -6.57070      10.34555     -45.20251
                        -----------------------------------------
Total Dipole Moment    :     -0.75273       1.00184      -4.03977
                        -----------------------------------------
Magnitude (a.u.)       :      4.22966
Magnitude (Debye)      :     10.75095

Rotational constants in cm-1:     0.001377     0.000368     0.000292
Rotational constants in MHz :    41.277029    11.024291     8.743845

                             ****ORCA TERMINATED NORMALLY****
TOTAL RUN TIME: 0 days 0 hours 6 minutes 56 seconds 475 msec
