                         Program Version 4.2.0 -  RELEASE  -
|  1> # ORCA input file
|  2> # SCF done       -172.834885338755          0.000528964993
|  3> ! CAM-B3LYP def2-SVP def2/J RIJCOSX Grid4 TightSCF
|  4> %maxcore 5000
|  5> %tddft
|  6>     Mode sTDDFT
|  7>     Ethresh 5.0
|  8>     maxcore 5000
|  9> end
| 10>
| 11> %pal
| 12>   nprocs 6
| 13>   end
| 14> * xyz 0 1
| 15>    C       -5.98140        -3.64334         2.44133
| 16>    C       -6.30577        -3.46171         3.75743
| 17>    C       -6.19136        -4.46530         4.74428
| 18>    N       -6.12579        -5.24309         5.58521
| 19>    C       -6.76489        -2.25201         4.32369
| 20>    N       -7.12592        -1.30448         4.86155
| 21>    C       -5.42578        -4.85481         1.85912
| 22>    C       -5.07125        -4.59362         0.51265
| 23>    C       -4.50897        -5.54531        -0.30429
| 24>    C       -4.28725        -6.81703         0.23240
| 25>    C       -4.65052        -7.07192         1.57817
| 26>    C       -5.21755        -6.11020         2.40349
| 27>    S       -4.29457        -8.70924         2.03641
| 28>    C       -3.66853        -9.02471         0.43953
| 29>    C       -3.72348        -7.96002        -0.39646
| 30>   Br       -3.00383       -10.72828         0.02710
| 31>    C       -5.38817        -3.19353         0.17293
| 32>    O       -5.17496        -2.65010        -0.88591
| 33>    C       -6.05504        -2.63467         1.38624
| 34>    C       -6.78610        -1.49871         1.44916
| 35>    C       -6.90486        -0.45667         0.44477
| 36>    C       -5.90180        -0.01443        -0.33323
| 37>    C       -8.17822         0.15956         0.39492
| 38>    C       -9.27575         0.66914         0.37550
| 39>    C      -10.53262         1.27166         0.35283
| 40>    C      -10.98417         1.99241        -0.69408
| 41>    C      -12.26330         2.61251        -0.74584
| 42>    S      -13.37947         2.57436         0.58558
| 43>    C      -14.56134         3.48936        -0.29106
| 44>    C      -14.10635         3.79376        -1.55732
| 45>    C      -12.80637         3.31422        -1.81015
| 46>    S      -11.88523         3.51599        -3.29413
| 47>    C      -12.78305         4.57074        -4.38937
| 48>    O      -12.25079         4.83979        -5.43003
| 49>    C      -14.16938         5.11479        -4.10164
| 50>    O      -14.69880         5.81270        -4.92183
| 51>    S      -15.10455         4.75277        -2.64900
| 52>    C      -15.87467         3.79465         0.25351
| 53>    C      -16.99228         3.45295        -0.48299
| 54>    C      -18.27391         3.75675        -0.03788
| 55>    C      -18.48087         4.44281         1.14317
| 56>    C      -17.35313         4.75415         1.96134
| 57>    C      -16.04106         4.44204         1.50844
| 58>    C      -14.96940         4.86406         2.32262
| 59>    C      -15.22252         5.48703         3.51523
| 60>    C      -16.55817         5.66733         3.90252
| 61>    N      -17.57211         5.32754         3.15700
| 62>    C      -19.81991         4.80536         1.53457
| 63>    C      -20.23178         5.90023         2.20752
| 64>    C      -19.54340         7.11210         2.62069
| 65>    C      -18.51567         7.73494         1.96784
| 66>    C      -17.93342         8.94545         2.39670
| 67>    N      -17.41069         9.91547         2.71818
| 68>    C      -17.92702         7.26386         0.77651
| 69>    N      -17.42075         6.95017        -0.20472
| 70>    C      -20.31141         7.68195         3.72023
| 71>    C      -21.55438         7.00446         3.81378
| 72>    C      -21.59675         5.92168         2.81276
| 73>    O      -22.51160         5.17473         2.56017
| 74>    C      -22.51634         7.35138         4.73207
| 75>    C      -22.23509         8.40642         5.60585
| 76>    C      -20.98351         9.06350         5.51741
| 77>    C      -20.01396         8.71927         4.58426
| 78>    S      -20.84092        10.32747         6.70052
| 79>    C      -22.44400         9.96709         7.28550
| 80>    C      -23.05514         8.95047         6.63214
| 81>   Br      -23.15644        10.96490         8.70392
| 82>    H       -4.24730        -5.31354        -1.32486
| 83>    H       -5.48160        -6.35386         3.41898
| 84>    H       -3.38110        -7.97879        -1.41497
| 85>    H       -7.41767        -1.34297         2.31660
| 86>    H       -4.90908        -0.41794        -0.26740
| 87>    H       -6.06483         0.79029        -1.02977
| 88>    H      -11.15461         1.12945         1.22906
| 89>    H      -10.36487         2.11825        -1.57211
| 90>    H      -16.87097         2.93321        -1.42106
| 91>    H      -19.12158         3.49380        -0.65253
| 92>    H      -13.95198         4.69992         2.00240
| 93>    H      -14.42161         5.82746         4.15174
| 94>    H      -16.80453         6.11808         4.85562
| 95>    H      -20.59919         4.09030         1.28876
| 96>    H      -23.45727         6.82560         4.77527
| 97>    H      -19.07319         9.24374         4.55624
| 98>    H      -24.04364         8.59743         6.86269
| 99> *
|100>
|101>                          ****END OF INPUT****

CARTESIAN COORDINATES (ANGSTROEM)
---------------------------------
  C     -5.981400   -3.643340    2.441330
  C     -6.305770   -3.461710    3.757430
  C     -6.191360   -4.465300    4.744280
  N     -6.125790   -5.243090    5.585210
  C     -6.764890   -2.252010    4.323690
  N     -7.125920   -1.304480    4.861550
  C     -5.425780   -4.854810    1.859120
  C     -5.071250   -4.593620    0.512650
  C     -4.508970   -5.545310   -0.304290
  C     -4.287250   -6.817030    0.232400
  C     -4.650520   -7.071920    1.578170
  C     -5.217550   -6.110200    2.403490
  S     -4.294570   -8.709240    2.036410
  C     -3.668530   -9.024710    0.439530
  C     -3.723480   -7.960020   -0.396460
  Br    -3.003830  -10.728280    0.027100
  C     -5.388170   -3.193530    0.172930
  O     -5.174960   -2.650100   -0.885910
  C     -6.055040   -2.634670    1.386240
  C     -6.786100   -1.498710    1.449160
  C     -6.904860   -0.456670    0.444770
  C     -5.901800   -0.014430   -0.333230
  C     -8.178220    0.159560    0.394920
  C     -9.275750    0.669140    0.375500
  C    -10.532620    1.271660    0.352830
  C    -10.984170    1.992410   -0.694080
  C    -12.263300    2.612510   -0.745840
  S    -13.379470    2.574360    0.585580
  C    -14.561340    3.489360   -0.291060
  C    -14.106350    3.793760   -1.557320
  C    -12.806370    3.314220   -1.810150
  S    -11.885230    3.515990   -3.294130
  C    -12.783050    4.570740   -4.389370
  O    -12.250790    4.839790   -5.430030
  C    -14.169380    5.114790   -4.101640
  O    -14.698800    5.812700   -4.921830
  S    -15.104550    4.752770   -2.649000
  C    -15.874670    3.794650    0.253510
  C    -16.992280    3.452950   -0.482990
  C    -18.273910    3.756750   -0.037880
  C    -18.480870    4.442810    1.143170
  C    -17.353130    4.754150    1.961340
  C    -16.041060    4.442040    1.508440
  C    -14.969400    4.864060    2.322620
  C    -15.222520    5.487030    3.515230
  C    -16.558170    5.667330    3.902520
  N    -17.572110    5.327540    3.157000
  C    -19.819910    4.805360    1.534570
  C    -20.231780    5.900230    2.207520
  C    -19.543400    7.112100    2.620690
  C    -18.515670    7.734940    1.967840
  C    -17.933420    8.945450    2.396700
  N    -17.410690    9.915470    2.718180
  C    -17.927020    7.263860    0.776510
  N    -17.420750    6.950170   -0.204720
  C    -20.311410    7.681950    3.720230
  C    -21.554380    7.004460    3.813780
  C    -21.596750    5.921680    2.812760
  O    -22.511600    5.174730    2.560170
  C    -22.516340    7.351380    4.732070
  C    -22.235090    8.406420    5.605850
  C    -20.983510    9.063500    5.517410
  C    -20.013960    8.719270    4.584260
  S    -20.840920   10.327470    6.700520
  C    -22.444000    9.967090    7.285500
  C    -23.055140    8.950470    6.632140
  Br   -23.156440   10.964900    8.703920
  H     -4.247300   -5.313540   -1.324860
  H     -5.481600   -6.353860    3.418980
  H     -3.381100   -7.978790   -1.414970
  H     -7.417670   -1.342970    2.316600
  H     -4.909080   -0.417940   -0.267400
  H     -6.064830    0.790290   -1.029770
  H    -11.154610    1.129450    1.229060
  H    -10.364870    2.118250   -1.572110
  H    -16.870970    2.933210   -1.421060
  H    -19.121580    3.493800   -0.652530
  H    -13.951980    4.699920    2.002400
  H    -14.421610    5.827460    4.151740
  H    -16.804530    6.118080    4.855620
  H    -20.599190    4.090300    1.288760
  H    -23.457270    6.825600    4.775270
  H    -19.073190    9.243740    4.556240
  H    -24.043640    8.597430    6.862690

 Total Charge           Charge          ....    0
 Multiplicity           Mult            ....    1
 Number of Electrons    NEL             ....  540
 Basis Dimension        Dim             .... 1079

ORBITAL ENERGIES
----------------

  NO   OCC          E(Eh)            E(eV)
   0   2.0000    -482.891760    -13140.1528
   1   2.0000    -482.886402    -13140.0070
   2   2.0000     -88.984395     -2421.3885
   3   2.0000     -88.982958     -2421.3494
   4   2.0000     -88.976878     -2421.1839
   5   2.0000     -88.972488     -2421.0645
   6   2.0000     -88.968448     -2420.9546
   7   2.0000     -62.569452     -1702.6013
   8   2.0000     -62.564146     -1702.4570
   9   2.0000     -56.403411     -1534.8149
  10   2.0000     -56.400678     -1534.7405
  11   2.0000     -56.400652     -1534.7398
  12   2.0000     -56.398098     -1534.6703
  13   2.0000     -56.395378     -1534.5962
  14   2.0000     -56.395344     -1534.5953
  15   2.0000     -19.241370      -523.5843
  16   2.0000     -19.238272      -523.5000
  17   2.0000     -19.227320      -523.2020
  18   2.0000     -19.216078      -522.8961
  19   2.0000     -14.423931      -392.4951
  20   2.0000     -14.423235      -392.4762
  21   2.0000     -14.416934      -392.3047
  22   2.0000     -14.415272      -392.2595
  23   2.0000     -14.413465      -392.2103
  24   2.0000     -10.406465      -283.1743
  25   2.0000     -10.403283      -283.0877
  26   2.0000     -10.379255      -282.4339
  27   2.0000     -10.366514      -282.0872
  28   2.0000     -10.366322      -282.0820
  29   2.0000     -10.359833      -281.9054
  30   2.0000     -10.352884      -281.7163
  31   2.0000     -10.350566      -281.6532
  32   2.0000     -10.340659      -281.3836
  33   2.0000     -10.339583      -281.3543
  34   2.0000     -10.335636      -281.2469
  35   2.0000     -10.334704      -281.2216
  36   2.0000     -10.334034      -281.2034
  37   2.0000     -10.331696      -281.1398
  38   2.0000     -10.330091      -281.0961
  39   2.0000     -10.327410      -281.0231
  40   2.0000     -10.326769      -281.0057
  41   2.0000     -10.326192      -280.9900
  42   2.0000     -10.326066      -280.9866
  43   2.0000     -10.325485      -280.9707
  44   2.0000     -10.321800      -280.8705
  45   2.0000     -10.318004      -280.7672
  46   2.0000     -10.317206      -280.7454
  47   2.0000     -10.316671      -280.7309
  48   2.0000     -10.316099      -280.7153
  49   2.0000     -10.315285      -280.6932
  50   2.0000     -10.314288      -280.6660
  51   2.0000     -10.314234      -280.6646
  52   2.0000     -10.311369      -280.5866
  53   2.0000     -10.311279      -280.5842
  54   2.0000     -10.309841      -280.5450
  55   2.0000     -10.309478      -280.5351
  56   2.0000     -10.309458      -280.5346
  57   2.0000     -10.308644      -280.5125
  58   2.0000     -10.307972      -280.4942
  59   2.0000     -10.306446      -280.4527
  60   2.0000     -10.305017      -280.4138
  61   2.0000     -10.303566      -280.3743
  62   2.0000     -10.303493      -280.3723
  63   2.0000     -10.302438      -280.3436
  64   2.0000     -10.301531      -280.3189
  65   2.0000     -10.301114      -280.3076
  66   2.0000     -10.299549      -280.2650
  67   2.0000     -10.297734      -280.2156
  68   2.0000     -10.297055      -280.1971
  69   2.0000     -10.296716      -280.1879
  70   2.0000     -10.295846      -280.1642
  71   2.0000     -10.293900      -280.1113
  72   2.0000     -10.292514      -280.0736
  73   2.0000     -10.285336      -279.8782
  74   2.0000     -10.282997      -279.8146
  75   2.0000      -8.798878      -239.4297
  76   2.0000      -8.793601      -239.2861
  77   2.0000      -8.079370      -219.8508
  78   2.0000      -8.078894      -219.8379
  79   2.0000      -8.072782      -219.6716
  80   2.0000      -8.069064      -219.5704
  81   2.0000      -8.064660      -219.4506
  82   2.0000      -6.635197      -180.5529
  83   2.0000      -6.629924      -180.4094
  84   2.0000      -6.620618      -180.1562
  85   2.0000      -6.620381      -180.1497
  86   2.0000      -6.615313      -180.0118
  87   2.0000      -6.615132      -180.0069
  88   2.0000      -6.048616      -164.5912
  89   2.0000      -6.048601      -164.5908
  90   2.0000      -6.044656      -164.4834
  91   2.0000      -6.044291      -164.4735
  92   2.0000      -6.042483      -164.4243
  93   2.0000      -6.041420      -164.3954
  94   2.0000      -6.040130      -164.3603
  95   2.0000      -6.038918      -164.3273
  96   2.0000      -6.038193      -164.3076
  97   2.0000      -6.034627      -164.2106
  98   2.0000      -6.034355      -164.2031
  99   2.0000      -6.034038      -164.1945
 100   2.0000      -6.029919      -164.0824
 101   2.0000      -6.029910      -164.0822
 102   2.0000      -6.025384      -163.9590
 103   2.0000      -2.751082       -74.8607
 104   2.0000      -2.746974       -74.7490
 105   2.0000      -2.746797       -74.7441
 106   2.0000      -2.745764       -74.7160
 107   2.0000      -2.741714       -74.6058
 108   2.0000      -2.741554       -74.6015
 109   2.0000      -2.735196       -74.4285
 110   2.0000      -2.735194       -74.4284
 111   2.0000      -2.729945       -74.2856
 112   2.0000      -2.729932       -74.2852
 113   2.0000      -1.178457       -32.0674
 114   2.0000      -1.145671       -31.1753
 115   2.0000      -1.143511       -31.1165
 116   2.0000      -1.131578       -30.7918
 117   2.0000      -1.058956       -28.8157
 118   2.0000      -1.031399       -28.0658
 119   2.0000      -1.027592       -27.9622
 120   2.0000      -1.022931       -27.8354
 121   2.0000      -1.021380       -27.7932
 122   2.0000      -1.012476       -27.5509
 123   2.0000      -1.002106       -27.2687
 124   2.0000      -0.998420       -27.1684
 125   2.0000      -0.993379       -27.0312
 126   2.0000      -0.989320       -26.9208
 127   2.0000      -0.971435       -26.4341
 128   2.0000      -0.955697       -26.0058
 129   2.0000      -0.945555       -25.7299
 130   2.0000      -0.941260       -25.6130
 131   2.0000      -0.937338       -25.5063
 132   2.0000      -0.933016       -25.3886
 133   2.0000      -0.916845       -24.9486
 134   2.0000      -0.916523       -24.9399
 135   2.0000      -0.908410       -24.7191
 136   2.0000      -0.902664       -24.5627
 137   2.0000      -0.894223       -24.3331
 138   2.0000      -0.893200       -24.3052
 139   2.0000      -0.890462       -24.2307
 140   2.0000      -0.886677       -24.1277
 141   2.0000      -0.871987       -23.7280
 142   2.0000      -0.860413       -23.4130
 143   2.0000      -0.853353       -23.2209
 144   2.0000      -0.844449       -22.9786
 145   2.0000      -0.837699       -22.7949
 146   2.0000      -0.836383       -22.7591
 147   2.0000      -0.831577       -22.6284
 148   2.0000      -0.828412       -22.5422
 149   2.0000      -0.801500       -21.8099
 150   2.0000      -0.781119       -21.2553
 151   2.0000      -0.775469       -21.1016
 152   2.0000      -0.767962       -20.8973
 153   2.0000      -0.760865       -20.7042
 154   2.0000      -0.751369       -20.4458
 155   2.0000      -0.746804       -20.3216
 156   2.0000      -0.744345       -20.2547
 157   2.0000      -0.737311       -20.0633
 158   2.0000      -0.726833       -19.7781
 159   2.0000      -0.711461       -19.3598
 160   2.0000      -0.703068       -19.1315
 161   2.0000      -0.699393       -19.0314
 162   2.0000      -0.698914       -19.0184
 163   2.0000      -0.686899       -18.6915
 164   2.0000      -0.674176       -18.3453
 165   2.0000      -0.672008       -18.2863
 166   2.0000      -0.662903       -18.0385
 167   2.0000      -0.660483       -17.9726
 168   2.0000      -0.654346       -17.8057
 169   2.0000      -0.649655       -17.6780
 170   2.0000      -0.636746       -17.3267
 171   2.0000      -0.632224       -17.2037
 172   2.0000      -0.626822       -17.0567
 173   2.0000      -0.624413       -16.9911
 174   2.0000      -0.619127       -16.8473
 175   2.0000      -0.616008       -16.7624
 176   2.0000      -0.613308       -16.6889
 177   2.0000      -0.608706       -16.5637
 178   2.0000      -0.601961       -16.3802
 179   2.0000      -0.597648       -16.2628
 180   2.0000      -0.596888       -16.2422
 181   2.0000      -0.584499       -15.9050
 182   2.0000      -0.576097       -15.6764
 183   2.0000      -0.568633       -15.4733
 184   2.0000      -0.562055       -15.2943
 185   2.0000      -0.559385       -15.2216
 186   2.0000      -0.557075       -15.1588
 187   2.0000      -0.552555       -15.0358
 188   2.0000      -0.551073       -14.9955
 189   2.0000      -0.550437       -14.9782
 190   2.0000      -0.550071       -14.9682
 191   2.0000      -0.546039       -14.8585
 192   2.0000      -0.545795       -14.8518
 193   2.0000      -0.543027       -14.7765
 194   2.0000      -0.537398       -14.6233
 195   2.0000      -0.536195       -14.5906
 196   2.0000      -0.534171       -14.5355
 197   2.0000      -0.531111       -14.4523
 198   2.0000      -0.527775       -14.3615
 199   2.0000      -0.527014       -14.3408
 200   2.0000      -0.519746       -14.1430
 201   2.0000      -0.516063       -14.0428
 202   2.0000      -0.515181       -14.0188
 203   2.0000      -0.513953       -13.9854
 204   2.0000      -0.513230       -13.9657
 205   2.0000      -0.508327       -13.8323
 206   2.0000      -0.506516       -13.7830
 207   2.0000      -0.503431       -13.6990
 208   2.0000      -0.503155       -13.6915
 209   2.0000      -0.499234       -13.5848
 210   2.0000      -0.498490       -13.5646
 211   2.0000      -0.496169       -13.5014
 212   2.0000      -0.488745       -13.2994
 213   2.0000      -0.487296       -13.2600
 214   2.0000      -0.485529       -13.2119
 215   2.0000      -0.480542       -13.0762
 216   2.0000      -0.475215       -12.9313
 217   2.0000      -0.473901       -12.8955
 218   2.0000      -0.471311       -12.8250
 219   2.0000      -0.465381       -12.6637
 220   2.0000      -0.461920       -12.5695
 221   2.0000      -0.460945       -12.5430
 222   2.0000      -0.458722       -12.4825
 223   2.0000      -0.456234       -12.4148
 224   2.0000      -0.455863       -12.4047
 225   2.0000      -0.453695       -12.3457
 226   2.0000      -0.451178       -12.2772
 227   2.0000      -0.450005       -12.2453
 228   2.0000      -0.447278       -12.1710
 229   2.0000      -0.446702       -12.1554
 230   2.0000      -0.446113       -12.1393
 231   2.0000      -0.441523       -12.0144
 232   2.0000      -0.440296       -11.9811
 233   2.0000      -0.435745       -11.8572
 234   2.0000      -0.435368       -11.8470
 235   2.0000      -0.431831       -11.7507
 236   2.0000      -0.430497       -11.7144
 237   2.0000      -0.430192       -11.7061
 238   2.0000      -0.426175       -11.5968
 239   2.0000      -0.422582       -11.4990
 240   2.0000      -0.419259       -11.4086
 241   2.0000      -0.416710       -11.3393
 242   2.0000      -0.413677       -11.2567
 243   2.0000      -0.410555       -11.1718
 244   2.0000      -0.398349       -10.8396
 245   2.0000      -0.396272       -10.7831
 246   2.0000      -0.394360       -10.7311
 247   2.0000      -0.389133       -10.5888
 248   2.0000      -0.388756       -10.5786
 249   2.0000      -0.387014       -10.5312
 250   2.0000      -0.380887       -10.3645
 251   2.0000      -0.375851       -10.2274
 252   2.0000      -0.375170       -10.2089
 253   2.0000      -0.373562       -10.1651
 254   2.0000      -0.357651        -9.7322
 255   2.0000      -0.350300        -9.5321
 256   2.0000      -0.349368        -9.5068
 257   2.0000      -0.342344        -9.3157
 258   2.0000      -0.341577        -9.2948
 259   2.0000      -0.337327        -9.1791
 260   2.0000      -0.332968        -9.0605
 261   2.0000      -0.328074        -8.9273
 262   2.0000      -0.323575        -8.8049
 263   2.0000      -0.317246        -8.6327
 264   2.0000      -0.315177        -8.5764
 265   2.0000      -0.306988        -8.3536
 266   2.0000      -0.301174        -8.1953
 267   2.0000      -0.297911        -8.1066
 268   2.0000      -0.292298        -7.9538
 269   2.0000      -0.266673        -7.2565
 270   0.0000      -0.095132        -2.5887
 271   0.0000      -0.089237        -2.4283
 272   0.0000      -0.068823        -1.8728
 273   0.0000      -0.063566        -1.7297
 274   0.0000      -0.057324        -1.5599

MULLIKEN ATOMIC CHARGES
-----------------------
   0 C :    0.293115
   1 C :   -0.336294
   2 C :   -0.185496
   3 N :    0.157228
   4 C :   -0.203099
   5 N :    0.166915
   6 C :    0.019311
   7 C :   -0.018774
   8 C :   -0.066603
   9 C :    0.116582
  10 C :   -0.089572
  11 C :   -0.018829
  12 S :    0.190969
  13 C :   -0.124300
  14 C :    0.043618
  15 Br:    0.029912
  16 C :    0.148457
  17 O :   -0.138312
  18 C :   -0.075920
  19 C :   -0.012741
  20 C :   -0.077004
  21 C :    0.083057
  22 C :    0.000232
  23 C :    0.012498
  24 C :   -0.084909
  25 C :    0.018104
  26 C :   -0.123612
  27 S :    0.165819
  28 C :   -0.193024
  29 C :   -0.005252
  30 C :   -0.023785
  31 S :    0.080325
  32 C :    0.079181
  33 O :   -0.128268
  34 C :    0.071180
  35 O :   -0.129588
  36 S :    0.119951
  37 C :    0.051513
  38 C :    0.010554
  39 C :   -0.019027
  40 C :    0.110928
  41 C :   -0.093999
  42 C :    0.110953
  43 C :   -0.003434
  44 C :    0.020649
  45 C :    0.045203
  46 N :   -0.054991
  47 C :    0.002187
  48 C :   -0.087867
  49 C :    0.327631
  50 C :   -0.355310
  51 C :   -0.192200
  52 N :    0.156151
  53 C :   -0.186837
  54 N :    0.177875
  55 C :    0.000180
  56 C :    0.002843
  57 C :    0.127324
  58 O :   -0.140464
  59 C :   -0.070560
  60 C :    0.112922
  61 C :   -0.089698
  62 C :   -0.024818
  63 S :    0.185016
  64 C :   -0.125563
  65 C :    0.042877
  66 Br:    0.024699
  67 H :   -0.007777
  68 H :   -0.003657
  69 H :   -0.001028
  70 H :    0.044458
  71 H :    0.042248
  72 H :    0.039320
  73 H :    0.033479
  74 H :    0.022442
  75 H :   -0.003441
  76 H :   -0.009532
  77 H :    0.001197
  78 H :    0.002195
  79 H :    0.007793
  80 H :    0.023005
  81 H :   -0.008427
  82 H :   -0.005564
  83 H :   -0.002520
Sum of atomic charges:   -0.0000000

LOEWDIN ATOMIC CHARGES
----------------------
   0 C :    0.075550
   1 C :   -0.132135
   2 C :   -0.017795
   3 N :   -0.046746
   4 C :   -0.025004
   5 N :   -0.042599
   6 C :   -0.022427
   7 C :   -0.051505
   8 C :    0.024423
   9 C :   -0.030333
  10 C :   -0.142213
  11 C :   -0.007881
  12 S :    0.436067
  13 C :   -0.269234
  14 C :   -0.069952
  15 Br:    0.142001
  16 C :    0.084530
  17 O :   -0.127497
  18 C :   -0.081161
  19 C :    0.087481
  20 C :   -0.064986
  21 C :    0.064924
  22 C :   -0.024193
  23 C :   -0.032373
  24 C :   -0.037839
  25 C :   -0.021049
  26 C :   -0.190667
  27 S :    0.473508
  28 C :   -0.182391
  29 C :   -0.211548
  30 C :   -0.213363
  31 S :    0.385268
  32 C :   -0.111156
  33 O :   -0.101273
  34 C :   -0.115846
  35 O :   -0.101232
  36 S :    0.409684
  37 C :   -0.031468
  38 C :   -0.006427
  39 C :    0.016297
  40 C :   -0.028275
  41 C :    0.015705
  42 C :   -0.021035
  43 C :    0.016425
  44 C :   -0.039049
  45 C :    0.032997
  46 N :   -0.061613
  47 C :    0.071044
  48 C :   -0.067398
  49 C :    0.083359
  50 C :   -0.136805
  51 C :   -0.019107
  52 N :   -0.055640
  53 C :   -0.017293
  54 N :   -0.048203
  55 C :   -0.013244
  56 C :   -0.051883
  57 C :    0.086126
  58 O :   -0.138653
  59 C :    0.023443
  60 C :   -0.033252
  61 C :   -0.142425
  62 C :   -0.013380
  63 S :    0.431539
  64 C :   -0.271901
  65 C :   -0.069630
  66 Br:    0.137596
  67 H :    0.042060
  68 H :    0.041697
  69 H :    0.039943
  70 H :    0.050220
  71 H :    0.032406
  72 H :    0.037518
  73 H :    0.038176
  74 H :    0.037423
  75 H :    0.032140
  76 H :    0.037506
  77 H :    0.024188
  78 H :    0.037250
  79 H :    0.023966
  80 H :    0.047507
  81 H :    0.041698
  82 H :    0.040238
  83 H :    0.039175

  Mayer bond orders larger than 0.100000
B(  0-C ,  1-C ) :   1.6602 B(  0-C ,  6-C ) :   1.0166 B(  0-C , 18-C ) :   1.0301
B(  1-C ,  2-C ) :   1.1375 B(  1-C ,  4-C ) :   1.1388 B(  2-C ,  3-N ) :   2.9775
B(  4-C ,  5-N ) :   2.9944 B(  6-C ,  7-C ) :   1.2692 B(  6-C , 11-C ) :   1.4023
B(  7-C ,  8-C ) :   1.4206 B(  7-C , 16-C ) :   0.9492 B(  8-C ,  9-C ) :   1.2515
B(  8-C , 67-H ) :   1.0157 B(  9-C , 10-C ) :   1.2991 B(  9-C , 14-C ) :   1.1654
B( 10-C , 11-C ) :   1.3391 B( 10-C , 12-S ) :   1.0870 B( 11-C , 68-H ) :   0.9796
B( 12-S , 13-C ) :   1.0877 B( 13-C , 14-C ) :   1.6153 B( 13-C , 15-Br) :   1.0230
B( 14-C , 69-H ) :   0.9995 B( 16-C , 17-O ) :   2.2285 B( 16-C , 18-C ) :   0.9202
B( 18-C , 19-C ) :   1.7212 B( 19-C , 20-C ) :   1.0562 B( 19-C , 70-H ) :   0.9369
B( 20-C , 21-C ) :   1.8866 B( 20-C , 22-C ) :   0.9138 B( 21-C , 71-H ) :   0.9356
B( 21-C , 72-H ) :   0.9443 B( 22-C , 23-C ) :   2.3493 B( 23-C , 24-C ) :   1.0037
B( 24-C , 25-C ) :   1.7199 B( 24-C , 73-H ) :   0.9497 B( 25-C , 26-C ) :   1.1473
B( 25-C , 74-H ) :   0.9655 B( 26-C , 27-S ) :   1.1149 B( 26-C , 28-C ) :   0.1180
B( 26-C , 30-C ) :   1.5617 B( 27-S , 28-C ) :   1.1474 B( 28-C , 29-C ) :   1.6167
B( 28-C , 37-C ) :   0.9628 B( 29-C , 30-C ) :   1.2689 B( 29-C , 36-S ) :   0.9825
B( 30-C , 31-S ) :   0.9680 B( 31-S , 32-C ) :   1.0461 B( 31-S , 33-O ) :   0.1370
B( 32-C , 33-O ) :   2.1630 B( 32-C , 34-C ) :   0.7677 B( 34-C , 35-O ) :   2.1566
B( 34-C , 36-S ) :   1.0564 B( 35-O , 36-S ) :   0.1387 B( 37-C , 38-C ) :   1.4663
B( 37-C , 42-C ) :   1.2382 B( 38-C , 39-C ) :   1.2595 B( 38-C , 75-H ) :   0.9898
B( 39-C , 40-C ) :   1.4297 B( 39-C , 76-H ) :   0.9997 B( 40-C , 41-C ) :   1.2054
B( 40-C , 47-C ) :   1.0190 B( 41-C , 42-C ) :   1.2294 B( 41-C , 46-N ) :   1.4611
B( 42-C , 43-C ) :   1.2652 B( 43-C , 44-C ) :   1.5263 B( 43-C , 77-H ) :   0.9631
B( 44-C , 45-C ) :   1.2514 B( 44-C , 78-H ) :   0.9737 B( 45-C , 46-N ) :   1.6139
B( 45-C , 79-H ) :   0.9771 B( 47-C , 48-C ) :   1.7566 B( 47-C , 80-H ) :   0.9419
B( 48-C , 49-C ) :   0.9979 B( 48-C , 57-C ) :   0.9380 B( 49-C , 50-C ) :   1.6613
B( 49-C , 55-C ) :   1.0273 B( 50-C , 51-C ) :   1.1388 B( 50-C , 53-C ) :   1.1646
B( 51-C , 52-N ) :   2.9902 B( 53-C , 54-N ) :   3.0050 B( 55-C , 56-C ) :   1.2713
B( 55-C , 62-C ) :   1.4085 B( 56-C , 57-C ) :   0.9202 B( 56-C , 59-C ) :   1.4231
B( 57-C , 58-O ) :   2.2715 B( 59-C , 60-C ) :   1.2546 B( 59-C , 81-H ) :   1.0153
B( 60-C , 61-C ) :   1.3022 B( 60-C , 65-C ) :   1.1649 B( 61-C , 62-C ) :   1.3308
B( 61-C , 63-S ) :   1.0849 B( 62-C , 82-H ) :   0.9839 B( 63-S , 64-C ) :   1.0851
B( 64-C , 65-C ) :   1.6206 B( 64-C , 66-Br) :   1.0190 B( 65-C , 83-H ) :   0.9991

-----------------------------------------------------------------------------
         ABSORPTION SPECTRUM VIA TRANSITION ELECTRIC DIPOLE MOMENTS
-----------------------------------------------------------------------------
State   Energy  Wavelength   fosc         T2         TX        TY        TZ
        (cm-1)    (nm)                  (au**2)     (au)      (au)      (au)
-----------------------------------------------------------------------------
   0   23332.3    428.6   0.480511936   6.77989  -2.16103   1.04397   1.00993
   1   23558.8    424.5   0.415051085   5.79995   1.64788  -1.72704  -0.31902
   2   26999.5    370.4   0.111813965   1.36338   0.03252  -0.08778   1.16388
   3   27613.4    362.1   0.304385199   3.62893   1.53518  -1.09316  -0.27777
   4   27763.5    360.2   0.185908488   2.20445  -1.28513   0.53170  -0.51979
   5   28515.3    350.7   0.333190737   3.84671   0.68026  -1.65680  -0.79937
   6   28672.4    348.8   0.073212180   0.84061  -0.84092   0.36360  -0.03539
   7   29097.7    343.7   0.126671874   1.43317   0.19275  -0.88625   0.78140
   8   30007.1    333.3   0.027217690   0.29861  -0.30780   0.44810   0.05543
   9   30070.3    332.6   0.076087767   0.83301  -0.42453   0.45695   0.66633
  10   30252.6    330.6   0.043007886   0.46802   0.61576  -0.15711   0.25332
  11   30345.9    329.5   0.026132047   0.28350  -0.18060   0.25722   0.42979
  12   30782.3    324.9   0.474142788   5.07088  -1.85573   1.15947   0.53175
  13   31507.8    317.4   0.249079595   2.60253  -0.47030   0.88025  -1.26748
  14   32054.0    312.0   0.126282943   1.29699   0.66961  -0.73707   0.55259
  15   32464.8    308.0   0.065639161   0.66562  -0.59572   0.35719   0.42797
  16   32866.7    304.3   0.052697492   0.52785   0.04833   0.37739  -0.61894
  17   33165.8    301.5   0.050641381   0.50268   0.29119   0.35086   0.54294
  18   33726.0    296.5   0.318449684   3.10851   0.26396  -1.61056  -0.66704
  19   33769.0    296.1   0.568740651   5.54462   1.25963  -0.53415  -1.91641
  20   33814.9    295.7   0.134160364   1.30615   0.50870  -0.09061  -1.01939
  21   34372.1    290.9   0.398406209   3.81589   0.65946   0.37902  -1.79926
  22   34603.1    289.0   0.088885684   0.84565  -0.21018  -0.49584   0.74540
  23   35032.8    285.4   0.153821005   1.44549  -1.01612   0.62035   0.16783
  24   35604.4    280.9   0.023494956   0.21724   0.43638  -0.05981  -0.15245
  25   35871.1    278.8   0.004918172   0.04514  -0.10998   0.14566   0.10874
  26   36381.1    274.9   0.039195755   0.35468  -0.40525   0.43617   0.01449
  27   36597.0    273.2   0.061242303   0.55091  -0.32632   0.62970  -0.21886
  28   36660.4    272.8   0.062901107   0.56485  -0.44332   0.36625   0.48393
  29   37091.1    269.6   0.204915797   1.81879  -0.56890   1.19624   0.25329
  30   37194.0    268.9   0.000511891   0.00453   0.06460   0.00940   0.01643
  31   37931.6    263.6   0.000110839   0.00096  -0.00641   0.00960   0.02879
  32   37989.4    263.2   0.013621270   0.11804   0.28366   0.19243   0.02340
  33   38318.2    261.0   0.018889338   0.16229  -0.03881  -0.39227   0.08309
  34   38463.7    260.0   0.038520093   0.32970  -0.18262   0.44827   0.30887
  35   38988.2    256.5   0.243184360   2.05342  -0.26987   1.37278  -0.30997
  36   39227.1    254.9   0.032458781   0.27241   0.12309   0.07060  -0.50227
  37   39301.6    254.4   0.022206024   0.18601  -0.15158   0.18456   0.35913
  38   39683.4    252.0   0.133919319   1.11099  -0.15336  -0.98009   0.35624
  39   39801.4    251.2   0.104928681   0.86790  -0.76205  -0.42266  -0.32945
  40   40072.0    249.6   0.057995561   0.47646  -0.46230  -0.42337   0.28896
  41   40284.2    248.2   0.019831179   0.16207  -0.01605   0.30723  -0.25965

FINAL SINGLE POINT ENERGY     -9663.231519111332

DIPOLE MOMENT
-------------
                                X             Y             Z
Electronic contribution:     -0.23075     -37.78169      51.35946
Nuclear contribution   :      0.68240      35.46877     -50.42066
                        -----------------------------------------
Total Dipole Moment    :      0.45166      -2.31292       0.93880
                        -----------------------------------------
Magnitude (a.u.)       :      2.53672
Magnitude (Debye)      :      6.44782

Rotational constants in cm-1:     0.001367     0.000171     0.000159
Rotational constants in MHz :    40.974261     5.114937     4.752276

                             ****ORCA TERMINATED NORMALLY****
TOTAL RUN TIME: 0 days 0 hours 7 minutes 47 seconds 834 msec
