                         Program Version 4.2.0 -  RELEASE  -
|  1> # ORCA input file
|  2> # SCF done       -194.351720944580          0.000973670550
|  3> ! CAM-B3LYP def2-SVP def2/J RIJCOSX Grid4 TightSCF
|  4> %maxcore 5000
|  5> %tddft
|  6>     Mode sTDDFT
|  7>     Ethresh 5.0
|  8>     maxcore 5000
|  9> end
| 10>
| 11> %pal
| 12>   nprocs 6
| 13>   end
| 14> * xyz 0 1
| 15>    C       -5.30828         5.48367        -1.53919
| 16>    C       -5.14997         5.65807        -2.89138
| 17>    C       -4.86537         6.89784        -3.49791
| 18>    N       -4.63575         7.88139        -4.04424
| 19>    C       -5.31719         4.64384        -3.85627
| 20>    N       -5.47640         3.88057        -4.69937
| 21>    C       -5.30034         6.54876        -0.54169
| 22>    C       -5.69012         6.00272         0.70600
| 23>    C       -5.80657         6.76403         1.84346
| 24>    C       -5.50577         8.12729         1.75023
| 25>    C       -5.11552         8.66246         0.50047
| 26>    C       -5.01588         7.89560        -0.65467
| 27>    S       -4.74961        10.35625         0.61573
| 28>    C       -5.09751        10.31848         2.32398
| 29>    C       -5.49388         9.10684         2.78029
| 30>   Br       -4.87938        11.87878         3.34279
| 31>    C       -5.95206         4.56072         0.54652
| 32>    O       -6.29006         3.78293         1.41709
| 33>    C       -5.66813         4.25255        -0.87134
| 34>    C       -5.64717         3.00251        -1.43197
| 35>    C       -6.16148         1.76995        -0.93285
| 36>    C       -7.30085         1.58259        -0.17999
| 37>    O       -7.67590         0.37967         0.32081
| 38>    C       -6.86893        -0.67578        -0.00161
| 39>    C       -5.74835        -0.51711        -0.86678
| 40>    C       -5.09618        -1.68269        -1.09723
| 41>    S       -5.84226        -2.99140        -0.25614
| 42>    C       -7.04434        -1.95661         0.41036
| 43>    O       -5.39382         0.70055        -1.36750
| 44>    C       -8.17934         2.66768         0.17475
| 45>    C       -8.46496         3.67309        -0.67923
| 46>    C       -8.89699         4.97219        -0.29868
| 47>    S       -8.58398         6.27034        -1.42952
| 48>    C       -9.01302         7.47431        -0.25595
| 49>    C       -9.34732         6.88768         0.95121
| 50>    C       -9.31733         5.47972         0.91943
| 51>    S       -9.95431         4.46165         2.19623
| 52>    C      -11.26816         5.52937         2.84758
| 53>    O      -12.32433         5.05494         3.11159
| 54>    C      -10.84890         6.91438         3.29098
| 55>    O      -11.26920         7.35436         4.32359
| 56>    S       -9.67829         7.86132         2.36981
| 57>    C       -8.89985         8.88846        -0.48026
| 58>    C       -9.31092         9.57295        -1.60049
| 59>    O       -8.96419        10.89787        -1.79517
| 60>    C       -8.54373        11.56010        -0.67746
| 61>    C       -8.29258        10.87348         0.54247
| 62>    C       -7.97661        11.70555         1.56615
| 63>    S       -7.93575        13.34240         1.04121
| 64>    C       -8.38144        12.90182        -0.56436
| 65>    O       -8.33539         9.50555         0.60721
| 66>    C      -10.20781         9.11176        -2.60419
| 67>    C      -11.01575         8.01848        -2.53264
| 68>    C      -11.97399         7.71024        -3.51215
| 69>    C      -12.77498         6.60308        -3.60567
| 70>    C      -12.87227         5.37361        -2.85552
| 71>    C      -12.48761         5.10268        -1.56005
| 72>    C      -12.38004         3.80220        -1.01893
| 73>    N      -12.17176         2.78586        -0.52713
| 74>    C      -12.17873         6.01060        -0.53798
| 75>    N      -11.95786         6.62881         0.40923
| 76>    C      -13.56809         4.40325        -3.70197
| 77>    C      -14.04335         5.05779        -4.86616
| 78>    C      -13.58733         6.45762        -4.84760
| 79>    O      -13.79348         7.31770        -5.67251
| 80>    C      -14.80272         4.42527        -5.81923
| 81>    C      -15.10545         3.07383        -5.62148
| 82>    C      -14.61902         2.42306        -4.46226
| 83>    C      -13.85629         3.06644        -3.49532
| 84>    S      -15.10893         0.75727        -4.41286
| 85>    C      -15.95252         0.95559        -5.92588
| 86>    C      -15.87044         2.20449        -6.44479
| 87>   Br      -16.86162        -0.50153        -6.67629
| 88>    H       -6.10949         6.32045         2.77887
| 89>    H       -4.70983         8.34912        -1.58260
| 90>    H       -5.75119         8.90520         3.80395
| 91>    H       -5.07937         2.86721        -2.34625
| 92>    H       -4.23170        -1.84560        -1.70584
| 93>    H       -7.80430        -2.34103         1.05800
| 94>    H       -8.56567         2.64716         1.18257
| 95>    H       -8.16848         3.58460        -1.71694
| 96>    H       -7.78171        11.44906         2.58616
| 97>    H       -8.49564        13.64540        -1.32487
| 98>    H      -10.31554         9.79427        -3.43747
| 99>    H      -10.95024         7.37357        -1.67626
|100>    H      -12.08279         8.40738        -4.33724
|101>    H      -15.15646         4.95799        -6.68781
|102>    H      -13.51568         2.52239        -2.63042
|103>    H      -16.33105         2.50161        -7.36913
|104> *
|105>
|106>                          ****END OF INPUT****

CARTESIAN COORDINATES (ANGSTROEM)
---------------------------------
  C     -5.308280    5.483670   -1.539190
  C     -5.149970    5.658070   -2.891380
  C     -4.865370    6.897840   -3.497910
  N     -4.635750    7.881390   -4.044240
  C     -5.317190    4.643840   -3.856270
  N     -5.476400    3.880570   -4.699370
  C     -5.300340    6.548760   -0.541690
  C     -5.690120    6.002720    0.706000
  C     -5.806570    6.764030    1.843460
  C     -5.505770    8.127290    1.750230
  C     -5.115520    8.662460    0.500470
  C     -5.015880    7.895600   -0.654670
  S     -4.749610   10.356250    0.615730
  C     -5.097510   10.318480    2.323980
  C     -5.493880    9.106840    2.780290
  Br    -4.879380   11.878780    3.342790
  C     -5.952060    4.560720    0.546520
  O     -6.290060    3.782930    1.417090
  C     -5.668130    4.252550   -0.871340
  C     -5.647170    3.002510   -1.431970
  C     -6.161480    1.769950   -0.932850
  C     -7.300850    1.582590   -0.179990
  O     -7.675900    0.379670    0.320810
  C     -6.868930   -0.675780   -0.001610
  C     -5.748350   -0.517110   -0.866780
  C     -5.096180   -1.682690   -1.097230
  S     -5.842260   -2.991400   -0.256140
  C     -7.044340   -1.956610    0.410360
  O     -5.393820    0.700550   -1.367500
  C     -8.179340    2.667680    0.174750
  C     -8.464960    3.673090   -0.679230
  C     -8.896990    4.972190   -0.298680
  S     -8.583980    6.270340   -1.429520
  C     -9.013020    7.474310   -0.255950
  C     -9.347320    6.887680    0.951210
  C     -9.317330    5.479720    0.919430
  S     -9.954310    4.461650    2.196230
  C    -11.268160    5.529370    2.847580
  O    -12.324330    5.054940    3.111590
  C    -10.848900    6.914380    3.290980
  O    -11.269200    7.354360    4.323590
  S     -9.678290    7.861320    2.369810
  C     -8.899850    8.888460   -0.480260
  C     -9.310920    9.572950   -1.600490
  O     -8.964190   10.897870   -1.795170
  C     -8.543730   11.560100   -0.677460
  C     -8.292580   10.873480    0.542470
  C     -7.976610   11.705550    1.566150
  S     -7.935750   13.342400    1.041210
  C     -8.381440   12.901820   -0.564360
  O     -8.335390    9.505550    0.607210
  C    -10.207810    9.111760   -2.604190
  C    -11.015750    8.018480   -2.532640
  C    -11.973990    7.710240   -3.512150
  C    -12.774980    6.603080   -3.605670
  C    -12.872270    5.373610   -2.855520
  C    -12.487610    5.102680   -1.560050
  C    -12.380040    3.802200   -1.018930
  N    -12.171760    2.785860   -0.527130
  C    -12.178730    6.010600   -0.537980
  N    -11.957860    6.628810    0.409230
  C    -13.568090    4.403250   -3.701970
  C    -14.043350    5.057790   -4.866160
  C    -13.587330    6.457620   -4.847600
  O    -13.793480    7.317700   -5.672510
  C    -14.802720    4.425270   -5.819230
  C    -15.105450    3.073830   -5.621480
  C    -14.619020    2.423060   -4.462260
  C    -13.856290    3.066440   -3.495320
  S    -15.108930    0.757270   -4.412860
  C    -15.952520    0.955590   -5.925880
  C    -15.870440    2.204490   -6.444790
  Br   -16.861620   -0.501530   -6.676290
  H     -6.109490    6.320450    2.778870
  H     -4.709830    8.349120   -1.582600
  H     -5.751190    8.905200    3.803950
  H     -5.079370    2.867210   -2.346250
  H     -4.231700   -1.845600   -1.705840
  H     -7.804300   -2.341030    1.058000
  H     -8.565670    2.647160    1.182570
  H     -8.168480    3.584600   -1.716940
  H     -7.781710   11.449060    2.586160
  H     -8.495640   13.645400   -1.324870
  H    -10.315540    9.794270   -3.437470
  H    -10.950240    7.373570   -1.676260
  H    -12.082790    8.407380   -4.337240
  H    -15.156460    4.957990   -6.687810
  H    -13.515680    2.522390   -2.630420
  H    -16.331050    2.501610   -7.369130

 Total Charge           Charge          ....    0
 Multiplicity           Mult            ....    1
 Number of Electrons    NEL             ....  602
 Basis Dimension        Dim             .... 1166

ORBITAL ENERGIES
----------------

  NO   OCC          E(Eh)            E(eV)
   0   2.0000    -482.890940    -13140.1305
   1   2.0000    -482.887304    -13140.0316
   2   2.0000     -88.990588     -2421.5570
   3   2.0000     -88.977909     -2421.2120
   4   2.0000     -88.977646     -2421.2048
   5   2.0000     -88.968264     -2420.9495
   6   2.0000     -88.965204     -2420.8663
   7   2.0000     -88.965029     -2420.8615
   8   2.0000     -88.960358     -2420.7344
   9   2.0000     -62.568443     -1702.5739
  10   2.0000     -62.565023     -1702.4808
  11   2.0000     -56.402396     -1534.7872
  12   2.0000     -56.399683     -1534.7134
  13   2.0000     -56.399675     -1534.7132
  14   2.0000     -56.398978     -1534.6942
  15   2.0000     -56.396253     -1534.6201
  16   2.0000     -56.396224     -1534.6193
  17   2.0000     -19.301898      -525.2313
  18   2.0000     -19.296788      -525.0923
  19   2.0000     -19.284607      -524.7608
  20   2.0000     -19.279196      -524.6136
  21   2.0000     -19.246541      -523.7250
  22   2.0000     -19.237243      -523.4720
  23   2.0000     -19.219297      -522.9836
  24   2.0000     -19.217878      -522.9450
  25   2.0000     -14.430480      -392.6733
  26   2.0000     -14.419870      -392.3846
  27   2.0000     -14.416832      -392.3019
  28   2.0000     -14.416727      -392.2991
  29   2.0000     -10.404192      -283.1125
  30   2.0000     -10.398739      -282.9641
  31   2.0000     -10.381572      -282.4969
  32   2.0000     -10.377305      -282.3808
  33   2.0000     -10.368095      -282.1302
  34   2.0000     -10.366808      -282.0952
  35   2.0000     -10.366791      -282.0947
  36   2.0000     -10.361452      -281.9494
  37   2.0000     -10.361040      -281.9382
  38   2.0000     -10.359155      -281.8869
  39   2.0000     -10.351421      -281.6765
  40   2.0000     -10.351098      -281.6677
  41   2.0000     -10.349881      -281.6346
  42   2.0000     -10.349317      -281.6192
  43   2.0000     -10.348587      -281.5994
  44   2.0000     -10.348043      -281.5846
  45   2.0000     -10.342962      -281.4463
  46   2.0000     -10.342327      -281.4290
  47   2.0000     -10.341854      -281.4162
  48   2.0000     -10.338412      -281.3225
  49   2.0000     -10.338129      -281.3148
  50   2.0000     -10.336312      -281.2653
  51   2.0000     -10.335166      -281.2342
  52   2.0000     -10.328112      -281.0422
  53   2.0000     -10.326795      -281.0064
  54   2.0000     -10.326477      -280.9977
  55   2.0000     -10.322904      -280.9005
  56   2.0000     -10.320545      -280.8363
  57   2.0000     -10.319983      -280.8210
  58   2.0000     -10.319745      -280.8145
  59   2.0000     -10.318857      -280.7904
  60   2.0000     -10.312040      -280.6049
  61   2.0000     -10.309803      -280.5440
  62   2.0000     -10.309040      -280.5232
  63   2.0000     -10.308832      -280.5176
  64   2.0000     -10.308194      -280.5002
  65   2.0000     -10.308133      -280.4986
  66   2.0000     -10.306412      -280.4517
  67   2.0000     -10.305892      -280.4376
  68   2.0000     -10.304130      -280.3896
  69   2.0000     -10.303722      -280.3785
  70   2.0000     -10.303589      -280.3749
  71   2.0000     -10.302825      -280.3541
  72   2.0000     -10.301940      -280.3300
  73   2.0000     -10.301174      -280.3092
  74   2.0000     -10.300848      -280.3003
  75   2.0000     -10.300231      -280.2835
  76   2.0000     -10.299303      -280.2583
  77   2.0000     -10.298588      -280.2388
  78   2.0000     -10.297659      -280.2135
  79   2.0000     -10.294711      -280.1333
  80   2.0000     -10.293988      -280.1137
  81   2.0000      -8.797781      -239.3998
  82   2.0000      -8.794459      -239.3094
  83   2.0000      -8.084574      -219.9924
  84   2.0000      -8.073713      -219.6969
  85   2.0000      -8.073383      -219.6879
  86   2.0000      -8.063983      -219.4321
  87   2.0000      -8.061565      -219.3663
  88   2.0000      -8.060848      -219.3468
  89   2.0000      -8.056744      -219.2352
  90   2.0000      -6.633991      -180.5201
  91   2.0000      -6.630783      -180.4328
  92   2.0000      -6.619620      -180.1290
  93   2.0000      -6.619301      -180.1203
  94   2.0000      -6.616196      -180.0358
  95   2.0000      -6.615960      -180.0294
  96   2.0000      -6.054087      -164.7401
  97   2.0000      -6.049991      -164.6286
  98   2.0000      -6.046325      -164.5289
  99   2.0000      -6.043384      -164.4488
 100   2.0000      -6.043119      -164.4416
 101   2.0000      -6.039123      -164.3329
 102   2.0000      -6.038808      -164.3243
 103   2.0000      -6.034924      -164.2186
 104   2.0000      -6.034640      -164.2109
 105   2.0000      -6.033441      -164.1783
 106   2.0000      -6.031589      -164.1279
 107   2.0000      -6.030336      -164.0938
 108   2.0000      -6.029280      -164.0650
 109   2.0000      -6.026995      -164.0029
 110   2.0000      -6.026660      -163.9938
 111   2.0000      -6.026137      -163.9795
 112   2.0000      -6.025735      -163.9686
 113   2.0000      -6.022667      -163.8851
 114   2.0000      -6.022553      -163.8820
 115   2.0000      -6.022056      -163.8685
 116   2.0000      -6.016923      -163.7288
 117   2.0000      -2.749864       -74.8276
 118   2.0000      -2.746645       -74.7400
 119   2.0000      -2.745875       -74.7191
 120   2.0000      -2.745659       -74.7132
 121   2.0000      -2.742533       -74.6281
 122   2.0000      -2.742432       -74.6254
 123   2.0000      -2.734216       -74.4018
 124   2.0000      -2.734203       -74.4015
 125   2.0000      -2.730797       -74.3088
 126   2.0000      -2.730787       -74.3085
 127   2.0000      -1.221723       -33.2448
 128   2.0000      -1.218597       -33.1597
 129   2.0000      -1.181323       -32.1454
 130   2.0000      -1.178462       -32.0676
 131   2.0000      -1.176844       -32.0236
 132   2.0000      -1.148568       -31.2541
 133   2.0000      -1.133796       -30.8522
 134   2.0000      -1.133133       -30.8341
 135   2.0000      -1.034370       -28.1466
 136   2.0000      -1.027159       -27.9504
 137   2.0000      -1.024407       -27.8755
 138   2.0000      -1.020015       -27.7560
 139   2.0000      -1.015086       -27.6219
 140   2.0000      -1.003470       -27.3058
 141   2.0000      -0.998334       -27.1661
 142   2.0000      -0.996443       -27.1146
 143   2.0000      -0.995549       -27.0903
 144   2.0000      -0.993327       -27.0298
 145   2.0000      -0.991311       -26.9750
 146   2.0000      -0.954003       -25.9597
 147   2.0000      -0.951671       -25.8963
 148   2.0000      -0.943564       -25.6757
 149   2.0000      -0.941399       -25.6168
 150   2.0000      -0.932474       -25.3739
 151   2.0000      -0.921642       -25.0792
 152   2.0000      -0.912861       -24.8402
 153   2.0000      -0.911074       -24.7916
 154   2.0000      -0.902341       -24.5539
 155   2.0000      -0.896028       -24.3822
 156   2.0000      -0.888950       -24.1896
 157   2.0000      -0.887145       -24.1404
 158   2.0000      -0.879334       -23.9279
 159   2.0000      -0.876742       -23.8574
 160   2.0000      -0.862443       -23.4683
 161   2.0000      -0.856019       -23.2935
 162   2.0000      -0.838229       -22.8094
 163   2.0000      -0.836455       -22.7611
 164   2.0000      -0.834677       -22.7127
 165   2.0000      -0.831391       -22.6233
 166   2.0000      -0.830273       -22.5929
 167   2.0000      -0.825801       -22.4712
 168   2.0000      -0.815497       -22.1908
 169   2.0000      -0.802752       -21.8440
 170   2.0000      -0.786236       -21.3946
 171   2.0000      -0.776830       -21.1386
 172   2.0000      -0.767568       -20.8866
 173   2.0000      -0.761217       -20.7138
 174   2.0000      -0.755269       -20.5519
 175   2.0000      -0.747291       -20.3348
 176   2.0000      -0.742808       -20.2128
 177   2.0000      -0.727621       -19.7996
 178   2.0000      -0.716285       -19.4911
 179   2.0000      -0.707945       -19.2642
 180   2.0000      -0.700018       -19.0485
 181   2.0000      -0.696955       -18.9651
 182   2.0000      -0.695367       -18.9219
 183   2.0000      -0.693313       -18.8660
 184   2.0000      -0.690480       -18.7889
 185   2.0000      -0.682792       -18.5797
 186   2.0000      -0.681350       -18.5405
 187   2.0000      -0.671396       -18.2696
 188   2.0000      -0.669346       -18.2138
 189   2.0000      -0.667544       -18.1648
 190   2.0000      -0.656937       -17.8762
 191   2.0000      -0.646324       -17.5874
 192   2.0000      -0.641894       -17.4668
 193   2.0000      -0.628630       -17.1059
 194   2.0000      -0.627435       -17.0734
 195   2.0000      -0.625928       -17.0324
 196   2.0000      -0.622876       -16.9493
 197   2.0000      -0.611734       -16.6461
 198   2.0000      -0.605589       -16.4789
 199   2.0000      -0.602468       -16.3940
 200   2.0000      -0.601758       -16.3747
 201   2.0000      -0.594798       -16.1853
 202   2.0000      -0.592330       -16.1181
 203   2.0000      -0.586121       -15.9492
 204   2.0000      -0.585114       -15.9218
 205   2.0000      -0.582845       -15.8600
 206   2.0000      -0.580615       -15.7993
 207   2.0000      -0.570226       -15.5166
 208   2.0000      -0.566318       -15.4103
 209   2.0000      -0.563661       -15.3380
 210   2.0000      -0.560807       -15.2603
 211   2.0000      -0.555756       -15.1229
 212   2.0000      -0.553641       -15.0653
 213   2.0000      -0.552217       -15.0266
 214   2.0000      -0.550686       -14.9849
 215   2.0000      -0.548261       -14.9189
 216   2.0000      -0.545567       -14.8456
 217   2.0000      -0.542621       -14.7655
 218   2.0000      -0.539982       -14.6937
 219   2.0000      -0.538071       -14.6417
 220   2.0000      -0.534561       -14.5461
 221   2.0000      -0.530408       -14.4331
 222   2.0000      -0.529031       -14.3957
 223   2.0000      -0.525017       -14.2864
 224   2.0000      -0.523560       -14.2468
 225   2.0000      -0.520474       -14.1628
 226   2.0000      -0.517953       -14.0942
 227   2.0000      -0.515554       -14.0289
 228   2.0000      -0.512608       -13.9488
 229   2.0000      -0.511464       -13.9177
 230   2.0000      -0.510537       -13.8924
 231   2.0000      -0.509252       -13.8574
 232   2.0000      -0.507807       -13.8181
 233   2.0000      -0.505481       -13.7548
 234   2.0000      -0.503486       -13.7006
 235   2.0000      -0.500442       -13.6177
 236   2.0000      -0.497105       -13.5269
 237   2.0000      -0.495867       -13.4932
 238   2.0000      -0.493656       -13.4331
 239   2.0000      -0.491414       -13.3720
 240   2.0000      -0.488825       -13.3016
 241   2.0000      -0.487276       -13.2595
 242   2.0000      -0.484569       -13.1858
 243   2.0000      -0.481132       -13.0923
 244   2.0000      -0.477814       -13.0020
 245   2.0000      -0.474892       -12.9225
 246   2.0000      -0.468716       -12.7544
 247   2.0000      -0.466801       -12.7023
 248   2.0000      -0.465509       -12.6671
 249   2.0000      -0.464822       -12.6484
 250   2.0000      -0.461778       -12.5656
 251   2.0000      -0.460290       -12.5251
 252   2.0000      -0.454181       -12.3589
 253   2.0000      -0.450554       -12.2602
 254   2.0000      -0.449708       -12.2372
 255   2.0000      -0.448100       -12.1934
 256   2.0000      -0.446706       -12.1555
 257   2.0000      -0.445583       -12.1249
 258   2.0000      -0.443097       -12.0573
 259   2.0000      -0.441880       -12.0242
 260   2.0000      -0.440859       -11.9964
 261   2.0000      -0.440738       -11.9931
 262   2.0000      -0.439332       -11.9548
 263   2.0000      -0.437758       -11.9120
 264   2.0000      -0.435714       -11.8564
 265   2.0000      -0.431411       -11.7393
 266   2.0000      -0.429711       -11.6930
 267   2.0000      -0.429291       -11.6816
 268   2.0000      -0.425646       -11.5824
 269   2.0000      -0.424455       -11.5500
 270   2.0000      -0.418843       -11.3973
 271   2.0000      -0.414281       -11.2732
 272   2.0000      -0.410907       -11.1813
 273   2.0000      -0.409598       -11.1457
 274   2.0000      -0.407351       -11.0846
 275   2.0000      -0.396300       -10.7839
 276   2.0000      -0.391454       -10.6520
 277   2.0000      -0.389606       -10.6017
 278   2.0000      -0.387826       -10.5533
 279   2.0000      -0.381967       -10.3939
 280   2.0000      -0.379669       -10.3313
 281   2.0000      -0.376629       -10.2486
 282   2.0000      -0.374557       -10.1922
 283   2.0000      -0.369580       -10.0568
 284   2.0000      -0.355720        -9.6796
 285   2.0000      -0.352363        -9.5883
 286   2.0000      -0.341948        -9.3049
 287   2.0000      -0.340903        -9.2764
 288   2.0000      -0.332297        -9.0423
 289   2.0000      -0.326624        -8.8879
 290   2.0000      -0.321031        -8.7357
 291   2.0000      -0.318070        -8.6551
 292   2.0000      -0.312692        -8.5088
 293   2.0000      -0.309710        -8.4276
 294   2.0000      -0.309354        -8.4180
 295   2.0000      -0.304726        -8.2920
 296   2.0000      -0.298056        -8.1105
 297   2.0000      -0.294597        -8.0164
 298   2.0000      -0.293650        -7.9906
 299   2.0000      -0.267831        -7.2880
 300   2.0000      -0.257410        -7.0045
 301   0.0000      -0.109522        -2.9803
 302   0.0000      -0.095260        -2.5922
 303   0.0000      -0.078720        -2.1421
 304   0.0000      -0.066123        -1.7993
 305   0.0000      -0.043365        -1.1800

MULLIKEN ATOMIC CHARGES
-----------------------
   0 C :    0.322897
   1 C :   -0.358872
   2 C :   -0.183484
   3 N :    0.148894
   4 C :   -0.218079
   5 N :    0.168403
   6 C :    0.031975
   7 C :   -0.020018
   8 C :   -0.075851
   9 C :    0.129402
  10 C :   -0.087001
  11 C :   -0.044344
  12 S :    0.184298
  13 C :   -0.139933
  14 C :    0.045722
  15 Br:    0.021317
  16 C :    0.165556
  17 O :   -0.156314
  18 C :   -0.110284
  19 C :   -0.064005
  20 C :    0.146582
  21 C :    0.146803
  22 O :   -0.213663
  23 C :    0.202386
  24 C :    0.226859
  25 C :   -0.172115
  26 S :    0.120207
  27 C :   -0.159147
  28 O :   -0.255061
  29 C :    0.019677
  30 C :    0.075117
  31 C :   -0.162308
  32 S :    0.180132
  33 C :   -0.238722
  34 C :    0.036941
  35 C :   -0.036486
  36 S :    0.075235
  37 C :    0.060893
  38 O :   -0.093024
  39 C :    0.114805
  40 O :   -0.146651
  41 S :    0.126350
  42 C :    0.148026
  43 C :    0.156394
  44 O :   -0.256482
  45 C :    0.221278
  46 C :    0.215461
  47 C :   -0.154484
  48 S :    0.126127
  49 C :   -0.169740
  50 O :   -0.257583
  51 C :    0.017757
  52 C :    0.015776
  53 C :    0.013203
  54 C :   -0.093269
  55 C :    0.320847
  56 C :   -0.356337
  57 C :   -0.189035
  58 N :    0.141464
  59 C :   -0.120874
  60 N :    0.098922
  61 C :    0.010385
  62 C :   -0.007901
  63 C :    0.131389
  64 O :   -0.142467
  65 C :   -0.066703
  66 C :    0.117797
  67 C :   -0.090904
  68 C :   -0.022786
  69 S :    0.187801
  70 C :   -0.122935
  71 C :    0.038909
  72 Br:    0.026457
  73 H :   -0.011799
  74 H :   -0.009145
  75 H :   -0.001735
  76 H :    0.050118
  77 H :    0.030714
  78 H :    0.033929
  79 H :    0.043666
  80 H :    0.013735
  81 H :    0.031354
  82 H :    0.031514
  83 H :    0.019685
  84 H :    0.018410
  85 H :    0.015849
  86 H :   -0.008494
  87 H :   -0.006669
  88 H :   -0.002713
Sum of atomic charges:   -0.0000000

LOEWDIN ATOMIC CHARGES
----------------------
   0 C :    0.069144
   1 C :   -0.148372
   2 C :   -0.018911
   3 N :   -0.056992
   4 C :   -0.029015
   5 N :   -0.052129
   6 C :   -0.025211
   7 C :   -0.051314
   8 C :    0.021442
   9 C :   -0.031776
  10 C :   -0.145051
  11 C :   -0.015854
  12 S :    0.437382
  13 C :   -0.272872
  14 C :   -0.068015
  15 Br:    0.139073
  16 C :    0.076837
  17 O :   -0.141647
  18 C :   -0.105760
  19 C :    0.066177
  20 C :    0.002865
  21 C :    0.074902
  22 O :   -0.021317
  23 C :   -0.011474
  24 C :   -0.004620
  25 C :   -0.205607
  26 S :    0.447103
  27 C :   -0.198096
  28 O :   -0.062513
  29 C :   -0.002769
  30 C :   -0.025439
  31 C :   -0.176171
  32 S :    0.494241
  33 C :   -0.211368
  34 C :   -0.178399
  35 C :   -0.200874
  36 S :    0.357200
  37 C :   -0.085875
  38 O :   -0.065468
  39 C :   -0.105072
  40 O :   -0.108639
  41 S :    0.394664
  42 C :    0.027912
  43 C :    0.007976
  44 O :   -0.061088
  45 C :   -0.005220
  46 C :   -0.017586
  47 C :   -0.201463
  48 S :    0.452877
  49 C :   -0.205721
  50 O :   -0.041618
  51 C :    0.027110
  52 C :   -0.039202
  53 C :    0.068796
  54 C :   -0.094336
  55 C :    0.075408
  56 C :   -0.148937
  57 C :   -0.022306
  58 N :   -0.052156
  59 C :    0.004947
  60 N :   -0.069089
  61 C :   -0.018688
  62 C :   -0.052801
  63 C :    0.082450
  64 O :   -0.140426
  65 C :    0.024247
  66 C :   -0.032228
  67 C :   -0.143020
  68 C :   -0.011991
  69 S :    0.433942
  70 C :   -0.270995
  71 C :   -0.069573
  72 Br:    0.139349
  73 H :    0.040274
  74 H :    0.039968
  75 H :    0.039320
  76 H :    0.053398
  77 H :    0.031909
  78 H :    0.033424
  79 H :    0.031622
  80 H :    0.034316
  81 H :    0.026618
  82 H :    0.032017
  83 H :    0.047553
  84 H :    0.021451
  85 H :    0.044895
  86 H :    0.042072
  87 H :    0.040883
  88 H :    0.039305

  Mayer bond orders larger than 0.100000
B(  0-C ,  1-C ) :   1.6231 B(  0-C ,  6-C ) :   0.9923 B(  0-C , 18-C ) :   1.0791
B(  1-C ,  2-C ) :   1.1453 B(  1-C ,  4-C ) :   1.1483 B(  2-C ,  3-N ) :   2.9706
B(  4-C ,  5-N ) :   2.9974 B(  6-C ,  7-C ) :   1.2728 B(  6-C , 11-C ) :   1.4106
B(  7-C ,  8-C ) :   1.4219 B(  7-C , 16-C ) :   0.9357 B(  8-C ,  9-C ) :   1.2364
B(  8-C , 73-H ) :   1.0215 B(  9-C , 10-C ) :   1.3111 B(  9-C , 14-C ) :   1.1605
B( 10-C , 11-C ) :   1.3161 B( 10-C , 12-S ) :   1.0860 B( 11-C , 74-H ) :   0.9828
B( 12-S , 13-C ) :   1.0856 B( 13-C , 14-C ) :   1.6089 B( 13-C , 15-Br) :   1.0151
B( 14-C , 75-H ) :   1.0018 B( 16-C , 17-O ) :   2.1775 B( 16-C , 18-C ) :   0.9616
B( 18-C , 19-C ) :   1.5559 B( 19-C , 20-C ) :   1.1555 B( 19-C , 76-H ) :   0.9314
B( 20-C , 21-C ) :   1.4983 B( 20-C , 28-O ) :   1.0403 B( 21-C , 22-O ) :   1.1219
B( 21-C , 29-C ) :   1.1084 B( 22-O , 23-C ) :   1.0277 B( 23-C , 24-C ) :   1.2014
B( 23-C , 27-C ) :   1.5761 B( 24-C , 25-C ) :   1.5784 B( 24-C , 28-O ) :   1.0581
B( 25-C , 26-S ) :   1.1409 B( 25-C , 77-H ) :   0.9715 B( 26-S , 27-C ) :   1.1530
B( 27-C , 78-H ) :   0.9719 B( 29-C , 30-C ) :   1.7565 B( 29-C , 79-H ) :   0.9139
B( 30-C , 31-C ) :   1.1509 B( 30-C , 80-H ) :   0.9308 B( 31-C , 32-S ) :   1.1275
B( 31-C , 33-C ) :   0.1035 B( 31-C , 35-C ) :   1.5178 B( 32-S , 33-C ) :   1.1563
B( 33-C , 34-C ) :   1.5109 B( 33-C , 42-C ) :   1.0678 B( 34-C , 35-C ) :   1.2674
B( 34-C , 41-S ) :   1.0153 B( 35-C , 36-S ) :   1.0203 B( 36-S , 37-C ) :   0.9688
B( 36-S , 38-O ) :   0.1016 B( 37-C , 38-O ) :   2.2311 B( 37-C , 39-C ) :   0.7640
B( 39-C , 40-O ) :   2.1479 B( 39-C , 41-S ) :   1.0210 B( 40-O , 41-S ) :   0.1228
B( 42-C , 43-C ) :   1.4905 B( 42-C , 50-O ) :   1.0968 B( 43-C , 44-O ) :   1.0334
B( 43-C , 51-C ) :   1.1630 B( 44-O , 45-C ) :   1.0510 B( 45-C , 46-C ) :   1.2138
B( 45-C , 49-C ) :   1.5778 B( 46-C , 47-C ) :   1.5794 B( 46-C , 50-O ) :   0.9949
B( 47-C , 48-S ) :   1.1521 B( 47-C , 81-H ) :   0.9630 B( 48-S , 49-C ) :   1.1455
B( 49-C , 82-H ) :   0.9702 B( 51-C , 52-C ) :   1.6124 B( 51-C , 83-H ) :   0.9636
B( 52-C , 53-C ) :   1.1836 B( 52-C , 84-H ) :   0.9428 B( 53-C , 54-C ) :   1.5676
B( 53-C , 85-H ) :   0.9575 B( 54-C , 55-C ) :   1.0612 B( 54-C , 63-C ) :   0.9382
B( 55-C , 56-C ) :   1.5547 B( 55-C , 61-C ) :   1.0316 B( 56-C , 57-C ) :   1.1267
B( 56-C , 59-C ) :   1.2006 B( 57-C , 58-N ) :   2.9492 B( 59-C , 60-N ) :   2.8254
B( 61-C , 62-C ) :   1.2681 B( 61-C , 68-C ) :   1.4085 B( 62-C , 63-C ) :   0.9281
B( 62-C , 65-C ) :   1.4311 B( 63-C , 64-O ) :   2.2543 B( 65-C , 66-C ) :   1.2461
B( 65-C , 86-H ) :   1.0163 B( 66-C , 67-C ) :   1.3043 B( 66-C , 71-C ) :   1.1634
B( 67-C , 68-C ) :   1.3361 B( 67-C , 69-S ) :   1.0882 B( 68-C , 87-H ) :   0.9772
B( 69-S , 70-C ) :   1.0868 B( 70-C , 71-C ) :   1.6165 B( 70-C , 72-Br) :   1.0205
B( 71-C , 88-H ) :   1.0007

-----------------------------------------------------------------------------
         ABSORPTION SPECTRUM VIA TRANSITION ELECTRIC DIPOLE MOMENTS
-----------------------------------------------------------------------------
State   Energy  Wavelength   fosc         T2         TX        TY        TZ
        (cm-1)    (nm)                  (au**2)     (au)      (au)      (au)
-----------------------------------------------------------------------------
   0   14506.9    689.3   0.284757509   6.46214  -2.39129  -0.69954  -0.50447
   1   16633.8    601.2   0.134167206   2.65540  -0.93487   0.15312  -1.32589
   2   19051.1    524.9   0.011214079   0.19379   0.12225  -0.28055  -0.31644
   3   21387.9    467.6   0.063828776   0.98248  -0.16294  -0.94033   0.26779
   4   21763.4    459.5   0.256057268   3.87334  -0.37227  -1.93128  -0.07013
   5   23338.7    428.5   0.079188479   1.11702  -0.86259   0.58834  -0.16377
   6   23618.8    423.4   0.076821559   1.07078  -0.04369  -0.07242  -1.03132
   7   24043.1    415.9   0.052389433   0.71735   0.09514  -0.69222   0.47867
   8   24855.1    402.3   0.019373274   0.25660   0.10976   0.49059   0.06224
   9   25582.3    390.9   0.075214399   0.96792   0.02865   0.93280  -0.31142
  10   26166.4    382.2   0.027465706   0.34556   0.14475   0.30166   0.48333
  11   26476.1    377.7   0.037803034   0.47005   0.02950  -0.30243   0.61459
  12   26788.7    373.3   0.012735795   0.15651  -0.09625   0.30909  -0.22740
  13   26999.1    370.4   0.232603490   2.83624  -1.07305  -1.25739  -0.32211
  14   27530.6    363.2   0.012274465   0.14678  -0.09182  -0.32392  -0.18283
  15   27886.2    358.6   0.029575864   0.34916   0.30762  -0.46897  -0.18602
  16   28165.5    355.0   0.030023087   0.35092  -0.38506   0.01161  -0.45002
  17   28438.2    351.6   0.006565442   0.07600   0.08306  -0.23707  -0.11360
  18   28633.9    349.2   0.063727538   0.73269  -0.00001  -0.06101  -0.85380
  19   28974.2    345.1   0.007215237   0.08198   0.22184   0.15623  -0.09145
  20   29182.4    342.7   0.194719247   2.19666   0.26722   1.44151   0.21752
  21   29337.2    340.9   0.362617675   4.06917  -0.62819  -1.79452  -0.67398
  22   29471.8    339.3   0.082113033   0.91724   0.01492  -0.69064  -0.66335
  23   29776.7    335.8   0.088301829   0.97627  -0.38785  -0.41486  -0.80853
  24   30312.0    329.9   0.006380773   0.06930  -0.20320  -0.15958  -0.05041
  25   30538.7    327.5   0.199579046   2.15149   0.96797   0.64324   0.89486
  26   30719.4    325.5   0.019356238   0.20744  -0.10392  -0.43976  -0.05699
  27   31131.4    321.2   0.148797109   1.57352   0.42935   1.06935   0.49564
  28   31458.5    317.9   0.081254286   0.85032   0.89039   0.02390   0.23866
  29   31717.4    315.3   0.033910051   0.35197  -0.12644   0.46827   0.34162
  30   31922.1    313.3   0.033105462   0.34142  -0.15621   0.06151   0.55967
  31   32064.1    311.9   0.072894344   0.74843  -0.23858   0.28762  -0.78025
  32   32299.2    309.6   0.020263335   0.20654   0.17653  -0.06724   0.41334
  33   32430.4    308.4   0.258184515   2.62092  -0.09973   1.15224   1.13283
  34   32739.9    305.4   0.687908691   6.91717   0.69014   1.73899   1.84846
  35   33119.4    301.9   0.081453661   0.80966  -0.64691  -0.57114   0.25490
  36   33185.2    301.3   0.050935065   0.50530  -0.15306   0.68867  -0.08721
  37   33621.0    297.4   0.023917586   0.23420   0.02931  -0.15033  -0.45906
  38   34095.5    293.3   0.008994105   0.08684  -0.28749  -0.03186  -0.05637
  39   34130.1    293.0   0.029063898   0.28034  -0.02777  -0.25736   0.46189
  40   34371.0    290.9   0.163365627   1.56475   0.46469   1.16138   0.00362
  41   34466.9    290.1   0.086882587   0.82986   0.18992   0.72818   0.51337
  42   34752.3    287.8   0.007848999   0.07435  -0.12599   0.05616   0.23522
  43   34941.7    286.2   0.024429513   0.23017  -0.26683   0.33255   0.21996
  44   35140.7    284.6   0.029754786   0.27875   0.35047   0.29591  -0.26147
  45   35216.2    284.0   0.067500474   0.63102   0.44514  -0.45743  -0.47290
  46   35576.5    281.1   0.060319544   0.55817   0.43957   0.48768  -0.35654
  47   35724.5    279.9   0.010052913   0.09264  -0.21110  -0.20303  -0.08280
  48   35913.9    278.4   0.052692361   0.48301   0.10663  -0.26544  -0.63339
  49   36239.3    275.9   0.150807019   1.36999   0.01271   0.86418  -0.78931
  50   36398.8    274.7   0.161680850   1.46233   0.45794  -0.92308  -0.63289
  51   36728.7    272.3   0.034529252   0.30950   0.31686   0.11860  -0.44162
  52   36906.3    271.0   0.056247147   0.50174  -0.11838  -0.26917  -0.64441
  53   36962.7    270.5   0.061558552   0.54828   0.39609   0.12827   0.61232
  54   37035.2    270.0   0.078246278   0.69554  -0.31605  -0.73732  -0.22806
  55   37557.5    266.3   0.033670745   0.29514   0.17413  -0.44036  -0.26629
  56   37667.3    265.5   0.019717943   0.17233   0.28675   0.27452  -0.12144
  57   37902.1    263.8   0.020530871   0.17833  -0.11275  -0.22804  -0.33706
  58   38081.7    262.6   0.005113216   0.04420   0.15787  -0.13680  -0.02381
  59   38221.9    261.6   0.275606358   2.37384  -0.13984  -1.13678   1.03054
  60   38640.7    258.8   0.048105929   0.40985   0.05996  -0.28447   0.57038
  61   38847.6    257.4   0.049892368   0.42281  -0.06631  -0.52817   0.37343
  62   39334.8    254.2   0.070149034   0.58711  -0.09637  -0.63029  -0.42493
  63   39378.0    253.9   0.007932078   0.06631   0.16697   0.19557   0.01375
  64   39554.7    252.8   0.104656248   0.87105   0.42235  -0.66322  -0.50280
  65   39842.5    251.0   0.051741573   0.42753  -0.16462  -0.61062   0.16607
  66   40130.2    249.2   0.035840609   0.29402  -0.13446  -0.48312  -0.20624
  67   40192.9    248.8   0.048609975   0.39815   0.08203   0.46353   0.42020

FINAL SINGLE POINT ENERGY    -10742.666470417689

DIPOLE MOMENT
-------------
                                X             Y             Z
Electronic contribution:    -32.46717       2.01526      -5.60350
Nuclear contribution   :     32.69763      -2.09251       5.42666
                        -----------------------------------------
Total Dipole Moment    :      0.23046      -0.07725      -0.17684
                        -----------------------------------------
Magnitude (a.u.)       :      0.30058
Magnitude (Debye)      :      0.76402

Rotational constants in cm-1:     0.000999     0.000453     0.000372
Rotational constants in MHz :    29.941599    13.580957    11.150297

                             ****ORCA TERMINATED NORMALLY****
TOTAL RUN TIME: 0 days 0 hours 11 minutes 57 seconds 106 msec
