                         Program Version 4.2.0 -  RELEASE  -
|  1> # ORCA input file
|  2> # SCF done       -167.322270784150          0.000366139805
|  3> ! CAM-B3LYP def2-SVP def2/J RIJCOSX Grid4 TightSCF
|  4> %maxcore 5000
|  5> %tddft
|  6>     Mode sTDDFT
|  7>     Ethresh 5.0
|  8>     maxcore 5000
|  9> end
| 10>
| 11> %pal
| 12>   nprocs 6
| 13>   end
| 14> * xyz 0 1
| 15>    C       -1.14766        -1.26121        -1.35210
| 16>    C       -1.58350        -2.56571        -1.24217
| 17>    C       -0.74236        -3.68972        -1.33489
| 18>    N       -0.11394        -4.65029        -1.39953
| 19>    C       -2.91165        -2.97642        -1.02276
| 20>    N       -3.96364        -3.40732        -0.84797
| 21>    C        0.24263        -0.86317        -1.57887
| 22>    C        0.30335         0.54978        -1.63171
| 23>    C        1.47400         1.23485        -1.83761
| 24>    C        2.64731         0.48841        -2.00050
| 25>    C        2.57731        -0.92125        -1.94518
| 26>    C        1.39005        -1.61489        -1.73591
| 27>    S        4.14062        -1.64836        -2.17155
| 28>    C        4.85513        -0.06646        -2.33629
| 29>    C        3.97252         0.95349        -2.22698
| 30>   Br        6.70133         0.08879        -2.63733
| 31>    C       -1.05728         1.10008        -1.43759
| 32>    O       -1.35470         2.28077        -1.42638
| 33>    C       -1.93759        -0.06679        -1.27063
| 34>    C       -3.31142         0.00524        -1.07987
| 35>    C       -4.04417         1.17570        -1.01274
| 36>    C       -5.42558         1.19794        -0.84783
| 37>    C       -6.25112         2.33125        -0.79065
| 38>    C       -7.58716         2.04287        -0.64844
| 39>    C       -7.85849         0.67129        -0.58495
| 40>    S       -6.38632        -0.25541        -0.70212
| 41>    C       -9.10396         0.04140        -0.46978
| 42>    C      -10.37152         0.62901        -0.42999
| 43>    C      -11.39899        -0.28575        -0.35453
| 44>    C      -10.97365        -1.61578        -0.32412
| 45>    S       -9.22957        -1.69349        -0.39010
| 46>    C      -11.77563        -2.76214        -0.27705
| 47>    C      -11.28778        -4.04006        -0.21834
| 48>    C      -12.06501        -5.20314        -0.23044
| 49>    C      -11.59471        -6.51618        -0.15069
| 50>    C      -12.58333        -7.47129        -0.22595
| 51>    C      -13.86690        -6.93874        -0.37410
| 52>    S      -13.80392        -5.19434        -0.39513
| 53>    C      -15.07137        -7.63205        -0.52978
| 54>    C      -15.25239        -9.02191        -0.55945
| 55>    C      -16.55114        -9.39984        -0.78197
| 56>    C      -17.44260        -8.32287        -0.93670
| 57>    S      -16.58843        -6.80742        -0.76872
| 58>    C      -18.79488        -8.42547        -1.21921
| 59>    C      -19.65279        -7.33389        -1.37620
| 60>    C      -21.00118        -7.42578        -1.73428
| 61>    O      -21.79745        -6.31151        -1.86018
| 62>    C      -21.19953        -5.11103        -1.63416
| 63>    C      -19.82257        -5.01169        -1.28563
| 64>    C      -19.41260        -3.73214        -1.10498
| 65>    S      -20.70911        -2.62491        -1.35880
| 66>    C      -21.81060        -3.90081        -1.71154
| 67>    O      -19.04094        -6.11619        -1.15443
| 68>    C      -21.66130        -8.64268        -2.02222
| 69>    C      -22.96547        -8.71780        -2.40984
| 70>    C      -23.59559        -9.94602        -2.71957
| 71>    S      -25.27392       -10.02193        -3.24893
| 72>    C      -25.25719       -11.74767        -3.42363
| 73>    C      -24.03426       -12.22136        -3.09046
| 74>    C      -23.10859       -11.22909        -2.69958
| 75>    O      -21.91604       -11.81553        -2.38872
| 76>    C      -22.11674       -13.20498        -2.59050
| 77>    O      -23.43821       -13.44720        -3.03190
| 78>    H        1.48715         2.31296        -1.87322
| 79>    H        1.39173        -2.69136        -1.70320
| 80>    H        4.24135         1.99135        -2.30295
| 81>    H       -3.85992        -0.92362        -0.98211
| 82>    H       -3.53449         2.12418        -1.10114
| 83>    H       -5.84844         3.32600        -0.85941
| 84>    H       -8.36122         2.78682        -0.59000
| 85>    H      -10.51519         1.69366        -0.46548
| 86>    H      -12.44105        -0.02038        -0.32219
| 87>    H      -12.84751        -2.60873        -0.29677
| 88>    H      -10.21559        -4.18390        -0.16803
| 89>    H      -10.54767        -6.73762        -0.04402
| 90>    H      -12.39945        -8.52942        -0.18517
| 91>    H      -14.44037        -9.71327        -0.42502
| 92>    H      -16.88424       -10.42062        -0.84407
| 93>    H      -19.19469        -9.41889        -1.33033
| 94>    H      -18.43545        -3.38640        -0.84104
| 95>    H      -22.83159        -3.69196        -1.95274
| 96>    H      -21.09777        -9.55678        -1.94431
| 97>    H      -23.56152        -7.82293        -2.50190
| 98>    H      -26.13072       -12.26921        -3.75159
| 99>    H      -21.94370       -13.73786        -1.64260
|100>    H      -21.40500       -13.56807        -3.34781
|101> *
|102>
|103>                          ****END OF INPUT****

CARTESIAN COORDINATES (ANGSTROEM)
---------------------------------
  C     -1.147660   -1.261210   -1.352100
  C     -1.583500   -2.565710   -1.242170
  C     -0.742360   -3.689720   -1.334890
  N     -0.113940   -4.650290   -1.399530
  C     -2.911650   -2.976420   -1.022760
  N     -3.963640   -3.407320   -0.847970
  C      0.242630   -0.863170   -1.578870
  C      0.303350    0.549780   -1.631710
  C      1.474000    1.234850   -1.837610
  C      2.647310    0.488410   -2.000500
  C      2.577310   -0.921250   -1.945180
  C      1.390050   -1.614890   -1.735910
  S      4.140620   -1.648360   -2.171550
  C      4.855130   -0.066460   -2.336290
  C      3.972520    0.953490   -2.226980
  Br     6.701330    0.088790   -2.637330
  C     -1.057280    1.100080   -1.437590
  O     -1.354700    2.280770   -1.426380
  C     -1.937590   -0.066790   -1.270630
  C     -3.311420    0.005240   -1.079870
  C     -4.044170    1.175700   -1.012740
  C     -5.425580    1.197940   -0.847830
  C     -6.251120    2.331250   -0.790650
  C     -7.587160    2.042870   -0.648440
  C     -7.858490    0.671290   -0.584950
  S     -6.386320   -0.255410   -0.702120
  C     -9.103960    0.041400   -0.469780
  C    -10.371520    0.629010   -0.429990
  C    -11.398990   -0.285750   -0.354530
  C    -10.973650   -1.615780   -0.324120
  S     -9.229570   -1.693490   -0.390100
  C    -11.775630   -2.762140   -0.277050
  C    -11.287780   -4.040060   -0.218340
  C    -12.065010   -5.203140   -0.230440
  C    -11.594710   -6.516180   -0.150690
  C    -12.583330   -7.471290   -0.225950
  C    -13.866900   -6.938740   -0.374100
  S    -13.803920   -5.194340   -0.395130
  C    -15.071370   -7.632050   -0.529780
  C    -15.252390   -9.021910   -0.559450
  C    -16.551140   -9.399840   -0.781970
  C    -17.442600   -8.322870   -0.936700
  S    -16.588430   -6.807420   -0.768720
  C    -18.794880   -8.425470   -1.219210
  C    -19.652790   -7.333890   -1.376200
  C    -21.001180   -7.425780   -1.734280
  O    -21.797450   -6.311510   -1.860180
  C    -21.199530   -5.111030   -1.634160
  C    -19.822570   -5.011690   -1.285630
  C    -19.412600   -3.732140   -1.104980
  S    -20.709110   -2.624910   -1.358800
  C    -21.810600   -3.900810   -1.711540
  O    -19.040940   -6.116190   -1.154430
  C    -21.661300   -8.642680   -2.022220
  C    -22.965470   -8.717800   -2.409840
  C    -23.595590   -9.946020   -2.719570
  S    -25.273920  -10.021930   -3.248930
  C    -25.257190  -11.747670   -3.423630
  C    -24.034260  -12.221360   -3.090460
  C    -23.108590  -11.229090   -2.699580
  O    -21.916040  -11.815530   -2.388720
  C    -22.116740  -13.204980   -2.590500
  O    -23.438210  -13.447200   -3.031900
  H      1.487150    2.312960   -1.873220
  H      1.391730   -2.691360   -1.703200
  H      4.241350    1.991350   -2.302950
  H     -3.859920   -0.923620   -0.982110
  H     -3.534490    2.124180   -1.101140
  H     -5.848440    3.326000   -0.859410
  H     -8.361220    2.786820   -0.590000
  H    -10.515190    1.693660   -0.465480
  H    -12.441050   -0.020380   -0.322190
  H    -12.847510   -2.608730   -0.296770
  H    -10.215590   -4.183900   -0.168030
  H    -10.547670   -6.737620   -0.044020
  H    -12.399450   -8.529420   -0.185170
  H    -14.440370   -9.713270   -0.425020
  H    -16.884240  -10.420620   -0.844070
  H    -19.194690   -9.418890   -1.330330
  H    -18.435450   -3.386400   -0.841040
  H    -22.831590   -3.691960   -1.952740
  H    -21.097770   -9.556780   -1.944310
  H    -23.561520   -7.822930   -2.501900
  H    -26.130720  -12.269210   -3.751590
  H    -21.943700  -13.737860   -1.642600
  H    -21.405000  -13.568070   -3.347810

 Total Charge           Charge          ....    0
 Multiplicity           Mult            ....    1
 Number of Electrons    NEL             ....  512
 Basis Dimension        Dim             .... 1043

ORBITAL ENERGIES
----------------

  NO   OCC          E(Eh)            E(eV)
   0   2.0000    -482.864664    -13139.4155
   1   2.0000     -88.972030     -2421.0520
   2   2.0000     -88.968423     -2420.9539
   3   2.0000     -88.964367     -2420.8435
   4   2.0000     -88.962577     -2420.7948
   5   2.0000     -88.952800     -2420.5287
   6   2.0000     -88.949444     -2420.4374
   7   2.0000     -88.941382     -2420.2180
   8   2.0000     -62.542349     -1701.8638
   9   2.0000     -56.376271     -1534.0763
  10   2.0000     -56.373612     -1534.0040
  11   2.0000     -56.373566     -1534.0027
  12   2.0000     -19.297675      -525.1164
  13   2.0000     -19.294962      -525.0426
  14   2.0000     -19.290943      -524.9332
  15   2.0000     -19.280988      -524.6624
  16   2.0000     -19.177327      -521.8416
  17   2.0000     -14.379245      -391.2791
  18   2.0000     -14.377189      -391.2232
  19   2.0000     -10.409189      -283.2484
  20   2.0000     -10.373700      -282.2827
  21   2.0000     -10.366701      -282.0923
  22   2.0000     -10.356875      -281.8249
  23   2.0000     -10.356591      -281.8172
  24   2.0000     -10.353727      -281.7392
  25   2.0000     -10.351539      -281.6797
  26   2.0000     -10.333234      -281.1816
  27   2.0000     -10.328966      -281.0655
  28   2.0000     -10.327427      -281.0236
  29   2.0000     -10.326588      -281.0008
  30   2.0000     -10.323218      -280.9091
  31   2.0000     -10.321440      -280.8606
  32   2.0000     -10.320264      -280.8287
  33   2.0000     -10.319788      -280.8157
  34   2.0000     -10.312948      -280.6296
  35   2.0000     -10.312037      -280.6048
  36   2.0000     -10.309431      -280.5339
  37   2.0000     -10.308409      -280.5061
  38   2.0000     -10.307992      -280.4947
  39   2.0000     -10.306692      -280.4593
  40   2.0000     -10.304482      -280.3992
  41   2.0000     -10.303226      -280.3650
  42   2.0000     -10.300797      -280.2989
  43   2.0000     -10.300797      -280.2989
  44   2.0000     -10.300633      -280.2945
  45   2.0000     -10.299993      -280.2771
  46   2.0000     -10.298070      -280.2247
  47   2.0000     -10.297868      -280.2192
  48   2.0000     -10.296936      -280.1939
  49   2.0000     -10.295816      -280.1634
  50   2.0000     -10.290585      -280.0211
  51   2.0000     -10.290179      -280.0100
  52   2.0000     -10.286215      -279.9021
  53   2.0000     -10.284423      -279.8534
  54   2.0000     -10.283564      -279.8300
  55   2.0000     -10.283457      -279.8271
  56   2.0000     -10.282926      -279.8126
  57   2.0000     -10.277585      -279.6673
  58   2.0000     -10.274563      -279.5851
  59   2.0000     -10.273008      -279.5428
  60   2.0000     -10.272206      -279.5209
  61   2.0000     -10.271326      -279.4970
  62   2.0000     -10.269610      -279.4503
  63   2.0000     -10.268734      -279.4265
  64   2.0000     -10.258245      -279.1410
  65   2.0000     -10.249834      -278.9122
  66   2.0000     -10.249339      -278.8987
  67   2.0000      -8.771743      -238.6913
  68   2.0000      -8.067805      -219.5361
  69   2.0000      -8.063706      -219.4246
  70   2.0000      -8.059716      -219.3160
  71   2.0000      -8.058745      -219.2896
  72   2.0000      -8.048953      -219.0232
  73   2.0000      -8.045452      -218.9279
  74   2.0000      -8.037229      -218.7041
  75   2.0000      -6.607917      -179.8106
  76   2.0000      -6.593513      -179.4186
  77   2.0000      -6.593391      -179.4153
  78   2.0000      -6.037307      -164.2835
  79   2.0000      -6.033502      -164.1799
  80   2.0000      -6.033105      -164.1691
  81   2.0000      -6.029504      -164.0711
  82   2.0000      -6.029460      -164.0699
  83   2.0000      -6.029306      -164.0658
  84   2.0000      -6.028247      -164.0369
  85   2.0000      -6.025097      -163.9512
  86   2.0000      -6.024878      -163.9453
  87   2.0000      -6.024271      -163.9287
  88   2.0000      -6.020932      -163.8379
  89   2.0000      -6.020146      -163.8165
  90   2.0000      -6.018425      -163.7697
  91   2.0000      -6.015163      -163.6809
  92   2.0000      -6.014382      -163.6597
  93   2.0000      -6.010897      -163.5648
  94   2.0000      -6.010424      -163.5520
  95   2.0000      -6.006694      -163.4505
  96   2.0000      -6.006649      -163.4492
  97   2.0000      -6.002674      -163.3411
  98   2.0000      -5.998723      -163.2336
  99   2.0000      -2.723812       -74.1187
 100   2.0000      -2.719739       -74.0079
 101   2.0000      -2.719686       -74.0064
 102   2.0000      -2.708215       -73.6943
 103   2.0000      -2.708206       -73.6940
 104   2.0000      -1.241176       -33.7741
 105   2.0000      -1.223400       -33.2904
 106   2.0000      -1.187132       -32.3035
 107   2.0000      -1.144103       -31.1326
 108   2.0000      -1.090342       -29.6697
 109   2.0000      -1.012537       -27.5525
 110   2.0000      -1.002893       -27.2901
 111   2.0000      -0.998800       -27.1787
 112   2.0000      -0.996851       -27.1257
 113   2.0000      -0.992005       -26.9938
 114   2.0000      -0.989476       -26.9250
 115   2.0000      -0.978814       -26.6349
 116   2.0000      -0.971369       -26.4323
 117   2.0000      -0.958072       -26.0705
 118   2.0000      -0.954435       -25.9715
 119   2.0000      -0.941414       -25.6172
 120   2.0000      -0.918183       -24.9850
 121   2.0000      -0.912235       -24.8232
 122   2.0000      -0.908170       -24.7126
 123   2.0000      -0.886357       -24.1190
 124   2.0000      -0.878769       -23.9125
 125   2.0000      -0.875384       -23.8204
 126   2.0000      -0.866509       -23.5789
 127   2.0000      -0.861994       -23.4561
 128   2.0000      -0.858336       -23.3565
 129   2.0000      -0.855152       -23.2699
 130   2.0000      -0.850721       -23.1493
 131   2.0000      -0.843815       -22.9614
 132   2.0000      -0.841611       -22.9014
 133   2.0000      -0.837797       -22.7976
 134   2.0000      -0.829786       -22.5796
 135   2.0000      -0.821353       -22.3502
 136   2.0000      -0.818270       -22.2663
 137   2.0000      -0.811827       -22.0909
 138   2.0000      -0.799667       -21.7601
 139   2.0000      -0.794100       -21.6086
 140   2.0000      -0.776217       -21.1219
 141   2.0000      -0.771590       -20.9960
 142   2.0000      -0.758694       -20.6451
 143   2.0000      -0.745363       -20.2824
 144   2.0000      -0.730143       -19.8682
 145   2.0000      -0.723509       -19.6877
 146   2.0000      -0.717253       -19.5175
 147   2.0000      -0.710640       -19.3375
 148   2.0000      -0.702967       -19.1287
 149   2.0000      -0.699653       -19.0385
 150   2.0000      -0.692204       -18.8358
 151   2.0000      -0.686764       -18.6878
 152   2.0000      -0.680466       -18.5164
 153   2.0000      -0.667366       -18.1599
 154   2.0000      -0.664394       -18.0791
 155   2.0000      -0.656368       -17.8607
 156   2.0000      -0.653529       -17.7834
 157   2.0000      -0.643760       -17.5176
 158   2.0000      -0.636459       -17.3189
 159   2.0000      -0.631627       -17.1874
 160   2.0000      -0.627551       -17.0765
 161   2.0000      -0.626070       -17.0362
 162   2.0000      -0.623438       -16.9646
 163   2.0000      -0.620780       -16.8923
 164   2.0000      -0.609164       -16.5762
 165   2.0000      -0.607675       -16.5357
 166   2.0000      -0.601375       -16.3643
 167   2.0000      -0.598934       -16.2978
 168   2.0000      -0.598299       -16.2806
 169   2.0000      -0.592682       -16.1277
 170   2.0000      -0.590756       -16.0753
 171   2.0000      -0.588019       -16.0008
 172   2.0000      -0.577472       -15.7138
 173   2.0000      -0.575742       -15.6667
 174   2.0000      -0.567074       -15.4309
 175   2.0000      -0.564677       -15.3656
 176   2.0000      -0.562612       -15.3094
 177   2.0000      -0.557814       -15.1789
 178   2.0000      -0.553045       -15.0491
 179   2.0000      -0.542753       -14.7691
 180   2.0000      -0.532391       -14.4871
 181   2.0000      -0.530757       -14.4426
 182   2.0000      -0.526652       -14.3309
 183   2.0000      -0.525627       -14.3030
 184   2.0000      -0.517076       -14.0703
 185   2.0000      -0.512249       -13.9390
 186   2.0000      -0.511476       -13.9180
 187   2.0000      -0.510213       -13.8836
 188   2.0000      -0.508290       -13.8313
 189   2.0000      -0.505142       -13.7456
 190   2.0000      -0.502549       -13.6750
 191   2.0000      -0.501693       -13.6517
 192   2.0000      -0.501003       -13.6330
 193   2.0000      -0.497788       -13.5455
 194   2.0000      -0.497296       -13.5321
 195   2.0000      -0.495797       -13.4913
 196   2.0000      -0.493171       -13.4199
 197   2.0000      -0.489745       -13.3266
 198   2.0000      -0.487639       -13.2693
 199   2.0000      -0.484666       -13.1884
 200   2.0000      -0.483230       -13.1494
 201   2.0000      -0.479115       -13.0374
 202   2.0000      -0.478842       -13.0299
 203   2.0000      -0.475970       -12.9518
 204   2.0000      -0.474270       -12.9055
 205   2.0000      -0.473315       -12.8795
 206   2.0000      -0.472412       -12.8550
 207   2.0000      -0.463341       -12.6081
 208   2.0000      -0.462355       -12.5813
 209   2.0000      -0.461437       -12.5563
 210   2.0000      -0.458290       -12.4707
 211   2.0000      -0.456938       -12.4339
 212   2.0000      -0.454051       -12.3553
 213   2.0000      -0.452580       -12.3153
 214   2.0000      -0.450590       -12.2612
 215   2.0000      -0.443329       -12.0636
 216   2.0000      -0.439987       -11.9727
 217   2.0000      -0.437363       -11.9013
 218   2.0000      -0.434716       -11.8292
 219   2.0000      -0.429741       -11.6938
 220   2.0000      -0.428707       -11.6657
 221   2.0000      -0.425907       -11.5895
 222   2.0000      -0.421456       -11.4684
 223   2.0000      -0.420430       -11.4405
 224   2.0000      -0.417661       -11.3651
 225   2.0000      -0.415535       -11.3073
 226   2.0000      -0.410998       -11.1838
 227   2.0000      -0.408833       -11.1249
 228   2.0000      -0.405319       -11.0293
 229   2.0000      -0.404625       -11.0104
 230   2.0000      -0.395744       -10.7687
 231   2.0000      -0.394312       -10.7298
 232   2.0000      -0.392049       -10.6682
 233   2.0000      -0.388481       -10.5711
 234   2.0000      -0.384122       -10.4525
 235   2.0000      -0.372911       -10.1474
 236   2.0000      -0.372334       -10.1317
 237   2.0000      -0.361003        -9.8234
 238   2.0000      -0.354489        -9.6461
 239   2.0000      -0.354314        -9.6414
 240   2.0000      -0.349172        -9.5015
 241   2.0000      -0.341165        -9.2836
 242   2.0000      -0.336520        -9.1572
 243   2.0000      -0.333234        -9.0678
 244   2.0000      -0.326097        -8.8735
 245   2.0000      -0.318977        -8.6798
 246   2.0000      -0.314469        -8.5571
 247   2.0000      -0.301250        -8.1974
 248   2.0000      -0.298312        -8.1175
 249   2.0000      -0.294769        -8.0211
 250   2.0000      -0.292818        -7.9680
 251   2.0000      -0.286256        -7.7894
 252   2.0000      -0.269424        -7.3314
 253   2.0000      -0.262667        -7.1475
 254   2.0000      -0.234659        -6.3854
 255   2.0000      -0.189678        -5.1614
 256   0.0000      -0.123330        -3.3560
 257   0.0000      -0.071720        -1.9516
 258   0.0000      -0.043560        -1.1853
 259   0.0000      -0.030291        -0.8243
 260   0.0000      -0.013736        -0.3738

MULLIKEN ATOMIC CHARGES
-----------------------
   0 C :    0.328352
   1 C :   -0.376427
   2 C :   -0.193537
   3 N :    0.123377
   4 C :   -0.193303
   5 N :    0.118774
   6 C :    0.014460
   7 C :   -0.003492
   8 C :   -0.086423
   9 C :    0.118915
  10 C :   -0.091954
  11 C :   -0.033060
  12 S :    0.169405
  13 C :   -0.122732
  14 C :    0.033277
  15 Br:    0.002535
  16 C :    0.130442
  17 O :   -0.176212
  18 C :   -0.099980
  19 C :   -0.042599
  20 C :   -0.025973
  21 C :    0.003587
  22 C :    0.013646
  23 C :    0.032064
  24 C :   -0.054541
  25 S :    0.108265
  26 C :   -0.021175
  27 C :    0.003249
  28 C :    0.037172
  29 C :   -0.047490
  30 S :    0.116427
  31 C :    0.020809
  32 C :   -0.022206
  33 C :   -0.014221
  34 C :    0.018639
  35 C :    0.027273
  36 C :   -0.057894
  37 S :    0.096422
  38 C :   -0.026749
  39 C :    0.020098
  40 C :    0.028997
  41 C :   -0.014800
  42 S :    0.135212
  43 C :   -0.063911
  44 C :    0.176853
  45 C :    0.201941
  46 O :   -0.244777
  47 C :    0.212584
  48 C :    0.228987
  49 C :   -0.170534
  50 S :    0.121913
  51 C :   -0.165435
  52 O :   -0.282230
  53 C :   -0.099152
  54 C :    0.091538
  55 C :   -0.189004
  56 S :    0.112996
  57 C :   -0.194498
  58 C :    0.244968
  59 C :    0.160639
  60 O :   -0.314635
  61 C :    0.392645
  62 O :   -0.297621
  63 H :   -0.019721
  64 H :   -0.013275
  65 H :   -0.009778
  66 H :    0.008088
  67 H :    0.009437
  68 H :   -0.009513
  69 H :   -0.013674
  70 H :   -0.013105
  71 H :   -0.012059
  72 H :   -0.004742
  73 H :    0.007559
  74 H :   -0.000661
  75 H :   -0.007532
  76 H :   -0.008735
  77 H :   -0.007894
  78 H :   -0.002752
  79 H :    0.030358
  80 H :    0.028664
  81 H :    0.010331
  82 H :   -0.004286
  83 H :    0.033809
  84 H :    0.039351
  85 H :    0.040237
Sum of atomic charges:   -0.0000000

LOEWDIN ATOMIC CHARGES
----------------------
   0 C :    0.070087
   1 C :   -0.172076
   2 C :   -0.019624
   3 N :   -0.085262
   4 C :   -0.020853
   5 N :   -0.082729
   6 C :   -0.014796
   7 C :   -0.046405
   8 C :    0.011642
   9 C :   -0.039864
  10 C :   -0.147764
  11 C :   -0.018577
  12 S :    0.420187
  13 C :   -0.279046
  14 C :   -0.071659
  15 Br:    0.120741
  16 C :    0.078687
  17 O :   -0.168933
  18 C :   -0.121694
  19 C :    0.036845
  20 C :   -0.078520
  21 C :   -0.110199
  22 C :   -0.057236
  23 C :   -0.017916
  24 C :   -0.205064
  25 S :    0.419242
  26 C :   -0.147064
  27 C :   -0.056104
  28 C :   -0.022309
  29 C :   -0.172213
  30 S :    0.417134
  31 C :   -0.022820
  32 C :   -0.074792
  33 C :   -0.127202
  34 C :   -0.045898
  35 C :   -0.020513
  36 C :   -0.192458
  37 S :    0.396289
  38 C :   -0.162353
  39 C :   -0.039747
  40 C :   -0.022146
  41 C :   -0.155164
  42 S :    0.420631
  43 C :   -0.042125
  44 C :    0.012826
  45 C :    0.051522
  46 O :   -0.039892
  47 C :   -0.010839
  48 C :   -0.007623
  49 C :   -0.205891
  50 S :    0.448172
  51 C :   -0.205997
  52 O :   -0.060957
  53 C :   -0.052087
  54 C :   -0.007441
  55 C :   -0.208916
  56 S :    0.422273
  57 C :   -0.209080
  58 C :   -0.006256
  59 C :    0.004351
  60 O :   -0.105675
  61 C :    0.202416
  62 O :   -0.104713
  63 H :    0.036614
  64 H :    0.038729
  65 H :    0.035910
  66 H :    0.029040
  67 H :    0.036054
  68 H :    0.034745
  69 H :    0.031504
  70 H :    0.031528
  71 H :    0.033679
  72 H :    0.030153
  73 H :    0.032846
  74 H :    0.038164
  75 H :    0.034172
  76 H :    0.033291
  77 H :    0.034742
  78 H :    0.043354
  79 H :    0.031755
  80 H :    0.031110
  81 H :    0.033490
  82 H :    0.034647
  83 H :    0.032026
  84 H :    0.017722
  85 H :    0.018171

  Mayer bond orders larger than 0.100000
B(  0-C ,  1-C ) :   1.5426 B(  0-C ,  6-C ) :   0.9791 B(  0-C , 18-C ) :   1.1576
B(  1-C ,  2-C ) :   1.1563 B(  1-C ,  4-C ) :   1.1611 B(  2-C ,  3-N ) :   2.9557
B(  4-C ,  5-N ) :   2.9528 B(  6-C ,  7-C ) :   1.2816 B(  6-C , 11-C ) :   1.4284
B(  7-C ,  8-C ) :   1.4369 B(  7-C , 16-C ) :   0.9295 B(  8-C ,  9-C ) :   1.2316
B(  8-C , 63-H ) :   1.0163 B(  9-C , 10-C ) :   1.3260 B(  9-C , 14-C ) :   1.1587
B( 10-C , 11-C ) :   1.3114 B( 10-C , 12-S ) :   1.0790 B( 11-C , 64-H ) :   0.9798
B( 12-S , 13-C ) :   1.0836 B( 13-C , 14-C ) :   1.6208 B( 13-C , 15-Br) :   1.0062
B( 14-C , 65-H ) :   1.0008 B( 16-C , 17-O ) :   2.1734 B( 16-C , 18-C ) :   0.9846
B( 18-C , 19-C ) :   1.3922 B( 19-C , 20-C ) :   1.3479 B( 19-C , 66-H ) :   0.9443
B( 20-C , 21-C ) :   1.3218 B( 20-C , 67-H ) :   0.9794 B( 21-C , 22-C ) :   1.2523
B( 21-C , 25-S ) :   1.1004 B( 22-C , 23-C ) :   1.4485 B( 22-C , 68-H ) :   1.0029
B( 23-C , 24-C ) :   1.3045 B( 23-C , 69-H ) :   0.9956 B( 24-C , 25-S ) :   1.0632
B( 24-C , 26-C ) :   1.3305 B( 26-C , 27-C ) :   1.3036 B( 26-C , 30-S ) :   1.1067
B( 27-C , 28-C ) :   1.4460 B( 27-C , 70-H ) :   0.9962 B( 28-C , 29-C ) :   1.2716
B( 28-C , 71-H ) :   1.0007 B( 29-C , 30-S ) :   1.0559 B( 29-C , 31-C ) :   1.3872
B( 31-C , 32-C ) :   1.3506 B( 31-C , 72-H ) :   0.9736 B( 32-C , 33-C ) :   1.3800
B( 32-C , 73-H ) :   0.9726 B( 33-C , 34-C ) :   1.2628 B( 33-C , 37-S ) :   1.0823
B( 34-C , 35-C ) :   1.4586 B( 34-C , 74-H ) :   1.0024 B( 35-C , 36-C ) :   1.2919
B( 35-C , 75-H ) :   0.9956 B( 36-C , 37-S ) :   1.0585 B( 36-C , 38-C ) :   1.3736
B( 38-C , 39-C ) :   1.2514 B( 38-C , 42-S ) :   1.0693 B( 39-C , 40-C ) :   1.5205
B( 39-C , 76-H ) :   0.9968 B( 40-C , 41-C ) :   1.1916 B( 40-C , 77-H ) :   1.0018
B( 41-C , 42-S ) :   1.0460 B( 41-C , 43-C ) :   1.4945 B( 43-C , 44-C ) :   1.2654
B( 43-C , 78-H ) :   0.9575 B( 44-C , 45-C ) :   1.3505 B( 44-C , 52-O ) :   1.0340
B( 45-C , 46-O ) :   1.0895 B( 45-C , 53-C ) :   1.2174 B( 46-O , 47-C ) :   1.0422
B( 47-C , 48-C ) :   1.2132 B( 47-C , 51-C ) :   1.5695 B( 48-C , 49-C ) :   1.5717
B( 48-C , 52-O ) :   1.0261 B( 49-C , 50-S ) :   1.1457 B( 49-C , 79-H ) :   0.9730
B( 50-S , 51-C ) :   1.1497 B( 51-C , 80-H ) :   0.9721 B( 53-C , 54-C ) :   1.6245
B( 53-C , 81-H ) :   0.9488 B( 54-C , 55-C ) :   1.1303 B( 54-C , 82-H ) :   0.9712
B( 55-C , 56-S ) :   1.0793 B( 55-C , 59-C ) :   1.5009 B( 56-S , 57-C ) :   1.1022
B( 57-C , 58-C ) :   1.5556 B( 57-C , 83-H ) :   0.9880 B( 58-C , 59-C ) :   1.2347
B( 58-C , 62-O ) :   1.0784 B( 59-C , 60-O ) :   1.0766 B( 60-O , 61-C ) :   0.9707
B( 61-C , 62-O ) :   0.9967 B( 61-C , 84-H ) :   0.9587 B( 61-C , 85-H ) :   0.9589

-----------------------------------------------------------------------------
         ABSORPTION SPECTRUM VIA TRANSITION ELECTRIC DIPOLE MOMENTS
-----------------------------------------------------------------------------
State   Energy  Wavelength   fosc         T2         TX        TY        TZ
        (cm-1)    (nm)                  (au**2)     (au)      (au)      (au)
-----------------------------------------------------------------------------
   0    3914.6   2554.6   0.740782203  62.29942  -7.12392  -3.39429  -0.16710
   1   11672.7    856.7   0.053152864   1.49911  -1.11473  -0.44348  -0.24454
   2   14660.0    682.1   0.139356443   3.12945   0.06006   1.34394   1.14877
   3   18223.5    548.7   0.010260670   0.18536   0.00827  -0.42958  -0.02747
   4   20037.6    499.1   0.313907624   5.15741  -1.42354   1.75075  -0.25651
   5   21635.3    462.2   0.125973237   1.91686  -1.01218   0.90634  -0.26625
   6   22511.1    444.2   0.329562933   4.81967   2.16016  -0.39140   0.01333
   7   24029.2    416.2   0.123236983   1.68841   0.35034   1.24358  -0.13853
   8   24175.4    413.6   0.087764447   1.19515   0.53194  -0.95493   0.01699
   9   24801.6    403.2   0.121345276   1.61071   1.17944   0.37107   0.28627
  10   25638.5    390.0   0.000635125   0.00816  -0.08684   0.00044  -0.02479
  11   25680.6    389.4   0.149508386   1.91662   1.34344   0.08105   0.32440
  12   26625.2    375.6   0.016526932   0.20435   0.36720   0.26102   0.03715
  13   27174.1    368.0   0.262293108   3.17766  -0.88698   1.53460   0.18956
  14   28022.4    356.9   0.063855077   0.75018   0.81767  -0.27496   0.07742
  15   28260.1    353.9   0.011493499   0.13389  -0.17355  -0.24135   0.21337
  16   29368.1    340.5   0.031159845   0.34930   0.10354  -0.58123   0.02731
  17   29616.7    337.6   0.235971612   2.62300   0.83534   1.37886   0.15480
  18   29858.3    334.9   0.030985385   0.34164  -0.41939  -0.40706   0.00723
  19   30561.5    327.2   0.009171950   0.09880  -0.20350  -0.23829   0.02465
  20   31326.1    319.2   0.039079163   0.41069  -0.33831   0.52882   0.12877
  21   31395.0    318.5   0.000110023   0.00115  -0.02128  -0.01158   0.02381
  22   31679.4    315.7   0.480873913   4.99723   2.20990  -0.03879  -0.33477
  23   31973.8    312.8   0.008901765   0.09166  -0.04235  -0.28887   0.08010
  24   32331.9    309.3   0.035868883   0.36523   0.55742   0.18713  -0.13961
  25   32409.7    308.5   0.019053534   0.19354  -0.30327  -0.29263   0.12625
  26   32573.9    307.0   0.008170976   0.08258  -0.24520   0.14208   0.04769
  27   32817.2    304.7   0.019675916   0.19738   0.12066  -0.40495  -0.13726
  28   33839.1    295.5   0.043677925   0.42493  -0.62396  -0.16180   0.09711
  29   34131.5    293.0   0.093215490   0.89910   0.04834   0.94400  -0.07496
  30   34675.4    288.4   0.001268836   0.01205   0.03124  -0.10386  -0.01688
  31   35566.8    281.2   0.245645635   2.27374  -0.44102  -1.44083   0.05709
  32   35597.5    280.9   0.007859555   0.07269   0.23737  -0.01984  -0.12628
  33   35680.0    280.3   0.012651632   0.11673  -0.13399  -0.31400   0.01351
  34   35934.3    278.3   0.202757839   1.85756   0.93367   0.98163  -0.14913
  35   36567.2    273.5   0.033224586   0.29912  -0.35856  -0.41190  -0.02987
  36   36763.1    272.0   0.066432786   0.59490   0.33909  -0.68779  -0.08288
  37   37517.1    266.5   0.061064049   0.53584   0.02494   0.69682  -0.22285
  38   37767.3    264.8   0.222313689   1.93787  -1.05277  -0.87974  -0.23583
  39   38435.3    260.2   0.000387709   0.00332  -0.02315  -0.04628  -0.02536
  40   38953.4    256.7   0.011703692   0.09891   0.02225   0.29317  -0.11166
  41   39140.3    255.5   0.018609459   0.15653   0.16155  -0.34173  -0.11683
  42   39703.7    251.9   0.031876009   0.26431   0.50880   0.01255   0.07262
  43   39948.9    250.3   0.164625138   1.35665  -0.26316   1.13462   0.00577
  44   40156.4    249.0   0.007230894   0.05928   0.20389   0.12388   0.04864

FINAL SINGLE POINT ENERGY     -7685.925976372358

DIPOLE MOMENT
-------------
                                X             Y             Z
Electronic contribution:    200.56124      49.20073     -14.72670
Nuclear contribution   :   -210.27321     -51.78197      14.66727
                        -----------------------------------------
Total Dipole Moment    :     -9.71196      -2.58124      -0.05943
                        -----------------------------------------
Magnitude (a.u.)       :     10.04931
Magnitude (Debye)      :     25.54331

Rotational constants in cm-1:     0.002417     0.000145     0.000139
Rotational constants in MHz :    72.473445     4.356935     4.153238

                             ****ORCA TERMINATED NORMALLY****
TOTAL RUN TIME: 0 days 0 hours 8 minutes 50 seconds 690 msec
