                         Program Version 4.2.0 -  RELEASE  -
|  1> # ORCA input file
|  2> # SCF done       -172.208019621770          0.000917144412
|  3> ! CAM-B3LYP def2-SVP def2/J RIJCOSX Grid4 TightSCF
|  4> %maxcore 5000
|  5> %tddft
|  6>     Mode sTDDFT
|  7>     Ethresh 5.0
|  8>     maxcore 5000
|  9> end
| 10>
| 11> %pal
| 12>   nprocs 6
| 13>   end
| 14> * xyz 0 1
| 15>    C      -20.25352        -7.31664        -4.35723
| 16>    C      -19.07481        -8.02615        -4.42525
| 17>    C      -18.98964        -9.38309        -4.79051
| 18>    N      -18.84934       -10.48733        -5.07656
| 19>    C      -17.78909        -7.51756        -4.15726
| 20>    N      -16.70302        -7.19067        -3.96935
| 21>    C      -21.57666        -7.86084        -4.66177
| 22>    C      -22.53397        -6.82782        -4.51955
| 23>    C      -23.87580        -7.02693        -4.72703
| 24>    C      -24.29681        -8.31142        -5.09076
| 25>    C      -23.33391        -9.33599        -5.23170
| 26>    C      -21.97419        -9.13300        -5.02396
| 27>    S      -24.06835       -10.84642        -5.68159
| 28>    C      -25.63863       -10.08841        -5.67183
| 29>    C      -25.61670        -8.77389        -5.35057
| 30>   Br      -27.15991       -11.10620        -6.08604
| 31>    C      -21.84678        -5.58188        -4.11197
| 32>    O      -22.37623        -4.50444        -3.91340
| 33>    C      -20.42216        -5.93564        -3.99334
| 34>    C      -19.43558        -5.07854        -3.54075
| 35>    C      -19.62980        -3.75594        -3.16559
| 36>    C      -18.62263        -2.98300        -2.61335
| 37>    C      -18.73195        -1.65887        -2.13637
| 38>    C      -17.59297        -1.17911        -1.55325
| 39>    C      -16.52913        -2.10224        -1.55095
| 40>    S      -17.00561        -3.58829        -2.34245
| 41>    C      -15.28024        -1.98369        -0.96212
| 42>    C      -14.79009        -0.94095        -0.14471
| 43>    C      -13.56741        -1.19866         0.39777
| 44>    C      -13.01712        -2.45266         0.02832
| 45>    S      -14.10503        -3.26565        -1.08724
| 46>    C      -11.88362        -3.02507         0.54414
| 47>    C      -11.35156        -4.27956         0.17999
| 48>    C      -11.50773        -4.99146        -0.98785
| 49>    C      -10.84944        -6.23481        -0.98786
| 50>    C      -10.19842        -6.50062         0.25152
| 51>    S      -10.34306        -5.14681         1.33711
| 52>    C       -9.57069        -7.69374         0.51348
| 53>    C       -9.54353        -8.65592        -0.50183
| 54>    C      -10.11278        -8.35173        -1.77280
| 55>    C      -10.77576        -7.17574        -2.02166
| 56>    S       -9.86385        -9.65757        -2.89790
| 57>    C       -9.08732       -10.63215        -1.65289
| 58>    C       -8.99880        -9.95299        -0.45951
| 59>    C       -8.65151       -11.93487        -1.97770
| 60>    C       -8.46116       -12.96585        -1.09598
| 61>    C       -7.99531       -14.26692        -1.41918
| 62>    C       -8.02122       -15.14782        -0.38161
| 63>    C       -8.53050       -14.60263         0.81767
| 64>    S       -8.89997       -12.90566         0.60351
| 65>    C       -8.80045       -15.25493         2.00632
| 66>    C       -8.52297       -16.59341         2.35598
| 67>    C       -8.99107       -16.94849         3.58550
| 68>    C       -9.68161       -15.91944         4.27208
| 69>    S       -9.65997       -14.45715         3.30492
| 70>    C      -10.31128       -16.06814         5.48620
| 71>    C      -11.08892       -15.13540         6.18304
| 72>    S      -11.86175       -15.65500         7.68308
| 73>    C      -12.60487       -14.12631         7.86508
| 74>    C      -12.26285       -13.25701         6.82549
| 75>    C      -11.41684       -13.80854         5.88279
| 76>    C      -12.96601       -11.97499         7.08509
| 77>    O      -12.93628       -10.95663         6.43971
| 78>    C      -13.73656       -12.21961         8.35551
| 79>    C      -13.49309       -13.49654         8.78301
| 80>    C      -14.56047       -11.19046         8.91673
| 81>    C      -15.30256       -11.29980        10.02065
| 82>    H      -24.58115        -6.21925        -4.60905
| 83>    H      -21.28140        -9.94918        -5.14155
| 84>    H      -26.49303        -8.15395        -5.29680
| 85>    H      -18.43048        -5.46974        -3.43836
| 86>    H      -20.61023        -3.31514        -3.27179
| 87>    H      -19.65122        -1.10747        -2.22303
| 88>    H      -17.49883        -0.19688        -1.12575
| 89>    H      -15.36251        -0.05122         0.04630
| 90>    H      -13.04614        -0.53651         1.06636
| 91>    H      -11.39115        -2.50096         1.35282
| 92>    H      -12.04488        -4.61786        -1.84049
| 93>    H       -9.11478        -7.89522         1.46951
| 94>    H      -11.23587        -6.97561        -2.97585
| 95>    H       -8.51699       -10.35454         0.41320
| 96>    H       -8.50761       -12.15367        -3.02749
| 97>    H       -7.66590       -14.50749        -2.41447
| 98>    H       -7.72195       -16.17798        -0.45464
| 99>    H       -7.98892       -17.25435         1.69734
|100>    H       -8.87860       -17.92724         4.01771
|101>    H      -10.22255       -17.04539         5.94433
|102>    H      -11.05259       -13.28905         5.01662
|103>    H      -13.89670       -13.96817         9.66019
|104>    H      -14.55225       -10.26413         8.35583
|105>    H      -15.34053       -12.20920        10.59602
|106>    H      -15.90319       -10.48123        10.37616
|107> *
|108>
|109>                          ****END OF INPUT****

CARTESIAN COORDINATES (ANGSTROEM)
---------------------------------
  C    -20.253520   -7.316640   -4.357230
  C    -19.074810   -8.026150   -4.425250
  C    -18.989640   -9.383090   -4.790510
  N    -18.849340  -10.487330   -5.076560
  C    -17.789090   -7.517560   -4.157260
  N    -16.703020   -7.190670   -3.969350
  C    -21.576660   -7.860840   -4.661770
  C    -22.533970   -6.827820   -4.519550
  C    -23.875800   -7.026930   -4.727030
  C    -24.296810   -8.311420   -5.090760
  C    -23.333910   -9.335990   -5.231700
  C    -21.974190   -9.133000   -5.023960
  S    -24.068350  -10.846420   -5.681590
  C    -25.638630  -10.088410   -5.671830
  C    -25.616700   -8.773890   -5.350570
  Br   -27.159910  -11.106200   -6.086040
  C    -21.846780   -5.581880   -4.111970
  O    -22.376230   -4.504440   -3.913400
  C    -20.422160   -5.935640   -3.993340
  C    -19.435580   -5.078540   -3.540750
  C    -19.629800   -3.755940   -3.165590
  C    -18.622630   -2.983000   -2.613350
  C    -18.731950   -1.658870   -2.136370
  C    -17.592970   -1.179110   -1.553250
  C    -16.529130   -2.102240   -1.550950
  S    -17.005610   -3.588290   -2.342450
  C    -15.280240   -1.983690   -0.962120
  C    -14.790090   -0.940950   -0.144710
  C    -13.567410   -1.198660    0.397770
  C    -13.017120   -2.452660    0.028320
  S    -14.105030   -3.265650   -1.087240
  C    -11.883620   -3.025070    0.544140
  C    -11.351560   -4.279560    0.179990
  C    -11.507730   -4.991460   -0.987850
  C    -10.849440   -6.234810   -0.987860
  C    -10.198420   -6.500620    0.251520
  S    -10.343060   -5.146810    1.337110
  C     -9.570690   -7.693740    0.513480
  C     -9.543530   -8.655920   -0.501830
  C    -10.112780   -8.351730   -1.772800
  C    -10.775760   -7.175740   -2.021660
  S     -9.863850   -9.657570   -2.897900
  C     -9.087320  -10.632150   -1.652890
  C     -8.998800   -9.952990   -0.459510
  C     -8.651510  -11.934870   -1.977700
  C     -8.461160  -12.965850   -1.095980
  C     -7.995310  -14.266920   -1.419180
  C     -8.021220  -15.147820   -0.381610
  C     -8.530500  -14.602630    0.817670
  S     -8.899970  -12.905660    0.603510
  C     -8.800450  -15.254930    2.006320
  C     -8.522970  -16.593410    2.355980
  C     -8.991070  -16.948490    3.585500
  C     -9.681610  -15.919440    4.272080
  S     -9.659970  -14.457150    3.304920
  C    -10.311280  -16.068140    5.486200
  C    -11.088920  -15.135400    6.183040
  S    -11.861750  -15.655000    7.683080
  C    -12.604870  -14.126310    7.865080
  C    -12.262850  -13.257010    6.825490
  C    -11.416840  -13.808540    5.882790
  C    -12.966010  -11.974990    7.085090
  O    -12.936280  -10.956630    6.439710
  C    -13.736560  -12.219610    8.355510
  C    -13.493090  -13.496540    8.783010
  C    -14.560470  -11.190460    8.916730
  C    -15.302560  -11.299800   10.020650
  H    -24.581150   -6.219250   -4.609050
  H    -21.281400   -9.949180   -5.141550
  H    -26.493030   -8.153950   -5.296800
  H    -18.430480   -5.469740   -3.438360
  H    -20.610230   -3.315140   -3.271790
  H    -19.651220   -1.107470   -2.223030
  H    -17.498830   -0.196880   -1.125750
  H    -15.362510   -0.051220    0.046300
  H    -13.046140   -0.536510    1.066360
  H    -11.391150   -2.500960    1.352820
  H    -12.044880   -4.617860   -1.840490
  H     -9.114780   -7.895220    1.469510
  H    -11.235870   -6.975610   -2.975850
  H     -8.516990  -10.354540    0.413200
  H     -8.507610  -12.153670   -3.027490
  H     -7.665900  -14.507490   -2.414470
  H     -7.721950  -16.177980   -0.454640
  H     -7.988920  -17.254350    1.697340
  H     -8.878600  -17.927240    4.017710
  H    -10.222550  -17.045390    5.944330
  H    -11.052590  -13.289050    5.016620
  H    -13.896700  -13.968170    9.660190
  H    -14.552250  -10.264130    8.355830
  H    -15.340530  -12.209200   10.596020
  H    -15.903190  -10.481230   10.376160

 Total Charge           Charge          ....    0
 Multiplicity           Mult            ....    1
 Number of Electrons    NEL             ....  542
 Basis Dimension        Dim             .... 1113

ORBITAL ENERGIES
----------------

  NO   OCC          E(Eh)            E(eV)
   0   2.0000    -482.874237    -13139.6760
   1   2.0000     -88.970157     -2421.0011
   2   2.0000     -88.961231     -2420.7582
   3   2.0000     -88.960040     -2420.7258
   4   2.0000     -88.954022     -2420.5620
   5   2.0000     -88.947605     -2420.3874
   6   2.0000     -88.947162     -2420.3753
   7   2.0000     -88.944801     -2420.3111
   8   2.0000     -88.940922     -2420.2055
   9   2.0000     -62.551943     -1702.1249
  10   2.0000     -56.385880     -1534.3378
  11   2.0000     -56.383191     -1534.2646
  12   2.0000     -56.383153     -1534.2636
  13   2.0000     -19.221434      -523.0418
  14   2.0000     -19.195172      -522.3272
  15   2.0000     -14.395886      -391.7320
  16   2.0000     -14.393654      -391.6712
  17   2.0000     -10.362140      -281.9682
  18   2.0000     -10.345506      -281.5155
  19   2.0000     -10.344988      -281.5014
  20   2.0000     -10.331837      -281.1436
  21   2.0000     -10.322362      -280.8858
  22   2.0000     -10.320237      -280.8279
  23   2.0000     -10.319040      -280.7954
  24   2.0000     -10.317372      -280.7500
  25   2.0000     -10.316811      -280.7347
  26   2.0000     -10.311837      -280.5994
  27   2.0000     -10.309462      -280.5347
  28   2.0000     -10.309338      -280.5314
  29   2.0000     -10.309212      -280.5279
  30   2.0000     -10.308869      -280.5186
  31   2.0000     -10.308849      -280.5181
  32   2.0000     -10.308723      -280.5146
  33   2.0000     -10.306250      -280.4473
  34   2.0000     -10.305787      -280.4347
  35   2.0000     -10.303745      -280.3791
  36   2.0000     -10.302905      -280.3563
  37   2.0000     -10.302040      -280.3328
  38   2.0000     -10.299970      -280.2764
  39   2.0000     -10.299838      -280.2728
  40   2.0000     -10.299638      -280.2674
  41   2.0000     -10.298211      -280.2286
  42   2.0000     -10.297959      -280.2217
  43   2.0000     -10.296207      -280.1740
  44   2.0000     -10.292880      -280.0835
  45   2.0000     -10.291189      -280.0375
  46   2.0000     -10.289661      -279.9959
  47   2.0000     -10.289499      -279.9915
  48   2.0000     -10.288557      -279.9659
  49   2.0000     -10.288276      -279.9582
  50   2.0000     -10.287575      -279.9391
  51   2.0000     -10.286843      -279.9192
  52   2.0000     -10.286320      -279.9050
  53   2.0000     -10.284384      -279.8523
  54   2.0000     -10.284196      -279.8472
  55   2.0000     -10.283834      -279.8373
  56   2.0000     -10.283467      -279.8274
  57   2.0000     -10.282513      -279.8014
  58   2.0000     -10.281057      -279.7618
  59   2.0000     -10.280698      -279.7520
  60   2.0000     -10.280308      -279.7414
  61   2.0000     -10.279406      -279.7169
  62   2.0000     -10.278309      -279.6870
  63   2.0000     -10.276262      -279.6313
  64   2.0000     -10.273441      -279.5545
  65   2.0000     -10.271235      -279.4945
  66   2.0000     -10.271054      -279.4896
  67   2.0000     -10.270811      -279.4830
  68   2.0000     -10.268624      -279.4235
  69   2.0000     -10.267807      -279.4012
  70   2.0000     -10.264825      -279.3201
  71   2.0000      -8.781358      -238.9529
  72   2.0000      -8.065202      -219.4653
  73   2.0000      -8.057246      -219.2488
  74   2.0000      -8.056014      -219.2153
  75   2.0000      -8.050086      -219.0540
  76   2.0000      -8.043490      -218.8745
  77   2.0000      -8.043151      -218.8653
  78   2.0000      -8.040865      -218.8031
  79   2.0000      -8.037056      -218.6994
  80   2.0000      -6.617604      -180.0742
  81   2.0000      -6.603107      -179.6797
  82   2.0000      -6.602942      -179.6752
  83   2.0000      -6.034292      -164.2014
  84   2.0000      -6.030385      -164.0951
  85   2.0000      -6.027606      -164.0195
  86   2.0000      -6.026928      -164.0010
  87   2.0000      -6.025742      -163.9688
  88   2.0000      -6.022689      -163.8857
  89   2.0000      -6.021533      -163.8543
  90   2.0000      -6.019695      -163.8042
  91   2.0000      -6.018461      -163.7707
  92   2.0000      -6.017068      -163.7327
  93   2.0000      -6.015621      -163.6934
  94   2.0000      -6.013269      -163.6294
  95   2.0000      -6.012771      -163.6158
  96   2.0000      -6.011261      -163.5747
  97   2.0000      -6.010658      -163.5583
  98   2.0000      -6.009133      -163.5168
  99   2.0000      -6.008869      -163.5096
 100   2.0000      -6.006668      -163.4498
 101   2.0000      -6.006501      -163.4452
 102   2.0000      -6.004459      -163.3896
 103   2.0000      -6.004288      -163.3850
 104   2.0000      -6.002751      -163.3431
 105   2.0000      -6.001760      -163.3162
 106   2.0000      -5.998170      -163.2185
 107   2.0000      -2.733472       -74.3815
 108   2.0000      -2.729420       -74.2713
 109   2.0000      -2.729289       -74.2677
 110   2.0000      -2.717778       -73.9545
 111   2.0000      -2.717762       -73.9541
 112   2.0000      -1.131320       -30.7848
 113   2.0000      -1.108229       -30.1564
 114   2.0000      -1.009356       -27.4660
 115   2.0000      -1.005528       -27.3618
 116   2.0000      -1.002213       -27.2716
 117   2.0000      -0.997156       -27.1340
 118   2.0000      -0.994695       -27.0670
 119   2.0000      -0.994384       -27.0586
 120   2.0000      -0.985604       -26.8196
 121   2.0000      -0.976101       -26.5611
 122   2.0000      -0.973949       -26.5025
 123   2.0000      -0.970218       -26.4010
 124   2.0000      -0.968537       -26.3552
 125   2.0000      -0.937610       -25.5137
 126   2.0000      -0.926856       -25.2210
 127   2.0000      -0.918830       -25.0026
 128   2.0000      -0.903852       -24.5951
 129   2.0000      -0.892948       -24.2983
 130   2.0000      -0.890709       -24.2374
 131   2.0000      -0.883345       -24.0370
 132   2.0000      -0.872194       -23.7336
 133   2.0000      -0.869670       -23.6649
 134   2.0000      -0.868942       -23.6451
 135   2.0000      -0.862601       -23.4726
 136   2.0000      -0.859029       -23.3754
 137   2.0000      -0.853912       -23.2361
 138   2.0000      -0.848468       -23.0880
 139   2.0000      -0.840179       -22.8624
 140   2.0000      -0.834146       -22.6983
 141   2.0000      -0.832196       -22.6452
 142   2.0000      -0.826026       -22.4773
 143   2.0000      -0.822200       -22.3732
 144   2.0000      -0.815093       -22.1798
 145   2.0000      -0.812662       -22.1136
 146   2.0000      -0.799679       -21.7604
 147   2.0000      -0.783441       -21.3185
 148   2.0000      -0.774759       -21.0823
 149   2.0000      -0.767455       -20.8835
 150   2.0000      -0.753349       -20.4997
 151   2.0000      -0.748584       -20.3700
 152   2.0000      -0.740525       -20.1507
 153   2.0000      -0.735713       -20.0198
 154   2.0000      -0.722088       -19.6490
 155   2.0000      -0.704981       -19.1835
 156   2.0000      -0.694352       -18.8943
 157   2.0000      -0.683703       -18.6045
 158   2.0000      -0.679588       -18.4925
 159   2.0000      -0.673722       -18.3329
 160   2.0000      -0.672790       -18.3075
 161   2.0000      -0.666300       -18.1310
 162   2.0000      -0.658621       -17.9220
 163   2.0000      -0.654213       -17.8021
 164   2.0000      -0.649717       -17.6797
 165   2.0000      -0.642721       -17.4893
 166   2.0000      -0.640798       -17.4370
 167   2.0000      -0.633777       -17.2459
 168   2.0000      -0.630147       -17.1472
 169   2.0000      -0.628119       -17.0920
 170   2.0000      -0.627314       -17.0701
 171   2.0000      -0.619962       -16.8700
 172   2.0000      -0.615196       -16.7403
 173   2.0000      -0.610296       -16.6070
 174   2.0000      -0.608926       -16.5697
 175   2.0000      -0.605884       -16.4869
 176   2.0000      -0.596752       -16.2384
 177   2.0000      -0.589401       -16.0384
 178   2.0000      -0.582948       -15.8628
 179   2.0000      -0.579495       -15.7689
 180   2.0000      -0.577435       -15.7128
 181   2.0000      -0.564254       -15.3541
 182   2.0000      -0.563563       -15.3353
 183   2.0000      -0.561448       -15.2778
 184   2.0000      -0.556486       -15.1427
 185   2.0000      -0.549988       -14.9659
 186   2.0000      -0.545138       -14.8340
 187   2.0000      -0.534662       -14.5489
 188   2.0000      -0.532558       -14.4916
 189   2.0000      -0.527820       -14.3627
 190   2.0000      -0.525724       -14.3057
 191   2.0000      -0.521433       -14.1889
 192   2.0000      -0.520931       -14.1753
 193   2.0000      -0.519722       -14.1424
 194   2.0000      -0.518680       -14.1140
 195   2.0000      -0.516545       -14.0559
 196   2.0000      -0.512879       -13.9562
 197   2.0000      -0.511696       -13.9239
 198   2.0000      -0.508068       -13.8252
 199   2.0000      -0.505532       -13.7562
 200   2.0000      -0.503068       -13.6892
 201   2.0000      -0.502339       -13.6693
 202   2.0000      -0.501400       -13.6438
 203   2.0000      -0.496234       -13.5032
 204   2.0000      -0.494359       -13.4522
 205   2.0000      -0.493328       -13.4241
 206   2.0000      -0.492620       -13.4049
 207   2.0000      -0.489561       -13.3216
 208   2.0000      -0.487875       -13.2757
 209   2.0000      -0.481200       -13.0941
 210   2.0000      -0.479189       -13.0394
 211   2.0000      -0.478142       -13.0109
 212   2.0000      -0.477043       -12.9810
 213   2.0000      -0.475875       -12.9492
 214   2.0000      -0.474299       -12.9063
 215   2.0000      -0.472696       -12.8627
 216   2.0000      -0.467374       -12.7179
 217   2.0000      -0.466513       -12.6945
 218   2.0000      -0.463311       -12.6073
 219   2.0000      -0.458730       -12.4827
 220   2.0000      -0.454977       -12.3806
 221   2.0000      -0.454844       -12.3769
 222   2.0000      -0.452678       -12.3180
 223   2.0000      -0.449449       -12.2301
 224   2.0000      -0.444161       -12.0862
 225   2.0000      -0.442502       -12.0411
 226   2.0000      -0.438450       -11.9308
 227   2.0000      -0.434185       -11.8148
 228   2.0000      -0.432208       -11.7610
 229   2.0000      -0.431632       -11.7453
 230   2.0000      -0.429927       -11.6989
 231   2.0000      -0.427951       -11.6451
 232   2.0000      -0.426158       -11.5963
 233   2.0000      -0.424978       -11.5642
 234   2.0000      -0.422877       -11.5071
 235   2.0000      -0.422128       -11.4867
 236   2.0000      -0.417344       -11.3565
 237   2.0000      -0.416314       -11.3285
 238   2.0000      -0.413113       -11.2414
 239   2.0000      -0.407510       -11.0889
 240   2.0000      -0.406750       -11.0682
 241   2.0000      -0.404176       -10.9982
 242   2.0000      -0.402615       -10.9557
 243   2.0000      -0.399685       -10.8760
 244   2.0000      -0.397194       -10.8082
 245   2.0000      -0.393355       -10.7037
 246   2.0000      -0.387973       -10.5573
 247   2.0000      -0.383411       -10.4331
 248   2.0000      -0.375081       -10.2065
 249   2.0000      -0.372227       -10.1288
 250   2.0000      -0.364559        -9.9202
 251   2.0000      -0.363878        -9.9016
 252   2.0000      -0.354890        -9.6571
 253   2.0000      -0.348199        -9.4750
 254   2.0000      -0.343034        -9.3344
 255   2.0000      -0.338592        -9.2135
 256   2.0000      -0.333907        -9.0861
 257   2.0000      -0.332690        -9.0530
 258   2.0000      -0.330554        -8.9948
 259   2.0000      -0.328057        -8.9269
 260   2.0000      -0.321324        -8.7437
 261   2.0000      -0.317584        -8.6419
 262   2.0000      -0.315717        -8.5911
 263   2.0000      -0.300952        -8.1893
 264   2.0000      -0.299443        -8.1483
 265   2.0000      -0.283887        -7.7250
 266   2.0000      -0.276882        -7.5343
 267   2.0000      -0.266782        -7.2595
 268   2.0000      -0.253160        -6.8888
 269   2.0000      -0.224003        -6.0954
 270   2.0000      -0.205269        -5.5856
 271   0.0000      -0.106048        -2.8857
 272   0.0000      -0.086089        -2.3426
 273   0.0000      -0.063204        -1.7199
 274   0.0000      -0.053504        -1.4559
 275   0.0000      -0.036739        -0.9997

MULLIKEN ATOMIC CHARGES
-----------------------
   0 C :    0.328650
   1 C :   -0.365891
   2 C :   -0.189672
   3 N :    0.136190
   4 C :   -0.190576
   5 N :    0.129196
   6 C :    0.011966
   7 C :   -0.009561
   8 C :   -0.078404
   9 C :    0.117065
  10 C :   -0.092227
  11 C :   -0.025850
  12 S :    0.177225
  13 C :   -0.122750
  14 C :    0.035911
  15 Br:    0.011633
  16 C :    0.135699
  17 O :   -0.167691
  18 C :   -0.086806
  19 C :   -0.044322
  20 C :   -0.022671
  21 C :    0.004396
  22 C :    0.023464
  23 C :    0.045216
  24 C :   -0.052434
  25 S :    0.107687
  26 C :   -0.034132
  27 C :    0.028466
  28 C :    0.049516
  29 C :   -0.046557
  30 S :    0.108890
  31 C :    0.056122
  32 C :   -0.100927
  33 C :   -0.010736
  34 C :    0.095468
  35 C :   -0.041646
  36 S :    0.110055
  37 C :   -0.052832
  38 C :    0.108865
  39 C :   -0.045965
  40 C :   -0.042393
  41 S :    0.112681
  42 C :   -0.082857
  43 C :   -0.030655
  44 C :    0.022422
  45 C :   -0.027344
  46 C :    0.034446
  47 C :    0.035616
  48 C :   -0.052896
  49 S :    0.081645
  50 C :   -0.032948
  51 C :    0.023173
  52 C :    0.037216
  53 C :   -0.037721
  54 S :    0.062086
  55 C :    0.038932
  56 C :   -0.119778
  57 S :    0.157475
  58 C :   -0.060568
  59 C :   -0.013181
  60 C :   -0.007833
  61 C :    0.157794
  62 O :   -0.111722
  63 C :   -0.053301
  64 C :   -0.021622
  65 C :    0.012983
  66 C :   -0.008317
  67 H :   -0.016229
  68 H :   -0.010212
  69 H :   -0.007167
  70 H :    0.016191
  71 H :    0.014824
  72 H :   -0.001419
  73 H :   -0.006881
  74 H :   -0.007389
  75 H :   -0.001012
  76 H :    0.001576
  77 H :   -0.001335
  78 H :   -0.028745
  79 H :   -0.021550
  80 H :   -0.010220
  81 H :   -0.006960
  82 H :   -0.009885
  83 H :   -0.012373
  84 H :   -0.012207
  85 H :   -0.012463
  86 H :   -0.017192
  87 H :    0.008759
  88 H :   -0.011153
  89 H :    0.002642
  90 H :    0.009717
  91 H :    0.027321
Sum of atomic charges:   -0.0000000

LOEWDIN ATOMIC CHARGES
----------------------
   0 C :    0.072998
   1 C :   -0.158459
   2 C :   -0.018780
   3 N :   -0.071131
   4 C :   -0.021023
   5 N :   -0.069292
   6 C :   -0.017609
   7 C :   -0.048306
   8 C :    0.016180
   9 C :   -0.036743
  10 C :   -0.146030
  11 C :   -0.014187
  12 S :    0.425646
  13 C :   -0.275486
  14 C :   -0.071192
  15 Br:    0.127597
  16 C :    0.081514
  17 O :   -0.161132
  18 C :   -0.110755
  19 C :    0.049309
  20 C :   -0.075450
  21 C :   -0.102524
  22 C :   -0.044435
  23 C :   -0.007655
  24 C :   -0.195207
  25 S :    0.412844
  26 C :   -0.147837
  27 C :   -0.041256
  28 C :   -0.009459
  29 C :   -0.152350
  30 S :    0.413298
  31 C :   -0.037442
  32 C :   -0.168928
  33 C :   -0.042264
  34 C :   -0.047074
  35 C :   -0.147338
  36 S :    0.389256
  37 C :   -0.039697
  38 C :   -0.034043
  39 C :   -0.151265
  40 C :   -0.027636
  41 S :    0.391970
  42 C :   -0.148814
  43 C :   -0.068605
  44 C :   -0.079849
  45 C :   -0.134290
  46 C :   -0.033419
  47 C :   -0.029686
  48 C :   -0.181902
  49 S :    0.386770
  50 C :   -0.173830
  51 C :   -0.040189
  52 C :   -0.028246
  53 C :   -0.150915
  54 S :    0.387236
  55 C :   -0.075327
  56 C :   -0.169518
  57 S :    0.456262
  58 C :   -0.178143
  59 C :   -0.100638
  60 C :   -0.029460
  61 C :    0.098987
  62 O :   -0.101434
  63 C :   -0.062610
  64 C :    0.007744
  65 C :   -0.024643
  66 C :   -0.030423
  67 H :    0.038341
  68 H :    0.039844
  69 H :    0.037159
  70 H :    0.030987
  71 H :    0.038082
  72 H :    0.038055
  73 H :    0.034847
  74 H :    0.034099
  75 H :    0.037816
  76 H :    0.038614
  77 H :    0.024072
  78 H :    0.031974
  79 H :    0.034878
  80 H :    0.020721
  81 H :    0.034518
  82 H :    0.034173
  83 H :    0.032359
  84 H :    0.032116
  85 H :    0.033400
  86 H :    0.033170
  87 H :    0.025915
  88 H :    0.030495
  89 H :    0.035246
  90 H :    0.018618
  91 H :    0.026820

  Mayer bond orders larger than 0.100000
B(  0-C ,  1-C ) :   1.5777 B(  0-C ,  6-C ) :   0.9877 B(  0-C , 18-C ) :   1.1190
B(  1-C ,  2-C ) :   1.1512 B(  1-C ,  4-C ) :   1.1557 B(  2-C ,  3-N ) :   2.9604
B(  4-C ,  5-N ) :   2.9575 B(  6-C ,  7-C ) :   1.2801 B(  6-C , 11-C ) :   1.4211
B(  7-C ,  8-C ) :   1.4304 B(  7-C , 16-C ) :   0.9343 B(  8-C ,  9-C ) :   1.2383
B(  8-C , 67-H ) :   1.0167 B(  9-C , 10-C ) :   1.3189 B(  9-C , 14-C ) :   1.1605
B( 10-C , 11-C ) :   1.3181 B( 10-C , 12-S ) :   1.0822 B( 11-C , 68-H ) :   0.9798
B( 12-S , 13-C ) :   1.0854 B( 13-C , 14-C ) :   1.6193 B( 13-C , 15-Br) :   1.0111
B( 14-C , 69-H ) :   1.0008 B( 16-C , 17-O ) :   2.1856 B( 16-C , 18-C ) :   0.9702
B( 18-C , 19-C ) :   1.4669 B( 19-C , 20-C ) :   1.2715 B( 19-C , 70-H ) :   0.9427
B( 20-C , 21-C ) :   1.4036 B( 20-C , 71-H ) :   0.9792 B( 21-C , 22-C ) :   1.1858
B( 21-C , 25-S ) :   1.0928 B( 22-C , 23-C ) :   1.5340 B( 22-C , 72-H ) :   1.0019
B( 23-C , 24-C ) :   1.2223 B( 23-C , 73-H ) :   0.9948 B( 24-C , 25-S ) :   1.0464
B( 24-C , 26-C ) :   1.4593 B( 26-C , 27-C ) :   1.1948 B( 26-C , 30-S ) :   1.0829
B( 27-C , 28-C ) :   1.5832 B( 27-C , 74-H ) :   0.9941 B( 28-C , 29-C ) :   1.1472
B( 28-C , 75-H ) :   0.9981 B( 29-C , 30-S ) :   1.0297 B( 29-C , 31-C ) :   1.6116
B( 31-C , 32-C ) :   1.1426 B( 31-C , 76-H ) :   0.9565 B( 32-C , 33-C ) :   1.5120
B( 32-C , 36-S ) :   1.0551 B( 33-C , 34-C ) :   1.2017 B( 33-C , 77-H ) :   0.9811
B( 34-C , 35-C ) :   1.2688 B( 34-C , 40-C ) :   1.2983 B( 35-C , 36-S ) :   1.0477
B( 35-C , 37-C ) :   1.3948 B( 37-C , 38-C ) :   1.3098 B( 37-C , 78-H ) :   1.0003
B( 38-C , 39-C ) :   1.2628 B( 38-C , 43-C ) :   1.1929 B( 39-C , 40-C ) :   1.4091
B( 39-C , 41-S ) :   1.0442 B( 40-C , 79-H ) :   1.0004 B( 41-S , 42-C ) :   1.0644
B( 42-C , 43-C ) :   1.5261 B( 42-C , 44-C ) :   1.1299 B( 43-C , 80-H ) :   0.9811
B( 44-C , 45-C ) :   1.6199 B( 44-C , 81-H ) :   0.9556 B( 45-C , 46-C ) :   1.1414
B( 45-C , 49-S ) :   1.0416 B( 46-C , 47-C ) :   1.5936 B( 46-C , 82-H ) :   0.9978
B( 47-C , 48-C ) :   1.1873 B( 47-C , 83-H ) :   0.9928 B( 48-C , 49-S ) :   1.0411
B( 48-C , 50-C ) :   1.5028 B( 50-C , 51-C ) :   1.1921 B( 50-C , 54-S ) :   1.0447
B( 51-C , 52-C ) :   1.5836 B( 51-C , 84-H ) :   0.9933 B( 52-C , 53-C ) :   1.1517
B( 52-C , 85-H ) :   0.9992 B( 53-C , 54-S ) :   1.0399 B( 53-C , 55-C ) :   1.5915
B( 55-C , 56-C ) :   1.1862 B( 55-C , 86-H ) :   0.9496 B( 56-C , 57-S ) :   1.1014
B( 56-C , 60-C ) :   1.3992 B( 57-S , 58-C ) :   1.1318 B( 58-C , 59-C ) :   1.4474
B( 58-C , 64-C ) :   1.0639 B( 59-C , 60-C ) :   1.3581 B( 59-C , 61-C ) :   0.9080
B( 60-C , 87-H ) :   0.9818 B( 61-C , 62-O ) :   2.2754 B( 61-C , 63-C ) :   0.9306
B( 63-C , 64-C ) :   1.6466 B( 63-C , 65-C ) :   1.1202 B( 64-C , 88-H ) :   1.0151
B( 65-C , 66-C ) :   1.9022 B( 65-C , 89-H ) :   0.9589 B( 66-C , 90-H ) :   0.9531
B( 66-C , 91-H ) :   0.9508

-----------------------------------------------------------------------------
         ABSORPTION SPECTRUM VIA TRANSITION ELECTRIC DIPOLE MOMENTS
-----------------------------------------------------------------------------
State   Energy  Wavelength   fosc         T2         TX        TY        TZ
        (cm-1)    (nm)                  (au**2)     (au)      (au)      (au)
-----------------------------------------------------------------------------
   0   10067.8    993.3   0.826705690  27.03295  -3.49806   1.44833  -3.56355
   1   12463.3    802.4   0.720657195  19.03579   3.62403   1.31935  -2.03999
   2   14195.6    704.4   0.351473785   8.15105  -1.48315  -2.30770  -0.79108
   3   16761.6    596.6   0.470446338   9.23996   0.47792   2.22297  -2.01741
   4   19714.3    507.2   0.301492876   5.03469  -0.07406  -1.84719  -1.27164
   5   20182.0    495.5   0.391939816   6.39338   1.02972  -1.92390  -1.27737
   6   21475.9    465.6   0.138933206   2.12976   0.80707  -0.99676  -0.69632
   7   22806.8    438.5   0.231424376   3.34057   1.05226  -1.45311   0.34897
   8   23720.5    421.6   0.215816794   2.99528  -1.10075   1.26944   0.41492
   9   24176.4    413.6   0.381903473   5.20041  -0.85559   1.89532   0.93602
  10   24549.7    407.3   0.066366387   0.88997   0.16596  -0.89245  -0.25685
  11   24933.8    401.1   0.125121451   1.65203   1.03050   0.75304   0.15181
  12   25439.3    393.1   0.186597494   2.41477   0.45513   0.74498   1.28555
  13   26357.7    379.4   0.000053270   0.00067  -0.02176   0.01366  -0.00229
  14   26542.1    376.8   0.003962690   0.04915   0.10836   0.10374  -0.16324
  15   26801.7    373.1   0.071667426   0.88031  -0.18719   0.87975   0.26704
  16   26944.3    371.1   0.299044119   3.65379   0.49716  -1.73384  -0.63279
  17   27312.5    366.1   0.068994354   0.83162  -0.74441   0.11882   0.51319
  18   28541.9    350.4   0.221683735   2.55698   0.75510  -1.36524  -0.35061
  19   28632.6    349.3   0.002452601   0.02820   0.10314  -0.10209  -0.08449
  20   29643.5    337.3   0.033037995   0.36691   0.27152  -0.45008  -0.30102
  21   30004.6    333.3   0.103711760   1.13793   0.54120  -0.90879  -0.13833
  22   30433.7    328.6   0.011642852   0.12594  -0.31895  -0.15510   0.01275
  23   31083.6    321.7   0.136331821   1.44392   0.61349   0.99693   0.27145
  24   31491.6    317.5   0.156817688   1.63936   0.81596   0.43935   0.88348
  25   31825.2    314.2   0.004790536   0.04956   0.21351   0.03636  -0.05145
  26   31988.9    312.6   0.068515779   0.70513   0.77760   0.29667   0.11159
  27   32197.7    310.6   0.258036605   2.63835  -1.57719  -0.33820  -0.19087
  28   32428.8    308.4   0.043719286   0.44383   0.65792  -0.10461   0.00525
  29   32788.4    305.0   0.043821329   0.43999  -0.66091   0.04398   0.03534
  30   32965.0    303.4   0.135351877   1.35172  -1.11829  -0.30330   0.09564
  31   34013.9    294.0   0.026142118   0.25302   0.20548   0.35399   0.29239
  32   34329.5    291.3   0.046997443   0.45070  -0.13857   0.62076   0.21484
  33   34448.5    290.3   0.015508392   0.14821   0.15690   0.29886   0.18513
  34   34733.7    287.9   0.015622754   0.14808  -0.22196   0.12120  -0.29003
  35   34943.5    286.2   0.017541864   0.16527  -0.32844   0.09862   0.21832
  36   35147.8    284.5   0.036292875   0.33994  -0.06866   0.35097   0.46048
  37   35458.1    282.0   0.010258508   0.09525  -0.14061  -0.19593  -0.19257
  38   35916.4    278.4   0.009962851   0.09132  -0.02325   0.29709   0.05016
  39   36254.7    275.8   0.006496670   0.05899  -0.16940   0.15305  -0.08291
  40   36324.8    275.3   0.051546520   0.46717  -0.01986   0.57773   0.36469
  41   36500.3    274.0   0.144422644   1.30261  -1.10840   0.25304  -0.10014
  42   36645.1    272.9   0.008263424   0.07424   0.01877  -0.22675   0.14989
  43   37171.6    269.0   0.153609354   1.36045   0.65177  -0.94045   0.22626
  44   37234.0    268.6   0.029358546   0.25958   0.06565  -0.45339  -0.22296
  45   37619.5    265.8   0.076357594   0.66821  -0.01237  -0.50106   0.64576
  46   37715.7    265.1   0.099876992   0.87180  -0.79458   0.48941  -0.03048
  47   38148.8    262.1   0.017516305   0.15116   0.14421   0.34883  -0.09319
  48   38415.6    260.3   0.103392908   0.88605  -0.47031   0.81333  -0.05795
  49   38791.0    257.8   0.081048009   0.68784   0.42186  -0.53265   0.47556
  50   38945.2    256.8   0.004004608   0.03385  -0.00588   0.13261  -0.12740
  51   39168.5    255.3   0.000211985   0.00178   0.02077   0.02834   0.02339
  52   39412.6    253.7   0.038767891   0.32383   0.05395  -0.45721  -0.33448
  53   39519.5    253.0   0.034245048   0.28527   0.44638   0.29320   0.00734
  54   39737.1    251.7   0.021403089   0.17732  -0.21661   0.04541  -0.35824
  55   39884.2    250.7   0.016617497   0.13716  -0.09215  -0.35856   0.01038
  56   40031.7    249.8   0.073545053   0.60482  -0.36415   0.66848   0.15923
  57   40100.8    249.4   0.046823309   0.38440   0.17003  -0.59562  -0.02688
  58   40128.3    249.2   0.015589151   0.12789  -0.07695   0.34864  -0.02053

FINAL SINGLE POINT ENERGY     -8088.160740333029

DIPOLE MOMENT
-------------
                                X             Y             Z
Electronic contribution:   -139.20894     -23.20683     -84.25644
Nuclear contribution   :    140.91062      23.75097      86.67690
                        -----------------------------------------
Total Dipole Moment    :      1.70168       0.54414       2.42046
                        -----------------------------------------
Magnitude (a.u.)       :      3.00839
Magnitude (Debye)      :      7.64672

Rotational constants in cm-1:     0.000635     0.000274     0.000235
Rotational constants in MHz :    19.049281     8.219338     7.051943

                             ****ORCA TERMINATED NORMALLY****
TOTAL RUN TIME: 0 days 0 hours 9 minutes 36 seconds 748 msec
