                         Program Version 4.2.0 -  RELEASE  -
|  1> # ORCA input file
|  2> # SCF done       -179.664524646871          0.000698972188
|  3> ! CAM-B3LYP def2-SVP def2/J RIJCOSX Grid4 TightSCF
|  4> %maxcore 5000
|  5> %tddft
|  6>     Mode sTDDFT
|  7>     Ethresh 5.0
|  8>     maxcore 5000
|  9> end
| 10>
| 11> %pal
| 12>   nprocs 6
| 13>   end
| 14> * xyz 0 1
| 15>    C       -3.70699         0.20431        -0.19271
| 16>    O       -2.84361        -0.39992         0.40014
| 17>    C       -4.51382         1.34728         0.32288
| 18>    C       -5.19919         1.95103        -0.74535
| 19>    C       -6.11838         2.96136        -0.52030
| 20>    C       -6.34837         3.34953         0.79084
| 21>    C       -5.65339         2.78767         1.85697
| 22>    C       -4.70561         1.79212         1.61678
| 23>    F       -4.02410         1.29339         2.64603
| 24>    F       -5.90457         3.18649         3.11085
| 25>    F       -7.27105         4.28571         1.04338
| 26>    C       -4.81060         1.28241        -1.98983
| 27>    C       -5.12675         1.72001        -3.25241
| 28>    C       -5.86568         2.88959        -3.52031
| 29>    N       -6.46316         3.83038        -3.79665
| 30>    C       -4.71244         1.09214        -4.44411
| 31>    N       -4.40341         0.63078        -5.44970
| 32>    C       -4.08321         0.09373        -1.61820
| 33>    C       -3.84732        -0.98722        -2.42722
| 34>    C       -3.57241        -2.31226        -2.02526
| 35>    C       -2.85792        -3.22215        -2.81839
| 36>    C       -2.18354        -3.01030        -4.12119
| 37>    N       -2.77257        -4.37835        -2.13396
| 38>    C       -3.43964        -4.29290        -0.93734
| 39>    C       -3.55213        -5.45586        -0.02334
| 40>    C       -3.96418        -3.02456        -0.82980
| 41>    C       -4.79146        -2.58201         0.26337
| 42>    C       -5.75292        -1.64565         0.20093
| 43>    C       -6.41425        -1.07194         1.34012
| 44>    C       -7.59001        -0.34341         1.33822
| 45>    C       -8.51957         0.01124         0.23324
| 46>    N       -7.83326         0.04985         2.62087
| 47>    C       -6.84792        -0.39390         3.45687
| 48>    C       -6.83668        -0.03696         4.89891
| 49>    C       -5.93596        -1.09246         2.69605
| 50>    C       -4.65511        -1.61624         3.11164
| 51>    C       -4.40207        -2.28711         4.24067
| 52>    C       -3.07484        -2.74753         4.59105
| 53>    C       -1.90562        -2.04798         4.40882
| 54>    C       -1.64774        -0.70885         3.82533
| 55>    N       -0.87804        -2.80039         4.92461
| 56>    C       -1.33050        -3.95851         5.43530
| 57>    C       -0.41917        -4.98099         6.00790
| 58>    C       -2.72059        -3.99156         5.23364
| 59>    C       -3.49693        -5.13773         5.49308
| 60>    C       -4.78118        -5.38482         5.08921
| 61>    C       -5.49295        -6.55803         5.37718
| 62>    C       -5.05934        -7.79240         5.81596
| 63>    C       -6.03331        -8.67117         6.49844
| 64>    O       -7.22958        -8.51779         6.57380
| 65>    C       -5.21632        -9.76082         7.10068
| 66>    C       -3.87632        -9.60636         6.70464
| 67>    C       -3.78848        -8.45594         5.79820
| 68>    C       -2.74211        -8.24087         4.92870
| 69>    C       -1.53064        -8.95489         4.94339
| 70>    N       -0.50072        -9.46431         4.92484
| 71>    C       -2.77614        -7.31307         3.87256
| 72>    N       -2.74688        -6.60545         2.96804
| 73>    C       -2.89953       -10.47609         7.15448
| 74>    C       -3.28399       -11.50326         8.00524
| 75>    C       -4.60716       -11.67835         8.39934
| 76>    C       -5.58771       -10.79444         7.93975
| 77>    F       -6.84953       -10.96791         8.32296
| 78>    F       -4.93849       -12.68417         9.21551
| 79>    F       -2.35539       -12.34883         8.46364
| 80>    H       -6.67225         3.43959        -1.31118
| 81>    H       -3.92588        -0.83984        -3.49830
| 82>    H       -1.23222        -2.49387        -3.98531
| 83>    H       -2.79943        -2.39658        -4.77598
| 84>    H       -1.98856        -3.96321        -4.60895
| 85>    H       -2.27942        -5.19970        -2.44963
| 86>    H       -2.96041        -6.29101        -0.39066
| 87>    H       -4.58893        -5.77946         0.06366
| 88>    H       -3.20493        -5.20379         0.97723
| 89>    H       -4.59452        -3.07754         1.20321
| 90>    H       -6.06535        -1.26633        -0.76443
| 91>    H       -8.00705        -0.03987        -0.72402
| 92>    H       -8.90674         1.02111         0.36775
| 93>    H       -9.36788        -0.67439         0.19758
| 94>    H       -8.62907         0.59338         2.91401
| 95>    H       -7.17763         0.98815         5.04124
| 96>    H       -5.82596        -0.12853         5.28862
| 97>    H       -7.48927        -0.69570         5.47455
| 98>    H       -3.84935        -1.45194         2.40980
| 99>    H       -5.20047        -2.52598         4.93015
|100>    H       -2.49013        -0.05107         4.02093
|101>    H       -1.52361        -0.76675         2.74352
|102>    H       -0.74594        -0.27365         4.25308
|103>    H        0.08962        -2.51642         4.90878
|104>    H        0.54256        -4.53569         6.25407
|105>    H       -0.24704        -5.78766         5.29311
|106>    H       -0.84099        -5.41662         6.91165
|107>    H       -2.99987        -5.89906         6.08224
|108>    H       -5.31848        -4.61433         4.55837
|109>    H       -6.57546        -6.48297         5.32168
|110>    H       -1.86097       -10.38647         6.88181
|111> *
|112>
|113>                          ****END OF INPUT****

CARTESIAN COORDINATES (ANGSTROEM)
---------------------------------
  C     -3.706990    0.204310   -0.192710
  O     -2.843610   -0.399920    0.400140
  C     -4.513820    1.347280    0.322880
  C     -5.199190    1.951030   -0.745350
  C     -6.118380    2.961360   -0.520300
  C     -6.348370    3.349530    0.790840
  C     -5.653390    2.787670    1.856970
  C     -4.705610    1.792120    1.616780
  F     -4.024100    1.293390    2.646030
  F     -5.904570    3.186490    3.110850
  F     -7.271050    4.285710    1.043380
  C     -4.810600    1.282410   -1.989830
  C     -5.126750    1.720010   -3.252410
  C     -5.865680    2.889590   -3.520310
  N     -6.463160    3.830380   -3.796650
  C     -4.712440    1.092140   -4.444110
  N     -4.403410    0.630780   -5.449700
  C     -4.083210    0.093730   -1.618200
  C     -3.847320   -0.987220   -2.427220
  C     -3.572410   -2.312260   -2.025260
  C     -2.857920   -3.222150   -2.818390
  C     -2.183540   -3.010300   -4.121190
  N     -2.772570   -4.378350   -2.133960
  C     -3.439640   -4.292900   -0.937340
  C     -3.552130   -5.455860   -0.023340
  C     -3.964180   -3.024560   -0.829800
  C     -4.791460   -2.582010    0.263370
  C     -5.752920   -1.645650    0.200930
  C     -6.414250   -1.071940    1.340120
  C     -7.590010   -0.343410    1.338220
  C     -8.519570    0.011240    0.233240
  N     -7.833260    0.049850    2.620870
  C     -6.847920   -0.393900    3.456870
  C     -6.836680   -0.036960    4.898910
  C     -5.935960   -1.092460    2.696050
  C     -4.655110   -1.616240    3.111640
  C     -4.402070   -2.287110    4.240670
  C     -3.074840   -2.747530    4.591050
  C     -1.905620   -2.047980    4.408820
  C     -1.647740   -0.708850    3.825330
  N     -0.878040   -2.800390    4.924610
  C     -1.330500   -3.958510    5.435300
  C     -0.419170   -4.980990    6.007900
  C     -2.720590   -3.991560    5.233640
  C     -3.496930   -5.137730    5.493080
  C     -4.781180   -5.384820    5.089210
  C     -5.492950   -6.558030    5.377180
  C     -5.059340   -7.792400    5.815960
  C     -6.033310   -8.671170    6.498440
  O     -7.229580   -8.517790    6.573800
  C     -5.216320   -9.760820    7.100680
  C     -3.876320   -9.606360    6.704640
  C     -3.788480   -8.455940    5.798200
  C     -2.742110   -8.240870    4.928700
  C     -1.530640   -8.954890    4.943390
  N     -0.500720   -9.464310    4.924840
  C     -2.776140   -7.313070    3.872560
  N     -2.746880   -6.605450    2.968040
  C     -2.899530  -10.476090    7.154480
  C     -3.283990  -11.503260    8.005240
  C     -4.607160  -11.678350    8.399340
  C     -5.587710  -10.794440    7.939750
  F     -6.849530  -10.967910    8.322960
  F     -4.938490  -12.684170    9.215510
  F     -2.355390  -12.348830    8.463640
  H     -6.672250    3.439590   -1.311180
  H     -3.925880   -0.839840   -3.498300
  H     -1.232220   -2.493870   -3.985310
  H     -2.799430   -2.396580   -4.775980
  H     -1.988560   -3.963210   -4.608950
  H     -2.279420   -5.199700   -2.449630
  H     -2.960410   -6.291010   -0.390660
  H     -4.588930   -5.779460    0.063660
  H     -3.204930   -5.203790    0.977230
  H     -4.594520   -3.077540    1.203210
  H     -6.065350   -1.266330   -0.764430
  H     -8.007050   -0.039870   -0.724020
  H     -8.906740    1.021110    0.367750
  H     -9.367880   -0.674390    0.197580
  H     -8.629070    0.593380    2.914010
  H     -7.177630    0.988150    5.041240
  H     -5.825960   -0.128530    5.288620
  H     -7.489270   -0.695700    5.474550
  H     -3.849350   -1.451940    2.409800
  H     -5.200470   -2.525980    4.930150
  H     -2.490130   -0.051070    4.020930
  H     -1.523610   -0.766750    2.743520
  H     -0.745940   -0.273650    4.253080
  H      0.089620   -2.516420    4.908780
  H      0.542560   -4.535690    6.254070
  H     -0.247040   -5.787660    5.293110
  H     -0.840990   -5.416620    6.911650
  H     -2.999870   -5.899060    6.082240
  H     -5.318480   -4.614330    4.558370
  H     -6.575460   -6.482970    5.321680
  H     -1.860970  -10.386470    6.881810

 Total Charge           Charge          ....    0
 Multiplicity           Mult            ....    1
 Number of Electrons    NEL             ....  450
 Basis Dimension        Dim             .... 1065

ORBITAL ENERGIES
----------------

  NO   OCC          E(Eh)            E(eV)
   0   2.0000     -24.810373      -675.1246
   1   2.0000     -24.809241      -675.0938
   2   2.0000     -24.805713      -674.9978
   3   2.0000     -24.804288      -674.9590
   4   2.0000     -24.802206      -674.9023
   5   2.0000     -24.802006      -674.8969
   6   2.0000     -19.211484      -522.7711
   7   2.0000     -19.207551      -522.6640
   8   2.0000     -14.472588      -393.8191
   9   2.0000     -14.471472      -393.7888
  10   2.0000     -14.450696      -393.2234
  11   2.0000     -14.416988      -392.3062
  12   2.0000     -14.414761      -392.2456
  13   2.0000     -14.414272      -392.2323
  14   2.0000     -14.411467      -392.1560
  15   2.0000     -10.392794      -282.8023
  16   2.0000     -10.390822      -282.7486
  17   2.0000     -10.390524      -282.7405
  18   2.0000     -10.389115      -282.7022
  19   2.0000     -10.388531      -282.6863
  20   2.0000     -10.386218      -282.6234
  21   2.0000     -10.369609      -282.1714
  22   2.0000     -10.363859      -282.0149
  23   2.0000     -10.341415      -281.4042
  24   2.0000     -10.341024      -281.3936
  25   2.0000     -10.337557      -281.2992
  26   2.0000     -10.336290      -281.2648
  27   2.0000     -10.322156      -280.8801
  28   2.0000     -10.319756      -280.8148
  29   2.0000     -10.319500      -280.8079
  30   2.0000     -10.319479      -280.8073
  31   2.0000     -10.318425      -280.7786
  32   2.0000     -10.318371      -280.7772
  33   2.0000     -10.318001      -280.7671
  34   2.0000     -10.315191      -280.6906
  35   2.0000     -10.313750      -280.6514
  36   2.0000     -10.308480      -280.5080
  37   2.0000     -10.306357      -280.4502
  38   2.0000     -10.305015      -280.4137
  39   2.0000     -10.304813      -280.4082
  40   2.0000     -10.302888      -280.3558
  41   2.0000     -10.300613      -280.2939
  42   2.0000     -10.299048      -280.2513
  43   2.0000     -10.297142      -280.1995
  44   2.0000     -10.289073      -279.9799
  45   2.0000     -10.288752      -279.9712
  46   2.0000     -10.287671      -279.9418
  47   2.0000     -10.287478      -279.9365
  48   2.0000     -10.286122      -279.8996
  49   2.0000     -10.282690      -279.8062
  50   2.0000     -10.273182      -279.5475
  51   2.0000     -10.271811      -279.5102
  52   2.0000     -10.270261      -279.4680
  53   2.0000     -10.267074      -279.3813
  54   2.0000     -10.266509      -279.3659
  55   2.0000     -10.263494      -279.2839
  56   2.0000     -10.262655      -279.2610
  57   2.0000     -10.259690      -279.1804
  58   2.0000     -10.259408      -279.1727
  59   2.0000     -10.257094      -279.1097
  60   2.0000     -10.256672      -279.0982
  61   2.0000     -10.256221      -279.0859
  62   2.0000     -10.254398      -279.0364
  63   2.0000     -10.246801      -278.8296
  64   2.0000     -10.244929      -278.7787
  65   2.0000      -1.334701       -36.3191
  66   2.0000      -1.330097       -36.1938
  67   2.0000      -1.323494       -36.0141
  68   2.0000      -1.319115       -35.8949
  69   2.0000      -1.312816       -35.7235
  70   2.0000      -1.308558       -35.6077
  71   2.0000      -1.128184       -30.6994
  72   2.0000      -1.124600       -30.6019
  73   2.0000      -1.089056       -29.6347
  74   2.0000      -1.088131       -29.6095
  75   2.0000      -1.067358       -29.0443
  76   2.0000      -1.019961       -27.7546
  77   2.0000      -1.019659       -27.7463
  78   2.0000      -1.002702       -27.2849
  79   2.0000      -1.002518       -27.2799
  80   2.0000      -0.994318       -27.0568
  81   2.0000      -0.991923       -26.9916
  82   2.0000      -0.957908       -26.0660
  83   2.0000      -0.956249       -26.0209
  84   2.0000      -0.923838       -25.1389
  85   2.0000      -0.916724       -24.9453
  86   2.0000      -0.904583       -24.6150
  87   2.0000      -0.900577       -24.5060
  88   2.0000      -0.898861       -24.4592
  89   2.0000      -0.894005       -24.3271
  90   2.0000      -0.883953       -24.0536
  91   2.0000      -0.881458       -23.9857
  92   2.0000      -0.872551       -23.7433
  93   2.0000      -0.871834       -23.7238
  94   2.0000      -0.869537       -23.6613
  95   2.0000      -0.856082       -23.2952
  96   2.0000      -0.842187       -22.9171
  97   2.0000      -0.830775       -22.6065
  98   2.0000      -0.821063       -22.3423
  99   2.0000      -0.819490       -22.2995
 100   2.0000      -0.815917       -22.2022
 101   2.0000      -0.810159       -22.0455
 102   2.0000      -0.796572       -21.6758
 103   2.0000      -0.791932       -21.5496
 104   2.0000      -0.774286       -21.0694
 105   2.0000      -0.772262       -21.0143
 106   2.0000      -0.752156       -20.4672
 107   2.0000      -0.746450       -20.3119
 108   2.0000      -0.736594       -20.0437
 109   2.0000      -0.727488       -19.7960
 110   2.0000      -0.720950       -19.6180
 111   2.0000      -0.716768       -19.5042
 112   2.0000      -0.715729       -19.4760
 113   2.0000      -0.707694       -19.2573
 114   2.0000      -0.696359       -18.9489
 115   2.0000      -0.694996       -18.9118
 116   2.0000      -0.693106       -18.8604
 117   2.0000      -0.683223       -18.5914
 118   2.0000      -0.667447       -18.1621
 119   2.0000      -0.659510       -17.9462
 120   2.0000      -0.654978       -17.8229
 121   2.0000      -0.654024       -17.7969
 122   2.0000      -0.648711       -17.6523
 123   2.0000      -0.647712       -17.6251
 124   2.0000      -0.644823       -17.5465
 125   2.0000      -0.641927       -17.4677
 126   2.0000      -0.638918       -17.3858
 127   2.0000      -0.632401       -17.2085
 128   2.0000      -0.623396       -16.9635
 129   2.0000      -0.614472       -16.7206
 130   2.0000      -0.605859       -16.4863
 131   2.0000      -0.604165       -16.4402
 132   2.0000      -0.602532       -16.3957
 133   2.0000      -0.601821       -16.3764
 134   2.0000      -0.600313       -16.3353
 135   2.0000      -0.598504       -16.2861
 136   2.0000      -0.586979       -15.9725
 137   2.0000      -0.583895       -15.8886
 138   2.0000      -0.578662       -15.7462
 139   2.0000      -0.577028       -15.7017
 140   2.0000      -0.570072       -15.5124
 141   2.0000      -0.564840       -15.3701
 142   2.0000      -0.564090       -15.3497
 143   2.0000      -0.563673       -15.3383
 144   2.0000      -0.556501       -15.1432
 145   2.0000      -0.552102       -15.0235
 146   2.0000      -0.546792       -14.8790
 147   2.0000      -0.546523       -14.8716
 148   2.0000      -0.545808       -14.8522
 149   2.0000      -0.541792       -14.7429
 150   2.0000      -0.541246       -14.7280
 151   2.0000      -0.537463       -14.6251
 152   2.0000      -0.533094       -14.5062
 153   2.0000      -0.532855       -14.4997
 154   2.0000      -0.529929       -14.4201
 155   2.0000      -0.529356       -14.4045
 156   2.0000      -0.525240       -14.2925
 157   2.0000      -0.524396       -14.2695
 158   2.0000      -0.520265       -14.1571
 159   2.0000      -0.516536       -14.0557
 160   2.0000      -0.515858       -14.0372
 161   2.0000      -0.514127       -13.9901
 162   2.0000      -0.510142       -13.8817
 163   2.0000      -0.503146       -13.6913
 164   2.0000      -0.502816       -13.6823
 165   2.0000      -0.501560       -13.6482
 166   2.0000      -0.500653       -13.6235
 167   2.0000      -0.497212       -13.5298
 168   2.0000      -0.497045       -13.5253
 169   2.0000      -0.495105       -13.4725
 170   2.0000      -0.494479       -13.4554
 171   2.0000      -0.492919       -13.4130
 172   2.0000      -0.489304       -13.3146
 173   2.0000      -0.488922       -13.3042
 174   2.0000      -0.486218       -13.2307
 175   2.0000      -0.478848       -13.0301
 176   2.0000      -0.477207       -12.9855
 177   2.0000      -0.475537       -12.9400
 178   2.0000      -0.473490       -12.8843
 179   2.0000      -0.469073       -12.7641
 180   2.0000      -0.468087       -12.7373
 181   2.0000      -0.467623       -12.7247
 182   2.0000      -0.463191       -12.6041
 183   2.0000      -0.462648       -12.5893
 184   2.0000      -0.461954       -12.5704
 185   2.0000      -0.460375       -12.5274
 186   2.0000      -0.457663       -12.4536
 187   2.0000      -0.453994       -12.3538
 188   2.0000      -0.451361       -12.2822
 189   2.0000      -0.450105       -12.2480
 190   2.0000      -0.448779       -12.2119
 191   2.0000      -0.448194       -12.1960
 192   2.0000      -0.447670       -12.1817
 193   2.0000      -0.445491       -12.1224
 194   2.0000      -0.442237       -12.0339
 195   2.0000      -0.440600       -11.9893
 196   2.0000      -0.439457       -11.9582
 197   2.0000      -0.436499       -11.8777
 198   2.0000      -0.430216       -11.7068
 199   2.0000      -0.428110       -11.6495
 200   2.0000      -0.425929       -11.5901
 201   2.0000      -0.424560       -11.5529
 202   2.0000      -0.419124       -11.4050
 203   2.0000      -0.418406       -11.3854
 204   2.0000      -0.413911       -11.2631
 205   2.0000      -0.407662       -11.0930
 206   2.0000      -0.405619       -11.0375
 207   2.0000      -0.401143       -10.9156
 208   2.0000      -0.383461       -10.4345
 209   2.0000      -0.378478       -10.2989
 210   2.0000      -0.364747        -9.9253
 211   2.0000      -0.358120        -9.7449
 212   2.0000      -0.342540        -9.3210
 213   2.0000      -0.340734        -9.2718
 214   2.0000      -0.338976        -9.2240
 215   2.0000      -0.336090        -9.1455
 216   2.0000      -0.331929        -9.0323
 217   2.0000      -0.322693        -8.7809
 218   2.0000      -0.313685        -8.5358
 219   2.0000      -0.306809        -8.3487
 220   2.0000      -0.291401        -7.9294
 221   2.0000      -0.269225        -7.3260
 222   2.0000      -0.257316        -7.0019
 223   2.0000      -0.248829        -6.7710
 224   2.0000      -0.235932        -6.4200
 225   0.0000      -0.086206        -2.3458
 226   0.0000      -0.079972        -2.1762
 227   0.0000      -0.056968        -1.5502
 228   0.0000      -0.055096        -1.4992
 229   0.0000      -0.000016        -0.0004

MULLIKEN ATOMIC CHARGES
-----------------------
   0 C :    0.175507
   1 O :   -0.130667
   2 C :   -0.059846
   3 C :    0.053779
   4 C :   -0.110023
   5 C :    0.225666
   6 C :    0.154888
   7 C :    0.167645
   8 F :   -0.145984
   9 F :   -0.163449
  10 F :   -0.168531
  11 C :    0.298046
  12 C :   -0.353272
  13 C :   -0.193834
  14 N :    0.148899
  15 C :   -0.185208
  16 N :    0.142231
  17 C :   -0.147558
  18 C :   -0.053979
  19 C :    0.049203
  20 C :   -0.134327
  21 C :    0.122702
  22 N :   -0.021503
  23 C :   -0.169935
  24 C :    0.133437
  25 C :    0.090632
  26 C :   -0.084885
  27 C :   -0.018695
  28 C :    0.045445
  29 C :   -0.183915
  30 C :    0.133757
  31 N :   -0.039228
  32 C :   -0.172290
  33 C :    0.130689
  34 C :    0.030279
  35 C :   -0.068473
  36 C :   -0.063453
  37 C :    0.042128
  38 C :   -0.171583
  39 C :    0.128499
  40 N :   -0.020162
  41 C :   -0.131635
  42 C :    0.116840
  43 C :    0.049858
  44 C :    0.007679
  45 C :   -0.016416
  46 C :    0.051751
  47 C :   -0.152800
  48 C :    0.129848
  49 O :   -0.131065
  50 C :   -0.057501
  51 C :    0.034141
  52 C :    0.281335
  53 C :   -0.369276
  54 C :   -0.183050
  55 N :    0.145147
  56 C :   -0.216355
  57 N :    0.183638
  58 C :   -0.102753
  59 C :    0.229523
  60 C :    0.151295
  61 C :    0.142487
  62 F :   -0.141970
  63 F :   -0.157723
  64 F :   -0.164563
  65 H :    0.012130
  66 H :    0.008617
  67 H :    0.050558
  68 H :    0.049538
  69 H :    0.010558
  70 H :    0.122601
  71 H :   -0.009443
  72 H :    0.034658
  73 H :    0.060743
  74 H :   -0.001467
  75 H :   -0.025725
  76 H :    0.014340
  77 H :    0.006958
  78 H :    0.033254
  79 H :    0.109631
  80 H :    0.004853
  81 H :    0.025253
  82 H :    0.025487
  83 H :    0.028163
  84 H :   -0.008923
  85 H :    0.032608
  86 H :    0.057824
  87 H :   -0.008700
  88 H :    0.120066
  89 H :    0.008772
  90 H :    0.056498
  91 H :    0.040550
  92 H :   -0.005212
  93 H :   -0.003630
  94 H :    0.027107
  95 H :    0.011263
Sum of atomic charges:   -0.0000000

LOEWDIN ATOMIC CHARGES
----------------------
   0 C :    0.093308
   1 O :   -0.135416
   2 C :   -0.066697
   3 C :   -0.003581
   4 C :   -0.031666
   5 C :    0.072995
   6 C :    0.039987
   7 C :    0.088792
   8 F :   -0.017107
   9 F :   -0.041586
  10 F :   -0.045258
  11 C :    0.078643
  12 C :   -0.153271
  13 C :   -0.022400
  14 N :   -0.058989
  15 C :   -0.017687
  16 N :   -0.060731
  17 C :   -0.118619
  18 C :    0.090414
  19 C :   -0.089323
  20 C :    0.029196
  21 C :   -0.051320
  22 N :    0.103553
  23 C :   -0.002745
  24 C :   -0.054562
  25 C :   -0.058258
  26 C :   -0.026918
  27 C :   -0.034533
  28 C :   -0.083090
  29 C :   -0.027883
  30 C :   -0.054288
  31 N :    0.085507
  32 C :   -0.020252
  33 C :   -0.056827
  34 C :   -0.083358
  35 C :   -0.011124
  36 C :   -0.050662
  37 C :   -0.059286
  38 C :   -0.008671
  39 C :   -0.057929
  40 N :    0.105592
  41 C :    0.024721
  42 C :   -0.053553
  43 C :   -0.088029
  44 C :    0.076098
  45 C :   -0.078625
  46 C :    0.083734
  47 C :   -0.130706
  48 C :    0.081156
  49 O :   -0.140025
  50 C :   -0.079695
  51 C :   -0.003040
  52 C :    0.068496
  53 C :   -0.166286
  54 C :   -0.026026
  55 N :   -0.066602
  56 C :   -0.007081
  57 N :   -0.048960
  58 C :   -0.036050
  59 C :    0.075945
  60 C :    0.036867
  61 C :    0.084238
  62 F :   -0.024987
  63 F :   -0.038152
  64 F :   -0.042040
  65 H :    0.051030
  66 H :    0.040764
  67 H :    0.047297
  68 H :    0.048991
  69 H :    0.034638
  70 H :    0.091418
  71 H :    0.028928
  72 H :    0.042396
  73 H :    0.045119
  74 H :    0.033452
  75 H :    0.020391
  76 H :    0.035936
  77 H :    0.029078
  78 H :    0.037099
  79 H :    0.084939
  80 H :    0.028115
  81 H :    0.040769
  82 H :    0.033502
  83 H :    0.029774
  84 H :    0.021203
  85 H :    0.040903
  86 H :    0.043721
  87 H :    0.024588
  88 H :    0.090891
  89 H :    0.035308
  90 H :    0.047734
  91 H :    0.042639
  92 H :    0.032128
  93 H :    0.035290
  94 H :    0.046494
  95 H :    0.050112

  Mayer bond orders larger than 0.100000
B(  0-C ,  1-O ) :   2.2131 B(  0-C ,  2-C ) :   0.9040 B(  0-C , 17-C ) :   0.9607
B(  2-C ,  3-C ) :   1.3573 B(  2-C ,  7-C ) :   1.2895 B(  3-C ,  4-C ) :   1.3234
B(  3-C , 11-C ) :   0.9958 B(  4-C ,  5-C ) :   1.3252 B(  4-C , 65-H ) :   0.9998
B(  5-C ,  6-C ) :   1.3035 B(  5-C , 10-F ) :   1.1416 B(  6-C ,  7-C ) :   1.2773
B(  6-C ,  9-F ) :   1.1574 B(  7-C ,  8-F ) :   1.1799 B( 11-C , 12-C ) :   1.6128
B( 11-C , 17-C ) :   1.1098 B( 12-C , 13-C ) :   1.1368 B( 12-C , 15-C ) :   1.1508
B( 13-C , 14-N ) :   2.9811 B( 15-C , 16-N ) :   2.9786 B( 17-C , 18-C ) :   1.5475
B( 18-C , 19-C ) :   1.1944 B( 18-C , 66-H ) :   0.9328 B( 19-C , 20-C ) :   1.3310
B( 19-C , 25-C ) :   1.1756 B( 20-C , 21-C ) :   1.1192 B( 20-C , 22-N ) :   1.2974
B( 21-C , 67-H ) :   0.9408 B( 21-C , 68-H ) :   0.9333 B( 21-C , 69-H ) :   0.9361
B( 22-N , 23-C ) :   1.1618 B( 22-N , 70-H ) :   0.9309 B( 23-C , 24-C ) :   1.0978
B( 23-C , 25-C ) :   1.5181 B( 24-C , 71-H ) :   0.9339 B( 24-C , 72-H ) :   0.9391
B( 24-C , 73-H ) :   0.9300 B( 25-C , 26-C ) :   1.0800 B( 26-C , 27-C ) :   1.7445
B( 26-C , 74-H ) :   0.9570 B( 27-C , 28-C ) :   1.1218 B( 27-C , 75-H ) :   0.9510
B( 28-C , 29-C ) :   1.4313 B( 28-C , 34-C ) :   1.2340 B( 29-C , 30-C ) :   1.1127
B( 29-C , 31-N ) :   1.2158 B( 30-C , 76-H ) :   0.9401 B( 30-C , 77-H ) :   0.9408
B( 30-C , 78-H ) :   0.9423 B( 31-N , 32-C ) :   1.2081 B( 31-N , 79-H ) :   0.9380
B( 32-C , 33-C ) :   1.1116 B( 32-C , 34-C ) :   1.4987 B( 33-C , 80-H ) :   0.9399
B( 33-C , 81-H ) :   0.9369 B( 33-C , 82-H ) :   0.9402 B( 34-C , 35-C ) :   1.0359
B( 35-C , 36-C ) :   1.7835 B( 35-C , 83-H ) :   0.9460 B( 36-C , 37-C ) :   1.0425
B( 36-C , 84-H ) :   0.9564 B( 37-C , 38-C ) :   1.5530 B( 37-C , 43-C ) :   1.1742
B( 38-C , 39-C ) :   1.1086 B( 38-C , 40-N ) :   1.1616 B( 39-C , 85-H ) :   0.9335
B( 39-C , 86-H ) :   0.9316 B( 39-C , 87-H ) :   0.9327 B( 40-N , 41-C ) :   1.3055
B( 40-N , 88-H ) :   0.9319 B( 41-C , 42-C ) :   1.1082 B( 41-C , 43-C ) :   1.3183
B( 42-C , 89-H ) :   0.9358 B( 42-C , 90-H ) :   0.9403 B( 42-C , 91-H ) :   0.9390
B( 43-C , 44-C ) :   1.2573 B( 44-C , 45-C ) :   1.5061 B( 44-C , 92-H ) :   0.9381
B( 45-C , 46-C ) :   1.2665 B( 45-C , 93-H ) :   0.9613 B( 46-C , 47-C ) :   1.4975
B( 46-C , 94-H ) :   0.9368 B( 47-C , 48-C ) :   0.9770 B( 47-C , 52-C ) :   1.1173
B( 48-C , 49-O ) :   2.2919 B( 48-C , 50-C ) :   0.8961 B( 50-C , 51-C ) :   1.3614
B( 50-C , 61-C ) :   1.2789 B( 51-C , 52-C ) :   1.0083 B( 51-C , 58-C ) :   1.3340
B( 52-C , 53-C ) :   1.5786 B( 53-C , 54-C ) :   1.1342 B( 53-C , 56-C ) :   1.1800
B( 54-C , 55-N ) :   2.9765 B( 56-C , 57-N ) :   2.9829 B( 58-C , 59-C ) :   1.3198
B( 58-C , 95-H ) :   1.0007 B( 59-C , 60-C ) :   1.3065 B( 59-C , 64-F ) :   1.1438
B( 60-C , 61-C ) :   1.2547 B( 60-C , 63-F ) :   1.1686 B( 61-C , 62-F ) :   1.2429

-----------------------------------------------------------------------------
         ABSORPTION SPECTRUM VIA TRANSITION ELECTRIC DIPOLE MOMENTS
-----------------------------------------------------------------------------
State   Energy  Wavelength   fosc         T2         TX        TY        TZ
        (cm-1)    (nm)                  (au**2)     (au)      (au)      (au)
-----------------------------------------------------------------------------
   0   15032.8    665.2   0.010877665   0.23822  -0.17594  -0.26384   0.37101
   1   18143.7    551.2   0.315229056   5.71974  -0.34195  -2.35898   0.19502
   2   18264.3    547.5   0.023006016   0.41468  -0.16435   0.60935   0.12794
   3   18805.2    531.8   0.035583159   0.62293   0.31770  -0.62788   0.35745
   4   19878.5    503.1   0.016773160   0.27778   0.24166  -0.45226   0.12182
   5   21335.0    468.7   0.000866375   0.01337   0.06400  -0.06028   0.07509
   6   22823.7    438.1   0.386367465   5.57302  -0.75335   2.21178  -0.33693
   7   23449.5    426.4   0.005398650   0.07579   0.01533  -0.27093   0.04641
   8   25839.0    387.0   0.262808864   3.34842  -1.10028  -1.37720   0.49103
   9   26551.4    376.6   0.199572882   2.47451   0.13027  -1.40378  -0.69782
  10   27306.2    366.2   0.002645821   0.03190  -0.03657   0.08521  -0.15265
  11   27614.3    362.1   0.005579624   0.06652   0.13140  -0.10457   0.19575
  12   28022.4    356.9   0.004571860   0.05371   0.12939  -0.09219  -0.16873
  13   28698.4    348.5   0.011933999   0.13690   0.11179  -0.25294   0.24582
  14   29363.8    340.6   0.044074679   0.49414   0.10066   0.30051  -0.62746
  15   29400.6    340.1   0.038699494   0.43334   0.61613  -0.16324  -0.16455
  16   29977.3    333.6   0.029858761   0.32791  -0.11834   0.53929  -0.15191
  17   30773.9    325.0   0.135449860   1.44901  -0.69013  -0.77074   0.61538
  18   30951.2    323.1   0.016212529   0.17244   0.02810   0.37562  -0.17482
  19   30984.4    322.7   0.038007774   0.40384   0.31100   0.44391  -0.33175
  20   32102.3    311.5   0.073174277   0.75041  -0.03707  -0.20027   0.84198
  21   32884.4    304.1   0.272780652   2.73086   0.44783   1.23652  -1.00066
  22   32933.0    303.6   0.102382866   1.02346   0.66146   0.32857  -0.69136
  23   33264.4    300.6   0.100038491   0.99006  -0.28836   0.09786  -0.94728
  24   34248.4    292.0   0.019993448   0.19219   0.24839  -0.00805  -0.36114
  25   34878.8    286.7   0.101092540   0.95419  -0.48031  -0.55627   0.64347
  26   35324.5    283.1   0.095918048   0.89392  -0.04137  -0.79065   0.51679
  27   35435.0    282.2   0.038152792   0.35446  -0.22767   0.46606  -0.29226
  28   36172.8    276.5   0.398277422   3.62476   0.14846  -0.75591  -1.74107
  29   36317.6    275.3   0.023004978   0.20854  -0.23057  -0.21868   0.32795
  30   36770.5    272.0   0.021273686   0.19047  -0.30520   0.19104  -0.24662
  31   37042.9    270.0   0.053497667   0.47545   0.54139   0.32880  -0.27247
  32   37652.8    265.6   0.264950218   2.31655   1.00072   0.68768  -0.91772
  33   38045.2    262.8   0.139196473   1.20449  -0.10882   0.45792   0.99144
  34   38361.3    260.7   0.106490909   0.91389  -0.37969   0.12914  -0.86779
  35   38961.4    256.7   0.060170263   0.50842   0.52911  -0.37938   0.29074
  36   39028.5    256.2   0.172493772   1.45501   0.20726  -0.04952   1.18727
  37   39971.5    250.2   0.036787775   0.30299  -0.39922  -0.12656  -0.35720

FINAL SINGLE POINT ENERGY     -3052.882454173324

DIPOLE MOMENT
-------------
                                X             Y             Z
Electronic contribution:    -12.49588     -26.09326      33.16355
Nuclear contribution   :     13.95277      26.47260     -32.33077
                        -----------------------------------------
Total Dipole Moment    :      1.45689       0.37934       0.83277
                        -----------------------------------------
Magnitude (a.u.)       :      1.72045
Magnitude (Debye)      :      4.37303

Rotational constants in cm-1:     0.002404     0.000543     0.000506
Rotational constants in MHz :    72.068295    16.268562    15.179209

                             ****ORCA TERMINATED NORMALLY****
TOTAL RUN TIME: 0 days 0 hours 10 minutes 17 seconds 682 msec
