                         Program Version 4.2.0 -  RELEASE  -
|  1> # ORCA input file
|  2> # SCF done       -187.510953692962          0.000665131299
|  3> ! CAM-B3LYP def2-SVP def2/J RIJCOSX Grid4 TightSCF
|  4> %maxcore 5000
|  5> %tddft
|  6>     Mode sTDDFT
|  7>     Ethresh 5.0
|  8>     maxcore 5000
|  9> end
| 10>
| 11> %pal
| 12>   nprocs 6
| 13>   end
| 14> * xyz 0 1
| 15>    C       -3.13316         2.97263         0.33076
| 16>    C       -2.52915         1.77030         0.05078
| 17>    C       -2.29178         0.76862         1.00663
| 18>    N       -2.02885        -0.06205         1.75622
| 19>    C       -2.16453         1.39188        -1.25660
| 20>    N       -1.92224         1.02817        -2.31863
| 21>    C       -3.87344         3.28779         1.54867
| 22>    C       -4.75051         4.37584         1.26675
| 23>    C       -5.59790         4.87427         2.21209
| 24>    C       -5.59516         4.30825         3.50831
| 25>    C       -4.71172         3.22938         3.79863
| 26>    C       -3.85338         2.72343         2.79397
| 27>    C       -4.71278         2.68222         5.09729
| 28>    C       -5.54616         3.17429         6.06481
| 29>    C       -6.41618         4.23608         5.77799
| 30>    C       -6.44072         4.78984         4.52653
| 31>    C       -4.53744         4.82614        -0.12507
| 32>    O       -5.13254         5.69445        -0.72341
| 33>    C       -3.37680         4.03550        -0.60854
| 34>    C       -2.63635         4.51249        -1.66009
| 35>    C       -1.28907         4.31529        -1.97006
| 36>    C       -0.61886         4.98468        -3.01838
| 37>    C        0.78490         4.78065        -3.00961
| 38>    N        1.59076         5.33574        -3.92268
| 39>    C        1.01677         6.08454        -4.83612
| 40>    C       -0.39642         6.30849        -4.84037
| 41>    N       -1.19036         5.76759        -3.94582
| 42>    C       -1.03483         7.17310        -5.87324
| 43>    C        1.90392         6.69209        -5.86853
| 44>    C        1.20924         3.94613        -1.95778
| 45>    S       -0.13411         3.41780        -1.01197
| 46>    C        2.51136         3.57257        -1.65077
| 47>    C        2.86871         2.62670        -0.67007
| 48>    C        4.26993         2.46318        -0.55229
| 49>    N        4.80130         1.60520         0.32857
| 50>    C        3.95642         0.91236         1.05761
| 51>    C        2.53704         1.07016         0.93188
| 52>    N        2.01206         1.92746         0.08568
| 53>    C        1.60084         0.26344         1.76107
| 54>    C        4.53984        -0.05566         2.02784
| 55>    C        4.98773         3.30693        -1.42200
| 56>    S        3.91636         4.24464        -2.42028
| 57>    C        6.36588         3.48120        -1.45227
| 58>    C        7.04068         4.43693        -2.23730
| 59>    C        8.43730         4.48215        -1.99498
| 60>    N        9.18931         5.42509        -2.58874
| 61>    C        8.59310         6.22123        -3.44653
| 62>    C        7.19658         6.12088        -3.73234
| 63>    N        6.43655         5.25253        -3.10511
| 64>    C        6.53473         7.00588        -4.73163
| 65>    C        9.44548         7.24580        -4.11356
| 66>    C        8.86066         3.52261        -1.05210
| 67>    S        7.47769         2.63083        -0.44977
| 68>    C       10.12029         3.27155        -0.49923
| 69>    C       11.35788         3.71420        -0.89064
| 70>    C       11.84802         4.29591        -2.11045
| 71>    C       11.35823         4.06711        -3.37323
| 72>    C       11.87190         4.66199        -4.53869
| 73>    N       12.22239         5.15082        -5.51801
| 74>    C       10.31138         3.16588        -3.64079
| 75>    N        9.48184         2.41414        -3.89816
| 76>    C       13.09552         4.98634        -1.79589
| 77>    C       13.47664         4.64232        -0.46595
| 78>    C       12.44753         3.76128         0.11951
| 79>    O       12.45423         3.22866         1.20772
| 80>    C       14.61973         5.12453         0.10082
| 81>    C       15.44159         6.00157        -0.64417
| 82>    C       15.06035         6.35919        -1.96904
| 83>    C       13.87538         5.83202        -2.53545
| 84>    C       15.88356         7.24231        -2.69590
| 85>    C       17.02907         7.74830        -2.14382
| 86>    C       17.40405         7.39464        -0.83965
| 87>    C       16.62730         6.53883        -0.10649
| 88>    H       -6.26179         5.69332         1.97841
| 89>    H       -3.18864         1.90933         3.03888
| 90>    H       -4.04252         1.86286         5.31277
| 91>    H       -5.53938         2.74752         7.05675
| 92>    H       -7.06662         4.61340         6.55298
| 93>    H       -7.10879         5.60803         4.29996
| 94>    H       -3.12248         5.26801        -2.27069
| 95>    H       -0.61497         8.17740        -5.84320
| 96>    H       -2.10362         7.22194        -5.68701
| 97>    H       -0.86109         6.76592        -6.86824
| 98>    H        2.92584         6.36930        -5.69152
| 99>    H        1.85366         7.77917        -5.82362
|100>    H        1.59497         6.38249        -6.86564
|101>    H        1.76145        -0.79938         1.58744
|102>    H        0.57448         0.51174         1.50773
|103>    H        1.76577         0.45608         2.82013
|104>    H        5.62343        -0.00951         1.96961
|105>    H        4.20834        -1.06727         1.79835
|106>    H        4.21942         0.17901         3.04162
|107>    H        6.99484         6.88021        -5.71042
|108>    H        6.63453         8.05170        -4.44441
|109>    H        5.48125         6.74713        -4.78748
|110>    H       10.43419         7.24418        -3.66326
|111>    H        9.00427         8.23653        -4.02333
|112>    H        9.54445         7.01371        -5.17375
|113>    H       10.11889         2.71286         0.43250
|114>    H       14.89443         4.84576         1.10739
|115>    H       13.60741         6.12148        -3.53991
|116>    H       15.59242         7.51030        -3.70115
|117>    H       17.65272         8.42423        -2.70978
|118>    H       18.31056         7.80332        -0.41855
|119>    H       16.91067         6.26262         0.89878
|120> *
|121>
|122>                          ****END OF INPUT****

CARTESIAN COORDINATES (ANGSTROEM)
---------------------------------
  C     -3.133160    2.972630    0.330760
  C     -2.529150    1.770300    0.050780
  C     -2.291780    0.768620    1.006630
  N     -2.028850   -0.062050    1.756220
  C     -2.164530    1.391880   -1.256600
  N     -1.922240    1.028170   -2.318630
  C     -3.873440    3.287790    1.548670
  C     -4.750510    4.375840    1.266750
  C     -5.597900    4.874270    2.212090
  C     -5.595160    4.308250    3.508310
  C     -4.711720    3.229380    3.798630
  C     -3.853380    2.723430    2.793970
  C     -4.712780    2.682220    5.097290
  C     -5.546160    3.174290    6.064810
  C     -6.416180    4.236080    5.777990
  C     -6.440720    4.789840    4.526530
  C     -4.537440    4.826140   -0.125070
  O     -5.132540    5.694450   -0.723410
  C     -3.376800    4.035500   -0.608540
  C     -2.636350    4.512490   -1.660090
  C     -1.289070    4.315290   -1.970060
  C     -0.618860    4.984680   -3.018380
  C      0.784900    4.780650   -3.009610
  N      1.590760    5.335740   -3.922680
  C      1.016770    6.084540   -4.836120
  C     -0.396420    6.308490   -4.840370
  N     -1.190360    5.767590   -3.945820
  C     -1.034830    7.173100   -5.873240
  C      1.903920    6.692090   -5.868530
  C      1.209240    3.946130   -1.957780
  S     -0.134110    3.417800   -1.011970
  C      2.511360    3.572570   -1.650770
  C      2.868710    2.626700   -0.670070
  C      4.269930    2.463180   -0.552290
  N      4.801300    1.605200    0.328570
  C      3.956420    0.912360    1.057610
  C      2.537040    1.070160    0.931880
  N      2.012060    1.927460    0.085680
  C      1.600840    0.263440    1.761070
  C      4.539840   -0.055660    2.027840
  C      4.987730    3.306930   -1.422000
  S      3.916360    4.244640   -2.420280
  C      6.365880    3.481200   -1.452270
  C      7.040680    4.436930   -2.237300
  C      8.437300    4.482150   -1.994980
  N      9.189310    5.425090   -2.588740
  C      8.593100    6.221230   -3.446530
  C      7.196580    6.120880   -3.732340
  N      6.436550    5.252530   -3.105110
  C      6.534730    7.005880   -4.731630
  C      9.445480    7.245800   -4.113560
  C      8.860660    3.522610   -1.052100
  S      7.477690    2.630830   -0.449770
  C     10.120290    3.271550   -0.499230
  C     11.357880    3.714200   -0.890640
  C     11.848020    4.295910   -2.110450
  C     11.358230    4.067110   -3.373230
  C     11.871900    4.661990   -4.538690
  N     12.222390    5.150820   -5.518010
  C     10.311380    3.165880   -3.640790
  N      9.481840    2.414140   -3.898160
  C     13.095520    4.986340   -1.795890
  C     13.476640    4.642320   -0.465950
  C     12.447530    3.761280    0.119510
  O     12.454230    3.228660    1.207720
  C     14.619730    5.124530    0.100820
  C     15.441590    6.001570   -0.644170
  C     15.060350    6.359190   -1.969040
  C     13.875380    5.832020   -2.535450
  C     15.883560    7.242310   -2.695900
  C     17.029070    7.748300   -2.143820
  C     17.404050    7.394640   -0.839650
  C     16.627300    6.538830   -0.106490
  H     -6.261790    5.693320    1.978410
  H     -3.188640    1.909330    3.038880
  H     -4.042520    1.862860    5.312770
  H     -5.539380    2.747520    7.056750
  H     -7.066620    4.613400    6.552980
  H     -7.108790    5.608030    4.299960
  H     -3.122480    5.268010   -2.270690
  H     -0.614970    8.177400   -5.843200
  H     -2.103620    7.221940   -5.687010
  H     -0.861090    6.765920   -6.868240
  H      2.925840    6.369300   -5.691520
  H      1.853660    7.779170   -5.823620
  H      1.594970    6.382490   -6.865640
  H      1.761450   -0.799380    1.587440
  H      0.574480    0.511740    1.507730
  H      1.765770    0.456080    2.820130
  H      5.623430   -0.009510    1.969610
  H      4.208340   -1.067270    1.798350
  H      4.219420    0.179010    3.041620
  H      6.994840    6.880210   -5.710420
  H      6.634530    8.051700   -4.444410
  H      5.481250    6.747130   -4.787480
  H     10.434190    7.244180   -3.663260
  H      9.004270    8.236530   -4.023330
  H      9.544450    7.013710   -5.173750
  H     10.118890    2.712860    0.432500
  H     14.894430    4.845760    1.107390
  H     13.607410    6.121480   -3.539910
  H     15.592420    7.510300   -3.701150
  H     17.652720    8.424230   -2.709780
  H     18.310560    7.803320   -0.418550
  H     16.910670    6.262620    0.898780

 Total Charge           Charge          ....    0
 Multiplicity           Mult            ....    1
 Number of Electrons    NEL             ....  514
 Basis Dimension        Dim             .... 1194

ORBITAL ENERGIES
----------------

  NO   OCC          E(Eh)            E(eV)
   0   2.0000     -88.984988     -2421.4046
   1   2.0000     -88.982350     -2421.3328
   2   2.0000     -88.980178     -2421.2737
   3   2.0000     -19.200302      -522.4668
   4   2.0000     -19.199019      -522.4319
   5   2.0000     -14.435433      -392.8081
   6   2.0000     -14.434992      -392.7961
   7   2.0000     -14.434388      -392.7797
   8   2.0000     -14.433680      -392.7604
   9   2.0000     -14.427889      -392.6028
  10   2.0000     -14.425112      -392.5272
  11   2.0000     -14.409419      -392.1002
  12   2.0000     -14.403824      -391.9480
  13   2.0000     -14.402514      -391.9123
  14   2.0000     -14.399877      -391.8406
  15   2.0000     -10.351524      -281.6793
  16   2.0000     -10.351385      -281.6755
  17   2.0000     -10.336892      -281.2811
  18   2.0000     -10.336226      -281.2630
  19   2.0000     -10.335704      -281.2488
  20   2.0000     -10.334264      -281.2096
  21   2.0000     -10.333600      -281.1915
  22   2.0000     -10.333518      -281.1893
  23   2.0000     -10.332793      -281.1696
  24   2.0000     -10.332536      -281.1626
  25   2.0000     -10.329460      -281.0789
  26   2.0000     -10.328860      -281.0626
  27   2.0000     -10.325709      -280.9768
  28   2.0000     -10.324881      -280.9543
  29   2.0000     -10.324165      -280.9348
  30   2.0000     -10.324137      -280.9340
  31   2.0000     -10.323402      -280.9140
  32   2.0000     -10.323016      -280.9036
  33   2.0000     -10.322370      -280.8860
  34   2.0000     -10.320638      -280.8388
  35   2.0000     -10.320400      -280.8324
  36   2.0000     -10.320349      -280.8310
  37   2.0000     -10.313350      -280.6405
  38   2.0000     -10.312265      -280.6110
  39   2.0000     -10.308745      -280.5152
  40   2.0000     -10.308379      -280.5052
  41   2.0000     -10.307630      -280.4849
  42   2.0000     -10.307267      -280.4750
  43   2.0000     -10.304872      -280.4098
  44   2.0000     -10.302446      -280.3438
  45   2.0000     -10.293485      -280.1000
  46   2.0000     -10.290323      -280.0139
  47   2.0000     -10.289379      -279.9882
  48   2.0000     -10.288848      -279.9738
  49   2.0000     -10.287525      -279.9378
  50   2.0000     -10.287323      -279.9323
  51   2.0000     -10.286895      -279.9206
  52   2.0000     -10.286641      -279.9137
  53   2.0000     -10.285613      -279.8858
  54   2.0000     -10.283911      -279.8395
  55   2.0000     -10.281705      -279.7794
  56   2.0000     -10.280602      -279.7494
  57   2.0000     -10.279526      -279.7201
  58   2.0000     -10.279261      -279.7129
  59   2.0000     -10.279255      -279.7128
  60   2.0000     -10.278983      -279.7053
  61   2.0000     -10.278882      -279.7026
  62   2.0000     -10.278669      -279.6968
  63   2.0000     -10.278400      -279.6895
  64   2.0000     -10.277629      -279.6685
  65   2.0000     -10.277474      -279.6643
  66   2.0000     -10.277284      -279.6591
  67   2.0000     -10.276838      -279.6470
  68   2.0000     -10.276676      -279.6426
  69   2.0000     -10.276433      -279.6360
  70   2.0000     -10.276116      -279.6273
  71   2.0000     -10.274014      -279.5701
  72   2.0000     -10.270343      -279.4702
  73   2.0000      -8.077293      -219.7943
  74   2.0000      -8.076194      -219.7644
  75   2.0000      -8.073125      -219.6809
  76   2.0000      -6.046609      -164.5366
  77   2.0000      -6.045261      -164.4999
  78   2.0000      -6.042258      -164.4182
  79   2.0000      -6.042043      -164.4123
  80   2.0000      -6.041067      -164.3858
  81   2.0000      -6.039954      -164.3555
  82   2.0000      -6.038927      -164.3275
  83   2.0000      -6.037897      -164.2995
  84   2.0000      -6.035900      -164.2452
  85   2.0000      -1.114893       -30.3378
  86   2.0000      -1.114014       -30.3139
  87   2.0000      -1.095751       -29.8169
  88   2.0000      -1.091967       -29.7139
  89   2.0000      -1.090816       -29.6826
  90   2.0000      -1.021155       -27.7870
  91   2.0000      -1.018770       -27.7222
  92   2.0000      -1.015336       -27.6287
  93   2.0000      -1.009709       -27.4756
  94   2.0000      -1.005746       -27.3677
  95   2.0000      -1.001338       -27.2478
  96   2.0000      -0.992997       -27.0208
  97   2.0000      -0.988833       -26.9075
  98   2.0000      -0.985758       -26.8238
  99   2.0000      -0.984098       -26.7787
 100   2.0000      -0.980810       -26.6892
 101   2.0000      -0.976661       -26.5763
 102   2.0000      -0.961545       -26.1650
 103   2.0000      -0.958866       -26.0921
 104   2.0000      -0.916781       -24.9469
 105   2.0000      -0.913700       -24.8630
 106   2.0000      -0.904161       -24.6035
 107   2.0000      -0.900452       -24.5025
 108   2.0000      -0.896465       -24.3940
 109   2.0000      -0.893673       -24.3181
 110   2.0000      -0.891651       -24.2631
 111   2.0000      -0.880649       -23.9637
 112   2.0000      -0.873330       -23.7645
 113   2.0000      -0.871409       -23.7123
 114   2.0000      -0.868913       -23.6443
 115   2.0000      -0.854305       -23.2468
 116   2.0000      -0.838488       -22.8164
 117   2.0000      -0.835562       -22.7368
 118   2.0000      -0.820799       -22.3351
 119   2.0000      -0.819601       -22.3025
 120   2.0000      -0.817402       -22.2426
 121   2.0000      -0.815131       -22.1808
 122   2.0000      -0.813676       -22.1413
 123   2.0000      -0.807366       -21.9695
 124   2.0000      -0.803589       -21.8668
 125   2.0000      -0.799516       -21.7559
 126   2.0000      -0.781853       -21.2753
 127   2.0000      -0.760544       -20.6955
 128   2.0000      -0.749090       -20.3838
 129   2.0000      -0.746311       -20.3082
 130   2.0000      -0.733892       -19.9702
 131   2.0000      -0.727946       -19.8084
 132   2.0000      -0.724976       -19.7276
 133   2.0000      -0.724664       -19.7191
 134   2.0000      -0.718183       -19.5428
 135   2.0000      -0.711962       -19.3735
 136   2.0000      -0.701150       -19.0792
 137   2.0000      -0.696390       -18.9497
 138   2.0000      -0.692827       -18.8528
 139   2.0000      -0.691992       -18.8301
 140   2.0000      -0.690435       -18.7877
 141   2.0000      -0.667998       -18.1772
 142   2.0000      -0.662786       -18.0353
 143   2.0000      -0.660765       -17.9803
 144   2.0000      -0.659678       -17.9508
 145   2.0000      -0.653766       -17.7899
 146   2.0000      -0.653615       -17.7858
 147   2.0000      -0.649797       -17.6819
 148   2.0000      -0.634991       -17.2790
 149   2.0000      -0.625495       -17.0206
 150   2.0000      -0.621747       -16.9186
 151   2.0000      -0.619877       -16.8677
 152   2.0000      -0.606901       -16.5146
 153   2.0000      -0.598544       -16.2872
 154   2.0000      -0.597716       -16.2647
 155   2.0000      -0.595535       -16.2053
 156   2.0000      -0.592002       -16.1092
 157   2.0000      -0.584172       -15.8961
 158   2.0000      -0.572324       -15.5737
 159   2.0000      -0.570399       -15.5213
 160   2.0000      -0.566504       -15.4154
 161   2.0000      -0.562107       -15.2957
 162   2.0000      -0.559366       -15.2211
 163   2.0000      -0.558538       -15.1986
 164   2.0000      -0.557399       -15.1676
 165   2.0000      -0.548794       -14.9334
 166   2.0000      -0.543852       -14.7990
 167   2.0000      -0.538232       -14.6461
 168   2.0000      -0.536068       -14.5871
 169   2.0000      -0.535385       -14.5686
 170   2.0000      -0.533099       -14.5064
 171   2.0000      -0.526782       -14.3345
 172   2.0000      -0.524243       -14.2654
 173   2.0000      -0.523653       -14.2493
 174   2.0000      -0.519919       -14.1477
 175   2.0000      -0.518719       -14.1151
 176   2.0000      -0.517522       -14.0825
 177   2.0000      -0.516471       -14.0539
 178   2.0000      -0.515800       -14.0356
 179   2.0000      -0.512899       -13.9567
 180   2.0000      -0.508221       -13.8294
 181   2.0000      -0.506232       -13.7753
 182   2.0000      -0.506149       -13.7730
 183   2.0000      -0.502157       -13.6644
 184   2.0000      -0.501876       -13.6567
 185   2.0000      -0.501452       -13.6452
 186   2.0000      -0.500815       -13.6279
 187   2.0000      -0.500106       -13.6086
 188   2.0000      -0.497546       -13.5389
 189   2.0000      -0.496186       -13.5019
 190   2.0000      -0.492854       -13.4112
 191   2.0000      -0.491186       -13.3659
 192   2.0000      -0.488544       -13.2940
 193   2.0000      -0.487866       -13.2755
 194   2.0000      -0.485963       -13.2237
 195   2.0000      -0.485566       -13.2129
 196   2.0000      -0.484243       -13.1769
 197   2.0000      -0.482229       -13.1221
 198   2.0000      -0.480827       -13.0840
 199   2.0000      -0.476966       -12.9789
 200   2.0000      -0.476442       -12.9646
 201   2.0000      -0.474679       -12.9167
 202   2.0000      -0.471350       -12.8261
 203   2.0000      -0.470725       -12.8091
 204   2.0000      -0.469023       -12.7628
 205   2.0000      -0.460346       -12.5267
 206   2.0000      -0.455178       -12.3860
 207   2.0000      -0.454016       -12.3544
 208   2.0000      -0.452832       -12.3222
 209   2.0000      -0.451049       -12.2737
 210   2.0000      -0.447511       -12.1774
 211   2.0000      -0.445309       -12.1175
 212   2.0000      -0.441898       -12.0247
 213   2.0000      -0.440875       -11.9968
 214   2.0000      -0.438155       -11.9228
 215   2.0000      -0.437673       -11.9097
 216   2.0000      -0.435746       -11.8572
 217   2.0000      -0.434246       -11.8164
 218   2.0000      -0.432872       -11.7790
 219   2.0000      -0.431545       -11.7429
 220   2.0000      -0.429379       -11.6840
 221   2.0000      -0.425103       -11.5676
 222   2.0000      -0.422760       -11.5039
 223   2.0000      -0.420784       -11.4501
 224   2.0000      -0.419705       -11.4208
 225   2.0000      -0.417319       -11.3558
 226   2.0000      -0.416981       -11.3466
 227   2.0000      -0.412953       -11.2370
 228   2.0000      -0.408798       -11.1240
 229   2.0000      -0.407426       -11.0866
 230   2.0000      -0.404127       -10.9968
 231   2.0000      -0.402450       -10.9512
 232   2.0000      -0.398396       -10.8409
 233   2.0000      -0.395168       -10.7531
 234   2.0000      -0.389610       -10.6018
 235   2.0000      -0.388025       -10.5587
 236   2.0000      -0.387462       -10.5434
 237   2.0000      -0.381598       -10.3838
 238   2.0000      -0.369924       -10.0661
 239   2.0000      -0.367008        -9.9868
 240   2.0000      -0.357527        -9.7288
 241   2.0000      -0.348527        -9.4839
 242   2.0000      -0.335604        -9.1322
 243   2.0000      -0.333676        -9.0798
 244   2.0000      -0.328325        -8.9342
 245   2.0000      -0.327069        -8.9000
 246   2.0000      -0.325849        -8.8668
 247   2.0000      -0.324515        -8.8305
 248   2.0000      -0.322066        -8.7639
 249   2.0000      -0.321902        -8.7594
 250   2.0000      -0.316867        -8.6224
 251   2.0000      -0.306019        -8.3272
 252   2.0000      -0.299841        -8.1591
 253   2.0000      -0.287479        -7.8227
 254   2.0000      -0.282411        -7.6848
 255   2.0000      -0.273596        -7.4449
 256   2.0000      -0.230497        -6.2721
 257   0.0000      -0.123291        -3.3549
 258   0.0000      -0.081332        -2.2132
 259   0.0000      -0.059455        -1.6179
 260   0.0000      -0.047474        -1.2918
 261   0.0000      -0.041917        -1.1406

MULLIKEN ATOMIC CHARGES
-----------------------
   0 C :    0.258543
   1 C :   -0.334732
   2 C :   -0.138833
   3 N :    0.110173
   4 C :   -0.216752
   5 N :    0.166096
   6 C :    0.048361
   7 C :    0.007878
   8 C :   -0.088552
   9 C :    0.095952
  10 C :    0.098481
  11 C :   -0.091246
  12 C :   -0.021810
  13 C :    0.036305
  14 C :    0.034533
  15 C :   -0.018334
  16 C :    0.141632
  17 O :   -0.150108
  18 C :   -0.142756
  19 C :    0.020577
  20 C :   -0.142990
  21 C :    0.057858
  22 C :    0.013799
  23 N :    0.006744
  24 C :   -0.170414
  25 C :   -0.168386
  26 N :    0.025440
  27 C :    0.128163
  28 C :    0.122914
  29 C :   -0.126353
  30 S :    0.222705
  31 C :   -0.144765
  32 C :    0.023901
  33 C :    0.031132
  34 N :    0.004201
  35 C :   -0.167395
  36 C :   -0.163312
  37 N :    0.002423
  38 C :    0.131747
  39 C :    0.124983
  40 C :   -0.161014
  41 S :    0.275479
  42 C :   -0.113908
  43 C :   -0.001234
  44 C :    0.065645
  45 N :    0.002858
  46 C :   -0.157441
  47 C :   -0.163727
  48 N :   -0.004907
  49 C :    0.126759
  50 C :    0.130628
  51 C :   -0.174156
  52 S :    0.245307
  53 C :    0.061332
  54 C :   -0.148945
  55 C :    0.316216
  56 C :   -0.325452
  57 C :   -0.196350
  58 N :    0.139352
  59 C :   -0.221341
  60 N :    0.157397
  61 C :    0.044720
  62 C :    0.012706
  63 C :    0.134570
  64 O :   -0.153522
  65 C :   -0.084868
  66 C :    0.090647
  67 C :    0.100002
  68 C :   -0.096197
  69 C :   -0.020394
  70 C :    0.031639
  71 C :    0.033424
  72 C :   -0.014988
  73 H :   -0.015114
  74 H :   -0.012743
  75 H :   -0.015617
  76 H :   -0.009433
  77 H :   -0.008623
  78 H :   -0.019761
  79 H :    0.025646
  80 H :    0.026493
  81 H :    0.036829
  82 H :    0.030709
  83 H :    0.033188
  84 H :    0.028541
  85 H :    0.028975
  86 H :    0.034387
  87 H :    0.034034
  88 H :    0.028332
  89 H :    0.034047
  90 H :    0.034815
  91 H :    0.030470
  92 H :    0.033757
  93 H :    0.029069
  94 H :    0.028585
  95 H :    0.033536
  96 H :    0.021914
  97 H :    0.046617
  98 H :    0.011027
  99 H :   -0.017156
 100 H :   -0.015049
 101 H :   -0.016101
 102 H :   -0.008361
 103 H :   -0.009948
 104 H :   -0.021106
Sum of atomic charges:   -0.0000000

LOEWDIN ATOMIC CHARGES
----------------------
   0 C :    0.064016
   1 C :   -0.163559
   2 C :   -0.012330
   3 N :   -0.071605
   4 C :   -0.043321
   5 N :   -0.053740
   6 C :   -0.020340
   7 C :   -0.053361
   8 C :    0.027372
   9 C :   -0.010365
  10 C :   -0.007234
  11 C :    0.008908
  12 C :   -0.009199
  13 C :   -0.016859
  14 C :   -0.016913
  15 C :   -0.010546
  16 C :    0.080586
  17 O :   -0.152295
  18 C :   -0.110885
  19 C :    0.057005
  20 C :   -0.202969
  21 C :   -0.018158
  22 C :   -0.059406
  23 N :   -0.051638
  24 C :   -0.000308
  25 C :    0.012016
  26 N :   -0.043747
  27 C :   -0.050797
  28 C :   -0.052333
  29 C :   -0.160299
  30 S :    0.566593
  31 C :   -0.198474
  32 C :   -0.044881
  33 C :   -0.045611
  34 N :   -0.053990
  35 C :    0.011284
  36 C :    0.014595
  37 N :   -0.054544
  38 C :   -0.049858
  39 C :   -0.050463
  40 C :   -0.192336
  41 S :    0.565089
  42 C :   -0.164928
  43 C :   -0.049865
  44 C :   -0.025979
  45 N :   -0.039824
  46 C :    0.021360
  47 C :    0.004236
  48 N :   -0.050061
  49 C :   -0.051910
  50 C :   -0.050800
  51 C :   -0.194845
  52 S :    0.539094
  53 C :    0.036016
  54 C :   -0.093723
  55 C :    0.071235
  56 C :   -0.143767
  57 C :   -0.016961
  58 N :   -0.074809
  59 C :   -0.019454
  60 N :   -0.067354
  61 C :   -0.016455
  62 C :   -0.055521
  63 C :    0.081852
  64 O :   -0.154074
  65 C :    0.028680
  66 C :   -0.012136
  67 C :   -0.006279
  68 C :    0.005523
  69 C :   -0.009723
  70 C :   -0.017210
  71 C :   -0.018335
  72 C :   -0.010512
  73 H :    0.037930
  74 H :    0.036258
  75 H :    0.032221
  76 H :    0.031329
  77 H :    0.031281
  78 H :    0.030847
  79 H :    0.053768
  80 H :    0.038926
  81 H :    0.042740
  82 H :    0.040783
  83 H :    0.038750
  84 H :    0.038977
  85 H :    0.040142
  86 H :    0.043768
  87 H :    0.042444
  88 H :    0.040842
  89 H :    0.041277
  90 H :    0.042764
  91 H :    0.040678
  92 H :    0.042160
  93 H :    0.039295
  94 H :    0.038919
  95 H :    0.040748
  96 H :    0.036402
  97 H :    0.048087
  98 H :    0.042816
  99 H :    0.037284
 100 H :    0.035470
 101 H :    0.032150
 102 H :    0.031265
 103 H :    0.030747
 104 H :    0.030359

  Mayer bond orders larger than 0.100000
B(  0-C ,  1-C ) :   1.6035 B(  0-C ,  6-C ) :   1.0070 B(  0-C , 18-C ) :   1.0762
B(  1-C ,  2-C ) :   1.1541 B(  1-C ,  4-C ) :   1.1481 B(  2-C ,  3-N ) :   2.8961
B(  4-C ,  5-N ) :   3.0243 B(  6-C ,  7-C ) :   1.2128 B(  6-C , 11-C ) :   1.4650
B(  7-C ,  8-C ) :   1.4844 B(  7-C , 16-C ) :   0.9156 B(  8-C ,  9-C ) :   1.1755
B(  8-C , 73-H ) :   1.0170 B(  9-C , 10-C ) :   1.2625 B(  9-C , 15-C ) :   1.2472
B( 10-C , 11-C ) :   1.1927 B( 10-C , 12-C ) :   1.2430 B( 11-C , 74-H ) :   0.9956
B( 12-C , 13-C ) :   1.4861 B( 12-C , 75-H ) :   0.9980 B( 13-C , 14-C ) :   1.2616
B( 13-C , 76-H ) :   0.9887 B( 14-C , 15-C ) :   1.4860 B( 14-C , 77-H ) :   0.9890
B( 15-C , 78-H ) :   0.9983 B( 16-C , 17-O ) :   2.2627 B( 16-C , 18-C ) :   0.9579
B( 18-C , 19-C ) :   1.4941 B( 19-C , 20-C ) :   1.2825 B( 19-C , 79-H ) :   0.9521
B( 20-C , 21-C ) :   1.2782 B( 20-C , 29-C ) :   0.1128 B( 20-C , 30-S ) :   1.0679
B( 21-C , 22-C ) :   1.2639 B( 21-C , 26-N ) :   1.4362 B( 22-C , 23-N ) :   1.4316
B( 22-C , 29-C ) :   1.2205 B( 23-N , 24-C ) :   1.6939 B( 24-C , 25-C ) :   1.1479
B( 24-C , 28-C ) :   1.0960 B( 25-C , 26-N ) :   1.7085 B( 25-C , 27-C ) :   1.0974
B( 27-C , 80-H ) :   0.9395 B( 27-C , 81-H ) :   0.9415 B( 27-C , 82-H ) :   0.9399
B( 28-C , 83-H ) :   0.9440 B( 28-C , 84-H ) :   0.9387 B( 28-C , 85-H ) :   0.9365
B( 29-C , 30-S ) :   1.2288 B( 29-C , 31-C ) :   1.3416 B( 31-C , 32-C ) :   1.2582
B( 31-C , 40-C ) :   0.1226 B( 31-C , 41-S ) :   1.1244 B( 32-C , 33-C ) :   1.2723
B( 32-C , 37-N ) :   1.4101 B( 33-C , 34-N ) :   1.4198 B( 33-C , 40-C ) :   1.2564
B( 34-N , 35-C ) :   1.6978 B( 35-C , 36-C ) :   1.1386 B( 35-C , 39-C ) :   1.1003
B( 36-C , 37-N ) :   1.6968 B( 36-C , 38-C ) :   1.0964 B( 38-C , 86-H ) :   0.9354
B( 38-C , 87-H ) :   0.9391 B( 38-C , 88-H ) :   0.9353 B( 39-C , 89-H ) :   0.9428
B( 39-C , 90-H ) :   0.9391 B( 39-C , 91-H ) :   0.9391 B( 40-C , 41-S ) :   1.1442
B( 40-C , 42-C ) :   1.3284 B( 42-C , 43-C ) :   1.2439 B( 42-C , 51-C ) :   0.1103
B( 42-C , 52-S ) :   1.2100 B( 43-C , 44-C ) :   1.2608 B( 43-C , 48-N ) :   1.4217
B( 44-C , 45-N ) :   1.4114 B( 44-C , 51-C ) :   1.2792 B( 45-N , 46-C ) :   1.6690
B( 46-C , 47-C ) :   1.1484 B( 46-C , 50-C ) :   1.1017 B( 47-C , 48-N ) :   1.6850
B( 47-C , 49-C ) :   1.0994 B( 49-C , 92-H ) :   0.9362 B( 49-C , 93-H ) :   0.9365
B( 49-C , 94-H ) :   0.9427 B( 50-C , 95-H ) :   0.9396 B( 50-C , 96-H ) :   0.9376
B( 50-C , 97-H ) :   0.9342 B( 51-C , 52-S ) :   1.0895 B( 51-C , 53-C ) :   1.2344
B( 53-C , 54-C ) :   1.5764 B( 53-C , 98-H ) :   0.9233 B( 54-C , 55-C ) :   1.0888
B( 54-C , 63-C ) :   0.9523 B( 55-C , 56-C ) :   1.6062 B( 55-C , 61-C ) :   0.9977
B( 56-C , 57-C ) :   1.1630 B( 56-C , 59-C ) :   1.1661 B( 57-C , 58-N ) :   2.9512
B( 59-C , 60-N ) :   3.0041 B( 61-C , 62-C ) :   1.2122 B( 61-C , 68-C ) :   1.4647
B( 62-C , 63-C ) :   0.9171 B( 62-C , 65-C ) :   1.4808 B( 63-C , 64-O ) :   2.2579
B( 65-C , 66-C ) :   1.1771 B( 65-C , 99-H ) :   1.0155 B( 66-C , 67-C ) :   1.2629
B( 66-C , 72-C ) :   1.2484 B( 67-C , 68-C ) :   1.1929 B( 67-C , 69-C ) :   1.2438
B( 68-C ,100-H ) :   0.9941 B( 69-C , 70-C ) :   1.4862 B( 69-C ,101-H ) :   0.9970
B( 70-C , 71-C ) :   1.2630 B( 70-C ,102-H ) :   0.9886 B( 71-C , 72-C ) :   1.4862
B( 71-C ,103-H ) :   0.9891 B( 72-C ,104-H ) :   0.9967

-----------------------------------------------------------------------------
         ABSORPTION SPECTRUM VIA TRANSITION ELECTRIC DIPOLE MOMENTS
-----------------------------------------------------------------------------
State   Energy  Wavelength   fosc         T2         TX        TY        TZ
        (cm-1)    (nm)                  (au**2)     (au)      (au)      (au)
-----------------------------------------------------------------------------
   0    9078.8   1101.5   1.142416526  41.42564  -6.38411  -0.38415   0.72194
   1   17146.6    583.2   0.009034731   0.17347  -0.29117   0.00348  -0.29778
   2   18174.4    550.2   0.000826672   0.01497  -0.06446   0.08058   0.06578
   3   20516.1    487.4   0.097164479   1.55915   1.23205   0.15715   0.12847
   4   21391.9    467.5   0.108396676   1.66817  -0.49250  -0.51049   1.07936
   5   22662.2    441.3   0.021447938   0.31157  -0.34016  -0.41457  -0.15490
   6   23885.7    418.7   0.000943749   0.01301   0.02518   0.09822   0.05221
   7   24208.7    413.1   0.072005415   0.97920   0.41699  -0.83088   0.33904
   8   24920.9    401.3   0.009082431   0.11998   0.27938   0.20379   0.01998
   9   25369.4    394.2   0.042145927   0.54692   0.23168   0.24420  -0.65849
  10   25488.0    392.3   0.058196225   0.75168  -0.53271   0.63844  -0.24556
  11   25678.1    389.4   0.009090942   0.11655   0.16573  -0.00629   0.29841
  12   26346.9    379.6   0.048668450   0.60813   0.75238  -0.10924  -0.17354
  13   26572.9    376.3   0.104553073   1.29531   0.98740   0.32601   0.46268
  14   26966.9    370.8   0.050409376   0.61540  -0.33645   0.44499   0.55153
  15   27383.3    365.2   0.026905882   0.32347  -0.51056   0.04231  -0.24701
  16   27597.7    362.3   0.122143016   1.45704  -1.10333  -0.06356   0.48544
  17   27734.0    360.6   0.008044400   0.09549   0.04223   0.06020  -0.30014
  18   27980.8    357.4   0.088856438   1.04545  -0.72153   0.12720   0.71321
  19   28283.4    353.6   0.052690307   0.61330  -0.76814   0.15205   0.01216
  20   28903.5    346.0   0.441867219   5.03289   0.14649   1.34106  -1.79249
  21   29425.9    339.8   0.092445851   1.03427   0.65506   0.68147  -0.37520
  22   30913.5    323.5   0.144374399   1.53751   0.52229   0.97793   0.55533
  23   31468.4    317.8   0.198312953   2.07468   1.30015   0.61857   0.04072
  24   31594.7    316.5   0.359802701   3.74909  -1.23656   0.16628   1.48066
  25   32407.0    308.6   0.084390514   0.85729  -0.46169   0.45915  -0.65827
  26   32864.4    304.3   0.001716286   0.01719   0.12295   0.03902   0.02354
  27   33249.5    300.8   0.117388790   1.16230   0.71053   0.54605   0.59939
  28   33391.7    299.5   0.057819896   0.57005  -0.10128   0.50642   0.55075
  29   33966.5    294.4   0.021034038   0.20387  -0.35064   0.27135   0.08537
  30   34164.6    292.7   0.185180529   1.78441   1.15550  -0.00810   0.67020
  31   34270.5    291.8   0.037206444   0.35742  -0.20773   0.00584   0.56056
  32   34482.4    290.0   0.033820275   0.32289  -0.48343   0.07086  -0.29012
  33   34703.3    288.2   0.118756107   1.12658   0.86767   0.20726  -0.57512
  34   34965.1    286.0   0.079474521   0.74829  -0.37861   0.17650  -0.75749
  35   35164.7    284.4   0.007265635   0.06802  -0.19740   0.04984   0.16301
  36   35516.5    281.6   0.055218340   0.51183  -0.09298   0.37497   0.60215
  37   35929.5    278.3   0.043125342   0.39515  -0.09255  -0.26160   0.56404
  38   36033.6    277.5   0.046657265   0.42627   0.63730  -0.06809  -0.12444
  39   36376.3    274.9   0.017828179   0.16135   0.31802  -0.14124   0.20066
  40   36408.0    274.7   0.083090537   0.75133   0.07708   0.68003   0.53193
  41   36564.8    273.5   0.059310389   0.53400  -0.37302   0.31333  -0.54469
  42   36680.3    272.6   0.085049635   0.76333  -0.86957  -0.04915   0.06909
  43   36945.3    270.7   0.343739016   3.06299  -0.08190   1.04316   1.40289
  44   37032.5    270.0   0.151950580   1.35081   0.97411   0.30216  -0.55734
  45   37133.5    269.3   0.060908440   0.53999  -0.13372   0.02496   0.72214
  46   37288.3    268.2   0.040432660   0.35697   0.32379  -0.50135  -0.02801
  47   37437.7    267.1   0.052933710   0.46548   0.59736  -0.29741   0.14206
  48   37664.7    265.5   0.044444498   0.38847   0.54785  -0.25521  -0.15232
  49   38006.1    263.1   0.017506764   0.15165   0.05042  -0.38018  -0.06760
  50   38099.7    262.5   0.013220092   0.11423   0.29746  -0.13046   0.09345
  51   38181.6    261.9   0.056401393   0.48631   0.10101  -0.48476   0.49103
  52   38408.8    260.4   0.030043217   0.25751  -0.13097  -0.22636   0.43488
  53   38645.2    258.8   0.177920955   1.51568  -0.06759  -0.52132   1.11325
  54   38667.3    258.6   0.034760254   0.29595  -0.16071   0.51669  -0.05616
  55   38821.4    257.6   0.013765814   0.11674   0.12601  -0.07368   0.30892
  56   39107.0    255.7   0.045744425   0.38509   0.34012   0.32195   0.40713
  57   39216.9    255.0   0.015729665   0.13204  -0.17031   0.28412   0.14938
  58   39644.3    252.2   0.047429717   0.39386   0.49372   0.37853  -0.08258
  59   40023.7    249.9   0.085965906   0.70711  -0.33005   0.64807  -0.42211

FINAL SINGLE POINT ENERGY     -4117.877479308911

DIPOLE MOMENT
-------------
                                X             Y             Z
Electronic contribution:     -4.34594     -21.95622       2.11720
Nuclear contribution   :      4.65210      24.94240      -0.68441
                        -----------------------------------------
Total Dipole Moment    :      0.30616       2.98618       1.43279
                        -----------------------------------------
Magnitude (a.u.)       :      3.32624
Magnitude (Debye)      :      8.45464

Rotational constants in cm-1:     0.001939     0.000338     0.000311
Rotational constants in MHz :    58.133599    10.123292     9.315009

                             ****ORCA TERMINATED NORMALLY****
TOTAL RUN TIME: 0 days 0 hours 10 minutes 38 seconds 665 msec
