                         Program Version 4.2.0 -  RELEASE  -
|  1> # ORCA input file
|  2> # SCF done       -191.257739112739          0.000609428634
|  3> ! CAM-B3LYP def2-SVP def2/J RIJCOSX Grid4 TightSCF
|  4> %maxcore 5000
|  5> %tddft
|  6>     Mode sTDDFT
|  7>     Ethresh 5.0
|  8>     maxcore 5000
|  9> end
| 10>
| 11> %pal
| 12>   nprocs 6
| 13>   end
| 14> * xyz 0 1
| 15>    C       -9.10308        -6.38460        -1.21620
| 16>    O       -8.02346        -6.95276        -1.21451
| 17>    C      -10.35909        -6.88940        -1.80870
| 18>    C      -11.37227        -5.93016        -1.63039
| 19>    C      -12.65041        -6.19300        -2.09867
| 20>    C      -12.89504        -7.40337        -2.73240
| 21>    C      -11.87884        -8.33372        -2.89722
| 22>    C      -10.58963        -8.09347        -2.43890
| 23>   Br      -12.26169        -9.97916        -3.76664
| 24>    C      -10.80930        -4.77833        -0.92355
| 25>    C      -11.49478        -3.62975        -0.61030
| 26>    C      -12.85101        -3.40909        -0.92652
| 27>    N      -13.95055        -3.16960        -1.15442
| 28>    C      -10.95430        -2.50942         0.05292
| 29>    N      -10.58347        -1.55997         0.58367
| 30>    C       -9.42568        -5.08111        -0.64226
| 31>    C       -8.55570        -4.30077         0.09194
| 32>    C       -7.23341        -4.53546         0.45163
| 33>    S       -6.22372        -5.89062         0.02877
| 34>    C       -4.86920        -5.31025         0.99382
| 35>    C       -5.20599        -4.08988         1.60318
| 36>    C       -6.50856        -3.64811         1.28258
| 37>    C       -6.81696        -2.39229         1.84130
| 38>    C       -5.77092        -1.88730         2.56178
| 39>    C       -5.72541        -0.60454         3.27523
| 40>    O       -4.85322        -0.27902         4.04783
| 41>    O       -6.76891         0.15713         2.94888
| 42>    C       -6.85188         1.44129         3.55661
| 43>    S       -4.38193        -2.93333         2.59452
| 44>    C       -3.73707        -6.12755         0.98769
| 45>    C       -2.63728        -6.13158         1.82327
| 46>    C       -1.52885        -7.00673         1.72760
| 47>    C       -0.61091        -6.86778         2.73265
| 48>    C       -0.96216        -5.88343         3.67227
| 49>    S       -2.47182        -5.12252         3.23173
| 50>    C       -0.35029        -5.46103         4.84778
| 51>    C        0.82705        -5.85454         5.50682
| 52>    C        1.04288        -5.18697         6.68378
| 53>    C        0.04556        -4.24022         7.01433
| 54>    S       -1.16629        -4.22129         5.75692
| 55>    C       -0.00104        -3.43337         8.13697
| 56>    C       -1.01165        -2.52168         8.45484
| 57>    C       -2.20791        -2.25539         7.77615
| 58>    C       -2.94925        -1.26401         8.37638
| 59>    C       -2.35233        -0.73196         9.54440
| 60>    S       -0.85649        -1.49799         9.88966
| 61>    C       -3.18716         0.28362        10.03413
| 62>    C       -4.30605         0.41960         9.16594
| 63>    C       -4.20009        -0.56801         8.11455
| 64>    C       -5.08895        -0.85070         7.11695
| 65>    C       -4.94255        -1.96372         6.26234
| 66>    N       -4.87500        -2.91529         5.62477
| 67>    C       -6.25315        -0.08814         6.90492
| 68>    N       -7.20112         0.52815         6.71055
| 69>    C       -5.19696         1.39135         9.58938
| 70>    C       -4.78822         2.02434        10.76041
| 71>    S       -3.26294         1.35568        11.35694
| 72>    C       -5.55842         2.96445        11.46493
| 73>    C       -5.28103         3.68200        12.59446
| 74>    C       -6.41145         4.16392        13.42855
| 75>    O       -7.57601         4.23443        13.11302
| 76>    C       -5.80638         4.47258        14.74568
| 77>    C       -4.40944         4.32264        14.66764
| 78>    C       -4.05398         3.98845        13.28935
| 79>    C       -2.83045         4.21290        12.71113
| 80>    C       -1.67736         4.57745        13.43273
| 81>    N       -0.70879         4.85109        13.98477
| 82>    C       -2.63630         4.21128        11.31460
| 83>    N       -2.46427         4.27472        10.18134
| 84>    C       -3.62973         4.52495        15.79543
| 85>    C       -4.25544         4.87751        16.98219
| 86>    C       -5.63417         5.03426        17.03482
| 87>    C       -6.43574         4.83396        15.91839
| 88>   Br       -6.44482         5.52550        18.68149
| 89>    H      -13.45550        -5.48686        -1.98038
| 90>    H      -13.88564        -7.62435        -3.09912
| 91>    H       -9.79638        -8.81405        -2.56356
| 92>    H       -8.94924        -3.37278         0.48395
| 93>    H       -7.74861        -1.86906         1.72511
| 94>    H       -7.24053         1.35022         4.57344
| 95>    H       -7.53401         2.02161         2.94063
| 96>    H       -5.86511         1.90729         3.59074
| 97>    H       -3.75750        -6.91446         0.24266
| 98>    H       -1.44177        -7.71412         0.92200
| 99>    H        0.29043        -7.44792         2.81787
|100>    H        1.48256        -6.60917         5.11040
|101>    H        1.89022        -5.35536         7.32492
|102>    H        0.82765        -3.51008         8.82827
|103>    H       -2.52848        -2.76463         6.89032
|104>    H       -6.10676         1.65722         9.08142
|105>    H       -6.58589         3.05073        11.12193
|106>    H       -2.55882         4.40342        15.77095
|107>    H       -3.66727         5.03303        17.87353
|108>    H       -7.50736         4.95351        15.95702
|109> *
|110>
|111>                          ****END OF INPUT****

CARTESIAN COORDINATES (ANGSTROEM)
---------------------------------
  C     -9.103080   -6.384600   -1.216200
  O     -8.023460   -6.952760   -1.214510
  C    -10.359090   -6.889400   -1.808700
  C    -11.372270   -5.930160   -1.630390
  C    -12.650410   -6.193000   -2.098670
  C    -12.895040   -7.403370   -2.732400
  C    -11.878840   -8.333720   -2.897220
  C    -10.589630   -8.093470   -2.438900
  Br   -12.261690   -9.979160   -3.766640
  C    -10.809300   -4.778330   -0.923550
  C    -11.494780   -3.629750   -0.610300
  C    -12.851010   -3.409090   -0.926520
  N    -13.950550   -3.169600   -1.154420
  C    -10.954300   -2.509420    0.052920
  N    -10.583470   -1.559970    0.583670
  C     -9.425680   -5.081110   -0.642260
  C     -8.555700   -4.300770    0.091940
  C     -7.233410   -4.535460    0.451630
  S     -6.223720   -5.890620    0.028770
  C     -4.869200   -5.310250    0.993820
  C     -5.205990   -4.089880    1.603180
  C     -6.508560   -3.648110    1.282580
  C     -6.816960   -2.392290    1.841300
  C     -5.770920   -1.887300    2.561780
  C     -5.725410   -0.604540    3.275230
  O     -4.853220   -0.279020    4.047830
  O     -6.768910    0.157130    2.948880
  C     -6.851880    1.441290    3.556610
  S     -4.381930   -2.933330    2.594520
  C     -3.737070   -6.127550    0.987690
  C     -2.637280   -6.131580    1.823270
  C     -1.528850   -7.006730    1.727600
  C     -0.610910   -6.867780    2.732650
  C     -0.962160   -5.883430    3.672270
  S     -2.471820   -5.122520    3.231730
  C     -0.350290   -5.461030    4.847780
  C      0.827050   -5.854540    5.506820
  C      1.042880   -5.186970    6.683780
  C      0.045560   -4.240220    7.014330
  S     -1.166290   -4.221290    5.756920
  C     -0.001040   -3.433370    8.136970
  C     -1.011650   -2.521680    8.454840
  C     -2.207910   -2.255390    7.776150
  C     -2.949250   -1.264010    8.376380
  C     -2.352330   -0.731960    9.544400
  S     -0.856490   -1.497990    9.889660
  C     -3.187160    0.283620   10.034130
  C     -4.306050    0.419600    9.165940
  C     -4.200090   -0.568010    8.114550
  C     -5.088950   -0.850700    7.116950
  C     -4.942550   -1.963720    6.262340
  N     -4.875000   -2.915290    5.624770
  C     -6.253150   -0.088140    6.904920
  N     -7.201120    0.528150    6.710550
  C     -5.196960    1.391350    9.589380
  C     -4.788220    2.024340   10.760410
  S     -3.262940    1.355680   11.356940
  C     -5.558420    2.964450   11.464930
  C     -5.281030    3.682000   12.594460
  C     -6.411450    4.163920   13.428550
  O     -7.576010    4.234430   13.113020
  C     -5.806380    4.472580   14.745680
  C     -4.409440    4.322640   14.667640
  C     -4.053980    3.988450   13.289350
  C     -2.830450    4.212900   12.711130
  C     -1.677360    4.577450   13.432730
  N     -0.708790    4.851090   13.984770
  C     -2.636300    4.211280   11.314600
  N     -2.464270    4.274720   10.181340
  C     -3.629730    4.524950   15.795430
  C     -4.255440    4.877510   16.982190
  C     -5.634170    5.034260   17.034820
  C     -6.435740    4.833960   15.918390
  Br    -6.444820    5.525500   18.681490
  H    -13.455500   -5.486860   -1.980380
  H    -13.885640   -7.624350   -3.099120
  H     -9.796380   -8.814050   -2.563560
  H     -8.949240   -3.372780    0.483950
  H     -7.748610   -1.869060    1.725110
  H     -7.240530    1.350220    4.573440
  H     -7.534010    2.021610    2.940630
  H     -5.865110    1.907290    3.590740
  H     -3.757500   -6.914460    0.242660
  H     -1.441770   -7.714120    0.922000
  H      0.290430   -7.447920    2.817870
  H      1.482560   -6.609170    5.110400
  H      1.890220   -5.355360    7.324920
  H      0.827650   -3.510080    8.828270
  H     -2.528480   -2.764630    6.890320
  H     -6.106760    1.657220    9.081420
  H     -6.585890    3.050730   11.121930
  H     -2.558820    4.403420   15.770950
  H     -3.667270    5.033030   17.873530
  H     -7.507360    4.953510   15.957020

 Total Charge           Charge          ....    0
 Multiplicity           Mult            ....    1
 Number of Electrons    NEL             ....  596
 Basis Dimension        Dim             .... 1196

ORBITAL ENERGIES
----------------

  NO   OCC          E(Eh)            E(eV)
   0   2.0000    -482.871070    -13139.5898
   1   2.0000    -482.869635    -13139.5508
   2   2.0000     -88.994290     -2421.6577
   3   2.0000     -88.992264     -2421.6026
   4   2.0000     -88.971121     -2421.0273
   5   2.0000     -88.965906     -2420.8854
   6   2.0000     -88.965398     -2420.8716
   7   2.0000     -88.964628     -2420.8506
   8   2.0000     -62.548778     -1702.0388
   9   2.0000     -62.547347     -1701.9998
  10   2.0000     -56.382613     -1534.2489
  11   2.0000     -56.381174     -1534.2097
  12   2.0000     -56.380089     -1534.1802
  13   2.0000     -56.380087     -1534.1802
  14   2.0000     -56.378663     -1534.1414
  15   2.0000     -56.378656     -1534.1412
  16   2.0000     -19.261380      -524.1288
  17   2.0000     -19.221998      -523.0571
  18   2.0000     -19.216441      -522.9059
  19   2.0000     -19.210072      -522.7326
  20   2.0000     -14.435106      -392.7992
  21   2.0000     -14.427371      -392.5887
  22   2.0000     -14.416924      -392.3044
  23   2.0000     -14.415695      -392.2710
  24   2.0000     -14.414881      -392.2489
  25   2.0000     -14.409906      -392.1135
  26   2.0000     -10.410405      -283.2815
  27   2.0000     -10.368795      -282.1492
  28   2.0000     -10.367944      -282.1261
  29   2.0000     -10.366354      -282.0828
  30   2.0000     -10.353224      -281.7255
  31   2.0000     -10.347575      -281.5718
  32   2.0000     -10.344791      -281.4961
  33   2.0000     -10.343790      -281.4688
  34   2.0000     -10.343764      -281.4681
  35   2.0000     -10.341382      -281.4033
  36   2.0000     -10.338321      -281.3200
  37   2.0000     -10.337629      -281.3012
  38   2.0000     -10.336235      -281.2633
  39   2.0000     -10.335997      -281.2568
  40   2.0000     -10.332650      -281.1657
  41   2.0000     -10.332508      -281.1618
  42   2.0000     -10.331601      -281.1372
  43   2.0000     -10.331103      -281.1236
  44   2.0000     -10.330503      -281.1073
  45   2.0000     -10.329470      -281.0792
  46   2.0000     -10.328480      -281.0522
  47   2.0000     -10.326867      -281.0083
  48   2.0000     -10.324151      -280.9344
  49   2.0000     -10.319572      -280.8098
  50   2.0000     -10.319172      -280.7989
  51   2.0000     -10.318924      -280.7922
  52   2.0000     -10.318241      -280.7736
  53   2.0000     -10.316805      -280.7345
  54   2.0000     -10.316785      -280.7340
  55   2.0000     -10.315595      -280.7016
  56   2.0000     -10.314510      -280.6721
  57   2.0000     -10.313499      -280.6446
  58   2.0000     -10.312493      -280.6172
  59   2.0000     -10.311748      -280.5969
  60   2.0000     -10.310585      -280.5653
  61   2.0000     -10.308817      -280.5172
  62   2.0000     -10.308618      -280.5118
  63   2.0000     -10.307801      -280.4895
  64   2.0000     -10.307473      -280.4806
  65   2.0000     -10.306688      -280.4592
  66   2.0000     -10.306440      -280.4525
  67   2.0000     -10.305771      -280.4343
  68   2.0000     -10.305572      -280.4289
  69   2.0000     -10.303729      -280.3787
  70   2.0000     -10.303470      -280.3717
  71   2.0000     -10.303133      -280.3625
  72   2.0000     -10.302562      -280.3470
  73   2.0000     -10.302149      -280.3357
  74   2.0000     -10.301533      -280.3190
  75   2.0000     -10.300020      -280.2778
  76   2.0000     -10.298887      -280.2470
  77   2.0000     -10.298490      -280.2362
  78   2.0000     -10.295870      -280.1649
  79   2.0000     -10.295713      -280.1606
  80   2.0000     -10.292096      -280.0622
  81   2.0000     -10.292077      -280.0617
  82   2.0000      -8.778058      -238.8631
  83   2.0000      -8.776634      -238.8243
  84   2.0000      -8.088349      -220.0952
  85   2.0000      -8.086674      -220.0496
  86   2.0000      -8.064065      -219.4344
  87   2.0000      -8.061893      -219.3753
  88   2.0000      -8.061191      -219.3562
  89   2.0000      -8.059646      -219.3141
  90   2.0000      -6.613892      -179.9732
  91   2.0000      -6.612452      -179.9340
  92   2.0000      -6.600168      -179.5997
  93   2.0000      -6.599750      -179.5883
  94   2.0000      -6.598737      -179.5608
  95   2.0000      -6.598352      -179.5503
  96   2.0000      -6.057635      -164.8366
  97   2.0000      -6.056000      -164.7921
  98   2.0000      -6.053413      -164.7217
  99   2.0000      -6.051939      -164.6816
 100   2.0000      -6.050698      -164.6479
 101   2.0000      -6.048802      -164.5963
 102   2.0000      -6.033649      -164.1839
 103   2.0000      -6.031602      -164.1282
 104   2.0000      -6.030850      -164.1078
 105   2.0000      -6.029323      -164.0662
 106   2.0000      -6.028943      -164.0559
 107   2.0000      -6.027310      -164.0114
 108   2.0000      -6.026654      -163.9936
 109   2.0000      -6.026150      -163.9799
 110   2.0000      -6.024903      -163.9459
 111   2.0000      -6.023058      -163.8957
 112   2.0000      -6.022183      -163.8719
 113   2.0000      -6.021204      -163.8453
 114   2.0000      -2.729831       -74.2825
 115   2.0000      -2.728383       -74.2431
 116   2.0000      -2.726060       -74.1799
 117   2.0000      -2.725759       -74.1717
 118   2.0000      -2.724653       -74.1416
 119   2.0000      -2.724314       -74.1323
 120   2.0000      -2.714845       -73.8747
 121   2.0000      -2.714827       -73.8742
 122   2.0000      -2.713444       -73.8366
 123   2.0000      -2.713428       -73.8361
 124   2.0000      -1.194383       -32.5008
 125   2.0000      -1.136277       -30.9197
 126   2.0000      -1.131959       -30.8022
 127   2.0000      -1.101857       -29.9830
 128   2.0000      -1.049217       -28.5506
 129   2.0000      -1.024850       -27.8876
 130   2.0000      -1.021827       -27.8053
 131   2.0000      -1.020918       -27.7806
 132   2.0000      -1.017586       -27.6899
 133   2.0000      -1.015789       -27.6410
 134   2.0000      -1.008843       -27.4520
 135   2.0000      -1.002831       -27.2884
 136   2.0000      -1.001251       -27.2454
 137   2.0000      -0.999568       -27.1996
 138   2.0000      -0.994891       -27.0724
 139   2.0000      -0.992529       -27.0081
 140   2.0000      -0.990920       -26.9643
 141   2.0000      -0.966762       -26.3069
 142   2.0000      -0.963423       -26.2161
 143   2.0000      -0.959742       -26.1159
 144   2.0000      -0.956702       -26.0332
 145   2.0000      -0.927745       -25.2452
 146   2.0000      -0.920847       -25.0575
 147   2.0000      -0.910562       -24.7776
 148   2.0000      -0.907492       -24.6941
 149   2.0000      -0.905404       -24.6373
 150   2.0000      -0.896375       -24.3916
 151   2.0000      -0.888747       -24.1840
 152   2.0000      -0.879551       -23.9338
 153   2.0000      -0.878069       -23.8935
 154   2.0000      -0.869140       -23.6505
 155   2.0000      -0.864907       -23.5353
 156   2.0000      -0.860715       -23.4212
 157   2.0000      -0.856733       -23.3129
 158   2.0000      -0.853625       -23.2283
 159   2.0000      -0.849681       -23.1210
 160   2.0000      -0.843252       -22.9461
 161   2.0000      -0.839565       -22.8457
 162   2.0000      -0.826827       -22.4991
 163   2.0000      -0.808903       -22.0114
 164   2.0000      -0.802291       -21.8314
 165   2.0000      -0.796091       -21.6627
 166   2.0000      -0.784898       -21.3582
 167   2.0000      -0.778582       -21.1863
 168   2.0000      -0.766734       -20.8639
 169   2.0000      -0.766471       -20.8567
 170   2.0000      -0.757414       -20.6103
 171   2.0000      -0.740870       -20.1601
 172   2.0000      -0.723276       -19.6813
 173   2.0000      -0.719375       -19.5752
 174   2.0000      -0.708733       -19.2856
 175   2.0000      -0.703666       -19.1477
 176   2.0000      -0.697342       -18.9756
 177   2.0000      -0.695843       -18.9349
 178   2.0000      -0.694143       -18.8886
 179   2.0000      -0.688252       -18.7283
 180   2.0000      -0.684348       -18.6221
 181   2.0000      -0.681717       -18.5505
 182   2.0000      -0.674292       -18.3484
 183   2.0000      -0.663914       -18.0660
 184   2.0000      -0.652323       -17.7506
 185   2.0000      -0.650287       -17.6952
 186   2.0000      -0.644643       -17.5416
 187   2.0000      -0.640137       -17.4190
 188   2.0000      -0.638464       -17.3735
 189   2.0000      -0.634467       -17.2647
 190   2.0000      -0.624396       -16.9907
 191   2.0000      -0.618108       -16.8196
 192   2.0000      -0.617485       -16.8026
 193   2.0000      -0.613529       -16.6950
 194   2.0000      -0.612082       -16.6556
 195   2.0000      -0.609566       -16.5871
 196   2.0000      -0.608103       -16.5473
 197   2.0000      -0.592830       -16.1317
 198   2.0000      -0.585360       -15.9284
 199   2.0000      -0.579944       -15.7811
 200   2.0000      -0.578253       -15.7351
 201   2.0000      -0.574773       -15.6404
 202   2.0000      -0.572795       -15.5865
 203   2.0000      -0.566483       -15.4148
 204   2.0000      -0.558593       -15.2001
 205   2.0000      -0.556971       -15.1560
 206   2.0000      -0.552313       -15.0292
 207   2.0000      -0.549996       -14.9662
 208   2.0000      -0.546900       -14.8819
 209   2.0000      -0.542941       -14.7742
 210   2.0000      -0.542061       -14.7502
 211   2.0000      -0.540284       -14.7019
 212   2.0000      -0.538506       -14.6535
 213   2.0000      -0.537944       -14.6382
 214   2.0000      -0.533945       -14.5294
 215   2.0000      -0.530754       -14.4425
 216   2.0000      -0.529154       -14.3990
 217   2.0000      -0.524007       -14.2590
 218   2.0000      -0.522038       -14.2054
 219   2.0000      -0.519509       -14.1366
 220   2.0000      -0.517770       -14.0892
 221   2.0000      -0.515633       -14.0311
 222   2.0000      -0.512125       -13.9356
 223   2.0000      -0.511807       -13.9270
 224   2.0000      -0.507604       -13.8126
 225   2.0000      -0.505961       -13.7679
 226   2.0000      -0.503659       -13.7053
 227   2.0000      -0.498802       -13.5731
 228   2.0000      -0.495721       -13.4893
 229   2.0000      -0.495103       -13.4724
 230   2.0000      -0.493837       -13.4380
 231   2.0000      -0.492606       -13.4045
 232   2.0000      -0.488921       -13.3042
 233   2.0000      -0.486959       -13.2508
 234   2.0000      -0.483652       -13.1608
 235   2.0000      -0.480959       -13.0876
 236   2.0000      -0.478058       -13.0086
 237   2.0000      -0.475914       -12.9503
 238   2.0000      -0.475649       -12.9431
 239   2.0000      -0.473198       -12.8764
 240   2.0000      -0.469747       -12.7825
 241   2.0000      -0.465936       -12.6788
 242   2.0000      -0.464033       -12.6270
 243   2.0000      -0.462581       -12.5875
 244   2.0000      -0.461410       -12.5556
 245   2.0000      -0.454895       -12.3783
 246   2.0000      -0.453970       -12.3531
 247   2.0000      -0.450877       -12.2690
 248   2.0000      -0.450044       -12.2463
 249   2.0000      -0.447863       -12.1870
 250   2.0000      -0.447636       -12.1808
 251   2.0000      -0.446302       -12.1445
 252   2.0000      -0.444393       -12.0926
 253   2.0000      -0.442819       -12.0497
 254   2.0000      -0.441940       -12.0258
 255   2.0000      -0.440870       -11.9967
 256   2.0000      -0.439928       -11.9710
 257   2.0000      -0.438509       -11.9324
 258   2.0000      -0.430286       -11.7087
 259   2.0000      -0.429098       -11.6764
 260   2.0000      -0.427935       -11.6447
 261   2.0000      -0.427479       -11.6323
 262   2.0000      -0.426064       -11.5938
 263   2.0000      -0.425401       -11.5757
 264   2.0000      -0.425243       -11.5714
 265   2.0000      -0.424168       -11.5422
 266   2.0000      -0.423382       -11.5208
 267   2.0000      -0.418060       -11.3760
 268   2.0000      -0.415780       -11.3139
 269   2.0000      -0.410093       -11.1592
 270   2.0000      -0.409701       -11.1485
 271   2.0000      -0.403910       -10.9910
 272   2.0000      -0.402046       -10.9402
 273   2.0000      -0.399571       -10.8729
 274   2.0000      -0.392459       -10.6794
 275   2.0000      -0.378177       -10.2907
 276   2.0000      -0.374836       -10.1998
 277   2.0000      -0.370555       -10.0833
 278   2.0000      -0.365917        -9.9571
 279   2.0000      -0.364332        -9.9140
 280   2.0000      -0.362345        -9.8599
 281   2.0000      -0.359334        -9.7780
 282   2.0000      -0.352690        -9.5972
 283   2.0000      -0.351037        -9.5522
 284   2.0000      -0.350423        -9.5355
 285   2.0000      -0.348944        -9.4953
 286   2.0000      -0.340756        -9.2724
 287   2.0000      -0.337356        -9.1799
 288   2.0000      -0.335753        -9.1363
 289   2.0000      -0.331005        -9.0071
 290   2.0000      -0.326467        -8.8836
 291   2.0000      -0.319445        -8.6925
 292   2.0000      -0.314146        -8.5484
 293   2.0000      -0.308713        -8.4005
 294   2.0000      -0.305693        -8.3183
 295   2.0000      -0.287957        -7.8357
 296   2.0000      -0.261879        -7.1261
 297   2.0000      -0.220608        -6.0030
 298   0.0000      -0.127517        -3.4699
 299   0.0000      -0.106129        -2.8879
 300   0.0000      -0.087341        -2.3767
 301   0.0000      -0.074899        -2.0381
 302   0.0000      -0.063300        -1.7225

MULLIKEN ATOMIC CHARGES
-----------------------
   0 C :    0.165190
   1 O :   -0.185118
   2 C :   -0.017941
   3 C :    0.032866
   4 C :   -0.034542
   5 C :    0.050127
   6 C :   -0.001745
   7 C :   -0.018661
   8 Br:   -0.025008
   9 C :    0.323489
  10 C :   -0.360268
  11 C :   -0.188789
  12 N :    0.150234
  13 C :   -0.186696
  14 N :    0.145333
  15 C :   -0.102937
  16 C :   -0.043179
  17 C :   -0.059204
  18 S :    0.207465
  19 C :   -0.159321
  20 C :   -0.019835
  21 C :    0.108861
  22 C :   -0.003564
  23 C :   -0.124267
  24 C :    0.224387
  25 O :   -0.227235
  26 O :   -0.287421
  27 C :    0.172604
  28 S :    0.210890
  29 C :    0.018882
  30 C :   -0.018383
  31 C :    0.030847
  32 C :    0.039022
  33 C :   -0.029315
  34 S :    0.094392
  35 C :   -0.015997
  36 C :    0.033738
  37 C :    0.034972
  38 C :   -0.027031
  39 S :    0.042973
  40 C :    0.040056
  41 C :   -0.087289
  42 C :   -0.043664
  43 C :   -0.002069
  44 C :   -0.100026
  45 S :    0.191923
  46 C :   -0.079758
  47 C :    0.016423
  48 C :    0.315704
  49 C :   -0.283208
  50 C :   -0.169411
  51 N :    0.162630
  52 C :   -0.156107
  53 N :    0.151002
  54 C :   -0.009448
  55 C :   -0.071357
  56 S :    0.199232
  57 C :    0.037899
  58 C :   -0.143578
  59 C :    0.142726
  60 O :   -0.140362
  61 C :   -0.006649
  62 C :    0.024607
  63 C :    0.244757
  64 C :   -0.323600
  65 C :   -0.177052
  66 N :    0.155290
  67 C :   -0.218630
  68 N :    0.176534
  69 C :   -0.029338
  70 C :    0.048855
  71 C :   -0.005324
  72 C :   -0.016162
  73 Br:   -0.021487
  74 H :    0.008448
  75 H :    0.003829
  76 H :    0.000190
  77 H :   -0.007093
  78 H :    0.025461
  79 H :    0.042134
  80 H :    0.039385
  81 H :    0.034521
  82 H :   -0.001629
  83 H :   -0.000192
  84 H :   -0.005053
  85 H :   -0.006495
  86 H :   -0.005093
  87 H :   -0.010632
  88 H :    0.040365
  89 H :    0.017712
  90 H :    0.029199
  91 H :    0.010823
  92 H :    0.005549
  93 H :    0.005639
Sum of atomic charges:   -0.0000000

LOEWDIN ATOMIC CHARGES
----------------------
   0 C :    0.084421
   1 O :   -0.169136
   2 C :   -0.036503
   3 C :   -0.013783
   4 C :    0.006864
   5 C :   -0.014978
   6 C :   -0.099873
   7 C :   -0.002825
   8 Br:    0.111456
   9 C :    0.074969
  10 C :   -0.147195
  11 C :   -0.019524
  12 N :   -0.057000
  13 C :   -0.017413
  14 N :   -0.059349
  15 C :   -0.116769
  16 C :    0.047177
  17 C :   -0.185822
  18 S :    0.521711
  19 C :   -0.165120
  20 C :   -0.199772
  21 C :   -0.045623
  22 C :   -0.019291
  23 C :   -0.190386
  24 C :    0.072534
  25 O :   -0.186983
  26 O :   -0.074674
  27 C :    0.080346
  28 S :    0.477525
  29 C :   -0.075440
  30 C :   -0.141811
  31 C :   -0.024612
  32 C :   -0.027234
  33 C :   -0.169426
  34 S :    0.411300
  35 C :   -0.175370
  36 C :   -0.030693
  37 C :   -0.027985
  38 C :   -0.138718
  39 S :    0.423439
  40 C :   -0.075725
  41 C :   -0.147752
  42 C :   -0.043593
  43 C :   -0.040335
  44 C :   -0.201220
  45 S :    0.467893
  46 C :   -0.142226
  47 C :   -0.080039
  48 C :    0.076943
  49 C :   -0.088304
  50 C :   -0.013411
  51 N :   -0.044422
  52 C :   -0.000072
  53 N :   -0.037726
  54 C :    0.018306
  55 C :   -0.181885
  56 S :    0.508095
  57 C :    0.052226
  58 C :   -0.113088
  59 C :    0.083922
  60 O :   -0.139543
  61 C :   -0.038381
  62 C :   -0.012937
  63 C :    0.060934
  64 C :   -0.149674
  65 C :   -0.021333
  66 N :   -0.051663
  67 C :   -0.042501
  68 N :   -0.046796
  69 C :    0.003904
  70 C :   -0.013532
  71 C :   -0.099690
  72 C :   -0.000039
  73 Br:    0.113884
  74 H :    0.042921
  75 H :    0.039707
  76 H :    0.042712
  77 H :    0.048396
  78 H :    0.043619
  79 H :    0.022181
  80 H :    0.028819
  81 H :    0.022710
  82 H :    0.038225
  83 H :    0.037395
  84 H :    0.036380
  85 H :    0.035640
  86 H :    0.036115
  87 H :    0.036715
  88 H :    0.020982
  89 H :    0.046775
  90 H :    0.054939
  91 H :    0.042451
  92 H :    0.039950
  93 H :    0.044713

  Mayer bond orders larger than 0.100000
B(  0-C ,  1-O ) :   2.1146 B(  0-C ,  2-C ) :   0.9514 B(  0-C , 15-C ) :   0.9982
B(  2-C ,  3-C ) :   1.3339 B(  2-C ,  7-C ) :   1.3858 B(  3-C ,  4-C ) :   1.3742
B(  3-C ,  9-C ) :   0.9828 B(  4-C ,  5-C ) :   1.3740 B(  4-C , 74-H ) :   0.9835
B(  5-C ,  6-C ) :   1.3987 B(  5-C , 75-H ) :   0.9837 B(  6-C ,  7-C ) :   1.3273
B(  6-C ,  8-Br) :   0.9883 B(  7-C , 76-H ) :   1.0075 B(  9-C , 10-C ) :   1.6032
B(  9-C , 15-C ) :   1.1085 B( 10-C , 11-C ) :   1.1492 B( 10-C , 13-C ) :   1.1507
B( 11-C , 12-N ) :   2.9712 B( 13-C , 14-N ) :   2.9725 B( 15-C , 16-C ) :   1.4383
B( 16-C , 17-C ) :   1.3463 B( 16-C , 77-H ) :   0.9360 B( 17-C , 18-S ) :   1.0830
B( 17-C , 21-C ) :   1.2348 B( 18-S , 19-C ) :   1.1184 B( 19-C , 20-C ) :   1.3296
B( 19-C , 29-C ) :   1.2370 B( 20-C , 21-C ) :   1.3184 B( 20-C , 28-S ) :   1.0840
B( 21-C , 22-C ) :   1.1874 B( 22-C , 23-C ) :   1.5631 B( 22-C , 78-H ) :   0.9922
B( 23-C , 24-C ) :   0.9559 B( 23-C , 28-S ) :   1.1121 B( 24-C , 25-O ) :   2.0490
B( 24-C , 26-O ) :   1.2818 B( 26-O , 27-C ) :   0.8998 B( 27-C , 79-H ) :   0.9685
B( 27-C , 80-H ) :   0.9781 B( 27-C , 81-H ) :   0.9673 B( 29-C , 30-C ) :   1.5299
B( 29-C , 82-H ) :   0.9427 B( 30-C , 31-C ) :   1.1738 B( 30-C , 34-S ) :   1.0553
B( 31-C , 32-C ) :   1.5557 B( 31-C , 83-H ) :   0.9995 B( 32-C , 33-C ) :   1.2153
B( 32-C , 84-H ) :   0.9953 B( 33-C , 34-S ) :   1.0716 B( 33-C , 35-C ) :   1.4400
B( 35-C , 36-C ) :   1.2196 B( 35-C , 39-S ) :   1.0576 B( 36-C , 37-C ) :   1.5526
B( 36-C , 85-H ) :   0.9960 B( 37-C , 38-C ) :   1.1789 B( 37-C , 86-H ) :   0.9985
B( 38-C , 39-S ) :   1.0611 B( 38-C , 40-C ) :   1.5275 B( 40-C , 41-C ) :   1.2246
B( 40-C , 87-H ) :   0.9570 B( 41-C , 42-C ) :   1.3470 B( 41-C , 45-S ) :   1.1025
B( 42-C , 43-C ) :   1.3988 B( 42-C , 88-H ) :   0.9561 B( 43-C , 44-C ) :   1.3841
B( 43-C , 48-C ) :   1.0000 B( 44-C , 45-S ) :   1.0871 B( 44-C , 46-C ) :   1.2686
B( 46-C , 47-C ) :   1.3453 B( 46-C , 56-S ) :   1.1641 B( 47-C , 48-C ) :   1.0005
B( 47-C , 54-C ) :   1.3280 B( 48-C , 49-C ) :   1.7004 B( 49-C , 50-C ) :   1.1425
B( 49-C , 52-C ) :   1.1639 B( 50-C , 51-N ) :   2.9336 B( 52-C , 53-N ) :   2.8925
B( 54-C , 55-C ) :   1.3641 B( 54-C , 89-H ) :   1.0030 B( 55-C , 56-S ) :   1.0589
B( 55-C , 57-C ) :   1.2146 B( 57-C , 58-C ) :   1.5742 B( 57-C , 90-H ) :   0.9437
B( 58-C , 59-C ) :   0.9565 B( 58-C , 63-C ) :   1.0525 B( 59-C , 60-O ) :   2.2624
B( 59-C , 61-C ) :   0.9178 B( 61-C , 62-C ) :   1.3344 B( 61-C , 72-C ) :   1.3892
B( 62-C , 63-C ) :   1.0085 B( 62-C , 69-C ) :   1.3723 B( 63-C , 64-C ) :   1.6391
B( 64-C , 65-C ) :   1.1353 B( 64-C , 67-C ) :   1.1507 B( 65-C , 66-N ) :   2.9950
B( 67-C , 68-N ) :   3.0278 B( 69-C , 70-C ) :   1.3756 B( 69-C , 91-H ) :   0.9875
B( 70-C , 71-C ) :   1.3937 B( 70-C , 92-H ) :   0.9855 B( 71-C , 72-C ) :   1.3365
B( 71-C , 73-Br) :   0.9923 B( 72-C , 93-H ) :   1.0074

-----------------------------------------------------------------------------
         ABSORPTION SPECTRUM VIA TRANSITION ELECTRIC DIPOLE MOMENTS
-----------------------------------------------------------------------------
State   Energy  Wavelength   fosc         T2         TX        TY        TZ
        (cm-1)    (nm)                  (au**2)     (au)      (au)      (au)
-----------------------------------------------------------------------------
   0    6925.1   1444.0   0.626703641  29.79301  -1.63346  -2.66796  -4.47290
   1   10631.2    940.6   0.535577471  16.58494  -3.10968  -0.37662  -2.60249
   2   15087.2    662.8   0.113461577   2.47581  -1.40746   0.58250  -0.39439
   3   16662.9    600.1   0.776237663  15.33630   2.57340  -2.61218  -1.37492
   4   18656.2    536.0   0.075774680   1.33714  -0.65714   0.81677   0.48805
   5   19391.2    515.7   0.223962706   3.80229  -1.84134   0.51606   0.38138
   6   20922.2    478.0   0.064494869   1.01483  -0.95536   0.24722   0.20249
   7   21460.8    466.0   0.061536901   0.94398  -0.53287  -0.71590  -0.38408
   8   23668.1    422.5   0.055477205   0.77166   0.70478   0.30237   0.42839
   9   24107.0    414.8   0.347169557   4.74104   0.41746  -1.76201  -1.20917
  10   25369.0    394.2   0.023084073   0.29956  -0.45785   0.29048  -0.07457
  11   25927.7    385.7   0.061373465   0.77928   0.86222  -0.13531   0.13249
  12   26537.4    376.8   0.041742910   0.51785   0.32097  -0.14408  -0.62775
  13   26816.9    372.9   0.086675572   1.06405   0.57154   0.79256   0.33051
  14   27040.4    369.8   0.026794707   0.32622   0.46341  -0.13821   0.30392
  15   27495.9    363.7   0.006541977   0.07833   0.11069   0.25635   0.01896
  16   27644.0    361.7   0.055448428   0.66034   0.46966  -0.55482  -0.36322
  17   28277.6    353.6   0.201298524   2.34354  -0.49500   1.14522   0.88712
  18   28502.3    350.8   0.273483698   3.15884   0.78351   0.65921   1.45272
  19   28778.7    347.5   0.041560386   0.47543  -0.12761   0.12683   0.66562
  20   29585.7    338.0   0.332731766   3.70244   1.69805  -0.29001   0.85730
  21   29988.1    333.5   0.027775909   0.30493  -0.54458  -0.07483   0.05252
  22   30255.8    330.5   0.073800516   0.80302  -0.49324  -0.39985  -0.63234
  23   30574.4    327.1   0.031161882   0.33554  -0.48222   0.25637   0.19307
  24   30607.3    326.7   0.130241852   1.40088  -0.26483  -0.76540  -0.86308
  25   31300.0    319.5   0.095221527   1.00154   0.58322   0.52226   0.62340
  26   31432.1    318.1   0.152515853   1.59741   0.00324  -1.05040  -0.70290
  27   31783.0    314.6   0.143241094   1.48371  -0.88900   0.79136   0.25909
  28   31861.4    313.9   0.299781264   3.09753   0.31429  -0.71131  -1.57886
  29   32134.8    311.2   0.003151276   0.03228   0.07817   0.08290   0.13893
  30   32389.0    308.7   0.001470135   0.01494   0.02722   0.03893  -0.11263
  31   32418.1    308.5   0.065121657   0.66132   0.60556  -0.10068  -0.53337
  32   32989.9    303.1   0.171744825   1.71387   0.76008  -0.97053  -0.44071
  33   33108.9    302.0   0.049652307   0.49371   0.31341   0.42322  -0.46515
  34   33264.0    300.6   0.039432014   0.39026   0.45090   0.42759   0.06410
  35   33818.9    295.7   0.079715277   0.77599   0.57587  -0.36029  -0.56085
  36   34098.8    293.3   0.450083906   4.34540  -1.00349  -0.72807  -1.67580
  37   34163.9    292.7   0.313071151   3.01683   0.21155  -1.66053  -0.46337
  38   34538.8    289.5   0.040605383   0.38704  -0.37274  -0.15978  -0.47177
  39   34661.1    288.5   0.142226310   1.35087  -0.89236   0.35557   0.65432
  40   34876.3    286.7   0.109996544   1.03830   0.90176   0.02076  -0.47402
  41   34948.8    286.1   0.025545988   0.24064  -0.06671  -0.44549   0.19423
  42   35205.3    284.0   0.021593774   0.20193  -0.08016  -0.22660  -0.37968
  43   35579.0    281.1   0.026738274   0.24741   0.10362   0.20432   0.44150
  44   35912.2    278.5   0.042661347   0.39108   0.01451  -0.62480  -0.02229
  45   36066.3    277.3   0.171333487   1.56393  -0.39314   1.06514   0.52426
  46   36322.1    275.3   0.010928194   0.09905   0.26017   0.00056   0.17710
  47   36631.3    273.0   0.118184460   1.06215  -0.85345   0.06753   0.57376
  48   37050.2    269.9   0.029156074   0.25907   0.23296  -0.11437  -0.43785
  49   37132.5    269.3   0.025155040   0.22302  -0.45357   0.13036   0.01727
  50   37183.3    268.9   0.005284374   0.04679  -0.18476   0.06347  -0.09286
  51   37403.2    267.4   0.071171240   0.62643  -0.50119   0.05868   0.60974
  52   37568.4    266.2   0.019076014   0.16716   0.29936   0.12876   0.24692
  53   37778.5    264.7   0.002342914   0.02042   0.08793   0.08658   0.07204
  54   37888.7    263.9   0.006547402   0.05689   0.00908   0.22939   0.06470
  55   38172.9    262.0   0.026977734   0.23266  -0.35133  -0.22678  -0.24042
  56   38191.7    261.8   0.006311007   0.05440   0.22438   0.03894   0.05038
  57   38280.0    261.2   0.059193479   0.50907   0.00974   0.53092   0.47655
  58   38376.8    260.6   0.108589056   0.93152   0.78838  -0.55674   0.00410
  59   38457.5    260.0   0.031822355   0.27241   0.46294  -0.22038   0.09761
  60   38588.9    259.1   0.004989899   0.04257  -0.10679  -0.12379  -0.12587
  61   38769.9    257.9   0.030142338   0.25595   0.38141   0.09517   0.31847
  62   39102.2    255.7   0.010353873   0.08717  -0.15663  -0.03681  -0.24756
  63   39632.4    252.3   0.090250070   0.74968   0.60321  -0.55728  -0.27431
  64   39790.5    251.3   0.010609230   0.08778   0.19951  -0.20808  -0.06837
  65   40096.1    249.4   0.018288919   0.15016   0.20724   0.27455   0.17843
  66   40137.3    249.1   0.014565159   0.11947  -0.22236   0.23537   0.12093

FINAL SINGLE POINT ENERGY    -10308.073901784453

DIPOLE MOMENT
-------------
                                X             Y             Z
Electronic contribution:    -73.08164      -5.31824      39.19336
Nuclear contribution   :     76.54277       1.61801     -38.66402
                        -----------------------------------------
Total Dipole Moment    :      3.46113      -3.70022       0.52934
                        -----------------------------------------
Magnitude (a.u.)       :      5.09424
Magnitude (Debye)      :     12.94854

Rotational constants in cm-1:     0.001068     0.000209     0.000183
Rotational constants in MHz :    32.025344     6.272141     5.489024

                             ****ORCA TERMINATED NORMALLY****
TOTAL RUN TIME: 0 days 0 hours 12 minutes 51 seconds 843 msec
