                         Program Version 4.2.0 -  RELEASE  -
|  1> # ORCA input file
|  2> # SCF done       -217.936942642682          0.000590349024
|  3> ! CAM-B3LYP def2-SVP def2/J RIJCOSX Grid4 TightSCF
|  4> %maxcore 5000
|  5> %tddft
|  6>     Mode sTDDFT
|  7>     Ethresh 5.0
|  8>     maxcore 5000
|  9> end
| 10>
| 11> %pal
| 12>   nprocs 6
| 13>   end
| 14> * xyz 0 1
| 15>    C       -0.96965        -2.34730         4.94394
| 16>    C       -0.44326        -1.42114         5.82829
| 17>    C       -0.55278        -1.67196         7.19802
| 18>    C       -0.01495        -0.73945         8.11987
| 19>    N        0.42334         0.01704         8.85874
| 20>    C       -1.18426        -2.83385         7.68112
| 21>    C       -1.27835        -3.06027         9.07556
| 22>    N       -1.36424        -3.26242        10.19934
| 23>    C       -1.71355        -3.76563         6.78671
| 24>    C       -1.59512        -3.50830         5.43775
| 25>    C       -2.05387        -4.33513         4.30276
| 26>    O       -2.65200        -5.39273         4.38185
| 27>    C       -1.62898        -3.63103         3.09094
| 28>    C       -1.01359        -2.37646         3.48009
| 29>    C       -0.59506        -1.36316         2.65987
| 30>    C       -0.02436        -0.15637         3.12091
| 31>    N        0.44299         0.84276         3.43589
| 32>    C       -0.70009        -1.35452         1.25153
| 33>    N       -0.76373        -1.26849         0.10877
| 34>    C       -1.72672        -4.11872         1.80987
| 35>    C       -2.31304        -5.29743         1.33198
| 36>    C       -2.25583        -5.65067        -0.02548
| 37>    C       -2.92088        -6.82797        -0.29283
| 38>    C       -3.51586        -7.38630         0.86955
| 39>    S       -3.22071        -6.47890         2.27822
| 40>    C       -4.19022        -8.56988         0.49639
| 41>    C       -4.02281        -8.76617        -0.89346
| 42>    C       -3.21761        -7.68348        -1.43194
| 43>    C       -2.82614        -7.51114        -2.72651
| 44>    C       -3.18906        -8.41778        -3.74577
| 45>    N       -3.48377        -9.15100        -4.57629
| 46>    C       -2.03008        -6.41790        -3.13093
| 47>    N       -1.37886        -5.53372        -3.45950
| 48>    C       -4.66626        -9.90335        -1.35693
| 49>    C       -5.33361       -10.57560        -0.33740
| 50>    S       -5.15018        -9.78643         1.21824
| 51>    C       -6.11374       -11.75490        -0.47441
| 52>    C       -6.80771       -12.31701         0.62016
| 53>    C       -7.64163       -13.47424         0.49093
| 54>    N       -8.28706       -13.94634         1.57606
| 55>    C       -8.14342       -13.35517         2.71754
| 56>    C       -7.31376       -12.20853         2.84642
| 57>    N       -6.68313       -11.72629         1.82530
| 58>    F       -7.16455       -11.60020         4.01569
| 59>    F       -8.79496       -13.84998         3.76193
| 60>    C       -7.82511       -14.14592        -0.73802
| 61>    C       -7.10763       -13.60913        -1.83372
| 62>    C       -6.27149       -12.43670        -1.70493
| 63>    N       -5.70380       -12.11578        -2.86908
| 64>    S       -6.15902       -13.15697        -3.99579
| 65>    N       -7.10265       -14.07391        -3.08450
| 66>    C       -8.68765       -15.26849        -0.85176
| 67>    C       -8.94216       -16.00359        -2.00567
| 68>    C       -9.86396       -17.01470        -1.78368
| 69>    C      -10.31872       -17.05737        -0.44593
| 70>    S       -9.59678       -15.85320         0.52929
| 71>    C      -11.26189       -18.10363        -0.33140
| 72>    C      -11.40810       -18.71964        -1.59643
| 73>    C      -10.52045       -18.06589        -2.54207
| 74>    C      -10.32927       -18.40260        -3.84991
| 75>    C      -11.02964       -19.48043        -4.43232
| 76>    N      -11.61436       -20.35953        -4.87972
| 77>    C       -9.43045       -17.70489        -4.68436
| 78>    N       -8.70695       -17.13324        -5.36532
| 79>    C      -12.31495       -19.76561        -1.58828
| 80>    C      -12.86827       -19.97312        -0.32848
| 81>    S      -12.25796       -18.81377         0.84977
| 82>    C      -13.84662       -20.90517         0.06449
| 83>    C      -14.28156       -22.02350        -0.58818
| 84>    C      -15.60916       -22.58571        -0.21946
| 85>    O      -16.27697       -22.30018         0.74511
| 86>    C      -15.95129       -23.51915        -1.31740
| 87>    C      -17.12923       -24.20288        -1.53084
| 88>    C      -17.23028       -24.99681        -2.67488
| 89>    C      -16.15298       -25.07883        -3.57807
| 90>    C      -14.96005       -24.39073        -3.34648
| 91>    C      -14.86159       -23.61472        -2.20503
| 92>    C      -13.75554       -22.80796        -1.68331
| 93>    C      -12.43874       -22.99309        -2.01333
| 94>    C      -11.36777       -22.37640        -1.33634
| 95>    N      -10.47055       -21.91052        -0.79318
| 96>    C      -11.99438       -23.89739        -3.00251
| 97>    N      -11.58592       -24.62531        -3.78878
| 98>    C      -16.28503       -25.87139        -4.74567
| 99>    N      -16.38739       -26.50707        -5.69200
|100>    C      -18.42393       -25.71356        -2.93276
|101>    N      -19.39807       -26.28410        -3.12400
|102>    H        0.05003        -0.52089         5.49858
|103>    H       -2.19930        -4.66261         7.13975
|104>    H       -1.27499        -3.52299         1.02562
|105>    H       -1.74359        -5.04549        -0.75264
|106>    H       -4.67678       -10.25406        -2.37231
|107>    H       -8.46412       -15.77922        -2.94136
|108>    H      -12.60974       -20.32458        -2.45734
|109>    H      -14.39206       -20.67348         0.97453
|110>    H      -17.95056       -24.12429        -0.83490
|111>    H      -14.15703       -24.46737        -4.06255
|112> *
|113>
|114>                          ****END OF INPUT****

CARTESIAN COORDINATES (ANGSTROEM)
---------------------------------
  C     -0.969650   -2.347300    4.943940
  C     -0.443260   -1.421140    5.828290
  C     -0.552780   -1.671960    7.198020
  C     -0.014950   -0.739450    8.119870
  N      0.423340    0.017040    8.858740
  C     -1.184260   -2.833850    7.681120
  C     -1.278350   -3.060270    9.075560
  N     -1.364240   -3.262420   10.199340
  C     -1.713550   -3.765630    6.786710
  C     -1.595120   -3.508300    5.437750
  C     -2.053870   -4.335130    4.302760
  O     -2.652000   -5.392730    4.381850
  C     -1.628980   -3.631030    3.090940
  C     -1.013590   -2.376460    3.480090
  C     -0.595060   -1.363160    2.659870
  C     -0.024360   -0.156370    3.120910
  N      0.442990    0.842760    3.435890
  C     -0.700090   -1.354520    1.251530
  N     -0.763730   -1.268490    0.108770
  C     -1.726720   -4.118720    1.809870
  C     -2.313040   -5.297430    1.331980
  C     -2.255830   -5.650670   -0.025480
  C     -2.920880   -6.827970   -0.292830
  C     -3.515860   -7.386300    0.869550
  S     -3.220710   -6.478900    2.278220
  C     -4.190220   -8.569880    0.496390
  C     -4.022810   -8.766170   -0.893460
  C     -3.217610   -7.683480   -1.431940
  C     -2.826140   -7.511140   -2.726510
  C     -3.189060   -8.417780   -3.745770
  N     -3.483770   -9.151000   -4.576290
  C     -2.030080   -6.417900   -3.130930
  N     -1.378860   -5.533720   -3.459500
  C     -4.666260   -9.903350   -1.356930
  C     -5.333610  -10.575600   -0.337400
  S     -5.150180   -9.786430    1.218240
  C     -6.113740  -11.754900   -0.474410
  C     -6.807710  -12.317010    0.620160
  C     -7.641630  -13.474240    0.490930
  N     -8.287060  -13.946340    1.576060
  C     -8.143420  -13.355170    2.717540
  C     -7.313760  -12.208530    2.846420
  N     -6.683130  -11.726290    1.825300
  F     -7.164550  -11.600200    4.015690
  F     -8.794960  -13.849980    3.761930
  C     -7.825110  -14.145920   -0.738020
  C     -7.107630  -13.609130   -1.833720
  C     -6.271490  -12.436700   -1.704930
  N     -5.703800  -12.115780   -2.869080
  S     -6.159020  -13.156970   -3.995790
  N     -7.102650  -14.073910   -3.084500
  C     -8.687650  -15.268490   -0.851760
  C     -8.942160  -16.003590   -2.005670
  C     -9.863960  -17.014700   -1.783680
  C    -10.318720  -17.057370   -0.445930
  S     -9.596780  -15.853200    0.529290
  C    -11.261890  -18.103630   -0.331400
  C    -11.408100  -18.719640   -1.596430
  C    -10.520450  -18.065890   -2.542070
  C    -10.329270  -18.402600   -3.849910
  C    -11.029640  -19.480430   -4.432320
  N    -11.614360  -20.359530   -4.879720
  C     -9.430450  -17.704890   -4.684360
  N     -8.706950  -17.133240   -5.365320
  C    -12.314950  -19.765610   -1.588280
  C    -12.868270  -19.973120   -0.328480
  S    -12.257960  -18.813770    0.849770
  C    -13.846620  -20.905170    0.064490
  C    -14.281560  -22.023500   -0.588180
  C    -15.609160  -22.585710   -0.219460
  O    -16.276970  -22.300180    0.745110
  C    -15.951290  -23.519150   -1.317400
  C    -17.129230  -24.202880   -1.530840
  C    -17.230280  -24.996810   -2.674880
  C    -16.152980  -25.078830   -3.578070
  C    -14.960050  -24.390730   -3.346480
  C    -14.861590  -23.614720   -2.205030
  C    -13.755540  -22.807960   -1.683310
  C    -12.438740  -22.993090   -2.013330
  C    -11.367770  -22.376400   -1.336340
  N    -10.470550  -21.910520   -0.793180
  C    -11.994380  -23.897390   -3.002510
  N    -11.585920  -24.625310   -3.788780
  C    -16.285030  -25.871390   -4.745670
  N    -16.387390  -26.507070   -5.692000
  C    -18.423930  -25.713560   -2.932760
  N    -19.398070  -26.284100   -3.124000
  H      0.050030   -0.520890    5.498580
  H     -2.199300   -4.662610    7.139750
  H     -1.274990   -3.522990    1.025620
  H     -1.743590   -5.045490   -0.752640
  H     -4.676780  -10.254060   -2.372310
  H     -8.464120  -15.779220   -2.941360
  H    -12.609740  -20.324580   -2.457340
  H    -14.392060  -20.673480    0.974530
  H    -17.950560  -24.124290   -0.834900
  H    -14.157030  -24.467370   -4.062550

 Total Charge           Charge          ....    0
 Multiplicity           Mult            ....    1
 Number of Electrons    NEL             ....  608
 Basis Dimension        Dim             .... 1288

ORBITAL ENERGIES
----------------

  NO   OCC          E(Eh)            E(eV)
   0   2.0000     -89.066739     -2423.6292
   1   2.0000     -89.013228     -2422.1731
   2   2.0000     -89.006948     -2422.0022
   3   2.0000     -89.005377     -2421.9594
   4   2.0000     -89.004102     -2421.9247
   5   2.0000     -24.847010      -676.1215
   6   2.0000     -24.846878      -676.1179
   7   2.0000     -19.250428      -523.8308
   8   2.0000     -19.241035      -523.5752
   9   2.0000     -14.489669      -394.2839
  10   2.0000     -14.489206      -394.2713
  11   2.0000     -14.474668      -393.8757
  12   2.0000     -14.474299      -393.8657
  13   2.0000     -14.446904      -393.1202
  14   2.0000     -14.444200      -393.0467
  15   2.0000     -14.442951      -393.0127
  16   2.0000     -14.442612      -393.0034
  17   2.0000     -14.439040      -392.9063
  18   2.0000     -14.438173      -392.8827
  19   2.0000     -14.435218      -392.8022
  20   2.0000     -14.433574      -392.7575
  21   2.0000     -14.433351      -392.7514
  22   2.0000     -14.431766      -392.7083
  23   2.0000     -14.430535      -392.6748
  24   2.0000     -14.429421      -392.6445
  25   2.0000     -10.465155      -284.7713
  26   2.0000     -10.464841      -284.7628
  27   2.0000     -10.398803      -282.9658
  28   2.0000     -10.392381      -282.7911
  29   2.0000     -10.381424      -282.4929
  30   2.0000     -10.379271      -282.4343
  31   2.0000     -10.375569      -282.3336
  32   2.0000     -10.375197      -282.3235
  33   2.0000     -10.369029      -282.1556
  34   2.0000     -10.368853      -282.1508
  35   2.0000     -10.368499      -282.1412
  36   2.0000     -10.367184      -282.1054
  37   2.0000     -10.366990      -282.1001
  38   2.0000     -10.366929      -282.0985
  39   2.0000     -10.366323      -282.0820
  40   2.0000     -10.366197      -282.0786
  41   2.0000     -10.365233      -282.0523
  42   2.0000     -10.364744      -282.0390
  43   2.0000     -10.363020      -281.9921
  44   2.0000     -10.361984      -281.9639
  45   2.0000     -10.361339      -281.9464
  46   2.0000     -10.352867      -281.7158
  47   2.0000     -10.348812      -281.6055
  48   2.0000     -10.347886      -281.5803
  49   2.0000     -10.347376      -281.5664
  50   2.0000     -10.347112      -281.5592
  51   2.0000     -10.346670      -281.5472
  52   2.0000     -10.346475      -281.5419
  53   2.0000     -10.346202      -281.5345
  54   2.0000     -10.345448      -281.5139
  55   2.0000     -10.345443      -281.5138
  56   2.0000     -10.345374      -281.5119
  57   2.0000     -10.344985      -281.5013
  58   2.0000     -10.344007      -281.4748
  59   2.0000     -10.343613      -281.4640
  60   2.0000     -10.342943      -281.4458
  61   2.0000     -10.342409      -281.4313
  62   2.0000     -10.342198      -281.4255
  63   2.0000     -10.340159      -281.3700
  64   2.0000     -10.339469      -281.3513
  65   2.0000     -10.339085      -281.3408
  66   2.0000     -10.338790      -281.3328
  67   2.0000     -10.337446      -281.2962
  68   2.0000     -10.336863      -281.2803
  69   2.0000     -10.336746      -281.2772
  70   2.0000     -10.334516      -281.2165
  71   2.0000     -10.331748      -281.1412
  72   2.0000     -10.331704      -281.1400
  73   2.0000     -10.331107      -281.1237
  74   2.0000     -10.330112      -281.0966
  75   2.0000     -10.328791      -281.0607
  76   2.0000     -10.327957      -281.0380
  77   2.0000     -10.327106      -281.0148
  78   2.0000     -10.325611      -280.9742
  79   2.0000     -10.325485      -280.9707
  80   2.0000     -10.323276      -280.9106
  81   2.0000     -10.322398      -280.8867
  82   2.0000     -10.322331      -280.8849
  83   2.0000     -10.321251      -280.8555
  84   2.0000     -10.320990      -280.8484
  85   2.0000     -10.315886      -280.7095
  86   2.0000     -10.314648      -280.6758
  87   2.0000      -8.157670      -221.9815
  88   2.0000      -8.107944      -220.6284
  89   2.0000      -8.099553      -220.4000
  90   2.0000      -8.098200      -220.3632
  91   2.0000      -8.096985      -220.3302
  92   2.0000      -6.128731      -166.7713
  93   2.0000      -6.120763      -166.5544
  94   2.0000      -6.120666      -166.5518
  95   2.0000      -6.077090      -165.3660
  96   2.0000      -6.072911      -165.2523
  97   2.0000      -6.070455      -165.1855
  98   2.0000      -6.068915      -165.1436
  99   2.0000      -6.067677      -165.1099
 100   2.0000      -6.066405      -165.0753
 101   2.0000      -6.064225      -165.0159
 102   2.0000      -6.062951      -164.9813
 103   2.0000      -6.062088      -164.9578
 104   2.0000      -6.061745      -164.9485
 105   2.0000      -6.060672      -164.9193
 106   2.0000      -6.059492      -164.8871
 107   2.0000      -1.376339       -37.4521
 108   2.0000      -1.362286       -37.0697
 109   2.0000      -1.166384       -31.7389
 110   2.0000      -1.164894       -31.6984
 111   2.0000      -1.157061       -31.4852
 112   2.0000      -1.148300       -31.2468
 113   2.0000      -1.076007       -29.2796
 114   2.0000      -1.064419       -28.9643
 115   2.0000      -1.060929       -28.8693
 116   2.0000      -1.048753       -28.5380
 117   2.0000      -1.047078       -28.4924
 118   2.0000      -1.037767       -28.2391
 119   2.0000      -1.035027       -28.1645
 120   2.0000      -1.033673       -28.1277
 121   2.0000      -1.032542       -28.0969
 122   2.0000      -1.024476       -27.8774
 123   2.0000      -1.022826       -27.8325
 124   2.0000      -1.021890       -27.8071
 125   2.0000      -1.019708       -27.7477
 126   2.0000      -1.017284       -27.6817
 127   2.0000      -1.015664       -27.6376
 128   2.0000      -1.014726       -27.6121
 129   2.0000      -1.013202       -27.5706
 130   2.0000      -1.011856       -27.5340
 131   2.0000      -1.010303       -27.4917
 132   2.0000      -1.009211       -27.4620
 133   2.0000      -0.999100       -27.1869
 134   2.0000      -0.985299       -26.8114
 135   2.0000      -0.983228       -26.7550
 136   2.0000      -0.976132       -26.5619
 137   2.0000      -0.971495       -26.4357
 138   2.0000      -0.941940       -25.6315
 139   2.0000      -0.937269       -25.5044
 140   2.0000      -0.932620       -25.3779
 141   2.0000      -0.930661       -25.3246
 142   2.0000      -0.921116       -25.0648
 143   2.0000      -0.914860       -24.8946
 144   2.0000      -0.911196       -24.7949
 145   2.0000      -0.908629       -24.7251
 146   2.0000      -0.906625       -24.6705
 147   2.0000      -0.899669       -24.4813
 148   2.0000      -0.887811       -24.1586
 149   2.0000      -0.884316       -24.0635
 150   2.0000      -0.874856       -23.8060
 151   2.0000      -0.872237       -23.7348
 152   2.0000      -0.858843       -23.3703
 153   2.0000      -0.850826       -23.1521
 154   2.0000      -0.843390       -22.9498
 155   2.0000      -0.824206       -22.4278
 156   2.0000      -0.816279       -22.2121
 157   2.0000      -0.813337       -22.1320
 158   2.0000      -0.807925       -21.9848
 159   2.0000      -0.796623       -21.6772
 160   2.0000      -0.794797       -21.6275
 161   2.0000      -0.786969       -21.4145
 162   2.0000      -0.781699       -21.2711
 163   2.0000      -0.767346       -20.8806
 164   2.0000      -0.759258       -20.6605
 165   2.0000      -0.757502       -20.6127
 166   2.0000      -0.747862       -20.3504
 167   2.0000      -0.734053       -19.9746
 168   2.0000      -0.724352       -19.7106
 169   2.0000      -0.720129       -19.5957
 170   2.0000      -0.716070       -19.4853
 171   2.0000      -0.713302       -19.4099
 172   2.0000      -0.711244       -19.3539
 173   2.0000      -0.710159       -19.3244
 174   2.0000      -0.703478       -19.1426
 175   2.0000      -0.700225       -19.0541
 176   2.0000      -0.698997       -19.0207
 177   2.0000      -0.692653       -18.8480
 178   2.0000      -0.690174       -18.7806
 179   2.0000      -0.685309       -18.6482
 180   2.0000      -0.673492       -18.3267
 181   2.0000      -0.668574       -18.1928
 182   2.0000      -0.665306       -18.1039
 183   2.0000      -0.660939       -17.9851
 184   2.0000      -0.657737       -17.8979
 185   2.0000      -0.653973       -17.7955
 186   2.0000      -0.651708       -17.7339
 187   2.0000      -0.651045       -17.7158
 188   2.0000      -0.647437       -17.6177
 189   2.0000      -0.636243       -17.3130
 190   2.0000      -0.635305       -17.2875
 191   2.0000      -0.631039       -17.1714
 192   2.0000      -0.626216       -17.0402
 193   2.0000      -0.620231       -16.8773
 194   2.0000      -0.615158       -16.7393
 195   2.0000      -0.609865       -16.5953
 196   2.0000      -0.604049       -16.4370
 197   2.0000      -0.602577       -16.3970
 198   2.0000      -0.600815       -16.3490
 199   2.0000      -0.592329       -16.1181
 200   2.0000      -0.589439       -16.0395
 201   2.0000      -0.584674       -15.9098
 202   2.0000      -0.580124       -15.7860
 203   2.0000      -0.574197       -15.6247
 204   2.0000      -0.572300       -15.5731
 205   2.0000      -0.572105       -15.5678
 206   2.0000      -0.570069       -15.5124
 207   2.0000      -0.567129       -15.4324
 208   2.0000      -0.564906       -15.3719
 209   2.0000      -0.563596       -15.3362
 210   2.0000      -0.562923       -15.3179
 211   2.0000      -0.558126       -15.1874
 212   2.0000      -0.557017       -15.1572
 213   2.0000      -0.551398       -15.0043
 214   2.0000      -0.550295       -14.9743
 215   2.0000      -0.546585       -14.8733
 216   2.0000      -0.542957       -14.7746
 217   2.0000      -0.538970       -14.6661
 218   2.0000      -0.537712       -14.6319
 219   2.0000      -0.533043       -14.5048
 220   2.0000      -0.531745       -14.4695
 221   2.0000      -0.529227       -14.4010
 222   2.0000      -0.528575       -14.3832
 223   2.0000      -0.523978       -14.2582
 224   2.0000      -0.523187       -14.2367
 225   2.0000      -0.522392       -14.2150
 226   2.0000      -0.521331       -14.1861
 227   2.0000      -0.517377       -14.0785
 228   2.0000      -0.515401       -14.0248
 229   2.0000      -0.512582       -13.9481
 230   2.0000      -0.510090       -13.8802
 231   2.0000      -0.508406       -13.8344
 232   2.0000      -0.506407       -13.7800
 233   2.0000      -0.504018       -13.7150
 234   2.0000      -0.500088       -13.6081
 235   2.0000      -0.498364       -13.5612
 236   2.0000      -0.495529       -13.4840
 237   2.0000      -0.495027       -13.4704
 238   2.0000      -0.490614       -13.3503
 239   2.0000      -0.483667       -13.1612
 240   2.0000      -0.482446       -13.1280
 241   2.0000      -0.479669       -13.0525
 242   2.0000      -0.476166       -12.9571
 243   2.0000      -0.473988       -12.8979
 244   2.0000      -0.473132       -12.8746
 245   2.0000      -0.470034       -12.7903
 246   2.0000      -0.468632       -12.7521
 247   2.0000      -0.468008       -12.7351
 248   2.0000      -0.466478       -12.6935
 249   2.0000      -0.466268       -12.6878
 250   2.0000      -0.464472       -12.6389
 251   2.0000      -0.462910       -12.5964
 252   2.0000      -0.462423       -12.5832
 253   2.0000      -0.459974       -12.5165
 254   2.0000      -0.459821       -12.5124
 255   2.0000      -0.459204       -12.4956
 256   2.0000      -0.456354       -12.4180
 257   2.0000      -0.456121       -12.4117
 258   2.0000      -0.455858       -12.4045
 259   2.0000      -0.455642       -12.3986
 260   2.0000      -0.454729       -12.3738
 261   2.0000      -0.454026       -12.3547
 262   2.0000      -0.453421       -12.3382
 263   2.0000      -0.453004       -12.3269
 264   2.0000      -0.452426       -12.3111
 265   2.0000      -0.451805       -12.2942
 266   2.0000      -0.447728       -12.1833
 267   2.0000      -0.447065       -12.1653
 268   2.0000      -0.445809       -12.1311
 269   2.0000      -0.444553       -12.0969
 270   2.0000      -0.442965       -12.0537
 271   2.0000      -0.440535       -11.9876
 272   2.0000      -0.438379       -11.9289
 273   2.0000      -0.437714       -11.9108
 274   2.0000      -0.436175       -11.8689
 275   2.0000      -0.435687       -11.8557
 276   2.0000      -0.432363       -11.7652
 277   2.0000      -0.431470       -11.7409
 278   2.0000      -0.429814       -11.6958
 279   2.0000      -0.428440       -11.6584
 280   2.0000      -0.428089       -11.6489
 281   2.0000      -0.422138       -11.4870
 282   2.0000      -0.422025       -11.4839
 283   2.0000      -0.415175       -11.2975
 284   2.0000      -0.404065       -10.9952
 285   2.0000      -0.399828       -10.8799
 286   2.0000      -0.398507       -10.8439
 287   2.0000      -0.391098       -10.6423
 288   2.0000      -0.380515       -10.3543
 289   2.0000      -0.374519       -10.1912
 290   2.0000      -0.371305       -10.1037
 291   2.0000      -0.370379       -10.0785
 292   2.0000      -0.367506       -10.0003
 293   2.0000      -0.365972        -9.9586
 294   2.0000      -0.365216        -9.9380
 295   2.0000      -0.363234        -9.8841
 296   2.0000      -0.360106        -9.7990
 297   2.0000      -0.345627        -9.4050
 298   2.0000      -0.341150        -9.2832
 299   2.0000      -0.338235        -9.2038
 300   2.0000      -0.336413        -9.1543
 301   2.0000      -0.322208        -8.7677
 302   2.0000      -0.294518        -8.0142
 303   2.0000      -0.262515        -7.1434
 304   0.0000      -0.151070        -4.1108
 305   0.0000      -0.124774        -3.3953
 306   0.0000      -0.115747        -3.1496
 307   0.0000      -0.109811        -2.9881
 308   0.0000      -0.109597        -2.9823

MULLIKEN ATOMIC CHARGES
-----------------------
   0 C :    0.044983
   1 C :   -0.041363
   2 C :   -0.058496
   3 C :   -0.175621
   4 N :    0.204092
   5 C :   -0.065424
   6 C :   -0.174923
   7 N :    0.198175
   8 C :   -0.035502
   9 C :   -0.001633
  10 C :    0.169867
  11 O :   -0.175546
  12 C :   -0.100639
  13 C :    0.319858
  14 C :   -0.334822
  15 C :   -0.186830
  16 N :    0.173263
  17 C :   -0.199110
  18 N :    0.168617
  19 C :   -0.025452
  20 C :   -0.051808
  21 C :   -0.054234
  22 C :    0.044130
  23 C :   -0.070828
  24 S :    0.247066
  25 C :   -0.071678
  26 C :    0.047522
  27 C :    0.311327
  28 C :   -0.294510
  29 C :   -0.184575
  30 N :    0.174087
  31 C :   -0.194229
  32 N :    0.184228
  33 C :   -0.065960
  34 C :   -0.173736
  35 S :    0.218339
  36 C :    0.178961
  37 C :   -0.052989
  38 C :   -0.059398
  39 N :   -0.046517
  40 C :    0.154146
  41 C :    0.155567
  42 N :   -0.047775
  43 F :   -0.128421
  44 F :   -0.128991
  45 C :    0.184053
  46 C :   -0.007835
  47 C :   -0.008105
  48 N :   -0.288850
  49 S :    0.594028
  50 N :   -0.286347
  51 C :   -0.176073
  52 C :   -0.056214
  53 C :    0.045440
  54 C :   -0.073651
  55 S :    0.215352
  56 C :   -0.071179
  57 C :   -0.003270
  58 C :    0.305102
  59 C :   -0.285315
  60 C :   -0.185426
  61 N :    0.170373
  62 C :   -0.183665
  63 N :    0.179501
  64 C :   -0.001397
  65 C :   -0.109770
  66 S :    0.224200
  67 C :    0.090270
  68 C :   -0.143089
  69 C :    0.139875
  70 O :   -0.127319
  71 C :    0.013031
  72 C :   -0.037398
  73 C :   -0.068225
  74 C :   -0.061421
  75 C :   -0.035442
  76 C :    0.029224
  77 C :    0.262991
  78 C :   -0.312406
  79 C :   -0.201540
  80 N :    0.179037
  81 C :   -0.173992
  82 N :    0.176172
  83 C :   -0.172062
  84 N :    0.201914
  85 C :   -0.172377
  86 N :    0.197818
  87 H :    0.021703
  88 H :    0.015613
  89 H :    0.023908
  90 H :    0.030709
  91 H :    0.025115
  92 H :    0.024101
  93 H :    0.025398
  94 H :    0.025778
  95 H :    0.018431
  96 H :    0.030015
Sum of atomic charges:   -0.0000000

LOEWDIN ATOMIC CHARGES
----------------------
   0 C :    0.004490
   1 C :    0.034538
   2 C :   -0.022832
   3 C :   -0.031865
   4 N :   -0.009208
   5 C :   -0.028809
   6 C :   -0.032172
   7 N :   -0.013299
   8 C :    0.047366
   9 C :   -0.029663
  10 C :    0.083851
  11 O :   -0.163293
  12 C :   -0.118708
  13 C :    0.068597
  14 C :   -0.124590
  15 C :   -0.022332
  16 N :   -0.034049
  17 C :   -0.023642
  18 N :   -0.033035
  19 C :    0.061972
  20 C :   -0.183851
  21 C :    0.018247
  22 C :   -0.072902
  23 C :   -0.158670
  24 S :    0.548131
  25 C :   -0.191693
  26 C :   -0.056086
  27 C :    0.075455
  28 C :   -0.097125
  29 C :   -0.016399
  30 N :   -0.027961
  31 C :   -0.020148
  32 N :   -0.022482
  33 C :   -0.013404
  34 C :   -0.154682
  35 S :    0.518392
  36 C :   -0.042028
  37 C :   -0.013929
  38 C :   -0.015740
  39 N :   -0.055393
  40 C :    0.066564
  41 C :    0.067416
  42 N :   -0.055498
  43 F :   -0.017885
  44 F :   -0.018600
  45 C :   -0.038222
  46 C :   -0.037555
  47 C :   -0.036436
  48 N :   -0.273083
  49 S :    0.711177
  50 N :   -0.272428
  51 C :   -0.158352
  52 C :   -0.008962
  53 C :   -0.059277
  54 C :   -0.187525
  55 S :    0.517959
  56 C :   -0.152672
  57 C :   -0.062307
  58 C :    0.079611
  59 C :   -0.094867
  60 C :   -0.011930
  61 N :   -0.031783
  62 C :   -0.017095
  63 N :   -0.024809
  64 C :    0.013932
  65 C :   -0.182516
  66 S :    0.505379
  67 C :    0.050726
  68 C :   -0.099943
  69 C :    0.082858
  70 O :   -0.129507
  71 C :   -0.032003
  72 C :    0.049004
  73 C :   -0.029102
  74 C :   -0.021696
  75 C :    0.034191
  76 C :    0.005696
  77 C :    0.057980
  78 C :   -0.122595
  79 C :   -0.015276
  80 N :   -0.033383
  81 C :   -0.023295
  82 N :   -0.028533
  83 C :   -0.031344
  84 N :   -0.009164
  85 C :   -0.032256
  86 N :   -0.013214
  87 H :    0.052869
  88 H :    0.053603
  89 H :    0.055218
  90 H :    0.049436
  91 H :    0.038985
  92 H :    0.039294
  93 H :    0.042725
  94 H :    0.048271
  95 H :    0.054654
  96 H :    0.054516

  Mayer bond orders larger than 0.100000
B(  0-C ,  1-C ) :   1.3658 B(  0-C ,  9-C ) :   1.3334 B(  0-C , 13-C ) :   0.9537
B(  1-C ,  2-C ) :   1.3866 B(  1-C , 87-H ) :   0.9855 B(  2-C ,  3-C ) :   1.0880
B(  2-C ,  5-C ) :   1.4043 B(  3-C ,  4-N ) :   3.0430 B(  5-C ,  6-C ) :   1.0847
B(  5-C ,  8-C ) :   1.3606 B(  6-C ,  7-N ) :   3.0450 B(  8-C ,  9-C ) :   1.3648
B(  8-C , 88-H ) :   1.0149 B(  9-C , 10-C ) :   0.9415 B( 10-C , 11-O ) :   2.1310
B( 10-C , 12-C ) :   0.9945 B( 12-C , 13-C ) :   1.0856 B( 12-C , 19-C ) :   1.4591
B( 13-C , 14-C ) :   1.6469 B( 14-C , 15-C ) :   1.1483 B( 14-C , 17-C ) :   1.1421
B( 15-C , 16-N ) :   2.9624 B( 17-C , 18-N ) :   2.9732 B( 19-C , 20-C ) :   1.2959
B( 19-C , 89-H ) :   0.9428 B( 20-C , 21-C ) :   1.3027 B( 20-C , 24-S ) :   1.0642
B( 21-C , 22-C ) :   1.3514 B( 21-C , 90-H ) :   1.0081 B( 22-C , 23-C ) :   1.3335
B( 22-C , 27-C ) :   0.9810 B( 23-C , 24-S ) :   1.1345 B( 23-C , 25-C ) :   1.2186
B( 25-C , 26-C ) :   1.3910 B( 25-C , 35-S ) :   1.0830 B( 26-C , 27-C ) :   0.9964
B( 26-C , 33-C ) :   1.2791 B( 27-C , 28-C ) :   1.7175 B( 28-C , 29-C ) :   1.1384
B( 28-C , 31-C ) :   1.1324 B( 29-C , 30-N ) :   2.9824 B( 31-C , 32-N ) :   2.9936
B( 33-C , 34-C ) :   1.4121 B( 33-C , 91-H ) :   0.9812 B( 34-C , 35-S ) :   1.1037
B( 34-C , 36-C ) :   1.1874 B( 36-C , 37-C ) :   1.2966 B( 36-C , 45-C ) :   0.1303
B( 36-C , 47-C ) :   1.1980 B( 37-C , 38-C ) :   1.1247 B( 37-C , 42-N ) :   1.3782
B( 38-C , 39-N ) :   1.3793 B( 38-C , 45-C ) :   1.2945 B( 39-N , 40-C ) :   1.6530
B( 40-C , 41-C ) :   1.1054 B( 40-C , 44-F ) :   1.1935 B( 41-C , 42-N ) :   1.6540
B( 41-C , 43-F ) :   1.1934 B( 45-C , 46-C ) :   1.1980 B( 45-C , 51-C ) :   1.1901
B( 46-C , 47-C ) :   1.1029 B( 46-C , 50-N ) :   1.5073 B( 47-C , 48-N ) :   1.5070
B( 48-N , 49-S ) :   1.2879 B( 48-N , 50-N ) :   0.1480 B( 49-S , 50-N ) :   1.2896
B( 51-C , 52-C ) :   1.4132 B( 51-C , 55-S ) :   1.0998 B( 52-C , 53-C ) :   1.2833
B( 52-C , 92-H ) :   0.9805 B( 53-C , 54-C ) :   1.3967 B( 53-C , 58-C ) :   0.9914
B( 54-C , 55-S ) :   1.0846 B( 54-C , 56-C ) :   1.2117 B( 56-C , 57-C ) :   1.3873
B( 56-C , 66-S ) :   1.1593 B( 57-C , 58-C ) :   0.9960 B( 57-C , 64-C ) :   1.3803
B( 58-C , 59-C ) :   1.7175 B( 59-C , 60-C ) :   1.1331 B( 59-C , 62-C ) :   1.1380
B( 60-C , 61-N ) :   2.9809 B( 62-C , 63-N ) :   2.9858 B( 64-C , 65-C ) :   1.3654
B( 64-C , 93-H ) :   0.9770 B( 65-C , 66-S ) :   1.0842 B( 65-C , 67-C ) :   1.1682
B( 67-C , 68-C ) :   1.6321 B( 67-C , 94-H ) :   0.9295 B( 68-C , 69-C ) :   0.9546
B( 68-C , 77-C ) :   1.0511 B( 69-C , 70-O ) :   2.2769 B( 69-C , 71-C ) :   0.8991
B( 71-C , 72-C ) :   1.3706 B( 71-C , 76-C ) :   1.3356 B( 72-C , 73-C ) :   1.3651
B( 72-C , 95-H ) :   1.0144 B( 73-C , 74-C ) :   1.4032 B( 73-C , 85-C ) :   1.0866
B( 74-C , 75-C ) :   1.3863 B( 74-C , 83-C ) :   1.0864 B( 75-C , 76-C ) :   1.3666
B( 75-C , 96-H ) :   0.9895 B( 76-C , 77-C ) :   0.9714 B( 77-C , 78-C ) :   1.6625
B( 78-C , 79-C ) :   1.1723 B( 78-C , 81-C ) :   1.1262 B( 79-C , 80-N ) :   2.9943
B( 81-C , 82-N ) :   2.9877 B( 83-C , 84-N ) :   3.0426 B( 85-C , 86-N ) :   3.0447

-----------------------------------------------------------------------------
         ABSORPTION SPECTRUM VIA TRANSITION ELECTRIC DIPOLE MOMENTS
-----------------------------------------------------------------------------
State   Energy  Wavelength   fosc         T2         TX        TY        TZ
        (cm-1)    (nm)                  (au**2)     (au)      (au)      (au)
-----------------------------------------------------------------------------
   0    9688.4   1032.2   1.315923260  44.71498   3.64360   5.48955   1.14191
   1   14081.6    710.1   0.016706580   0.39058  -0.07370  -0.36713  -0.50036
   2   15459.2    646.9   0.003397772   0.07236   0.09904  -0.05255  -0.24451
   3   17958.8    556.8   0.007801135   0.14301  -0.18105  -0.12265   0.30852
   4   19073.8    524.3   0.417352720   7.20345  -1.10589  -2.41505  -0.38468
   5   20131.5    496.7   0.584735908   9.56222   1.25143   2.49669   1.32766
   6   22279.0    448.9   0.178149266   2.63248   0.62369   0.92965   1.17441
   7   22950.5    435.7   0.054099711   0.77603  -0.23096   0.48444   0.69857
   8   23787.8    420.4   0.349275509   4.83380   1.46997   1.63455   0.03539
   9   25127.7    398.0   0.027935124   0.36599  -0.00131   0.29416   0.52864
  10   25227.2    396.4   0.051251115   0.66882  -0.29397  -0.30398   0.70000
  11   25869.3    386.6   0.017553919   0.22339   0.15094  -0.09651  -0.43737
  12   26215.2    381.5   0.012132406   0.15236  -0.01700   0.19356   0.33853
  13   27280.7    366.6   0.014473172   0.17466  -0.36694  -0.01482   0.19949
  14   28172.1    355.0   0.038225046   0.44669   0.44368   0.44267   0.23212
  15   28184.9    354.8   0.018875330   0.22047  -0.35050   0.18198  -0.25398
  16   28457.0    351.4   0.035173390   0.40691   0.09072  -0.52811  -0.34609
  17   28837.3    346.8   0.027648819   0.31564  -0.33230  -0.37635  -0.25215
  18   29420.0    339.9   0.052600025   0.58860  -0.20444   0.20576   0.71026
  19   29947.9    333.9   0.059174845   0.65050  -0.28502  -0.12615   0.74387
  20   30221.8    330.9   0.018023887   0.19634  -0.13633  -0.41024   0.09723
  21   30332.8    329.7   0.098821352   1.07254   0.60018  -0.08977  -0.83920
  22   30412.1    328.8   0.027653315   0.29935   0.07209   0.26086  -0.47550
  23   30533.8    327.5   0.058780210   0.63376  -0.28738  -0.38134   0.63699
  24   30953.6    323.1   0.108731227   1.15643  -0.21840  -0.47151   0.94149
  25   31225.0    320.3   0.177463953   1.87104   0.51558   0.93049   0.85989
  26   31462.1    317.8   0.010691585   0.11187  -0.16236  -0.23573   0.17305
  27   31635.1    316.1   0.023219187   0.24163  -0.43980  -0.04729  -0.21440
  28   31665.3    315.8   0.164846271   1.71384   0.91387   0.66437  -0.66128
  29   31731.9    315.1   0.124256672   1.28914   0.52802   0.33799  -0.94662
  30   32105.4    311.5   0.365754748   3.75048  -0.84915  -1.23079  -1.23069
  31   32196.9    310.6   0.301368625   3.08148   0.60386   0.23747  -1.63108
  32   32549.1    307.2   0.173156087   1.75135  -0.79540  -1.04109  -0.18665
  33   32709.6    305.7   0.037944624   0.38190   0.03848  -0.34223  -0.51313
  34   33255.1    300.7   0.491043096   4.86113   1.42630   1.50768   0.74411
  35   33519.3    298.3   0.064364629   0.63216  -0.11875   0.16087  -0.76953
  36   33765.3    296.2   0.003198416   0.03118   0.15912  -0.02832  -0.07115
  37   34165.0    292.7   0.211026012   2.03344  -0.35847   0.41888   1.31509
  38   34432.3    290.4   0.250036848   2.39064  -0.08957  -0.11984   1.53891
  39   34764.4    287.7   0.274774698   2.60206  -0.67501  -0.61444   1.32999
  40   35089.1    285.0   0.073745409   0.69189   0.46374   0.67756   0.13320
  41   35134.7    284.6   0.125695356   1.17776  -0.40950   0.18760  -0.98736
  42   35408.0    282.4   0.250023382   2.32463   1.51393   0.01204  -0.18032
  43   35663.3    280.4   0.102941978   0.95027   0.54942   0.16466   0.78822
  44   35861.0    278.9   0.708121660   6.50071   1.20999   0.87439  -2.06690
  45   36227.3    276.0   0.101440572   0.92183   0.55950   0.73325   0.26673
  46   36307.4    275.4   0.057411955   0.52057   0.56876   0.43458   0.09067
  47   36493.8    274.0   0.076238677   0.68775  -0.74778  -0.34518  -0.09705
  48   36569.9    273.4   0.020378539   0.18345   0.39426   0.02482   0.16551
  49   36834.9    271.5   0.061312072   0.54798   0.00535  -0.16834  -0.72084
  50   36909.3    270.9   0.063375817   0.56528   0.55748  -0.16129  -0.47800
  51   37040.9    270.0   0.219530292   1.95114   0.19380  -0.07250  -1.38142
  52   37119.8    269.4   0.067674087   0.60019  -0.23146  -0.47037  -0.57042
  53   37227.3    268.6   0.134428395   1.18879   0.13036   0.48739   0.96656
  54   37490.4    266.7   0.028185041   0.24750   0.09067   0.17496   0.45680
  55   37735.1    265.0   0.100368045   0.87564  -0.27570   0.00726   0.89419
  56   37872.6    264.0   0.002057899   0.01789   0.04218  -0.01292  -0.12626
  57   37991.7    263.2   0.045909898   0.39783  -0.08850  -0.53371  -0.32426
  58   38083.4    262.6   0.043951856   0.37994  -0.26427   0.11679  -0.54449
  59   38344.8    260.8   0.014214698   0.12204   0.20496   0.25324  -0.12610
  60   38421.7    260.3   0.004594376   0.03937   0.02138   0.16995  -0.10013
  61   38797.4    257.7   0.050519606   0.42868   0.36441   0.53284  -0.10940
  62   38889.7    257.1   0.054676225   0.46285   0.17209   0.63583   0.17018
  63   39004.1    256.4   0.036398875   0.30722   0.19346   0.51482   0.06896
  64   39240.0    254.8   0.014931535   0.12527   0.12069   0.09543  -0.31875
  65   39459.8    253.4   0.028856780   0.24075   0.31155   0.37618  -0.04667
  66   39647.7    252.2   0.014229337   0.11815   0.20943   0.26969  -0.03945
  67   39779.2    251.4   0.150647219   1.24675   0.48172   0.68686   0.73683
  68   40106.0    249.3   0.074235026   0.60936   0.05757  -0.00442  -0.77848
  69   40201.2    248.7   0.031766203   0.26014   0.22385  -0.05364   0.45514
  70   40304.5    248.1   0.081047638   0.66201   0.12625  -0.13273  -0.79275

FINAL SINGLE POINT ENERGY     -5580.355925903310

DIPOLE MOMENT
-------------
                                X             Y             Z
Electronic contribution:      0.93842       0.52153       9.04872
Nuclear contribution   :     -1.85952      -0.31865      -7.41451
                        -----------------------------------------
Total Dipole Moment    :     -0.92110       0.20288       1.63421
                        -----------------------------------------
Magnitude (a.u.)       :      1.88685
Magnitude (Debye)      :      4.79600

Rotational constants in cm-1:     0.001778     0.000148     0.000138
Rotational constants in MHz :    53.293163     4.438516     4.145926

                             ****ORCA TERMINATED NORMALLY****
TOTAL RUN TIME: 0 days 0 hours 18 minutes 56 seconds 443 msec
