                         Program Version 4.2.0 -  RELEASE  -
|  1> # ORCA input file
|  2> # SCF done       -186.719857709571          0.000739993556
|  3> ! CAM-B3LYP def2-SVP def2/J RIJCOSX Grid4 TightSCF
|  4> %maxcore 5000
|  5> %tddft
|  6>     Mode sTDDFT
|  7>     Ethresh 5.0
|  8>     maxcore 5000
|  9> end
| 10>
| 11> %pal
| 12>   nprocs 6
| 13>   end
| 14> * xyz 0 1
| 15>    C       -9.14175       -14.56912         1.08175
| 16>    O       -8.49620       -13.95820         0.27752
| 17>    N      -10.51341       -14.42358         1.21477
| 18>    C      -11.32539       -13.79737         0.28671
| 19>    N      -12.55446       -13.76747         0.66524
| 20>    C      -12.59237       -14.36589         1.89712
| 21>    C      -11.35337       -14.78249         2.25711
| 22>    N       -8.58057       -15.51207         1.95672
| 23>    C       -9.06846       -16.78855         2.17786
| 24>    C       -8.10231       -17.45534         2.86578
| 25>    N       -7.04268       -16.64187         3.09487
| 26>    C       -7.32012       -15.48981         2.54082
| 27>    C       -6.45920       -14.35485         2.62855
| 28>    C       -6.73068       -13.01306         2.46115
| 29>    C       -5.59983       -12.22975         2.69351
| 30>    C       -4.46747       -12.99024         3.04410
| 31>    S       -4.80073       -14.66377         3.09443
| 32>    C       -3.37954       -12.10805         3.26241
| 33>    C       -3.83120       -10.78857         3.04592
| 34>    C       -5.23963       -10.82386         2.68258
| 35>    C       -6.05132        -9.76380         2.40150
| 36>    C       -7.41829        -9.93174         2.09451
| 37>    N       -8.53297       -10.06633         1.86128
| 38>    C       -5.58460        -8.43244         2.41607
| 39>    N       -5.21502        -7.34700         2.42679
| 40>    C       -2.84201        -9.83939         3.25313
| 41>    C       -1.63492       -10.42124         3.62658
| 42>    S       -1.73131       -12.17364         3.71195
| 43>    C       -0.43268        -9.74237         3.94478
| 44>    C        0.73280       -10.45090         4.32148
| 45>    C        1.96808        -9.80747         4.70094
| 46>    N        3.02881       -10.56825         5.00711
| 47>    C        2.93015       -11.87422         4.97932
| 48>    C        1.69207       -12.51187         4.64245
| 49>    N        0.64947       -11.78601         4.32323
| 50>    C        1.57970       -13.92384         4.64284
| 51>    N        1.51673       -15.06737         4.65123
| 52>    C        4.06632       -12.67178         5.27247
| 53>    N        4.95084       -13.36581         5.48871
| 54>    C        2.07438        -8.39391         4.74457
| 55>    C        0.92053        -7.69042         4.32879
| 56>    C       -0.30647        -8.33518         3.93366
| 57>    N       -1.23819        -7.44338         3.59428
| 58>    S       -0.64831        -5.96289         3.74858
| 59>    N        0.82163        -6.36254         4.25912
| 60>    C        3.22376        -7.68539         5.18545
| 61>    C        4.41622        -8.19377         5.68941
| 62>    C        5.29767        -7.18735         6.05786
| 63>    C        4.78149        -5.89431         5.83114
| 64>    S        3.21023        -5.92458         5.16848
| 65>    C        5.74680        -4.94653         6.25326
| 66>    C        6.86920        -5.63869         6.74506
| 67>    C        6.62312        -7.06644         6.64797
| 68>    C        7.44579        -8.07527         7.05454
| 69>    C        7.08544        -9.43465         6.93164
| 70>    N        6.79307       -10.53933         6.84456
| 71>    C        8.69716        -7.81967         7.65451
| 72>    N        9.70329        -7.60735         8.16213
| 73>    C        7.87957        -4.78666         7.19372
| 74>    C        7.52920        -3.46188         7.04163
| 75>    S        5.93358        -3.25235         6.35362
| 76>    C        8.22123        -2.27008         7.41270
| 77>    N        7.62065        -1.11896         7.57462
| 78>    C        8.56338        -0.23705         7.98843
| 79>    C        9.76794        -0.85741         8.11020
| 80>    N        9.56769        -2.17646         7.74056
| 81>    C       10.58314        -3.11265         7.49193
| 82>    O       10.60163        -3.81449         6.52050
| 83>    N       11.57638        -3.13454         8.45806
| 84>    C       12.81864        -3.71852         8.29018
| 85>    N       13.54168        -3.62430         9.34996
| 86>    C       12.77308        -2.98187        10.28454
| 87>    C       11.56285        -2.66482         9.76195
| 88>    H      -10.93406       -13.41084        -0.63212
| 89>    H      -13.51480       -14.45163         2.43474
| 90>    H      -10.99547       -15.25451         3.14812
| 91>    H      -10.01434       -17.10809         1.79209
| 92>    H       -8.10348       -18.46717         3.21661
| 93>    H       -7.69237       -12.61805         2.19275
| 94>    H       -2.95483        -8.77568         3.15146
| 95>    H        4.60042        -9.24860         5.77246
| 96>    H        8.81001        -5.12273         7.61097
| 97>    H        8.31197         0.78652         8.17837
| 98>    H       10.73577        -0.48314         8.37230
| 99>    H       13.10676        -4.17050         7.36308
|100>    H       13.15164        -2.79524        11.26896
|101>    H       10.70434        -2.19607        10.19565
|102> *
|103>
|104>                          ****END OF INPUT****

CARTESIAN COORDINATES (ANGSTROEM)
---------------------------------
  C     -9.141750  -14.569120    1.081750
  O     -8.496200  -13.958200    0.277520
  N    -10.513410  -14.423580    1.214770
  C    -11.325390  -13.797370    0.286710
  N    -12.554460  -13.767470    0.665240
  C    -12.592370  -14.365890    1.897120
  C    -11.353370  -14.782490    2.257110
  N     -8.580570  -15.512070    1.956720
  C     -9.068460  -16.788550    2.177860
  C     -8.102310  -17.455340    2.865780
  N     -7.042680  -16.641870    3.094870
  C     -7.320120  -15.489810    2.540820
  C     -6.459200  -14.354850    2.628550
  C     -6.730680  -13.013060    2.461150
  C     -5.599830  -12.229750    2.693510
  C     -4.467470  -12.990240    3.044100
  S     -4.800730  -14.663770    3.094430
  C     -3.379540  -12.108050    3.262410
  C     -3.831200  -10.788570    3.045920
  C     -5.239630  -10.823860    2.682580
  C     -6.051320   -9.763800    2.401500
  C     -7.418290   -9.931740    2.094510
  N     -8.532970  -10.066330    1.861280
  C     -5.584600   -8.432440    2.416070
  N     -5.215020   -7.347000    2.426790
  C     -2.842010   -9.839390    3.253130
  C     -1.634920  -10.421240    3.626580
  S     -1.731310  -12.173640    3.711950
  C     -0.432680   -9.742370    3.944780
  C      0.732800  -10.450900    4.321480
  C      1.968080   -9.807470    4.700940
  N      3.028810  -10.568250    5.007110
  C      2.930150  -11.874220    4.979320
  C      1.692070  -12.511870    4.642450
  N      0.649470  -11.786010    4.323230
  C      1.579700  -13.923840    4.642840
  N      1.516730  -15.067370    4.651230
  C      4.066320  -12.671780    5.272470
  N      4.950840  -13.365810    5.488710
  C      2.074380   -8.393910    4.744570
  C      0.920530   -7.690420    4.328790
  C     -0.306470   -8.335180    3.933660
  N     -1.238190   -7.443380    3.594280
  S     -0.648310   -5.962890    3.748580
  N      0.821630   -6.362540    4.259120
  C      3.223760   -7.685390    5.185450
  C      4.416220   -8.193770    5.689410
  C      5.297670   -7.187350    6.057860
  C      4.781490   -5.894310    5.831140
  S      3.210230   -5.924580    5.168480
  C      5.746800   -4.946530    6.253260
  C      6.869200   -5.638690    6.745060
  C      6.623120   -7.066440    6.647970
  C      7.445790   -8.075270    7.054540
  C      7.085440   -9.434650    6.931640
  N      6.793070  -10.539330    6.844560
  C      8.697160   -7.819670    7.654510
  N      9.703290   -7.607350    8.162130
  C      7.879570   -4.786660    7.193720
  C      7.529200   -3.461880    7.041630
  S      5.933580   -3.252350    6.353620
  C      8.221230   -2.270080    7.412700
  N      7.620650   -1.118960    7.574620
  C      8.563380   -0.237050    7.988430
  C      9.767940   -0.857410    8.110200
  N      9.567690   -2.176460    7.740560
  C     10.583140   -3.112650    7.491930
  O     10.601630   -3.814490    6.520500
  N     11.576380   -3.134540    8.458060
  C     12.818640   -3.718520    8.290180
  N     13.541680   -3.624300    9.349960
  C     12.773080   -2.981870   10.284540
  C     11.562850   -2.664820    9.761950
  H    -10.934060  -13.410840   -0.632120
  H    -13.514800  -14.451630    2.434740
  H    -10.995470  -15.254510    3.148120
  H    -10.014340  -17.108090    1.792090
  H     -8.103480  -18.467170    3.216610
  H     -7.692370  -12.618050    2.192750
  H     -2.954830   -8.775680    3.151460
  H      4.600420   -9.248600    5.772460
  H      8.810010   -5.122730    7.610970
  H      8.311970    0.786520    8.178370
  H     10.735770   -0.483140    8.372300
  H     13.106760   -4.170500    7.363080
  H     13.151640   -2.795240   11.268960
  H     10.704340   -2.196070   10.195650

 Total Charge           Charge          ....    0
 Multiplicity           Mult            ....    1
 Number of Electrons    NEL             ....  524
 Basis Dimension        Dim             .... 1112

ORBITAL ENERGIES
----------------

  NO   OCC          E(Eh)            E(eV)
   0   2.0000     -89.058385     -2423.4018
   1   2.0000     -88.989630     -2421.5309
   2   2.0000     -88.989479     -2421.5268
   3   2.0000     -88.986388     -2421.4427
   4   2.0000     -88.985886     -2421.4291
   5   2.0000     -19.247175      -523.7423
   6   2.0000     -19.247122      -523.7408
   7   2.0000     -14.507154      -394.7597
   8   2.0000     -14.506601      -394.7447
   9   2.0000     -14.503521      -394.6609
  10   2.0000     -14.503420      -394.6581
  11   2.0000     -14.475371      -393.8949
  12   2.0000     -14.469822      -393.7439
  13   2.0000     -14.466705      -393.6591
  14   2.0000     -14.466559      -393.6551
  15   2.0000     -14.437093      -392.8533
  16   2.0000     -14.429812      -392.6551
  17   2.0000     -14.429361      -392.6429
  18   2.0000     -14.429233      -392.6394
  19   2.0000     -14.427905      -392.6033
  20   2.0000     -14.425270      -392.5316
  21   2.0000     -14.413871      -392.2214
  22   2.0000     -14.413348      -392.2071
  23   2.0000     -14.406004      -392.0073
  24   2.0000     -14.405910      -392.0048
  25   2.0000     -10.462996      -284.7126
  26   2.0000     -10.462961      -284.7116
  27   2.0000     -10.392039      -282.7818
  28   2.0000     -10.389715      -282.7185
  29   2.0000     -10.364314      -282.0273
  30   2.0000     -10.363757      -282.0122
  31   2.0000     -10.362750      -281.9848
  32   2.0000     -10.361582      -281.9530
  33   2.0000     -10.359124      -281.8861
  34   2.0000     -10.357227      -281.8345
  35   2.0000     -10.355626      -281.7909
  36   2.0000     -10.354555      -281.7618
  37   2.0000     -10.350769      -281.6588
  38   2.0000     -10.349046      -281.6119
  39   2.0000     -10.342207      -281.4258
  40   2.0000     -10.342141      -281.4240
  41   2.0000     -10.331215      -281.1267
  42   2.0000     -10.331025      -281.1215
  43   2.0000     -10.330942      -281.1192
  44   2.0000     -10.330421      -281.1050
  45   2.0000     -10.330375      -281.1038
  46   2.0000     -10.329923      -281.0915
  47   2.0000     -10.329878      -281.0903
  48   2.0000     -10.328367      -281.0491
  49   2.0000     -10.328355      -281.0488
  50   2.0000     -10.327532      -281.0264
  51   2.0000     -10.327251      -281.0188
  52   2.0000     -10.326981      -281.0114
  53   2.0000     -10.326972      -281.0112
  54   2.0000     -10.325774      -280.9786
  55   2.0000     -10.325435      -280.9694
  56   2.0000     -10.325108      -280.9605
  57   2.0000     -10.325089      -280.9599
  58   2.0000     -10.321775      -280.8698
  59   2.0000     -10.319508      -280.8081
  60   2.0000     -10.319393      -280.8050
  61   2.0000     -10.306782      -280.4618
  62   2.0000     -10.305988      -280.4402
  63   2.0000     -10.304269      -280.3934
  64   2.0000     -10.304018      -280.3866
  65   2.0000     -10.303669      -280.3771
  66   2.0000     -10.303203      -280.3644
  67   2.0000     -10.300600      -280.2936
  68   2.0000     -10.300509      -280.2911
  69   2.0000     -10.300245      -280.2839
  70   2.0000     -10.299931      -280.2754
  71   2.0000     -10.299775      -280.2711
  72   2.0000     -10.297972      -280.2221
  73   2.0000      -8.149210      -221.7513
  74   2.0000      -8.083682      -219.9682
  75   2.0000      -8.083622      -219.9665
  76   2.0000      -8.079155      -219.8450
  77   2.0000      -8.078775      -219.8346
  78   2.0000      -6.120299      -166.5418
  79   2.0000      -6.112505      -166.3297
  80   2.0000      -6.112031      -166.3168
  81   2.0000      -6.052941      -164.7089
  82   2.0000      -6.052904      -164.7079
  83   2.0000      -6.048636      -164.5918
  84   2.0000      -6.048615      -164.5912
  85   2.0000      -6.048589      -164.5905
  86   2.0000      -6.048339      -164.5837
  87   2.0000      -6.046144      -164.5239
  88   2.0000      -6.046029      -164.5208
  89   2.0000      -6.043965      -164.4647
  90   2.0000      -6.043513      -164.4523
  91   2.0000      -6.041573      -164.3996
  92   2.0000      -6.041254      -164.3909
  93   2.0000      -1.207115       -32.8473
  94   2.0000      -1.207036       -32.8451
  95   2.0000      -1.155677       -31.4476
  96   2.0000      -1.136765       -30.9330
  97   2.0000      -1.136381       -30.9225
  98   2.0000      -1.132069       -30.8052
  99   2.0000      -1.130220       -30.7549
 100   2.0000      -1.130211       -30.7546
 101   2.0000      -1.059605       -28.8333
 102   2.0000      -1.043071       -28.3834
 103   2.0000      -1.042693       -28.3731
 104   2.0000      -1.021937       -27.8083
 105   2.0000      -1.021362       -27.7927
 106   2.0000      -1.021010       -27.7831
 107   2.0000      -1.019487       -27.7417
 108   2.0000      -1.018394       -27.7119
 109   2.0000      -1.013635       -27.5824
 110   2.0000      -1.006994       -27.4017
 111   2.0000      -1.006098       -27.3773
 112   2.0000      -1.004240       -27.3268
 113   2.0000      -1.001003       -27.2387
 114   2.0000      -0.992559       -27.0089
 115   2.0000      -0.985813       -26.8253
 116   2.0000      -0.985080       -26.8054
 117   2.0000      -0.981240       -26.7009
 118   2.0000      -0.957880       -26.0652
 119   2.0000      -0.953867       -25.9561
 120   2.0000      -0.922287       -25.0967
 121   2.0000      -0.919262       -25.0144
 122   2.0000      -0.912771       -24.8378
 123   2.0000      -0.895841       -24.3771
 124   2.0000      -0.876727       -23.8569
 125   2.0000      -0.875011       -23.8102
 126   2.0000      -0.865392       -23.5485
 127   2.0000      -0.858973       -23.3739
 128   2.0000      -0.858129       -23.3509
 129   2.0000      -0.857216       -23.3260
 130   2.0000      -0.853760       -23.2320
 131   2.0000      -0.853097       -23.2139
 132   2.0000      -0.844587       -22.9824
 133   2.0000      -0.818406       -22.2700
 134   2.0000      -0.816925       -22.2297
 135   2.0000      -0.810379       -22.0515
 136   2.0000      -0.805336       -21.9143
 137   2.0000      -0.783163       -21.3110
 138   2.0000      -0.779098       -21.2003
 139   2.0000      -0.775272       -21.0962
 140   2.0000      -0.759937       -20.6789
 141   2.0000      -0.744630       -20.2624
 142   2.0000      -0.739183       -20.1142
 143   2.0000      -0.735350       -20.0099
 144   2.0000      -0.724815       -19.7232
 145   2.0000      -0.718120       -19.5410
 146   2.0000      -0.716652       -19.5011
 147   2.0000      -0.714280       -19.4366
 148   2.0000      -0.706088       -19.2136
 149   2.0000      -0.704272       -19.1642
 150   2.0000      -0.697937       -18.9918
 151   2.0000      -0.690082       -18.7781
 152   2.0000      -0.689163       -18.7531
 153   2.0000      -0.685012       -18.6401
 154   2.0000      -0.676615       -18.4116
 155   2.0000      -0.674099       -18.3432
 156   2.0000      -0.668842       -18.2001
 157   2.0000      -0.668106       -18.1801
 158   2.0000      -0.665166       -18.1001
 159   2.0000      -0.662051       -18.0153
 160   2.0000      -0.638903       -17.3854
 161   2.0000      -0.635804       -17.3011
 162   2.0000      -0.630417       -17.1545
 163   2.0000      -0.629529       -17.1303
 164   2.0000      -0.623777       -16.9738
 165   2.0000      -0.614796       -16.7294
 166   2.0000      -0.612383       -16.6638
 167   2.0000      -0.610979       -16.6256
 168   2.0000      -0.598669       -16.2906
 169   2.0000      -0.591693       -16.1008
 170   2.0000      -0.591235       -16.0883
 171   2.0000      -0.589584       -16.0434
 172   2.0000      -0.587093       -15.9756
 173   2.0000      -0.585661       -15.9366
 174   2.0000      -0.571206       -15.5433
 175   2.0000      -0.569377       -15.4935
 176   2.0000      -0.569056       -15.4848
 177   2.0000      -0.563285       -15.3278
 178   2.0000      -0.562521       -15.3070
 179   2.0000      -0.559741       -15.2313
 180   2.0000      -0.557982       -15.1835
 181   2.0000      -0.554699       -15.0941
 182   2.0000      -0.552500       -15.0343
 183   2.0000      -0.547967       -14.9109
 184   2.0000      -0.545476       -14.8432
 185   2.0000      -0.542075       -14.7506
 186   2.0000      -0.540397       -14.7050
 187   2.0000      -0.536683       -14.6039
 188   2.0000      -0.530511       -14.4359
 189   2.0000      -0.529176       -14.3996
 190   2.0000      -0.526629       -14.3303
 191   2.0000      -0.521882       -14.2011
 192   2.0000      -0.520869       -14.1736
 193   2.0000      -0.517215       -14.0741
 194   2.0000      -0.508182       -13.8283
 195   2.0000      -0.507601       -13.8125
 196   2.0000      -0.507415       -13.8075
 197   2.0000      -0.503719       -13.7069
 198   2.0000      -0.502287       -13.6679
 199   2.0000      -0.501440       -13.6449
 200   2.0000      -0.498035       -13.5522
 201   2.0000      -0.496298       -13.5050
 202   2.0000      -0.495619       -13.4865
 203   2.0000      -0.492674       -13.4063
 204   2.0000      -0.492370       -13.3981
 205   2.0000      -0.489403       -13.3173
 206   2.0000      -0.488882       -13.3031
 207   2.0000      -0.478093       -13.0096
 208   2.0000      -0.474197       -12.9036
 209   2.0000      -0.473504       -12.8847
 210   2.0000      -0.470818       -12.8116
 211   2.0000      -0.468817       -12.7572
 212   2.0000      -0.461114       -12.5475
 213   2.0000      -0.460681       -12.5358
 214   2.0000      -0.459974       -12.5165
 215   2.0000      -0.457999       -12.4628
 216   2.0000      -0.456641       -12.4258
 217   2.0000      -0.455088       -12.3836
 218   2.0000      -0.452086       -12.3019
 219   2.0000      -0.449364       -12.2278
 220   2.0000      -0.447828       -12.1860
 221   2.0000      -0.446967       -12.1626
 222   2.0000      -0.444488       -12.0951
 223   2.0000      -0.439722       -11.9654
 224   2.0000      -0.438172       -11.9233
 225   2.0000      -0.436734       -11.8841
 226   2.0000      -0.435648       -11.8546
 227   2.0000      -0.430594       -11.7171
 228   2.0000      -0.429541       -11.6884
 229   2.0000      -0.426494       -11.6055
 230   2.0000      -0.425482       -11.5779
 231   2.0000      -0.424412       -11.5488
 232   2.0000      -0.415576       -11.3084
 233   2.0000      -0.412136       -11.2148
 234   2.0000      -0.412123       -11.2144
 235   2.0000      -0.410690       -11.1755
 236   2.0000      -0.407475       -11.0880
 237   2.0000      -0.402679       -10.9574
 238   2.0000      -0.391352       -10.6492
 239   2.0000      -0.390445       -10.6246
 240   2.0000      -0.383759       -10.4426
 241   2.0000      -0.383456       -10.4344
 242   2.0000      -0.382038       -10.3958
 243   2.0000      -0.381875       -10.3914
 244   2.0000      -0.376977       -10.2581
 245   2.0000      -0.371995       -10.1225
 246   2.0000      -0.371364       -10.1053
 247   2.0000      -0.360876        -9.8199
 248   2.0000      -0.358909        -9.7664
 249   2.0000      -0.358442        -9.7537
 250   2.0000      -0.358234        -9.7481
 251   2.0000      -0.352683        -9.5970
 252   2.0000      -0.345150        -9.3920
 253   2.0000      -0.344316        -9.3693
 254   2.0000      -0.334204        -9.0942
 255   2.0000      -0.326300        -8.8791
 256   2.0000      -0.325372        -8.8538
 257   2.0000      -0.320706        -8.7268
 258   2.0000      -0.318566        -8.6686
 259   2.0000      -0.303228        -8.2512
 260   2.0000      -0.274806        -7.4778
 261   2.0000      -0.240487        -6.5440
 262   0.0000      -0.136976        -3.7273
 263   0.0000      -0.101637        -2.7657
 264   0.0000      -0.098190        -2.6719
 265   0.0000      -0.061139        -1.6637
 266   0.0000      -0.050209        -1.3663

MULLIKEN ATOMIC CHARGES
-----------------------
   0 C :    0.224479
   1 O :   -0.141129
   2 N :   -0.183825
   3 C :    0.120970
   4 N :   -0.106841
   5 C :    0.021474
   6 C :    0.053150
   7 N :   -0.198062
   8 C :    0.067004
   9 C :    0.033776
  10 N :   -0.100719
  11 C :    0.068645
  12 C :   -0.086239
  13 C :   -0.022049
  14 C :   -0.013676
  15 C :   -0.100437
  16 S :    0.255478
  17 C :   -0.060364
  18 C :    0.037271
  19 C :    0.312260
  20 C :   -0.303699
  21 C :   -0.183517
  22 N :    0.166769
  23 C :   -0.186932
  24 N :    0.168124
  25 C :   -0.068974
  26 C :   -0.175189
  27 S :    0.210416
  28 C :    0.186604
  29 C :   -0.063053
  30 C :   -0.072476
  31 N :    0.055274
  32 C :   -0.119428
  33 C :   -0.096386
  34 N :   -0.014714
  35 C :   -0.240678
  36 N :    0.253427
  37 C :   -0.219187
  38 N :    0.253180
  39 C :    0.214124
  40 C :   -0.030370
  41 C :    0.000188
  42 N :   -0.280427
  43 S :    0.578977
  44 N :   -0.336196
  45 C :   -0.185649
  46 C :   -0.068310
  47 C :    0.044285
  48 C :   -0.069157
  49 S :    0.205116
  50 C :   -0.097384
  51 C :   -0.012728
  52 C :    0.310928
  53 C :   -0.297845
  54 C :   -0.196141
  55 N :    0.186332
  56 C :   -0.181677
  57 N :    0.166595
  58 C :   -0.021524
  59 C :   -0.088291
  60 S :    0.244049
  61 C :    0.070969
  62 N :   -0.104253
  63 C :    0.033968
  64 C :    0.066435
  65 N :   -0.196419
  66 C :    0.225627
  67 O :   -0.141907
  68 N :   -0.183025
  69 C :    0.120193
  70 N :   -0.105519
  71 C :    0.020908
  72 C :    0.053055
  73 H :    0.040566
  74 H :    0.012633
  75 H :    0.036587
  76 H :    0.034041
  77 H :    0.005977
  78 H :    0.010822
  79 H :    0.020609
  80 H :    0.022468
  81 H :    0.011561
  82 H :    0.005124
  83 H :    0.034219
  84 H :    0.040760
  85 H :    0.011890
  86 H :    0.037085
Sum of atomic charges:   -0.0000000

LOEWDIN ATOMIC CHARGES
----------------------
   0 C :    0.116335
   1 O :   -0.124159
   2 N :    0.025177
   3 C :    0.055981
   4 N :   -0.088198
   5 C :   -0.018893
   6 C :   -0.025664
   7 N :    0.022209
   8 C :   -0.017017
   9 C :   -0.021257
  10 N :   -0.107154
  11 C :    0.009377
  12 C :   -0.180045
  13 C :   -0.021693
  14 C :   -0.066179
  15 C :   -0.179829
  16 S :    0.527470
  17 C :   -0.173399
  18 C :   -0.075400
  19 C :    0.082508
  20 C :   -0.105400
  21 C :   -0.015564
  22 N :   -0.035810
  23 C :   -0.016039
  24 N :   -0.036592
  25 C :   -0.006934
  26 C :   -0.170095
  27 S :    0.513294
  28 C :   -0.037015
  29 C :   -0.014933
  30 C :   -0.006018
  31 N :    0.010114
  32 C :   -0.020125
  33 C :   -0.021164
  34 N :   -0.019124
  35 C :   -0.039273
  36 N :    0.002140
  37 C :   -0.041401
  38 N :    0.013137
  39 C :   -0.042110
  40 C :   -0.045521
  41 C :   -0.037625
  42 N :   -0.267268
  43 S :    0.695433
  44 N :   -0.303309
  45 C :   -0.166912
  46 C :   -0.008254
  47 C :   -0.072433
  48 C :   -0.176765
  49 S :    0.511724
  50 C :   -0.180021
  51 C :   -0.066071
  52 C :    0.079846
  53 C :   -0.101157
  54 C :   -0.020167
  55 N :   -0.023516
  56 C :   -0.014719
  57 N :   -0.034940
  58 C :   -0.021074
  59 C :   -0.180996
  60 S :    0.519380
  61 C :    0.009763
  62 N :   -0.109636
  63 C :   -0.021849
  64 C :   -0.017250
  65 N :    0.022599
  66 C :    0.116486
  67 O :   -0.124068
  68 N :    0.025243
  69 C :    0.055942
  70 N :   -0.087862
  71 C :   -0.018815
  72 C :   -0.025752
  73 H :    0.029330
  74 H :    0.026380
  75 H :    0.030451
  76 H :    0.031184
  77 H :    0.027449
  78 H :    0.036595
  79 H :    0.037985
  80 H :    0.037613
  81 H :    0.036933
  82 H :    0.026917
  83 H :    0.031213
  84 H :    0.029459
  85 H :    0.026312
  86 H :    0.030488

  Mayer bond orders larger than 0.100000
B(  0-C ,  1-O ) :   2.1973 B(  0-C ,  2-N ) :   1.0271 B(  0-C ,  7-N ) :   0.9650
B(  2-N ,  3-C ) :   1.0970 B(  2-N ,  6-C ) :   1.0771 B(  3-C ,  4-N ) :   1.7634
B(  3-C , 73-H ) :   0.9817 B(  4-N ,  5-C ) :   1.3188 B(  5-C ,  6-C ) :   1.6030
B(  5-C , 74-H ) :   1.0011 B(  6-C , 75-H ) :   0.9842 B(  7-N ,  8-C ) :   1.0826
B(  7-N , 11-C ) :   1.1320 B(  8-C ,  9-C ) :   1.5619 B(  8-C , 76-H ) :   0.9808
B(  9-C , 10-N ) :   1.3490 B(  9-C , 77-H ) :   0.9992 B( 10-N , 11-C ) :   1.7774
B( 11-C , 12-C ) :   1.0503 B( 12-C , 13-C ) :   1.4801 B( 12-C , 16-S ) :   1.1257
B( 13-C , 14-C ) :   1.3072 B( 13-C , 78-H ) :   0.9784 B( 14-C , 15-C ) :   1.4267
B( 14-C , 19-C ) :   0.9999 B( 15-C , 16-S ) :   1.1235 B( 15-C , 17-C ) :   1.1964
B( 17-C , 18-C ) :   1.4019 B( 17-C , 27-S ) :   1.0927 B( 18-C , 19-C ) :   0.9854
B( 18-C , 25-C ) :   1.2862 B( 19-C , 20-C ) :   1.7071 B( 20-C , 21-C ) :   1.1338
B( 20-C , 23-C ) :   1.1394 B( 21-C , 22-N ) :   2.9816 B( 23-C , 24-N ) :   2.9854
B( 25-C , 26-C ) :   1.4050 B( 25-C , 79-H ) :   0.9834 B( 26-C , 27-S ) :   1.0816
B( 26-C , 28-C ) :   1.2170 B( 28-C , 29-C ) :   1.2449 B( 28-C , 39-C ) :   0.1218
B( 28-C , 41-C ) :   1.2003 B( 29-C , 30-C ) :   1.1002 B( 29-C , 34-N ) :   1.4023
B( 30-C , 31-N ) :   1.4539 B( 30-C , 39-C ) :   1.2539 B( 31-N , 32-C ) :   1.7303
B( 32-C , 33-C ) :   1.2123 B( 32-C , 37-C ) :   1.1551 B( 33-C , 34-N ) :   1.6908
B( 33-C , 35-C ) :   1.1632 B( 35-C , 36-N ) :   3.0416 B( 37-C , 38-N ) :   3.0263
B( 39-C , 40-C ) :   1.1864 B( 39-C , 45-C ) :   1.2004 B( 40-C , 41-C ) :   1.1093
B( 40-C , 44-N ) :   1.4737 B( 41-C , 42-N ) :   1.5122 B( 42-N , 43-S ) :   1.2897
B( 42-N , 44-N ) :   0.1491 B( 43-S , 44-N ) :   1.2705 B( 45-C , 46-C ) :   1.3998
B( 45-C , 49-S ) :   1.0927 B( 46-C , 47-C ) :   1.2770 B( 46-C , 80-H ) :   0.9858
B( 47-C , 48-C ) :   1.4023 B( 47-C , 52-C ) :   0.9867 B( 48-C , 49-S ) :   1.1050
B( 48-C , 50-C ) :   1.1918 B( 50-C , 51-C ) :   1.4306 B( 50-C , 60-S ) :   1.1203
B( 51-C , 52-C ) :   0.9970 B( 51-C , 58-C ) :   1.3067 B( 52-C , 53-C ) :   1.7131
B( 53-C , 54-C ) :   1.1337 B( 53-C , 56-C ) :   1.1341 B( 54-C , 55-N ) :   2.9957
B( 56-C , 57-N ) :   2.9800 B( 58-C , 59-C ) :   1.4831 B( 58-C , 81-H ) :   0.9783
B( 59-C , 60-S ) :   1.1222 B( 59-C , 61-C ) :   1.0496 B( 61-C , 62-N ) :   1.7748
B( 61-C , 65-N ) :   1.1351 B( 62-N , 63-C ) :   1.3464 B( 63-C , 64-C ) :   1.5640
B( 63-C , 82-H ) :   0.9989 B( 64-C , 65-N ) :   1.0816 B( 64-C , 83-H ) :   0.9808
B( 65-N , 66-C ) :   0.9647 B( 66-C , 67-O ) :   2.1964 B( 66-C , 68-N ) :   1.0268
B( 68-N , 69-C ) :   1.0973 B( 68-N , 72-C ) :   1.0770 B( 69-C , 70-N ) :   1.7630
B( 69-C , 84-H ) :   0.9819 B( 70-N , 71-C ) :   1.3208 B( 71-C , 72-C ) :   1.6026
B( 71-C , 85-H ) :   1.0012 B( 72-C , 86-H ) :   0.9837

-----------------------------------------------------------------------------
         ABSORPTION SPECTRUM VIA TRANSITION ELECTRIC DIPOLE MOMENTS
-----------------------------------------------------------------------------
State   Energy  Wavelength   fosc         T2         TX        TY        TZ
        (cm-1)    (nm)                  (au**2)     (au)      (au)      (au)
-----------------------------------------------------------------------------
   0    7411.5   1349.3   0.535806309  23.80017  -4.01303  -2.45786  -1.28633
   1   13278.9    753.1   0.002081066   0.05159  -0.07273   0.16883   0.13342
   2   13722.8    728.7   0.034190298   0.82023  -0.58883  -0.65184  -0.22049
   3   16346.4    611.8   0.008653322   0.17428  -0.30179   0.24049   0.15927
   4   22162.8    451.2   0.144743637   2.15006  -0.88878  -1.11964  -0.32639
   5   22792.1    438.7   0.074906631   1.08196   0.31226   0.96956   0.21075
   6   23397.6    427.4   0.278549445   3.91928  -1.80366  -0.62868  -0.52044
   7   23826.9    419.7   0.001504867   0.02079  -0.08640   0.06864  -0.09283
   8   23860.7    419.1   0.012800160   0.17661  -0.32565  -0.26023  -0.05327
   9   24595.1    406.6   0.045921475   0.61467   0.48466   0.59618   0.15602
  10   25111.4    398.2   0.089826437   1.17763   0.44919   0.98063   0.11927
  11   25442.2    393.0   0.001312534   0.01698  -0.03292   0.00478   0.12601
  12   27497.2    363.7   1.170820437  14.01770  -2.88809  -2.19804  -0.91939
  13   28621.8    349.4   0.018446483   0.21217   0.12757  -0.43452  -0.08421
  14   29118.2    343.4   0.008421361   0.09521   0.14410  -0.25843   0.08753
  15   29585.3    338.0   0.188660370   2.09933   0.56181   1.33192   0.09852
  16   29884.5    334.6   0.109991380   1.21168   0.24952   1.06694   0.10520
  17   30505.8    327.8   0.006154628   0.06642  -0.20439  -0.12688  -0.09244
  18   30883.3    323.8   0.267324819   2.84964   1.53956  -0.44103   0.53375
  19   30952.8    323.1   0.050905136   0.54142   0.21674   0.67794   0.18665
  20   31452.6    317.9   0.163857986   1.71509   1.21844  -0.06663   0.47544
  21   31852.8    313.9   0.278168175   2.87498   1.56284  -0.49481   0.43322
  22   32118.2    311.4   0.008834205   0.09055  -0.27386  -0.11078  -0.05725
  23   32214.2    310.4   0.008088167   0.08266  -0.17009  -0.11499  -0.20125
  24   32498.0    307.7   0.006285814   0.06368  -0.17462   0.01980  -0.18109
  25   32701.3    305.8   0.377574403   3.80114  -0.98116   1.64636  -0.35774
  26   32875.3    304.2   0.641575771   6.42471  -1.53461   1.92656  -0.59839
  27   33066.5    302.4   0.436848981   4.34929   0.83333  -1.87560   0.37010
  28   33875.0    295.2   0.037644929   0.36585  -0.16675   0.58135   0.00866
  29   34083.9    293.4   0.305650373   2.95224   0.88588   1.45123   0.24780
  30   34421.5    290.5   0.249142873   2.38284  -0.21212   1.52365  -0.12784
  31   35099.7    284.9   0.002580820   0.02421  -0.09292  -0.01522   0.12386
  32   35193.3    284.1   0.027747586   0.25956   0.16870  -0.38277   0.29084
  33   36409.7    274.7   0.020134652   0.18205  -0.28167  -0.31723  -0.04560
  34   36630.9    273.0   0.007042730   0.06329  -0.19320   0.10900  -0.11870
  35   36909.0    270.9   0.002384239   0.02127  -0.06076   0.13097   0.02054
  36   37158.2    269.1   0.002668260   0.02364   0.14021   0.05331  -0.03375
  37   37462.9    266.9   0.067063921   0.58934   0.15012   0.74883  -0.07777
  38   37679.5    265.4   0.028969944   0.25312  -0.12439  -0.46836  -0.13520
  39   37934.8    263.6   0.044051498   0.38229  -0.50728  -0.20779  -0.28598
  40   38002.5    263.1   0.236629587   2.04990   0.69632   1.24547   0.11768
  41   38240.4    261.5   0.018505415   0.15931  -0.30382  -0.25290  -0.05524
  42   38623.0    258.9   0.064459918   0.54944   0.45435   0.53378   0.24101
  43   38732.1    258.2   0.010841643   0.09215  -0.19255  -0.22100  -0.07895
  44   39109.9    255.7   0.012591022   0.10599   0.23349   0.21762  -0.06409
  45   39190.0    255.2   0.002280815   0.01916  -0.12904   0.03003  -0.04010
  46   39699.9    251.9   0.001922648   0.01594  -0.09892  -0.04808   0.06202
  47   39989.5    250.1   0.083258032   0.68542   0.63714  -0.49131   0.19515
  48   40056.2    249.6   0.289847989   2.38219   0.18622  -1.53071   0.06669
  49   40157.4    249.0   0.038889343   0.31882  -0.17828   0.51644  -0.14257

FINAL SINGLE POINT ENERGY     -4959.999827753014

DIPOLE MOMENT
-------------
                                X             Y             Z
Electronic contribution:      3.39476      -2.14560      -7.23121
Nuclear contribution   :     -4.82350       4.32919       7.75305
                        -----------------------------------------
Total Dipole Moment    :     -1.42874       2.18359       0.52184
                        -----------------------------------------
Magnitude (a.u.)       :      2.66114
Magnitude (Debye)      :      6.76408

Rotational constants in cm-1:     0.002677     0.000238     0.000220
Rotational constants in MHz :    80.242696     7.134541     6.604887

                             ****ORCA TERMINATED NORMALLY****
TOTAL RUN TIME: 0 days 0 hours 8 minutes 48 seconds 786 msec
