                         Program Version 4.2.0 -  RELEASE  -
|  1> # ORCA input file
|  2> # SCF done       -194.935826310565          0.000991032813
|  3> ! CAM-B3LYP def2-SVP def2/J RIJCOSX Grid4 TightSCF
|  4> %maxcore 5000
|  5> %tddft
|  6>     Mode sTDDFT
|  7>     Ethresh 5.0
|  8>     maxcore 5000
|  9> end
| 10>
| 11> %pal
| 12>   nprocs 6
| 13>   end
| 14> * xyz 0 1
| 15>    C        1.08606        -1.23770        -1.36424
| 16>    O       -0.04911        -1.50710        -1.04660
| 17>    C        1.54634         0.04920        -1.93346
| 18>    C        2.94442         0.03783        -2.07430
| 19>    C        3.59075         1.15587        -2.57728
| 20>    C        2.82796         2.26066        -2.93792
| 21>    C        1.43860         2.25956        -2.79860
| 22>    C        0.78744         1.14581        -2.28518
| 23>   Br        0.42585         3.77306        -3.30463
| 24>   Br        3.70825         3.78586        -3.62697
| 25>    C        3.45407        -1.25571        -1.62582
| 26>    C        4.76091        -1.65858        -1.69011
| 27>    C        5.81550        -0.84802        -2.16345
| 28>    N        6.71156        -0.23490        -2.53464
| 29>    C        5.24102        -2.93037        -1.30901
| 30>    N        5.71113        -3.93909        -1.02759
| 31>    C        2.31950        -2.04372        -1.17619
| 32>    C        2.37469        -3.24068        -0.53227
| 33>    C        1.25734        -4.07199        -0.18352
| 34>    C        0.15452        -4.26469        -1.04722
| 35>    O        0.26867        -3.79273        -2.30501
| 36>    C       -0.81083        -3.96189        -3.19456
| 37>    C       -0.93668        -4.98164        -0.57611
| 38>    C       -0.94924        -5.54219         0.69416
| 39>    C        0.21344        -5.48847         1.49589
| 40>    C        1.29076        -4.75203         1.04090
| 41>    O        0.20319        -6.21527         2.63872
| 42>    C        1.30994        -6.12655         3.50589
| 43>    C       -2.16418        -6.18819         1.18078
| 44>    C       -2.67542        -5.92584         2.45916
| 45>    C       -3.85873        -6.57524         2.95882
| 46>    N       -4.28758        -6.29852         4.21743
| 47>    C       -3.63673        -5.44437         4.92625
| 48>    C       -2.49914        -4.75600         4.40551
| 49>    N       -2.05569        -4.98982         3.22165
| 50>    F       -1.88016        -3.82787         5.13275
| 51>    F       -4.07826        -5.18924         6.15564
| 52>    C       -4.57702        -7.50180         2.18963
| 53>    C       -4.10747        -7.71602         0.88540
| 54>    C       -2.91679        -7.06272         0.38355
| 55>    N       -2.66599        -7.40684        -0.88709
| 56>    S       -3.80686        -8.41213        -1.38516
| 57>    N       -4.68171        -8.47890        -0.05259
| 58>    C       -5.75795        -8.19039         2.70203
| 59>    C       -5.91045        -9.58434         2.52465
| 60>    O       -4.86618       -10.24683         1.97552
| 61>    C       -4.96647       -11.64059         1.79950
| 62>    C       -7.08161       -10.17808         2.95172
| 63>    C       -8.08094        -9.46625         3.63225
| 64>    C       -7.89219        -8.08179         3.85084
| 65>    C       -6.74565        -7.47367         3.36016
| 66>    O       -8.88262        -7.40923         4.48396
| 67>    C       -8.73168        -6.02503         4.71523
| 68>    C       -9.27225       -10.18077         3.98478
| 69>    C      -10.22296        -9.97806         4.93476
| 70>    C      -11.53539       -10.66604         4.77566
| 71>    O      -11.80311       -11.55730         4.00525
| 72>    C      -12.44451        -9.98650         5.72538
| 73>    C      -11.71235        -9.05946         6.48982
| 74>    C      -10.30416        -9.13893         6.10873
| 75>    C       -9.25117        -8.67417         6.84915
| 76>    C       -7.90963        -9.00503         6.56984
| 77>    N       -6.81240        -9.28531         6.38780
| 78>    C       -9.39217        -7.87613         8.00259
| 79>    N       -9.46567        -7.20142         8.92819
| 80>    C      -12.36180        -8.27655         7.42900
| 81>    C      -13.73359        -8.43452         7.59185
| 82>    C      -14.45033        -9.36625         6.83868
| 83>    C      -13.80323       -10.15298         5.89402
| 84>   Br      -16.31373        -9.56510         7.08886
| 85>   Br      -14.62711        -7.35242         8.85923
| 86>    H        4.66148         1.19665        -2.69445
| 87>    H       -0.28498         1.13412        -2.16657
| 88>    H        3.33923        -3.59420        -0.18832
| 89>    H       -0.48168        -3.52989        -4.13845
| 90>    H       -1.69781        -3.42843        -2.84195
| 91>    H       -1.04718        -5.02024        -3.34028
| 92>    H       -1.82184        -5.08843        -1.17945
| 93>    H        2.17397        -4.63838         1.64920
| 94>    H        1.06898        -6.76528         4.35412
| 95>    H        1.45914        -5.10128         3.85688
| 96>    H        2.22541        -6.49109         3.02948
| 97>    H       -4.01485       -11.95015         1.37035
| 98>    H       -5.77494       -11.89988         1.10932
| 99>    H       -5.11671       -12.15481         2.75369
|100>    H       -7.24185       -11.23448         2.80715
|101>    H       -6.59875        -6.41481         3.48181
|102>    H       -9.61775        -5.72346         5.27261
|103>    H       -8.68841        -5.46508         3.77688
|104>    H       -7.83944        -5.81655         5.31219
|105>    H       -9.49896       -11.01841         3.32871
|106>    H      -11.83914        -7.54702         8.02674
|107>    H      -14.34863       -10.87441         5.30553
|108> *
|109>
|110>                          ****END OF INPUT****

CARTESIAN COORDINATES (ANGSTROEM)
---------------------------------
  C      1.086060   -1.237700   -1.364240
  O     -0.049110   -1.507100   -1.046600
  C      1.546340    0.049200   -1.933460
  C      2.944420    0.037830   -2.074300
  C      3.590750    1.155870   -2.577280
  C      2.827960    2.260660   -2.937920
  C      1.438600    2.259560   -2.798600
  C      0.787440    1.145810   -2.285180
  Br     0.425850    3.773060   -3.304630
  Br     3.708250    3.785860   -3.626970
  C      3.454070   -1.255710   -1.625820
  C      4.760910   -1.658580   -1.690110
  C      5.815500   -0.848020   -2.163450
  N      6.711560   -0.234900   -2.534640
  C      5.241020   -2.930370   -1.309010
  N      5.711130   -3.939090   -1.027590
  C      2.319500   -2.043720   -1.176190
  C      2.374690   -3.240680   -0.532270
  C      1.257340   -4.071990   -0.183520
  C      0.154520   -4.264690   -1.047220
  O      0.268670   -3.792730   -2.305010
  C     -0.810830   -3.961890   -3.194560
  C     -0.936680   -4.981640   -0.576110
  C     -0.949240   -5.542190    0.694160
  C      0.213440   -5.488470    1.495890
  C      1.290760   -4.752030    1.040900
  O      0.203190   -6.215270    2.638720
  C      1.309940   -6.126550    3.505890
  C     -2.164180   -6.188190    1.180780
  C     -2.675420   -5.925840    2.459160
  C     -3.858730   -6.575240    2.958820
  N     -4.287580   -6.298520    4.217430
  C     -3.636730   -5.444370    4.926250
  C     -2.499140   -4.756000    4.405510
  N     -2.055690   -4.989820    3.221650
  F     -1.880160   -3.827870    5.132750
  F     -4.078260   -5.189240    6.155640
  C     -4.577020   -7.501800    2.189630
  C     -4.107470   -7.716020    0.885400
  C     -2.916790   -7.062720    0.383550
  N     -2.665990   -7.406840   -0.887090
  S     -3.806860   -8.412130   -1.385160
  N     -4.681710   -8.478900   -0.052590
  C     -5.757950   -8.190390    2.702030
  C     -5.910450   -9.584340    2.524650
  O     -4.866180  -10.246830    1.975520
  C     -4.966470  -11.640590    1.799500
  C     -7.081610  -10.178080    2.951720
  C     -8.080940   -9.466250    3.632250
  C     -7.892190   -8.081790    3.850840
  C     -6.745650   -7.473670    3.360160
  O     -8.882620   -7.409230    4.483960
  C     -8.731680   -6.025030    4.715230
  C     -9.272250  -10.180770    3.984780
  C    -10.222960   -9.978060    4.934760
  C    -11.535390  -10.666040    4.775660
  O    -11.803110  -11.557300    4.005250
  C    -12.444510   -9.986500    5.725380
  C    -11.712350   -9.059460    6.489820
  C    -10.304160   -9.138930    6.108730
  C     -9.251170   -8.674170    6.849150
  C     -7.909630   -9.005030    6.569840
  N     -6.812400   -9.285310    6.387800
  C     -9.392170   -7.876130    8.002590
  N     -9.465670   -7.201420    8.928190
  C    -12.361800   -8.276550    7.429000
  C    -13.733590   -8.434520    7.591850
  C    -14.450330   -9.366250    6.838680
  C    -13.803230  -10.152980    5.894020
  Br   -16.313730   -9.565100    7.088860
  Br   -14.627110   -7.352420    8.859230
  H      4.661480    1.196650   -2.694450
  H     -0.284980    1.134120   -2.166570
  H      3.339230   -3.594200   -0.188320
  H     -0.481680   -3.529890   -4.138450
  H     -1.697810   -3.428430   -2.841950
  H     -1.047180   -5.020240   -3.340280
  H     -1.821840   -5.088430   -1.179450
  H      2.173970   -4.638380    1.649200
  H      1.068980   -6.765280    4.354120
  H      1.459140   -5.101280    3.856880
  H      2.225410   -6.491090    3.029480
  H     -4.014850  -11.950150    1.370350
  H     -5.774940  -11.899880    1.109320
  H     -5.116710  -12.154810    2.753690
  H     -7.241850  -11.234480    2.807150
  H     -6.598750   -6.414810    3.481810
  H     -9.617750   -5.723460    5.272610
  H     -8.688410   -5.465080    3.776880
  H     -7.839440   -5.816550    5.312190
  H     -9.498960  -11.018410    3.328710
  H    -11.839140   -7.547020    8.026740
  H    -14.348630  -10.874410    5.305530

 Total Charge           Charge          ....    0
 Multiplicity           Mult            ....    1
 Number of Electrons    NEL             ....  600
 Basis Dimension        Dim             .... 1180

ORBITAL ENERGIES
----------------

  NO   OCC          E(Eh)            E(eV)
   0   2.0000    -482.877405    -13139.7622
   1   2.0000    -482.875032    -13139.6976
   2   2.0000    -482.875002    -13139.6968
   3   2.0000    -482.874429    -13139.6812
   4   2.0000     -89.040296     -2422.9096
   5   2.0000     -62.555025     -1702.2088
   6   2.0000     -62.552654     -1702.1442
   7   2.0000     -62.552580     -1702.1422
   8   2.0000     -62.552036     -1702.1274
   9   2.0000     -56.388972     -1534.4219
  10   2.0000     -56.386617     -1534.3578
  11   2.0000     -56.386527     -1534.3554
  12   2.0000     -56.386328     -1534.3500
  13   2.0000     -56.386227     -1534.3472
  14   2.0000     -56.385990     -1534.3408
  15   2.0000     -56.383946     -1534.2852
  16   2.0000     -56.383876     -1534.2833
  17   2.0000     -56.383850     -1534.2826
  18   2.0000     -56.383795     -1534.2811
  19   2.0000     -56.383336     -1534.2686
  20   2.0000     -56.383238     -1534.2659
  21   2.0000     -24.811919      -675.1666
  22   2.0000     -24.811213      -675.1474
  23   2.0000     -19.264300      -524.2083
  24   2.0000     -19.252139      -523.8773
  25   2.0000     -19.250067      -523.8210
  26   2.0000     -19.248601      -523.7811
  27   2.0000     -19.219412      -522.9868
  28   2.0000     -19.219398      -522.9864
  29   2.0000     -14.449037      -393.1783
  30   2.0000     -14.447659      -393.1408
  31   2.0000     -14.446283      -393.1033
  32   2.0000     -14.445490      -393.0818
  33   2.0000     -14.419626      -392.3780
  34   2.0000     -14.418431      -392.3455
  35   2.0000     -14.417936      -392.3320
  36   2.0000     -14.413153      -392.2018
  37   2.0000     -10.427684      -283.7517
  38   2.0000     -10.425748      -283.6990
  39   2.0000     -10.370022      -282.1826
  40   2.0000     -10.369477      -282.1678
  41   2.0000     -10.353746      -281.7398
  42   2.0000     -10.353055      -281.7210
  43   2.0000     -10.352003      -281.6923
  44   2.0000     -10.350638      -281.6552
  45   2.0000     -10.347913      -281.5810
  46   2.0000     -10.346454      -281.5413
  47   2.0000     -10.345547      -281.5166
  48   2.0000     -10.343065      -281.4491
  49   2.0000     -10.342635      -281.4374
  50   2.0000     -10.342448      -281.4323
  51   2.0000     -10.340330      -281.3747
  52   2.0000     -10.340237      -281.3721
  53   2.0000     -10.337894      -281.3084
  54   2.0000     -10.337825      -281.3065
  55   2.0000     -10.335688      -281.2484
  56   2.0000     -10.334259      -281.2095
  57   2.0000     -10.333710      -281.1945
  58   2.0000     -10.328165      -281.0436
  59   2.0000     -10.326581      -281.0005
  60   2.0000     -10.326544      -280.9995
  61   2.0000     -10.321980      -280.8754
  62   2.0000     -10.320845      -280.8445
  63   2.0000     -10.320105      -280.8243
  64   2.0000     -10.317945      -280.7655
  65   2.0000     -10.316729      -280.7325
  66   2.0000     -10.315048      -280.6867
  67   2.0000     -10.313598      -280.6473
  68   2.0000     -10.313536      -280.6456
  69   2.0000     -10.310967      -280.5757
  70   2.0000     -10.310840      -280.5722
  71   2.0000     -10.310414      -280.5606
  72   2.0000     -10.309765      -280.5430
  73   2.0000     -10.309636      -280.5395
  74   2.0000     -10.308610      -280.5116
  75   2.0000     -10.302074      -280.3337
  76   2.0000     -10.300432      -280.2890
  77   2.0000     -10.298944      -280.2485
  78   2.0000     -10.298787      -280.2442
  79   2.0000     -10.297261      -280.2027
  80   2.0000     -10.295851      -280.1643
  81   2.0000     -10.295608      -280.1577
  82   2.0000     -10.291405      -280.0434
  83   2.0000     -10.283883      -279.8387
  84   2.0000     -10.283273      -279.8221
  85   2.0000     -10.282514      -279.8014
  86   2.0000     -10.278497      -279.6921
  87   2.0000      -8.784342      -239.0341
  88   2.0000      -8.781973      -238.9696
  89   2.0000      -8.781870      -238.9668
  90   2.0000      -8.781342      -238.9525
  91   2.0000      -8.131827      -221.2783
  92   2.0000      -6.620452      -180.1517
  93   2.0000      -6.618135      -180.0886
  94   2.0000      -6.617972      -180.0842
  95   2.0000      -6.617463      -180.0703
  96   2.0000      -6.606483      -179.7716
  97   2.0000      -6.605686      -179.7498
  98   2.0000      -6.604069      -179.7058
  99   2.0000      -6.603970      -179.7032
 100   2.0000      -6.603467      -179.6895
 101   2.0000      -6.603306      -179.6851
 102   2.0000      -6.603266      -179.6840
 103   2.0000      -6.602692      -179.6684
 104   2.0000      -6.102727      -166.0637
 105   2.0000      -6.094988      -165.8531
 106   2.0000      -6.094918      -165.8511
 107   2.0000      -2.736348       -74.4598
 108   2.0000      -2.734026       -74.3966
 109   2.0000      -2.733887       -74.3929
 110   2.0000      -2.733387       -74.3793
 111   2.0000      -2.732602       -74.3579
 112   2.0000      -2.732016       -74.3419
 113   2.0000      -2.730253       -74.2940
 114   2.0000      -2.730124       -74.2905
 115   2.0000      -2.729666       -74.2780
 116   2.0000      -2.729609       -74.2764
 117   2.0000      -2.729531       -74.2743
 118   2.0000      -2.728995       -74.2597
 119   2.0000      -2.720894       -74.0393
 120   2.0000      -2.720876       -74.0388
 121   2.0000      -2.718471       -73.9734
 122   2.0000      -2.718456       -73.9729
 123   2.0000      -2.718418       -73.9719
 124   2.0000      -2.718406       -73.9716
 125   2.0000      -2.717867       -73.9569
 126   2.0000      -2.717851       -73.9565
 127   2.0000      -1.339676       -36.4545
 128   2.0000      -1.325512       -36.0690
 129   2.0000      -1.168895       -31.8073
 130   2.0000      -1.160641       -31.5826
 131   2.0000      -1.157623       -31.5005
 132   2.0000      -1.155497       -31.4427
 133   2.0000      -1.135840       -30.9078
 134   2.0000      -1.134774       -30.8788
 135   2.0000      -1.133381       -30.8409
 136   2.0000      -1.107960       -30.1491
 137   2.0000      -1.033793       -28.1309
 138   2.0000      -1.024640       -27.8819
 139   2.0000      -1.021317       -27.7914
 140   2.0000      -1.009139       -27.4601
 141   2.0000      -1.006033       -27.3756
 142   2.0000      -0.997517       -27.1438
 143   2.0000      -0.994448       -27.0603
 144   2.0000      -0.990319       -26.9479
 145   2.0000      -0.980034       -26.6681
 146   2.0000      -0.977025       -26.5862
 147   2.0000      -0.973804       -26.4985
 148   2.0000      -0.963476       -26.2175
 149   2.0000      -0.955143       -25.9908
 150   2.0000      -0.921524       -25.0759
 151   2.0000      -0.918790       -25.0016
 152   2.0000      -0.915781       -24.9197
 153   2.0000      -0.912393       -24.8275
 154   2.0000      -0.909697       -24.7541
 155   2.0000      -0.904042       -24.6002
 156   2.0000      -0.887548       -24.1514
 157   2.0000      -0.878858       -23.9150
 158   2.0000      -0.876680       -23.8557
 159   2.0000      -0.858775       -23.3685
 160   2.0000      -0.855109       -23.2687
 161   2.0000      -0.852736       -23.2041
 162   2.0000      -0.851105       -23.1598
 163   2.0000      -0.850682       -23.1482
 164   2.0000      -0.837300       -22.7841
 165   2.0000      -0.823170       -22.3996
 166   2.0000      -0.817306       -22.2400
 167   2.0000      -0.812534       -22.1102
 168   2.0000      -0.806920       -21.9574
 169   2.0000      -0.783442       -21.3185
 170   2.0000      -0.781037       -21.2531
 171   2.0000      -0.772353       -21.0168
 172   2.0000      -0.767058       -20.8727
 173   2.0000      -0.765292       -20.8246
 174   2.0000      -0.763804       -20.7842
 175   2.0000      -0.750973       -20.4350
 176   2.0000      -0.744989       -20.2722
 177   2.0000      -0.732170       -19.9234
 178   2.0000      -0.720672       -19.6105
 179   2.0000      -0.707385       -19.2489
 180   2.0000      -0.702279       -19.1100
 181   2.0000      -0.695773       -18.9330
 182   2.0000      -0.692812       -18.8524
 183   2.0000      -0.688443       -18.7335
 184   2.0000      -0.683776       -18.6065
 185   2.0000      -0.676546       -18.4098
 186   2.0000      -0.675590       -18.3837
 187   2.0000      -0.670259       -18.2387
 188   2.0000      -0.664682       -18.0869
 189   2.0000      -0.660327       -17.9684
 190   2.0000      -0.653274       -17.7765
 191   2.0000      -0.641882       -17.4665
 192   2.0000      -0.636471       -17.3192
 193   2.0000      -0.629187       -17.1210
 194   2.0000      -0.620748       -16.8914
 195   2.0000      -0.619066       -16.8456
 196   2.0000      -0.615564       -16.7503
 197   2.0000      -0.615139       -16.7388
 198   2.0000      -0.611946       -16.6519
 199   2.0000      -0.608459       -16.5570
 200   2.0000      -0.605542       -16.4776
 201   2.0000      -0.602712       -16.4006
 202   2.0000      -0.595471       -16.2036
 203   2.0000      -0.589995       -16.0546
 204   2.0000      -0.579710       -15.7747
 205   2.0000      -0.578762       -15.7489
 206   2.0000      -0.573146       -15.5961
 207   2.0000      -0.570665       -15.5286
 208   2.0000      -0.568430       -15.4678
 209   2.0000      -0.567449       -15.4411
 210   2.0000      -0.561318       -15.2742
 211   2.0000      -0.560860       -15.2618
 212   2.0000      -0.558856       -15.2073
 213   2.0000      -0.556165       -15.1340
 214   2.0000      -0.550241       -14.9728
 215   2.0000      -0.548889       -14.9360
 216   2.0000      -0.546170       -14.8620
 217   2.0000      -0.545232       -14.8365
 218   2.0000      -0.544446       -14.8151
 219   2.0000      -0.539671       -14.6852
 220   2.0000      -0.538248       -14.6465
 221   2.0000      -0.536340       -14.5946
 222   2.0000      -0.535323       -14.5669
 223   2.0000      -0.533441       -14.5157
 224   2.0000      -0.532998       -14.5036
 225   2.0000      -0.523811       -14.2536
 226   2.0000      -0.523334       -14.2406
 227   2.0000      -0.515238       -14.0203
 228   2.0000      -0.514296       -13.9947
 229   2.0000      -0.511422       -13.9165
 230   2.0000      -0.510563       -13.8931
 231   2.0000      -0.509961       -13.8768
 232   2.0000      -0.503952       -13.7132
 233   2.0000      -0.502354       -13.6697
 234   2.0000      -0.501393       -13.6436
 235   2.0000      -0.497859       -13.5474
 236   2.0000      -0.494143       -13.4463
 237   2.0000      -0.493779       -13.4364
 238   2.0000      -0.491444       -13.3729
 239   2.0000      -0.489766       -13.3272
 240   2.0000      -0.487926       -13.2772
 241   2.0000      -0.487710       -13.2713
 242   2.0000      -0.480180       -13.0664
 243   2.0000      -0.476441       -12.9646
 244   2.0000      -0.475050       -12.9268
 245   2.0000      -0.464865       -12.6496
 246   2.0000      -0.464079       -12.6282
 247   2.0000      -0.462146       -12.5756
 248   2.0000      -0.460931       -12.5426
 249   2.0000      -0.458814       -12.4850
 250   2.0000      -0.455542       -12.3959
 251   2.0000      -0.451733       -12.2923
 252   2.0000      -0.450345       -12.2545
 253   2.0000      -0.446820       -12.1586
 254   2.0000      -0.446327       -12.1452
 255   2.0000      -0.442169       -12.0320
 256   2.0000      -0.441698       -12.0192
 257   2.0000      -0.438722       -11.9382
 258   2.0000      -0.433586       -11.7985
 259   2.0000      -0.431193       -11.7334
 260   2.0000      -0.429118       -11.6769
 261   2.0000      -0.427374       -11.6294
 262   2.0000      -0.426872       -11.6158
 263   2.0000      -0.423645       -11.5280
 264   2.0000      -0.422289       -11.4911
 265   2.0000      -0.420092       -11.4313
 266   2.0000      -0.419594       -11.4177
 267   2.0000      -0.417725       -11.3669
 268   2.0000      -0.412976       -11.2376
 269   2.0000      -0.412821       -11.2334
 270   2.0000      -0.411840       -11.2067
 271   2.0000      -0.408966       -11.1285
 272   2.0000      -0.404033       -10.9943
 273   2.0000      -0.401047       -10.9130
 274   2.0000      -0.399362       -10.8672
 275   2.0000      -0.398588       -10.8461
 276   2.0000      -0.395186       -10.7535
 277   2.0000      -0.394129       -10.7248
 278   2.0000      -0.390116       -10.6156
 279   2.0000      -0.388742       -10.5782
 280   2.0000      -0.378271       -10.2933
 281   2.0000      -0.375504       -10.2180
 282   2.0000      -0.368154       -10.0180
 283   2.0000      -0.363733        -9.8977
 284   2.0000      -0.358808        -9.7637
 285   2.0000      -0.354206        -9.6384
 286   2.0000      -0.348475        -9.4825
 287   2.0000      -0.346905        -9.4398
 288   2.0000      -0.341158        -9.2834
 289   2.0000      -0.339798        -9.2464
 290   2.0000      -0.336142        -9.1469
 291   2.0000      -0.335640        -9.1332
 292   2.0000      -0.333923        -9.0865
 293   2.0000      -0.318975        -8.6798
 294   2.0000      -0.314512        -8.5583
 295   2.0000      -0.308521        -8.3953
 296   2.0000      -0.303300        -8.2532
 297   2.0000      -0.290139        -7.8951
 298   2.0000      -0.274698        -7.4749
 299   2.0000      -0.262145        -7.1333
 300   0.0000      -0.104187        -2.8351
 301   0.0000      -0.086944        -2.3659
 302   0.0000      -0.080399        -2.1878
 303   0.0000      -0.063475        -1.7272
 304   0.0000      -0.061478        -1.6729

MULLIKEN ATOMIC CHARGES
-----------------------
   0 C :    0.148473
   1 O :   -0.136697
   2 C :   -0.015623
   3 C :    0.037276
   4 C :   -0.014359
   5 C :   -0.022239
   6 C :   -0.013230
   7 C :   -0.027041
   8 Br:    0.011787
   9 Br:    0.019820
  10 C :    0.297329
  11 C :   -0.340154
  12 C :   -0.188878
  13 N :    0.157225
  14 C :   -0.193608
  15 N :    0.160900
  16 C :   -0.054769
  17 C :   -0.038713
  18 C :    0.062505
  19 C :    0.255831
  20 O :   -0.305453
  21 C :    0.177642
  22 C :   -0.113854
  23 C :   -0.023685
  24 C :    0.256970
  25 C :   -0.162290
  26 O :   -0.310132
  27 C :    0.176460
  28 C :    0.085731
  29 C :   -0.058778
  30 C :   -0.051288
  31 N :    0.018544
  32 C :    0.130784
  33 C :    0.119357
  34 N :    0.037488
  35 F :   -0.144338
  36 F :   -0.139918
  37 C :    0.078416
  38 C :    0.003376
  39 C :    0.000464
  40 N :   -0.285422
  41 S :    0.528838
  42 N :   -0.259960
  43 C :   -0.029437
  44 C :    0.273942
  45 O :   -0.303673
  46 C :    0.179404
  47 C :   -0.173503
  48 C :    0.086090
  49 C :    0.213226
  50 C :   -0.086380
  51 O :   -0.314088
  52 C :    0.173449
  53 C :   -0.003746
  54 C :   -0.106827
  55 C :    0.133864
  56 O :   -0.138670
  57 C :    0.003052
  58 C :    0.025776
  59 C :    0.306035
  60 C :   -0.326795
  61 C :   -0.209760
  62 N :    0.180481
  63 C :   -0.193629
  64 N :    0.156089
  65 C :   -0.019086
  66 C :   -0.022010
  67 C :   -0.016948
  68 C :   -0.022635
  69 Br:    0.009374
  70 Br:    0.016321
  71 H :    0.007199
  72 H :    0.002754
  73 H :    0.030874
  74 H :    0.035905
  75 H :    0.030498
  76 H :    0.029737
  77 H :   -0.030062
  78 H :   -0.030832
  79 H :    0.037107
  80 H :    0.028510
  81 H :    0.027241
  82 H :    0.035673
  83 H :    0.024461
  84 H :    0.030164
  85 H :   -0.032735
  86 H :   -0.035149
  87 H :    0.042203
  88 H :    0.031481
  89 H :    0.044613
  90 H :    0.022848
  91 H :    0.006736
  92 H :    0.006072
Sum of atomic charges:    0.0000000

LOEWDIN ATOMIC CHARGES
----------------------
   0 C :    0.083204
   1 O :   -0.128606
   2 C :   -0.039334
   3 C :   -0.013259
   4 C :   -0.007083
   5 C :   -0.120094
   6 C :   -0.122763
   7 C :    0.003422
   8 Br:    0.135564
   9 Br:    0.139439
  10 C :    0.075386
  11 C :   -0.133075
  12 C :   -0.019584
  13 N :   -0.046159
  14 C :   -0.021911
  15 N :   -0.046545
  16 C :   -0.089520
  17 C :    0.090045
  18 C :   -0.050459
  19 C :    0.069632
  20 O :   -0.084424
  21 C :    0.078733
  22 C :   -0.037819
  23 C :   -0.010250
  24 C :    0.050622
  25 C :   -0.042098
  26 O :   -0.097550
  27 C :    0.077471
  28 C :   -0.009531
  29 C :   -0.003639
  30 C :   -0.005358
  31 N :   -0.036397
  32 C :    0.055836
  33 C :    0.051898
  34 N :   -0.025382
  35 F :   -0.033613
  36 F :   -0.029770
  37 C :   -0.011029
  38 C :   -0.042484
  39 C :   -0.042074
  40 N :   -0.296990
  41 S :    0.671828
  42 N :   -0.278289
  43 C :   -0.008681
  44 C :    0.058419
  45 O :   -0.092612
  46 C :    0.078518
  47 C :   -0.041632
  48 C :   -0.048867
  49 C :    0.058963
  50 C :   -0.031787
  51 O :   -0.080126
  52 C :    0.079364
  53 C :    0.076516
  54 C :   -0.089583
  55 C :    0.086154
  56 O :   -0.136830
  57 C :   -0.045770
  58 C :   -0.005853
  59 C :    0.066818
  60 C :   -0.128458
  61 C :   -0.019931
  62 N :   -0.041366
  63 C :   -0.021817
  64 N :   -0.051051
  65 C :   -0.013866
  66 C :   -0.118140
  67 C :   -0.126668
  68 C :    0.006976
  69 Br:    0.133293
  70 Br:    0.137893
  71 H :    0.044465
  72 H :    0.044714
  73 H :    0.045278
  74 H :    0.028960
  75 H :    0.018895
  76 H :    0.018225
  77 H :    0.030707
  78 H :    0.032045
  79 H :    0.029450
  80 H :    0.017591
  81 H :    0.016573
  82 H :    0.029120
  83 H :    0.015944
  84 H :    0.018491
  85 H :    0.031826
  86 H :    0.029957
  87 H :    0.030988
  88 H :    0.019262
  89 H :    0.024126
  90 H :    0.046442
  91 H :    0.043153
  92 H :    0.045922

  Mayer bond orders larger than 0.100000
B(  0-C ,  1-O ) :   2.2313 B(  0-C ,  2-C ) :   0.9425 B(  0-C , 16-C ) :   0.9393
B(  2-C ,  3-C ) :   1.3285 B(  2-C ,  7-C ) :   1.3694 B(  3-C ,  4-C ) :   1.3595
B(  3-C , 10-C ) :   0.9927 B(  4-C ,  5-C ) :   1.3716 B(  4-C , 71-H ) :   0.9807
B(  5-C ,  6-C ) :   1.4203 B(  5-C ,  9-Br) :   1.0569 B(  6-C ,  7-C ) :   1.3506
B(  6-C ,  8-Br) :   1.0326 B(  7-C , 72-H ) :   1.0095 B( 10-C , 11-C ) :   1.6524
B( 10-C , 16-C ) :   1.0679 B( 11-C , 12-C ) :   1.1382 B( 11-C , 14-C ) :   1.1410
B( 12-C , 13-N ) :   2.9721 B( 14-C , 15-N ) :   2.9820 B( 16-C , 17-C ) :   1.6398
B( 17-C , 18-C ) :   1.0869 B( 17-C , 73-H ) :   0.9442 B( 18-C , 19-C ) :   1.3360
B( 18-C , 25-C ) :   1.2765 B( 19-C , 20-O ) :   1.1730 B( 19-C , 22-C ) :   1.2727
B( 20-O , 21-C ) :   0.9542 B( 21-C , 74-H ) :   0.9780 B( 21-C , 75-H ) :   0.9688
B( 21-C , 76-H ) :   0.9686 B( 22-C , 23-C ) :   1.3862 B( 22-C , 77-H ) :   0.9925
B( 23-C , 24-C ) :   1.3517 B( 23-C , 28-C ) :   0.9451 B( 24-C , 25-C ) :   1.3045
B( 24-C , 26-O ) :   1.1634 B( 25-C , 78-H ) :   1.0022 B( 26-O , 27-C ) :   0.9610
B( 27-C , 79-H ) :   0.9784 B( 27-C , 80-H ) :   0.9678 B( 27-C , 81-H ) :   0.9682
B( 28-C , 29-C ) :   1.3890 B( 28-C , 37-C ) :   0.1448 B( 28-C , 39-C ) :   1.2680
B( 29-C , 30-C ) :   1.0949 B( 29-C , 34-N ) :   1.3934 B( 30-C , 31-N ) :   1.3879
B( 30-C , 37-C ) :   1.4000 B( 31-N , 32-C ) :   1.7161 B( 32-C , 33-C ) :   1.0725
B( 32-C , 36-F ) :   1.1751 B( 33-C , 34-N ) :   1.7258 B( 33-C , 35-F ) :   1.1706
B( 37-C , 38-C ) :   1.2534 B( 37-C , 43-C ) :   0.9448 B( 38-C , 39-C ) :   1.1017
B( 38-C , 42-N ) :   1.4966 B( 39-C , 40-N ) :   1.4847 B( 40-N , 41-S ) :   1.2879
B( 40-N , 42-N ) :   0.1626 B( 41-S , 42-N ) :   1.3074 B( 43-C , 44-C ) :   1.3469
B( 43-C , 50-C ) :   1.3938 B( 44-C , 45-O ) :   1.1733 B( 44-C , 47-C ) :   1.2941
B( 45-O , 46-C ) :   0.9604 B( 46-C , 82-H ) :   0.9785 B( 46-C , 83-H ) :   0.9678
B( 46-C , 84-H ) :   0.9686 B( 47-C , 48-C ) :   1.2674 B( 47-C , 85-H ) :   1.0046
B( 48-C , 49-C ) :   1.3214 B( 48-C , 53-C ) :   1.0908 B( 49-C , 50-C ) :   1.2829
B( 49-C , 51-O ) :   1.1597 B( 50-C , 86-H ) :   0.9887 B( 51-O , 52-C ) :   0.9399
B( 52-C , 87-H ) :   0.9757 B( 52-C , 88-H ) :   0.9702 B( 52-C , 89-H ) :   0.9690
B( 53-C , 54-C ) :   1.6599 B( 53-C , 90-H ) :   0.9370 B( 54-C , 55-C ) :   0.9416
B( 54-C , 59-C ) :   1.0422 B( 55-C , 56-O ) :   2.2618 B( 55-C , 57-C ) :   0.9232
B( 57-C , 58-C ) :   1.3260 B( 57-C , 68-C ) :   1.3730 B( 58-C , 59-C ) :   1.0062
B( 58-C , 65-C ) :   1.3691 B( 59-C , 60-C ) :   1.6555 B( 60-C , 61-C ) :   1.1644
B( 60-C , 63-C ) :   1.1379 B( 61-C , 62-N ) :   3.0099 B( 63-C , 64-N ) :   2.9817
B( 65-C , 66-C ) :   1.3663 B( 65-C , 91-H ) :   0.9833 B( 66-C , 67-C ) :   1.4258
B( 66-C , 70-Br) :   1.0498 B( 67-C , 68-C ) :   1.3551 B( 67-C , 69-Br) :   1.0292
B( 68-C , 92-H ) :   1.0081

-----------------------------------------------------------------------------
         ABSORPTION SPECTRUM VIA TRANSITION ELECTRIC DIPOLE MOMENTS
-----------------------------------------------------------------------------
State   Energy  Wavelength   fosc         T2         TX        TY        TZ
        (cm-1)    (nm)                  (au**2)     (au)      (au)      (au)
-----------------------------------------------------------------------------
   0   16652.4    600.5   0.521717899  10.31415   2.55492   1.62307  -1.07339
   1   19148.5    522.2   0.038993323   0.67040  -0.53188  -0.28257   0.55466
   2   21211.9    471.4   0.252805754   3.92358  -1.43520  -1.25211   0.54405
   3   22881.8    437.0   0.301087735   4.33191   1.55847   0.47773  -1.29416
   4   23242.8    430.2   0.217227615   3.07682  -1.36334  -0.64412   0.89624
   5   24710.4    404.7   0.023564989   0.31395  -0.07418  -0.55369   0.04331
   6   27355.2    365.6   0.049594559   0.59686  -0.32764  -0.68939   0.11936
   7   27741.6    360.5   0.124126654   1.47302  -0.84656  -0.42663   0.75786
   8   27998.5    357.2   0.012288391   0.14449   0.00365  -0.13633  -0.35481
   9   28275.0    353.7   0.028019216   0.32623   0.38783   0.41659   0.04769
  10   29404.0    340.1   0.007214295   0.08077  -0.02354   0.27537   0.06625
  11   30023.2    333.1   0.021022508   0.23052  -0.05237   0.33713  -0.33781
  12   30553.3    327.3   0.143720552   1.54859  -1.01150   0.70191  -0.18106
  13   31049.6    322.1   0.065230122   0.69162  -0.17262  -0.67746   0.45041
  14   31346.7    319.0   0.096858250   1.01723   0.59344   0.40270   0.70915
  15   31477.5    317.7   0.028170656   0.29463  -0.50826   0.10006   0.16215
  16   31641.0    316.0   0.051167832   0.53238   0.60146   0.31997   0.26124
  17   31982.7    312.7   0.265822158   2.73622   0.02183   0.93391   1.36512
  18   32230.4    310.3   0.070200558   0.71705  -0.70698  -0.07896   0.45935
  19   32599.4    306.8   0.078912976   0.79692  -0.12288   0.58275   0.66500
  20   32989.9    303.1   0.048980954   0.48879  -0.00688   0.64851  -0.26112
  21   33092.4    302.2   0.084092198   0.83657  -0.15282  -0.29448   0.85235
  22   33266.3    300.6   0.187614846   1.85669  -1.29579  -0.29428  -0.30166
  23   33524.1    298.3   0.051783117   0.50852   0.70002   0.02843  -0.13295
  24   33788.8    296.0   0.219273696   2.13643  -1.44411  -0.21790  -0.05925
  25   34079.5    293.4   0.033583981   0.32442  -0.35478   0.44487  -0.02543
  26   34564.0    289.3   0.064262607   0.61208  -0.20367  -0.05378   0.75347
  27   34990.3    285.8   0.297353622   2.79770   0.61538  -1.48912   0.44891
  28   35143.2    284.6   0.056790594   0.53200  -0.68973   0.11573   0.20708
  29   35524.9    281.5   0.735210800   6.81326   2.59959  -0.12404   0.20002
  30   35631.6    280.6   0.097803267   0.90364  -0.24028  -0.89901  -0.19411
  31   35929.8    278.3   0.063728983   0.58393   0.17798  -0.70361   0.23912
  32   36173.2    276.4   0.048440767   0.44086  -0.65622  -0.10078   0.00880
  33   37051.6    269.9   0.007265245   0.06455  -0.24829  -0.04144   0.03449
  34   37382.3    267.5   0.078665388   0.69278   0.25247   0.70016  -0.37258
  35   37506.9    266.6   0.152312376   1.33690  -0.47802   0.73583   0.75296
  36   38346.4    260.8   0.059014919   0.50666  -0.48507  -0.39407   0.34069
  37   38570.9    259.3   0.015016465   0.12817   0.10554  -0.14949  -0.30770
  38   38752.9    258.0   0.027817073   0.23631   0.45115   0.10168  -0.14978
  39   38958.2    256.7   0.049144934   0.41529  -0.57799   0.28487   0.00802
  40   39117.1    255.6   0.236158285   1.98752   1.12280   0.60867  -0.59696
  41   39248.9    254.8   0.007675501   0.06438  -0.21965   0.11307   0.05787
  42   39391.8    253.9   0.089094548   0.74460   0.62303   0.38314  -0.45786
  43   39489.4    253.2   0.057180785   0.47670   0.31641  -0.59617  -0.14549
  44   39738.4    251.6   0.010939723   0.09063  -0.09141  -0.26786  -0.10259
  45   40188.6    248.8   0.012231958   0.10020   0.29069   0.00344  -0.12525
  46   40324.5    248.0   0.044882102   0.36642  -0.49681   0.11870   0.32482

FINAL SINGLE POINT ENERGY    -13697.698393669616

DIPOLE MOMENT
-------------
                                X             Y             Z
Electronic contribution:    -99.60780     128.90587      17.26033
Nuclear contribution   :     97.81697    -129.46881     -18.78502
                        -----------------------------------------
Total Dipole Moment    :     -1.79083      -0.56294      -1.52468
                        -----------------------------------------
Magnitude (a.u.)       :      2.41840
Magnitude (Debye)      :      6.14707

Rotational constants in cm-1:     0.001443     0.000184     0.000175
Rotational constants in MHz :    43.262350     5.521202     5.232568

                             ****ORCA TERMINATED NORMALLY****
TOTAL RUN TIME: 0 days 0 hours 12 minutes 44 seconds 776 msec
