                         Program Version 4.2.0 -  RELEASE  -
|  1> # ORCA input file
|  2> # SCF done       -184.750353113890          0.000686064735
|  3> ! CAM-B3LYP def2-SVP def2/J RIJCOSX Grid4 TightSCF
|  4> %maxcore 5000
|  5> %tddft
|  6>     Mode sTDDFT
|  7>     Ethresh 5.0
|  8>     maxcore 5000
|  9> end
| 10>
| 11> %pal
| 12>   nprocs 6
| 13>   end
| 14> * xyz 0 1
| 15>    C      -13.02822         5.29203         0.03923
| 16>    C      -13.68193         4.51175         0.95867
| 17>    C      -14.57046         5.00826         1.93318
| 18>    N      -15.30348         5.35533         2.74580
| 19>    C      -13.54875         3.11093         1.03217
| 20>    N      -13.46332         1.96951         1.12405
| 21>    C      -13.13306         6.74361        -0.08599
| 22>    C      -12.33286         7.17260        -1.17887
| 23>    C      -12.18917         8.49532        -1.52432
| 24>    C      -12.87799         9.44119        -0.75889
| 25>    C      -13.68955         9.00672         0.31645
| 26>    C      -13.82726         7.66829         0.66966
| 27>    S      -14.44875        10.34552         1.11968
| 28>    C      -13.67016        11.45469         0.01868
| 29>    C      -12.88339        10.85478        -0.90547
| 30>   Br      -13.97606        13.29476         0.20086
| 31>    C      -11.71093         5.99987        -1.79205
| 32>    O      -10.98357         5.96635        -2.78088
| 33>    C      -12.11380         4.84271        -0.98529
| 34>    C      -11.58445         3.59566        -1.21143
| 35>    N      -10.69380         3.41506        -2.19809
| 36>    C      -10.04147         2.27300        -2.51796
| 37>    S      -10.55523         0.74773        -1.85670
| 38>    C       -9.33910        -0.05088        -2.80165
| 39>    N       -9.22936        -1.43693        -2.70287
| 40>    O       -8.37703        -1.98877        -3.38408
| 41>    O       -9.99199        -2.01120        -1.94665
| 42>    C       -8.59208         0.80680        -3.56397
| 43>    C       -8.96014         2.15945        -3.41013
| 44>    C       -8.24489         3.19060        -4.10313
| 45>    C       -8.27598         4.53189        -3.91533
| 46>    C       -7.52412         5.45034        -4.68304
| 47>    S       -6.37872         4.96366        -5.90440
| 48>    C       -5.99372         6.61805        -6.30835
| 49>    C       -6.75166         7.49191        -5.51797
| 50>    C       -7.58786         6.84032        -4.61044
| 51>    S       -8.68116         7.60667        -3.46793
| 52>    C       -8.79085         9.31842        -3.85716
| 53>    O       -9.65428         9.94424        -3.29304
| 54>    C       -7.83194        10.03957        -4.77229
| 55>    O       -7.88360        11.23862        -4.85661
| 56>    S       -6.57474         9.22818        -5.70868
| 57>    C       -5.04384         6.94160        -7.28305
| 58>    C       -4.31544         5.98673        -7.95124
| 59>    C       -3.34014         6.22004        -8.91226
| 60>    C       -2.61826         5.19546        -9.50340
| 61>    C       -1.60080         5.28896       -10.47198
| 62>    C       -1.06302         4.08381       -10.84195
| 63>    C       -1.63269         2.98369       -10.18183
| 64>    S       -2.88005         3.51809        -9.07799
| 65>    C       -1.33287         1.63155       -10.29253
| 66>    C       -0.37002         0.99243       -11.09620
| 67>    C       -0.34174        -0.36493       -10.94175
| 68>    C       -1.27849        -0.87241       -10.01182
| 69>    S       -2.20220         0.46027        -9.33955
| 70>    C       -1.45215        -2.19492        -9.67335
| 71>    C       -2.36999        -2.74351        -8.76038
| 72>    C       -3.33581        -2.10199        -7.97055
| 73>    C       -4.02213        -3.07536        -7.21658
| 74>    C       -5.05161        -2.95952        -6.30238
| 75>    C       -5.53102        -4.13274        -5.71373
| 76>    C       -6.53904        -4.34279        -4.77896
| 77>    C       -6.63342        -5.74323        -4.51009
| 78>    C       -5.68332        -6.39629        -5.27813
| 79>    C       -4.96557        -5.43022        -6.05073
| 80>    C       -3.94508        -5.55273        -6.95345
| 81>    C       -3.45495        -4.37016        -7.55492
| 82>    C       -2.46030        -4.15423        -8.48576
| 83>    C       -7.55619        -6.37685        -3.59904
| 84>    C       -8.46391        -5.73588        -2.86680
| 85>    H      -11.55602         8.80324        -2.34181
| 86>    H      -14.44713         7.38835         1.50510
| 87>    H      -12.32069        11.37667        -1.65799
| 88>    H      -11.82820         2.73856        -0.59708
| 89>    H      -10.52417         4.26571        -2.76270
| 90>    H       -7.79420         0.46885        -4.20039
| 91>    H       -7.56763         2.81775        -4.86185
| 92>    H       -8.87377         5.00042        -3.14948
| 93>    H       -4.88459         7.99169        -7.48546
| 94>    H       -4.50949         4.95034        -7.69542
| 95>    H       -3.11712         7.23455        -9.21223
| 96>    H       -1.28830         6.23823       -10.87002
| 97>    H       -0.27657         3.97056       -11.56676
| 98>    H        0.27362         1.54030       -11.76073
| 99>    H        0.32886        -1.01870       -11.47175
|100>    H       -0.79854        -2.89805       -10.17600
|101>    H       -3.53943        -1.04994        -7.92931
|102>    H       -5.47737        -2.00015        -6.04705
|103>    H       -7.14506        -3.57674        -4.33247
|104>    H       -5.50543        -7.45632        -5.29818
|105>    H       -3.51887        -6.51291        -7.20870
|106>    H       -1.84069        -4.90356        -8.94545
|107>    H       -7.47324        -7.45527        -3.53732
|108>    H       -8.57945        -4.66713        -2.90353
|109>    H       -9.12931        -6.26506        -2.20684
|110> *
|111>
|112>                          ****END OF INPUT****

CARTESIAN COORDINATES (ANGSTROEM)
---------------------------------
  C    -13.028220    5.292030    0.039230
  C    -13.681930    4.511750    0.958670
  C    -14.570460    5.008260    1.933180
  N    -15.303480    5.355330    2.745800
  C    -13.548750    3.110930    1.032170
  N    -13.463320    1.969510    1.124050
  C    -13.133060    6.743610   -0.085990
  C    -12.332860    7.172600   -1.178870
  C    -12.189170    8.495320   -1.524320
  C    -12.877990    9.441190   -0.758890
  C    -13.689550    9.006720    0.316450
  C    -13.827260    7.668290    0.669660
  S    -14.448750   10.345520    1.119680
  C    -13.670160   11.454690    0.018680
  C    -12.883390   10.854780   -0.905470
  Br   -13.976060   13.294760    0.200860
  C    -11.710930    5.999870   -1.792050
  O    -10.983570    5.966350   -2.780880
  C    -12.113800    4.842710   -0.985290
  C    -11.584450    3.595660   -1.211430
  N    -10.693800    3.415060   -2.198090
  C    -10.041470    2.273000   -2.517960
  S    -10.555230    0.747730   -1.856700
  C     -9.339100   -0.050880   -2.801650
  N     -9.229360   -1.436930   -2.702870
  O     -8.377030   -1.988770   -3.384080
  O     -9.991990   -2.011200   -1.946650
  C     -8.592080    0.806800   -3.563970
  C     -8.960140    2.159450   -3.410130
  C     -8.244890    3.190600   -4.103130
  C     -8.275980    4.531890   -3.915330
  C     -7.524120    5.450340   -4.683040
  S     -6.378720    4.963660   -5.904400
  C     -5.993720    6.618050   -6.308350
  C     -6.751660    7.491910   -5.517970
  C     -7.587860    6.840320   -4.610440
  S     -8.681160    7.606670   -3.467930
  C     -8.790850    9.318420   -3.857160
  O     -9.654280    9.944240   -3.293040
  C     -7.831940   10.039570   -4.772290
  O     -7.883600   11.238620   -4.856610
  S     -6.574740    9.228180   -5.708680
  C     -5.043840    6.941600   -7.283050
  C     -4.315440    5.986730   -7.951240
  C     -3.340140    6.220040   -8.912260
  C     -2.618260    5.195460   -9.503400
  C     -1.600800    5.288960  -10.471980
  C     -1.063020    4.083810  -10.841950
  C     -1.632690    2.983690  -10.181830
  S     -2.880050    3.518090   -9.077990
  C     -1.332870    1.631550  -10.292530
  C     -0.370020    0.992430  -11.096200
  C     -0.341740   -0.364930  -10.941750
  C     -1.278490   -0.872410  -10.011820
  S     -2.202200    0.460270   -9.339550
  C     -1.452150   -2.194920   -9.673350
  C     -2.369990   -2.743510   -8.760380
  C     -3.335810   -2.101990   -7.970550
  C     -4.022130   -3.075360   -7.216580
  C     -5.051610   -2.959520   -6.302380
  C     -5.531020   -4.132740   -5.713730
  C     -6.539040   -4.342790   -4.778960
  C     -6.633420   -5.743230   -4.510090
  C     -5.683320   -6.396290   -5.278130
  C     -4.965570   -5.430220   -6.050730
  C     -3.945080   -5.552730   -6.953450
  C     -3.454950   -4.370160   -7.554920
  C     -2.460300   -4.154230   -8.485760
  C     -7.556190   -6.376850   -3.599040
  C     -8.463910   -5.735880   -2.866800
  H    -11.556020    8.803240   -2.341810
  H    -14.447130    7.388350    1.505100
  H    -12.320690   11.376670   -1.657990
  H    -11.828200    2.738560   -0.597080
  H    -10.524170    4.265710   -2.762700
  H     -7.794200    0.468850   -4.200390
  H     -7.567630    2.817750   -4.861850
  H     -8.873770    5.000420   -3.149480
  H     -4.884590    7.991690   -7.485460
  H     -4.509490    4.950340   -7.695420
  H     -3.117120    7.234550   -9.212230
  H     -1.288300    6.238230  -10.870020
  H     -0.276570    3.970560  -11.566760
  H      0.273620    1.540300  -11.760730
  H      0.328860   -1.018700  -11.471750
  H     -0.798540   -2.898050  -10.176000
  H     -3.539430   -1.049940   -7.929310
  H     -5.477370   -2.000150   -6.047050
  H     -7.145060   -3.576740   -4.332470
  H     -5.505430   -7.456320   -5.298180
  H     -3.518870   -6.512910   -7.208700
  H     -1.840690   -4.903560   -8.945450
  H     -7.473240   -7.455270   -3.537320
  H     -8.579450   -4.667130   -2.903530
  H     -9.129310   -6.265060   -2.206840

 Total Charge           Charge          ....    0
 Multiplicity           Mult            ....    1
 Number of Electrons    NEL             ....  558
 Basis Dimension        Dim             .... 1151

ORBITAL ENERGIES
----------------

  NO   OCC          E(Eh)            E(eV)
   0   2.0000    -482.883443    -13139.9265
   1   2.0000     -88.997409     -2421.7426
   2   2.0000     -88.976023     -2421.1607
   3   2.0000     -88.968571     -2420.9579
   4   2.0000     -88.968011     -2420.9427
   5   2.0000     -88.966711     -2420.9073
   6   2.0000     -88.950535     -2420.4671
   7   2.0000     -88.946877     -2420.3676
   8   2.0000     -62.561171     -1702.3760
   9   2.0000     -56.395124     -1534.5893
  10   2.0000     -56.392399     -1534.5152
  11   2.0000     -56.392370     -1534.5144
  12   2.0000     -19.254495      -523.9414
  13   2.0000     -19.253142      -523.9046
  14   2.0000     -19.244235      -523.6622
  15   2.0000     -19.237120      -523.4686
  16   2.0000     -19.236644      -523.4557
  17   2.0000     -14.664403      -399.0387
  18   2.0000     -14.500830      -394.5876
  19   2.0000     -14.422799      -392.4643
  20   2.0000     -14.417723      -392.3262
  21   2.0000     -10.407659      -283.2068
  22   2.0000     -10.403433      -283.0918
  23   2.0000     -10.383002      -282.5358
  24   2.0000     -10.380617      -282.4709
  25   2.0000     -10.374531      -282.3053
  26   2.0000     -10.357557      -281.8434
  27   2.0000     -10.355839      -281.7967
  28   2.0000     -10.349639      -281.6280
  29   2.0000     -10.345631      -281.5189
  30   2.0000     -10.327816      -281.0342
  31   2.0000     -10.327262      -281.0191
  32   2.0000     -10.325168      -280.9621
  33   2.0000     -10.322755      -280.8965
  34   2.0000     -10.320660      -280.8394
  35   2.0000     -10.320601      -280.8378
  36   2.0000     -10.320533      -280.8360
  37   2.0000     -10.318470      -280.7798
  38   2.0000     -10.316916      -280.7375
  39   2.0000     -10.315723      -280.7051
  40   2.0000     -10.312700      -280.6228
  41   2.0000     -10.312407      -280.6149
  42   2.0000     -10.308536      -280.5095
  43   2.0000     -10.308286      -280.5027
  44   2.0000     -10.307037      -280.4687
  45   2.0000     -10.304858      -280.4094
  46   2.0000     -10.304795      -280.4077
  47   2.0000     -10.301633      -280.3217
  48   2.0000     -10.301595      -280.3206
  49   2.0000     -10.301390      -280.3151
  50   2.0000     -10.298797      -280.2445
  51   2.0000     -10.298036      -280.2238
  52   2.0000     -10.297247      -280.2023
  53   2.0000     -10.294150      -280.1181
  54   2.0000     -10.292692      -280.0784
  55   2.0000     -10.291653      -280.0501
  56   2.0000     -10.290338      -280.0143
  57   2.0000     -10.286884      -279.9203
  58   2.0000     -10.286375      -279.9065
  59   2.0000     -10.282824      -279.8099
  60   2.0000     -10.282358      -279.7972
  61   2.0000     -10.282081      -279.7896
  62   2.0000     -10.281456      -279.7726
  63   2.0000     -10.275417      -279.6083
  64   2.0000     -10.274431      -279.5815
  65   2.0000     -10.274404      -279.5808
  66   2.0000     -10.272048      -279.5166
  67   2.0000     -10.266559      -279.3673
  68   2.0000     -10.265325      -279.3337
  69   2.0000     -10.264508      -279.3115
  70   2.0000     -10.264347      -279.3071
  71   2.0000     -10.263817      -279.2927
  72   2.0000     -10.260745      -279.2091
  73   2.0000     -10.248478      -278.8753
  74   2.0000      -8.790615      -239.2048
  75   2.0000      -8.092547      -220.2094
  76   2.0000      -8.071935      -219.6485
  77   2.0000      -8.064931      -219.4579
  78   2.0000      -8.063142      -219.4093
  79   2.0000      -8.063100      -219.4081
  80   2.0000      -8.046410      -218.9539
  81   2.0000      -8.043276      -218.8687
  82   2.0000      -6.626943      -180.3283
  83   2.0000      -6.612358      -179.9314
  84   2.0000      -6.612108      -179.9246
  85   2.0000      -6.062198      -164.9608
  86   2.0000      -6.057798      -164.8411
  87   2.0000      -6.054057      -164.7393
  88   2.0000      -6.041596      -164.4002
  89   2.0000      -6.037340      -164.2844
  90   2.0000      -6.034758      -164.2141
  91   2.0000      -6.033209      -164.1720
  92   2.0000      -6.032922      -164.1642
  93   2.0000      -6.032466      -164.1517
  94   2.0000      -6.030084      -164.0869
  95   2.0000      -6.028694      -164.0491
  96   2.0000      -6.028370      -164.0403
  97   2.0000      -6.025848      -163.9717
  98   2.0000      -6.024851      -163.9445
  99   2.0000      -6.024060      -163.9230
 100   2.0000      -6.016066      -163.7055
 101   2.0000      -6.012919      -163.6198
 102   2.0000      -6.011996      -163.5947
 103   2.0000      -6.008966      -163.5123
 104   2.0000      -6.007576      -163.4744
 105   2.0000      -6.004294      -163.3851
 106   2.0000      -2.742813       -74.6357
 107   2.0000      -2.738697       -74.5237
 108   2.0000      -2.738571       -74.5203
 109   2.0000      -2.726943       -74.2039
 110   2.0000      -2.726939       -74.2038
 111   2.0000      -1.332945       -36.2713
 112   2.0000      -1.177444       -32.0399
 113   2.0000      -1.153168       -31.3793
 114   2.0000      -1.150793       -31.3147
 115   2.0000      -1.144344       -31.1392
 116   2.0000      -1.108892       -30.1745
 117   2.0000      -1.026878       -27.9428
 118   2.0000      -1.018350       -27.7107
 119   2.0000      -1.015798       -27.6413
 120   2.0000      -1.014004       -27.5925
 121   2.0000      -0.999191       -27.1894
 122   2.0000      -0.999189       -27.1893
 123   2.0000      -0.993827       -27.0434
 124   2.0000      -0.986410       -26.8416
 125   2.0000      -0.976527       -26.5727
 126   2.0000      -0.959558       -26.1109
 127   2.0000      -0.945118       -25.7180
 128   2.0000      -0.937846       -25.5201
 129   2.0000      -0.933959       -25.4143
 130   2.0000      -0.920983       -25.0612
 131   2.0000      -0.911920       -24.8146
 132   2.0000      -0.905891       -24.6505
 133   2.0000      -0.900716       -24.5097
 134   2.0000      -0.897300       -24.4168
 135   2.0000      -0.887351       -24.1461
 136   2.0000      -0.886933       -24.1347
 137   2.0000      -0.876990       -23.8641
 138   2.0000      -0.866454       -23.5774
 139   2.0000      -0.863548       -23.4983
 140   2.0000      -0.856498       -23.3065
 141   2.0000      -0.854055       -23.2400
 142   2.0000      -0.847787       -23.0695
 143   2.0000      -0.838282       -22.8108
 144   2.0000      -0.830917       -22.6104
 145   2.0000      -0.827719       -22.5234
 146   2.0000      -0.822935       -22.3932
 147   2.0000      -0.812244       -22.1023
 148   2.0000      -0.798734       -21.7347
 149   2.0000      -0.796938       -21.6858
 150   2.0000      -0.787685       -21.4340
 151   2.0000      -0.771050       -20.9814
 152   2.0000      -0.766383       -20.8543
 153   2.0000      -0.755467       -20.5573
 154   2.0000      -0.750733       -20.4285
 155   2.0000      -0.748691       -20.3729
 156   2.0000      -0.738717       -20.1015
 157   2.0000      -0.734088       -19.9756
 158   2.0000      -0.724847       -19.7241
 159   2.0000      -0.709872       -19.3166
 160   2.0000      -0.701660       -19.0931
 161   2.0000      -0.694159       -18.8890
 162   2.0000      -0.685524       -18.6541
 163   2.0000      -0.681046       -18.5322
 164   2.0000      -0.673759       -18.3339
 165   2.0000      -0.667183       -18.1550
 166   2.0000      -0.664124       -18.0717
 167   2.0000      -0.660799       -17.9812
 168   2.0000      -0.655151       -17.8276
 169   2.0000      -0.652007       -17.7420
 170   2.0000      -0.644327       -17.5330
 171   2.0000      -0.642628       -17.4868
 172   2.0000      -0.639700       -17.4071
 173   2.0000      -0.637233       -17.3400
 174   2.0000      -0.631794       -17.1920
 175   2.0000      -0.625010       -17.0074
 176   2.0000      -0.623951       -16.9786
 177   2.0000      -0.622911       -16.9503
 178   2.0000      -0.618222       -16.8227
 179   2.0000      -0.612135       -16.6571
 180   2.0000      -0.610862       -16.6224
 181   2.0000      -0.602102       -16.3840
 182   2.0000      -0.600741       -16.3470
 183   2.0000      -0.599990       -16.3266
 184   2.0000      -0.595577       -16.2065
 185   2.0000      -0.581310       -15.8182
 186   2.0000      -0.578066       -15.7300
 187   2.0000      -0.575999       -15.6737
 188   2.0000      -0.570146       -15.5145
 189   2.0000      -0.567308       -15.4372
 190   2.0000      -0.564220       -15.3532
 191   2.0000      -0.560274       -15.2458
 192   2.0000      -0.552348       -15.0302
 193   2.0000      -0.551539       -15.0081
 194   2.0000      -0.551109       -14.9964
 195   2.0000      -0.548139       -14.9156
 196   2.0000      -0.544239       -14.8095
 197   2.0000      -0.542383       -14.7590
 198   2.0000      -0.537768       -14.6334
 199   2.0000      -0.536357       -14.5950
 200   2.0000      -0.532491       -14.4898
 201   2.0000      -0.531071       -14.4512
 202   2.0000      -0.527831       -14.3630
 203   2.0000      -0.523022       -14.2321
 204   2.0000      -0.519026       -14.1234
 205   2.0000      -0.515036       -14.0148
 206   2.0000      -0.511810       -13.9270
 207   2.0000      -0.510714       -13.8972
 208   2.0000      -0.509749       -13.8710
 209   2.0000      -0.506171       -13.7736
 210   2.0000      -0.504046       -13.7158
 211   2.0000      -0.501370       -13.6430
 212   2.0000      -0.497814       -13.5462
 213   2.0000      -0.497519       -13.5382
 214   2.0000      -0.495766       -13.4905
 215   2.0000      -0.493159       -13.4195
 216   2.0000      -0.492192       -13.3932
 217   2.0000      -0.485144       -13.2014
 218   2.0000      -0.482116       -13.1191
 219   2.0000      -0.480332       -13.0705
 220   2.0000      -0.478938       -13.0326
 221   2.0000      -0.477715       -12.9993
 222   2.0000      -0.474955       -12.9242
 223   2.0000      -0.471182       -12.8215
 224   2.0000      -0.470331       -12.7983
 225   2.0000      -0.467838       -12.7305
 226   2.0000      -0.460418       -12.5286
 227   2.0000      -0.459211       -12.4958
 228   2.0000      -0.456846       -12.4314
 229   2.0000      -0.455784       -12.4025
 230   2.0000      -0.454217       -12.3599
 231   2.0000      -0.453441       -12.3388
 232   2.0000      -0.451672       -12.2906
 233   2.0000      -0.449319       -12.2266
 234   2.0000      -0.448580       -12.2065
 235   2.0000      -0.447518       -12.1776
 236   2.0000      -0.440575       -11.9887
 237   2.0000      -0.438332       -11.9276
 238   2.0000      -0.435292       -11.8449
 239   2.0000      -0.432859       -11.7787
 240   2.0000      -0.432031       -11.7562
 241   2.0000      -0.430698       -11.7199
 242   2.0000      -0.430078       -11.7030
 243   2.0000      -0.426076       -11.5941
 244   2.0000      -0.416672       -11.3382
 245   2.0000      -0.415647       -11.3103
 246   2.0000      -0.415254       -11.2996
 247   2.0000      -0.414329       -11.2745
 248   2.0000      -0.413921       -11.2634
 249   2.0000      -0.404974       -11.0199
 250   2.0000      -0.400456       -10.8970
 251   2.0000      -0.399873       -10.8811
 252   2.0000      -0.395093       -10.7510
 253   2.0000      -0.393872       -10.7178
 254   2.0000      -0.390199       -10.6179
 255   2.0000      -0.388710       -10.5773
 256   2.0000      -0.385140       -10.4802
 257   2.0000      -0.382493       -10.4082
 258   2.0000      -0.380992       -10.3673
 259   2.0000      -0.373744       -10.1701
 260   2.0000      -0.372781       -10.1439
 261   2.0000      -0.366550        -9.9743
 262   2.0000      -0.365072        -9.9341
 263   2.0000      -0.358935        -9.7671
 264   2.0000      -0.349408        -9.5079
 265   2.0000      -0.343598        -9.3498
 266   2.0000      -0.340886        -9.2760
 267   2.0000      -0.338915        -9.2224
 268   2.0000      -0.329033        -8.9534
 269   2.0000      -0.323867        -8.8129
 270   2.0000      -0.319227        -8.6866
 271   2.0000      -0.305107        -8.3024
 272   2.0000      -0.301098        -8.1933
 273   2.0000      -0.295056        -8.0289
 274   2.0000      -0.288127        -7.8403
 275   2.0000      -0.268843        -7.3156
 276   2.0000      -0.264137        -7.1875
 277   2.0000      -0.241987        -6.5848
 278   2.0000      -0.201190        -5.4747
 279   0.0000      -0.102679        -2.7940
 280   0.0000      -0.094834        -2.5806
 281   0.0000      -0.084601        -2.3021
 282   0.0000      -0.074558        -2.0288
 283   0.0000      -0.059629        -1.6226

MULLIKEN ATOMIC CHARGES
-----------------------
   0 C :    0.321470
   1 C :   -0.341058
   2 C :   -0.182814
   3 N :    0.152136
   4 C :   -0.196829
   5 N :    0.145951
   6 C :    0.009845
   7 C :    0.001849
   8 C :   -0.052542
   9 C :    0.101984
  10 C :   -0.092512
  11 C :   -0.021428
  12 S :    0.188262
  13 C :   -0.123773
  14 C :    0.044552
  15 Br:    0.027977
  16 C :    0.171937
  17 O :   -0.223738
  18 C :   -0.120679
  19 C :    0.028055
  20 N :   -0.011420
  21 C :   -0.128349
  22 S :    0.181095
  23 C :    0.002872
  24 N :    0.299976
  25 O :   -0.258458
  26 O :   -0.242029
  27 C :    0.001135
  28 C :    0.148466
  29 C :   -0.046479
  30 C :    0.008380
  31 C :   -0.111112
  32 S :    0.107490
  33 C :   -0.075033
  34 C :   -0.034399
  35 C :   -0.021522
  36 S :    0.108470
  37 C :    0.086540
  38 O :   -0.159872
  39 C :    0.077812
  40 O :   -0.140468
  41 S :    0.086835
  42 C :   -0.032740
  43 C :    0.007176
  44 C :   -0.015594
  45 C :   -0.009904
  46 C :    0.021314
  47 C :    0.031799
  48 C :   -0.051244
  49 S :    0.059669
  50 C :   -0.015670
  51 C :    0.016134
  52 C :    0.044071
  53 C :   -0.034475
  54 S :    0.053547
  55 C :    0.009698
  56 C :    0.045870
  57 C :   -0.039941
  58 C :    0.043771
  59 C :    0.013066
  60 C :    0.038983
  61 C :    0.005390
  62 C :    0.064660
  63 C :   -0.025889
  64 C :    0.061657
  65 C :   -0.002245
  66 C :    0.062749
  67 C :   -0.038843
  68 C :    0.001250
  69 C :   -0.021774
  70 H :   -0.023192
  71 H :   -0.005121
  72 H :    0.012787
  73 H :    0.046462
  74 H :    0.181343
  75 H :    0.010251
  76 H :   -0.008434
  77 H :   -0.006799
  78 H :   -0.002691
  79 H :    0.009730
  80 H :   -0.018169
  81 H :   -0.014191
  82 H :   -0.010394
  83 H :   -0.015493
  84 H :   -0.010045
  85 H :   -0.020517
  86 H :   -0.010897
  87 H :   -0.027219
  88 H :   -0.026008
  89 H :   -0.025807
  90 H :   -0.027843
  91 H :   -0.027171
  92 H :   -0.022607
  93 H :    0.010932
  94 H :    0.020036
Sum of atomic charges:   -0.0000000

LOEWDIN ATOMIC CHARGES
----------------------
   0 C :    0.079137
   1 C :   -0.146961
   2 C :   -0.019939
   3 N :   -0.051383
   4 C :   -0.020110
   5 N :   -0.054013
   6 C :   -0.019682
   7 C :   -0.056728
   8 C :    0.033152
   9 C :   -0.031442
  10 C :   -0.142932
  11 C :   -0.008777
  12 S :    0.434423
  13 C :   -0.271202
  14 C :   -0.062231
  15 Br:    0.139712
  16 C :    0.099689
  17 O :   -0.175858
  18 C :   -0.137707
  19 C :    0.108421
  20 N :    0.076681
  21 C :   -0.106833
  22 S :    0.474307
  23 C :   -0.208919
  24 N :    0.282491
  25 O :   -0.224458
  26 O :   -0.212536
  27 C :    0.006148
  28 C :   -0.082442
  29 C :   -0.044734
  30 C :   -0.043092
  31 C :   -0.197598
  32 S :    0.439894
  33 C :   -0.159071
  34 C :   -0.238984
  35 C :   -0.208894
  36 S :    0.420149
  37 C :   -0.109309
  38 O :   -0.127458
  39 C :   -0.115018
  40 O :   -0.112991
  41 S :    0.390047
  42 C :   -0.079428
  43 C :   -0.013529
  44 C :   -0.080406
  45 C :   -0.126608
  46 C :   -0.051837
  47 C :   -0.019434
  48 C :   -0.196930
  49 S :    0.374592
  50 C :   -0.158528
  51 C :   -0.054208
  52 C :   -0.015234
  53 C :   -0.166201
  54 S :    0.395798
  55 C :   -0.020122
  56 C :   -0.075490
  57 C :    0.001520
  58 C :   -0.061568
  59 C :    0.080988
  60 C :   -0.067502
  61 C :    0.071639
  62 C :   -0.053497
  63 C :    0.019282
  64 C :   -0.056263
  65 C :    0.065540
  66 C :   -0.064014
  67 C :    0.030471
  68 C :   -0.031130
  69 C :   -0.039213
  70 H :    0.036212
  71 H :    0.041666
  72 H :    0.045809
  73 H :    0.035916
  74 H :    0.084446
  75 H :    0.045497
  76 H :    0.026035
  77 H :    0.019824
  78 H :    0.028696
  79 H :    0.012438
  80 H :    0.032234
  81 H :    0.032658
  82 H :    0.033184
  83 H :    0.031080
  84 H :    0.034319
  85 H :    0.035593
  86 H :    0.010370
  87 H :    0.034794
  88 H :    0.026752
  89 H :    0.024568
  90 H :    0.033769
  91 H :    0.023620
  92 H :    0.026679
  93 H :    0.017344
  94 H :    0.024857

  Mayer bond orders larger than 0.100000
B(  0-C ,  1-C ) :   1.6324 B(  0-C ,  6-C ) :   1.0090 B(  0-C , 18-C ) :   1.0911
B(  1-C ,  2-C ) :   1.1411 B(  1-C ,  4-C ) :   1.1475 B(  2-C ,  3-N ) :   2.9701
B(  4-C ,  5-N ) :   2.9576 B(  6-C ,  7-C ) :   1.2607 B(  6-C , 11-C ) :   1.4245
B(  7-C ,  8-C ) :   1.4002 B(  7-C , 16-C ) :   0.9903 B(  8-C ,  9-C ) :   1.2570
B(  8-C , 70-H ) :   1.0110 B(  9-C , 10-C ) :   1.3001 B(  9-C , 14-C ) :   1.1707
B( 10-C , 11-C ) :   1.3190 B( 10-C , 12-S ) :   1.0931 B( 11-C , 71-H ) :   0.9814
B( 12-S , 13-C ) :   1.0828 B( 13-C , 14-C ) :   1.6118 B( 13-C , 15-Br) :   1.0212
B( 14-C , 72-H ) :   1.0013 B( 16-C , 17-O ) :   1.9838 B( 16-C , 18-C ) :   1.0036
B( 17-O , 74-H ) :   0.1415 B( 18-C , 19-C ) :   1.4759 B( 19-C , 20-N ) :   1.3149
B( 19-C , 73-H ) :   0.9296 B( 20-N , 21-C ) :   1.1962 B( 20-N , 74-H ) :   0.8253
B( 21-C , 22-S ) :   1.1425 B( 21-C , 28-C ) :   1.3512 B( 22-S , 23-C ) :   1.0792
B( 23-C , 24-N ) :   0.9826 B( 23-C , 27-C ) :   1.4686 B( 24-N , 25-O ) :   1.4603
B( 24-N , 26-O ) :   1.5278 B( 25-O , 26-O ) :   0.2460 B( 27-C , 28-C ) :   1.2220
B( 27-C , 75-H ) :   1.0073 B( 28-C , 29-C ) :   1.1106 B( 29-C , 30-C ) :   1.6461
B( 29-C , 76-H ) :   0.9646 B( 30-C , 31-C ) :   1.2159 B( 30-C , 77-H ) :   0.9379
B( 31-C , 32-S ) :   1.0867 B( 31-C , 35-C ) :   1.5190 B( 32-S , 33-C ) :   1.1083
B( 33-C , 34-C ) :   1.4814 B( 33-C , 42-C ) :   1.2220 B( 34-C , 35-C ) :   1.3161
B( 34-C , 41-S ) :   0.9614 B( 35-C , 36-S ) :   0.9832 B( 36-S , 37-C ) :   1.0961
B( 36-S , 38-O ) :   0.1377 B( 37-C , 38-O ) :   2.0741 B( 37-C , 39-C ) :   0.7830
B( 39-C , 40-O ) :   2.1420 B( 39-C , 41-S ) :   1.0719 B( 40-O , 41-S ) :   0.1445
B( 42-C , 43-C ) :   1.5361 B( 42-C , 78-H ) :   0.9742 B( 43-C , 44-C ) :   1.2333
B( 43-C , 79-H ) :   0.9631 B( 44-C , 45-C ) :   1.4709 B( 44-C , 80-H ) :   0.9895
B( 45-C , 46-C ) :   1.1865 B( 45-C , 49-S ) :   1.0620 B( 46-C , 47-C ) :   1.5321
B( 46-C , 81-H ) :   1.0005 B( 47-C , 48-C ) :   1.2354 B( 47-C , 82-H ) :   0.9957
B( 48-C , 49-S ) :   1.0381 B( 48-C , 50-C ) :   1.4468 B( 50-C , 51-C ) :   1.2140
B( 50-C , 54-S ) :   1.0698 B( 51-C , 52-C ) :   1.5577 B( 51-C , 83-H ) :   0.9942
B( 52-C , 53-C ) :   1.1676 B( 52-C , 84-H ) :   0.9982 B( 53-C , 54-S ) :   1.0256
B( 53-C , 55-C ) :   1.5372 B( 55-C , 56-C ) :   1.1653 B( 55-C , 85-H ) :   0.9702
B( 56-C , 57-C ) :   1.3976 B( 56-C , 67-C ) :   1.1302 B( 57-C , 58-C ) :   1.1814
B( 57-C , 86-H ) :   0.9906 B( 58-C , 59-C ) :   1.3765 B( 58-C , 66-C ) :   1.1354
B( 59-C , 60-C ) :   1.1798 B( 59-C , 87-H ) :   1.0052 B( 60-C , 61-C ) :   1.3893
B( 60-C , 64-C ) :   1.1132 B( 61-C , 62-C ) :   1.1603 B( 61-C , 88-H ) :   1.0049
B( 62-C , 63-C ) :   1.4896 B( 62-C , 68-C ) :   1.0799 B( 63-C , 64-C ) :   1.0860
B( 63-C , 89-H ) :   1.0157 B( 64-C , 65-C ) :   1.4780 B( 65-C , 66-C ) :   1.1131
B( 65-C , 90-H ) :   1.0055 B( 66-C , 67-C ) :   1.4435 B( 67-C , 91-H ) :   1.0147
B( 68-C , 69-C ) :   1.9302 B( 68-C , 92-H ) :   0.9673 B( 69-C , 93-H ) :   0.9430
B( 69-C , 94-H ) :   0.9512

-----------------------------------------------------------------------------
         ABSORPTION SPECTRUM VIA TRANSITION ELECTRIC DIPOLE MOMENTS
-----------------------------------------------------------------------------
State   Energy  Wavelength   fosc         T2         TX        TY        TZ
        (cm-1)    (nm)                  (au**2)     (au)      (au)      (au)
-----------------------------------------------------------------------------
   0    6541.8   1528.6   0.083330009   4.19355  -0.32830   2.01949   0.08612
   1   10193.9    981.0   0.622877344  20.11579  -2.27008   3.45913   1.73117
   2   13004.1    769.0   0.137335420   3.47678  -0.44534  -1.72991   0.53466
   3   14080.7    710.2   0.003435445   0.08032  -0.19822   0.08644   0.18318
   4   17523.8    570.7   0.039358152   0.73941  -0.37870  -0.61221   0.47031
   5   17818.7    561.2   0.058791749   1.08622  -0.41876  -0.83112   0.46915
   6   19022.4    525.7   0.603051414  10.43675  -2.31753  -0.71040   2.13568
   7   19423.9    514.8   0.109961939   1.86373  -0.41394   1.27581   0.25431
   8   21154.0    472.7   0.115670170   1.80014  -0.60224  -0.97011   0.70451
   9   21889.6    456.8   0.544713709   8.19230   1.55737   1.78409  -1.60745
  10   22919.7    436.3   0.423946894   6.08945  -1.81007   0.06768   1.67587
  11   23246.0    430.2   0.546484360   7.73937   1.57721   1.55019  -1.68781
  12   23864.9    419.0   0.221273512   3.05243   0.70658   1.34327  -0.86533
  13   24920.9    401.3   0.140765199   1.85955   0.76793   0.79204  -0.80157
  14   25020.8    399.7   0.011408780   0.15011   0.32836  -0.09690  -0.18139
  15   25941.6    385.5   0.190440902   2.41679   0.00702   1.54312  -0.18846
  16   26529.9    376.9   0.063270582   0.78513   0.04778  -0.88208   0.06918
  17   26902.4    371.7   0.164730854   2.01586  -0.59467   1.20243   0.46518
  18   27293.4    366.4   0.094569661   1.14069   0.30513  -1.00537  -0.19188
  19   27551.3    363.0   0.114295613   1.36572   0.71269  -0.65847  -0.65132
  20   27793.0    359.8   0.264414101   3.13202  -0.38671   1.71440   0.20812
  21   28357.4    352.6   0.184415718   2.14095   0.64193   1.00031  -0.85339
  22   28736.4    348.0   0.210428862   2.41073   1.10002  -0.01847  -1.09561
  23   29061.0    344.1   0.097377447   1.10312  -0.31969   0.99186   0.13089
  24   29329.6    341.0   0.734855508   8.24843   1.04286  -2.57523  -0.72738
  25   29715.0    336.5   0.123510082   1.36837   0.46499  -1.03066  -0.29981
  26   29841.7    335.1   0.003187878   0.03517  -0.08533   0.09432   0.13781
  27   30221.4    330.9   0.003382790   0.03685  -0.13410   0.08289   0.10953
  28   30998.0    322.6   0.040493744   0.43006   0.38279  -0.39096  -0.36150
  29   31518.4    317.3   0.019737760   0.20616  -0.33504   0.03891   0.30397
  30   31822.8    314.2   0.034516166   0.35707  -0.37713   0.26379   0.38113
  31   31869.6    313.8   0.055208233   0.57030  -0.26417   0.67359   0.21631
  32   32112.4    311.4   0.038685976   0.39660  -0.45409  -0.09190   0.42657
  33   32594.1    306.8   0.001335553   0.01349   0.04442   0.06124  -0.08812
  34   32669.7    306.1   0.089646098   0.90336  -0.37433  -0.65459   0.57858
  35   32760.4    305.2   0.021924139   0.22032   0.30710   0.14434  -0.32430
  36   32992.9    303.1   0.175523685   1.75142  -0.32303  -1.16884   0.52998
  37   33085.6    302.2   0.002080717   0.02070   0.02416   0.07748  -0.11881
  38   33180.0    301.4   0.427863103   4.24526  -0.37010   2.02687   0.00828
  39   33548.9    298.1   0.043146846   0.42340  -0.48327  -0.14124   0.41219
  40   33728.9    296.5   0.162472996   1.58582  -0.42372  -1.09570   0.45357
  41   34042.4    293.8   0.012714950   0.12296   0.17324  -0.27056  -0.14051
  42   34147.9    292.8   0.028413168   0.27392   0.30908  -0.39091  -0.15994
  43   34397.7    290.7   0.007240642   0.06930   0.01257   0.26145  -0.02797
  44   34488.1    290.0   0.135066040   1.28929   0.83126   0.02285  -0.77316
  45   34746.9    287.8   0.008468385   0.08023   0.02852  -0.28172  -0.00745
  46   34918.6    286.4   0.054146188   0.51049  -0.41728  -0.42437   0.39532
  47   35160.5    284.4   0.020105761   0.18825  -0.29454  -0.00428   0.31856
  48   35882.5    278.7   0.082740480   0.75912  -0.49630   0.43665   0.56757
  49   36023.6    277.6   0.067693417   0.61864  -0.07199  -0.77992   0.07196
  50   36126.8    276.8   0.021059290   0.19191  -0.26830   0.01616   0.34592
  51   36350.4    275.1   0.073568321   0.66628   0.28337   0.74382  -0.18088
  52   36454.0    274.3   0.081103654   0.73244  -0.13612   0.80506   0.25648
  53   36482.9    274.1   0.106982120   0.96538   0.59306   0.47156  -0.62553
  54   36534.9    273.7   0.103551268   0.93309  -0.64062  -0.18038   0.70011
  55   36882.4    271.1   0.067022770   0.59824   0.37699   0.57682  -0.35129
  56   37066.3    269.8   0.017552375   0.15589  -0.22086  -0.20643   0.25397
  57   37274.3    268.3   0.005535980   0.04889  -0.08284  -0.17602   0.10511
  58   37442.0    267.1   0.040838987   0.35908   0.17708   0.55959  -0.12075
  59   37721.6    265.1   0.061880046   0.54005   0.11179   0.71351  -0.13587
  60   37950.2    263.5   0.148353694   1.28694   0.73584   0.54293  -0.67136
  61   38092.2    262.5   0.047889426   0.41388  -0.40820   0.22274   0.44457
  62   38167.0    262.0   0.016548601   0.14274   0.19802   0.25833  -0.19181
  63   38540.4    259.5   0.006381205   0.05451  -0.03086   0.22886   0.03431
  64   38997.1    256.4   0.023517518   0.19853   0.16873   0.33969  -0.23383
  65   39141.9    255.5   0.054968201   0.46232  -0.39057  -0.35032   0.43250
  66   39392.5    253.9   0.004726840   0.03950   0.05307   0.18554  -0.04757
  67   39535.8    252.9   0.074995369   0.62448   0.40322   0.55142  -0.39727
  68   39582.6    252.6   0.017374594   0.14451   0.25577  -0.21163  -0.18520
  69   39734.9    251.7   0.008235884   0.06824  -0.07452   0.23336  -0.09070
  70   39919.1    250.5   0.020603914   0.16992   0.30136   0.15540  -0.23443
  71   40144.4    249.1   0.173955708   1.42656   0.79368  -0.06468  -0.89020
  72   40298.6    248.1   0.019066090   0.15576   0.21928   0.19182  -0.26623

FINAL SINGLE POINT ENERGY     -7986.712083645687

DIPOLE MOMENT
-------------
                                X             Y             Z
Electronic contribution:   -100.44907     154.39880      77.50190
Nuclear contribution   :    103.23537    -154.80942     -80.22541
                        -----------------------------------------
Total Dipole Moment    :      2.78630      -0.41062      -2.72351
                        -----------------------------------------
Magnitude (a.u.)       :      3.91785
Magnitude (Debye)      :      9.95838

Rotational constants in cm-1:     0.000974     0.000330     0.000247
Rotational constants in MHz :    29.191472     9.905639     7.404937

                             ****ORCA TERMINATED NORMALLY****
TOTAL RUN TIME: 0 days 0 hours 11 minutes 50 seconds 476 msec
