                         Program Version 4.2.0 -  RELEASE  -
|  1> # ORCA input file
|  2> # SCF done       -184.709969994415          0.000668320916
|  3> ! CAM-B3LYP def2-SVP def2/J RIJCOSX Grid4 TightSCF
|  4> %maxcore 5000
|  5> %tddft
|  6>     Mode sTDDFT
|  7>     Ethresh 5.0
|  8>     maxcore 5000
|  9> end
| 10>
| 11> %pal
| 12>   nprocs 6
| 13>   end
| 14> * xyz 0 1
| 15>    C       -4.27661        -2.04980        -1.82703
| 16>    C       -4.25698        -3.05055        -0.88835
| 17>    C       -3.92046        -4.39040        -1.16460
| 18>    N       -3.65347        -5.49477        -1.33060
| 19>    C       -4.58185        -2.86194         0.46963
| 20>    N       -4.83645        -2.75145         1.58394
| 21>    C       -3.95360        -2.20148        -3.24452
| 22>    C       -4.11732        -0.94769        -3.88947
| 23>    C       -3.88754        -0.76686        -5.23197
| 24>    C       -3.47188        -1.87616        -5.97635
| 25>    C       -3.30667        -3.12124        -5.32518
| 26>    C       -3.54227        -3.30413        -3.96628
| 27>    S       -2.78147        -4.35371        -6.42969
| 28>    C       -2.79164        -3.19581        -7.73408
| 29>    C       -3.16908        -1.94909        -7.36338
| 30>   Br       -2.30266        -3.74386        -9.45961
| 31>    C       -4.54164         0.04007        -2.89354
| 32>    O       -4.78230         1.23334        -3.08697
| 33>    C       -4.62402        -0.66551        -1.61628
| 34>    C       -4.98056        -0.01276        -0.45449
| 35>    N       -5.25637         1.29308        -0.50315
| 36>    C       -5.61124         2.13292         0.49670
| 37>    S       -5.78845         1.60589         2.14069
| 38>    C       -6.19731         3.23244         2.58585
| 39>    N       -6.49301         3.48761         3.93192
| 40>    O       -6.78277         4.62882         4.23890
| 41>    O       -6.43809         2.54059         4.69597
| 42>    C       -6.19278         4.11478         1.53985
| 43>    C       -5.85797         3.50562         0.31411
| 44>    C       -5.78062         4.13929        -0.96747
| 45>    C       -5.87061         5.47186        -1.19008
| 46>    C       -5.81030         6.11563        -2.45365
| 47>    S       -5.59991         7.84634        -2.45849
| 48>    C       -5.62415         7.91363        -4.19939
| 49>    C       -5.77608         6.63212        -4.73157
| 50>    C       -5.89089         5.63099        -3.75777
| 51>    C       -6.11497         4.19494        -4.11793
| 52>    C       -6.47059         4.02651        -5.59171
| 53>    C       -5.48454         4.83845        -6.44246
| 54>    C       -5.68680         4.46649        -7.88354
| 55>    O       -5.00355         3.69854        -8.49981
| 56>    C       -5.74775         6.32414        -6.19796
| 57>    C       -5.49814         9.17870        -4.81253
| 58>    C       -5.82804         9.49399        -6.10178
| 59>    C       -5.67819        10.76374        -6.66879
| 60>    C       -6.11191        11.07040        -7.94037
| 61>    C       -5.99912        12.29925        -8.62591
| 62>    C       -6.55036        12.29925        -9.87597
| 63>    C       -7.13819        11.07317       -10.24146
| 64>    S       -6.94780         9.90441        -8.95343
| 65>    C       -7.81584        10.75013       -11.40534
| 66>    C       -8.05372        11.55905       -12.53580
| 67>    C       -8.78738        10.94385       -13.50619
| 68>    C       -9.17979         9.61770       -13.19937
| 69>    S       -8.54639         9.17837       -11.62098
| 70>    C       -9.95640         8.80911       -13.99112
| 71>    C      -10.41534         7.50322       -13.72593
| 72>    C      -11.29233         6.79430       -14.62296
| 73>    C      -11.58925         5.56146       -14.08331
| 74>    C      -12.40394         4.50367       -14.54820
| 75>    C      -12.50600         3.38894       -13.76328
| 76>    C      -13.23390         2.16805       -13.92768
| 77>    C      -12.99762         1.35605       -12.83486
| 78>    C      -12.10919         2.04899       -11.95070
| 79>    C      -11.80044         3.28508       -12.49634
| 80>    C      -10.98826         4.33251       -12.03187
| 81>    C      -10.88631         5.46019       -12.81518
| 82>    C      -10.17494         6.67121       -12.62940
| 83>    C      -13.56049         0.04201       -12.63823
| 84>    C      -13.34059        -0.74501       -11.58837
| 85>    H       -4.02019         0.19754        -5.69696
| 86>    H       -3.40125        -4.27307        -3.51745
| 87>    H       -3.23170        -1.11420        -8.03739
| 88>    H       -5.04470        -0.50967         0.50426
| 89>    H       -5.16490         1.68700        -1.45957
| 90>    H       -6.43389         5.15367         1.66886
| 91>    H       -5.61081         3.48770        -1.80624
| 92>    H       -5.96412         6.14277        -0.34674
| 93>    H       -6.92115         3.78536        -3.50426
| 94>    H       -5.20922         3.61789        -3.91034
| 95>    H       -7.48571         4.38195        -5.78093
| 96>    H       -6.42283         2.96857        -5.85435
| 97>    H       -4.46442         4.57326        -6.14829
| 98>    H       -6.57513         4.94124        -8.34811
| 99>    H       -6.71031         6.58839        -6.64992
|100>    H       -4.97440         6.92662        -6.68103
|101>    H       -5.15389         9.97700        -4.16668
|102>    H       -6.27443         8.74606        -6.73874
|103>    H       -5.20562        11.54833        -6.09374
|104>    H       -5.51495        13.14832        -8.17649
|105>    H       -6.55540        13.15005       -10.53368
|106>    H       -7.68197        12.56563       -12.60386
|107>    H       -9.06857        11.40583       -14.43647
|108>    H      -10.27292         9.24129       -14.93309
|109>    H      -11.65161         7.18696       -15.55776
|110>    H      -12.92485         4.58894       -15.49168
|111>    H      -13.86032         1.93274       -14.76870
|112>    H      -11.74291         1.66857       -11.01492
|113>    H      -10.46627         4.24961       -11.08921
|114>    H       -9.55731         6.88944       -11.78004
|115>    H      -14.21267        -0.29741       -13.43348
|116>    H      -12.70084        -0.45205       -10.77370
|117>    H      -13.79637        -1.71657       -11.50808
|118> *
|119>
|120>                          ****END OF INPUT****

CARTESIAN COORDINATES (ANGSTROEM)
---------------------------------
  C     -4.276610   -2.049800   -1.827030
  C     -4.256980   -3.050550   -0.888350
  C     -3.920460   -4.390400   -1.164600
  N     -3.653470   -5.494770   -1.330600
  C     -4.581850   -2.861940    0.469630
  N     -4.836450   -2.751450    1.583940
  C     -3.953600   -2.201480   -3.244520
  C     -4.117320   -0.947690   -3.889470
  C     -3.887540   -0.766860   -5.231970
  C     -3.471880   -1.876160   -5.976350
  C     -3.306670   -3.121240   -5.325180
  C     -3.542270   -3.304130   -3.966280
  S     -2.781470   -4.353710   -6.429690
  C     -2.791640   -3.195810   -7.734080
  C     -3.169080   -1.949090   -7.363380
  Br    -2.302660   -3.743860   -9.459610
  C     -4.541640    0.040070   -2.893540
  O     -4.782300    1.233340   -3.086970
  C     -4.624020   -0.665510   -1.616280
  C     -4.980560   -0.012760   -0.454490
  N     -5.256370    1.293080   -0.503150
  C     -5.611240    2.132920    0.496700
  S     -5.788450    1.605890    2.140690
  C     -6.197310    3.232440    2.585850
  N     -6.493010    3.487610    3.931920
  O     -6.782770    4.628820    4.238900
  O     -6.438090    2.540590    4.695970
  C     -6.192780    4.114780    1.539850
  C     -5.857970    3.505620    0.314110
  C     -5.780620    4.139290   -0.967470
  C     -5.870610    5.471860   -1.190080
  C     -5.810300    6.115630   -2.453650
  S     -5.599910    7.846340   -2.458490
  C     -5.624150    7.913630   -4.199390
  C     -5.776080    6.632120   -4.731570
  C     -5.890890    5.630990   -3.757770
  C     -6.114970    4.194940   -4.117930
  C     -6.470590    4.026510   -5.591710
  C     -5.484540    4.838450   -6.442460
  C     -5.686800    4.466490   -7.883540
  O     -5.003550    3.698540   -8.499810
  C     -5.747750    6.324140   -6.197960
  C     -5.498140    9.178700   -4.812530
  C     -5.828040    9.493990   -6.101780
  C     -5.678190   10.763740   -6.668790
  C     -6.111910   11.070400   -7.940370
  C     -5.999120   12.299250   -8.625910
  C     -6.550360   12.299250   -9.875970
  C     -7.138190   11.073170  -10.241460
  S     -6.947800    9.904410   -8.953430
  C     -7.815840   10.750130  -11.405340
  C     -8.053720   11.559050  -12.535800
  C     -8.787380   10.943850  -13.506190
  C     -9.179790    9.617700  -13.199370
  S     -8.546390    9.178370  -11.620980
  C     -9.956400    8.809110  -13.991120
  C    -10.415340    7.503220  -13.725930
  C    -11.292330    6.794300  -14.622960
  C    -11.589250    5.561460  -14.083310
  C    -12.403940    4.503670  -14.548200
  C    -12.506000    3.388940  -13.763280
  C    -13.233900    2.168050  -13.927680
  C    -12.997620    1.356050  -12.834860
  C    -12.109190    2.048990  -11.950700
  C    -11.800440    3.285080  -12.496340
  C    -10.988260    4.332510  -12.031870
  C    -10.886310    5.460190  -12.815180
  C    -10.174940    6.671210  -12.629400
  C    -13.560490    0.042010  -12.638230
  C    -13.340590   -0.745010  -11.588370
  H     -4.020190    0.197540   -5.696960
  H     -3.401250   -4.273070   -3.517450
  H     -3.231700   -1.114200   -8.037390
  H     -5.044700   -0.509670    0.504260
  H     -5.164900    1.687000   -1.459570
  H     -6.433890    5.153670    1.668860
  H     -5.610810    3.487700   -1.806240
  H     -5.964120    6.142770   -0.346740
  H     -6.921150    3.785360   -3.504260
  H     -5.209220    3.617890   -3.910340
  H     -7.485710    4.381950   -5.780930
  H     -6.422830    2.968570   -5.854350
  H     -4.464420    4.573260   -6.148290
  H     -6.575130    4.941240   -8.348110
  H     -6.710310    6.588390   -6.649920
  H     -4.974400    6.926620   -6.681030
  H     -5.153890    9.977000   -4.166680
  H     -6.274430    8.746060   -6.738740
  H     -5.205620   11.548330   -6.093740
  H     -5.514950   13.148320   -8.176490
  H     -6.555400   13.150050  -10.533680
  H     -7.681970   12.565630  -12.603860
  H     -9.068570   11.405830  -14.436470
  H    -10.272920    9.241290  -14.933090
  H    -11.651610    7.186960  -15.557760
  H    -12.924850    4.588940  -15.491680
  H    -13.860320    1.932740  -14.768700
  H    -11.742910    1.668570  -11.014920
  H    -10.466270    4.249610  -11.089210
  H     -9.557310    6.889440  -11.780040
  H    -14.212670   -0.297410  -13.433480
  H    -12.700840   -0.452050  -10.773700
  H    -13.796370   -1.716570  -11.508080

 Total Charge           Charge          ....    0
 Multiplicity           Mult            ....    1
 Number of Electrons    NEL             ....  544
 Basis Dimension        Dim             .... 1183

ORBITAL ENERGIES
----------------

  NO   OCC          E(Eh)            E(eV)
   0   2.0000    -482.888022    -13140.0511
   1   2.0000     -88.990823     -2421.5634
   2   2.0000     -88.980098     -2421.2716
   3   2.0000     -88.951716     -2420.4992
   4   2.0000     -88.944778     -2420.3105
   5   2.0000     -88.943322     -2420.2708
   6   2.0000     -62.565703     -1702.4993
   7   2.0000     -56.399662     -1534.7128
   8   2.0000     -56.396930     -1534.6385
   9   2.0000     -56.396902     -1534.6377
  10   2.0000     -19.240112      -523.5501
  11   2.0000     -19.239563      -523.5351
  12   2.0000     -19.239254      -523.5267
  13   2.0000     -19.216412      -522.9052
  14   2.0000     -14.651430      -398.6857
  15   2.0000     -14.498632      -394.5278
  16   2.0000     -14.421985      -392.4422
  17   2.0000     -14.417518      -392.3206
  18   2.0000     -10.384975      -282.5895
  19   2.0000     -10.373989      -282.2906
  20   2.0000     -10.370749      -282.2024
  21   2.0000     -10.362445      -281.9765
  22   2.0000     -10.356288      -281.8089
  23   2.0000     -10.349446      -281.6228
  24   2.0000     -10.349275      -281.6181
  25   2.0000     -10.344913      -281.4994
  26   2.0000     -10.330662      -281.1116
  27   2.0000     -10.324317      -280.9390
  28   2.0000     -10.320663      -280.8395
  29   2.0000     -10.314781      -280.6795
  30   2.0000     -10.312449      -280.6160
  31   2.0000     -10.312268      -280.6111
  32   2.0000     -10.311438      -280.5885
  33   2.0000     -10.309770      -280.5431
  34   2.0000     -10.309215      -280.5280
  35   2.0000     -10.308298      -280.5031
  36   2.0000     -10.307674      -280.4861
  37   2.0000     -10.306381      -280.4509
  38   2.0000     -10.302825      -280.3541
  39   2.0000     -10.301828      -280.3270
  40   2.0000     -10.301698      -280.3235
  41   2.0000     -10.301391      -280.3151
  42   2.0000     -10.300035      -280.2782
  43   2.0000     -10.299771      -280.2710
  44   2.0000     -10.298622      -280.2397
  45   2.0000     -10.297796      -280.2173
  46   2.0000     -10.295483      -280.1543
  47   2.0000     -10.289161      -279.9823
  48   2.0000     -10.287924      -279.9486
  49   2.0000     -10.284184      -279.8469
  50   2.0000     -10.284086      -279.8442
  51   2.0000     -10.283941      -279.8403
  52   2.0000     -10.283009      -279.8149
  53   2.0000     -10.282980      -279.8141
  54   2.0000     -10.282750      -279.8079
  55   2.0000     -10.282132      -279.7910
  56   2.0000     -10.281768      -279.7811
  57   2.0000     -10.280559      -279.7482
  58   2.0000     -10.280217      -279.7389
  59   2.0000     -10.279977      -279.7324
  60   2.0000     -10.279807      -279.7278
  61   2.0000     -10.278263      -279.6858
  62   2.0000     -10.276882      -279.6482
  63   2.0000     -10.275984      -279.6237
  64   2.0000     -10.272582      -279.5312
  65   2.0000     -10.270728      -279.4807
  66   2.0000     -10.269654      -279.4515
  67   2.0000     -10.269316      -279.4423
  68   2.0000     -10.268269      -279.4138
  69   2.0000     -10.265874      -279.3486
  70   2.0000     -10.265413      -279.3361
  71   2.0000     -10.265021      -279.3254
  72   2.0000     -10.264760      -279.3183
  73   2.0000     -10.258230      -279.1406
  74   2.0000      -8.795127      -239.3276
  75   2.0000      -8.085997      -220.0312
  76   2.0000      -8.076066      -219.7609
  77   2.0000      -8.047610      -218.9866
  78   2.0000      -8.040623      -218.7965
  79   2.0000      -8.039482      -218.7654
  80   2.0000      -6.631444      -180.4508
  81   2.0000      -6.616856      -180.0538
  82   2.0000      -6.616638      -180.0479
  83   2.0000      -6.055647      -164.7825
  84   2.0000      -6.051301      -164.6643
  85   2.0000      -6.047467      -164.5599
  86   2.0000      -6.045721      -164.5124
  87   2.0000      -6.041463      -164.3966
  88   2.0000      -6.037341      -164.2844
  89   2.0000      -6.016730      -163.7235
  90   2.0000      -6.012919      -163.6199
  91   2.0000      -6.010334      -163.5495
  92   2.0000      -6.009724      -163.5329
  93   2.0000      -6.009196      -163.5185
  94   2.0000      -6.006269      -163.4389
  95   2.0000      -6.005255      -163.4113
  96   2.0000      -6.001691      -163.3143
  97   2.0000      -6.000422      -163.2798
  98   2.0000      -2.747343       -74.7590
  99   2.0000      -2.743194       -74.6461
 100   2.0000      -2.743051       -74.6422
 101   2.0000      -2.731447       -74.3264
 102   2.0000      -2.731429       -74.3260
 103   2.0000      -1.321212       -35.9520
 104   2.0000      -1.153008       -31.3750
 105   2.0000      -1.140178       -31.0258
 106   2.0000      -1.130616       -30.7656
 107   2.0000      -1.106236       -30.1022
 108   2.0000      -1.028705       -27.9925
 109   2.0000      -1.018063       -27.7029
 110   2.0000      -1.011474       -27.5236
 111   2.0000      -0.998992       -27.1840
 112   2.0000      -0.995196       -27.0807
 113   2.0000      -0.994181       -27.0530
 114   2.0000      -0.990983       -26.9660
 115   2.0000      -0.986147       -26.8344
 116   2.0000      -0.972070       -26.4514
 117   2.0000      -0.959322       -26.1045
 118   2.0000      -0.947198       -25.7746
 119   2.0000      -0.932432       -25.3728
 120   2.0000      -0.925991       -25.1975
 121   2.0000      -0.914314       -24.8798
 122   2.0000      -0.912371       -24.8269
 123   2.0000      -0.902877       -24.5685
 124   2.0000      -0.898300       -24.4440
 125   2.0000      -0.891378       -24.2556
 126   2.0000      -0.886435       -24.1211
 127   2.0000      -0.878078       -23.8937
 128   2.0000      -0.867904       -23.6169
 129   2.0000      -0.862960       -23.4823
 130   2.0000      -0.854419       -23.2499
 131   2.0000      -0.852355       -23.1938
 132   2.0000      -0.849084       -23.1048
 133   2.0000      -0.841074       -22.8868
 134   2.0000      -0.836904       -22.7733
 135   2.0000      -0.834966       -22.7206
 136   2.0000      -0.834210       -22.7000
 137   2.0000      -0.819427       -22.2977
 138   2.0000      -0.806861       -21.9558
 139   2.0000      -0.799334       -21.7510
 140   2.0000      -0.796721       -21.6799
 141   2.0000      -0.782210       -21.2850
 142   2.0000      -0.769097       -20.9282
 143   2.0000      -0.763662       -20.7803
 144   2.0000      -0.753677       -20.5086
 145   2.0000      -0.745810       -20.2945
 146   2.0000      -0.739955       -20.1352
 147   2.0000      -0.735550       -20.0153
 148   2.0000      -0.730698       -19.8833
 149   2.0000      -0.719290       -19.5729
 150   2.0000      -0.711183       -19.3523
 151   2.0000      -0.702783       -19.1237
 152   2.0000      -0.696292       -18.9471
 153   2.0000      -0.688164       -18.7259
 154   2.0000      -0.680180       -18.5086
 155   2.0000      -0.673867       -18.3369
 156   2.0000      -0.668163       -18.1816
 157   2.0000      -0.664634       -18.0856
 158   2.0000      -0.662932       -18.0393
 159   2.0000      -0.656280       -17.8583
 160   2.0000      -0.651830       -17.7372
 161   2.0000      -0.647663       -17.6238
 162   2.0000      -0.640574       -17.4309
 163   2.0000      -0.636445       -17.3186
 164   2.0000      -0.635446       -17.2914
 165   2.0000      -0.632798       -17.2193
 166   2.0000      -0.630608       -17.1597
 167   2.0000      -0.623947       -16.9785
 168   2.0000      -0.623817       -16.9749
 169   2.0000      -0.621927       -16.9235
 170   2.0000      -0.614144       -16.7117
 171   2.0000      -0.608703       -16.5636
 172   2.0000      -0.608273       -16.5519
 173   2.0000      -0.599337       -16.3088
 174   2.0000      -0.598104       -16.2752
 175   2.0000      -0.593341       -16.1456
 176   2.0000      -0.582097       -15.8397
 177   2.0000      -0.577480       -15.7140
 178   2.0000      -0.575528       -15.6609
 179   2.0000      -0.574257       -15.6263
 180   2.0000      -0.569437       -15.4952
 181   2.0000      -0.562519       -15.3069
 182   2.0000      -0.560817       -15.2606
 183   2.0000      -0.555744       -15.1225
 184   2.0000      -0.552942       -15.0463
 185   2.0000      -0.551740       -15.0136
 186   2.0000      -0.546365       -14.8674
 187   2.0000      -0.545438       -14.8421
 188   2.0000      -0.544131       -14.8066
 189   2.0000      -0.542959       -14.7747
 190   2.0000      -0.538352       -14.6493
 191   2.0000      -0.533886       -14.5278
 192   2.0000      -0.532687       -14.4952
 193   2.0000      -0.529494       -14.4083
 194   2.0000      -0.525158       -14.2903
 195   2.0000      -0.523739       -14.2517
 196   2.0000      -0.516026       -14.0418
 197   2.0000      -0.513367       -13.9694
 198   2.0000      -0.511493       -13.9184
 199   2.0000      -0.507804       -13.8181
 200   2.0000      -0.506123       -13.7723
 201   2.0000      -0.503378       -13.6976
 202   2.0000      -0.502909       -13.6848
 203   2.0000      -0.500366       -13.6157
 204   2.0000      -0.497520       -13.5382
 205   2.0000      -0.495352       -13.4792
 206   2.0000      -0.494146       -13.4464
 207   2.0000      -0.492230       -13.3942
 208   2.0000      -0.488870       -13.3028
 209   2.0000      -0.488047       -13.2804
 210   2.0000      -0.483351       -13.1527
 211   2.0000      -0.481550       -13.1036
 212   2.0000      -0.477557       -12.9950
 213   2.0000      -0.473633       -12.8882
 214   2.0000      -0.471119       -12.8198
 215   2.0000      -0.470703       -12.8085
 216   2.0000      -0.468346       -12.7443
 217   2.0000      -0.466215       -12.6864
 218   2.0000      -0.464439       -12.6380
 219   2.0000      -0.463210       -12.6046
 220   2.0000      -0.459685       -12.5087
 221   2.0000      -0.457125       -12.4390
 222   2.0000      -0.454716       -12.3734
 223   2.0000      -0.454467       -12.3667
 224   2.0000      -0.453852       -12.3499
 225   2.0000      -0.451401       -12.2832
 226   2.0000      -0.450013       -12.2455
 227   2.0000      -0.448428       -12.2024
 228   2.0000      -0.447525       -12.1778
 229   2.0000      -0.443961       -12.0808
 230   2.0000      -0.441299       -12.0083
 231   2.0000      -0.437116       -11.8945
 232   2.0000      -0.431739       -11.7482
 233   2.0000      -0.431419       -11.7395
 234   2.0000      -0.428037       -11.6475
 235   2.0000      -0.427231       -11.6255
 236   2.0000      -0.421938       -11.4815
 237   2.0000      -0.420974       -11.4553
 238   2.0000      -0.418884       -11.3984
 239   2.0000      -0.417196       -11.3525
 240   2.0000      -0.414440       -11.2775
 241   2.0000      -0.413490       -11.2516
 242   2.0000      -0.408971       -11.1287
 243   2.0000      -0.405130       -11.0242
 244   2.0000      -0.403779       -10.9874
 245   2.0000      -0.396277       -10.7832
 246   2.0000      -0.393386       -10.7046
 247   2.0000      -0.391417       -10.6510
 248   2.0000      -0.389202       -10.5907
 249   2.0000      -0.387023       -10.5314
 250   2.0000      -0.379250       -10.3199
 251   2.0000      -0.377262       -10.2658
 252   2.0000      -0.375782       -10.2255
 253   2.0000      -0.368716       -10.0333
 254   2.0000      -0.368633       -10.0310
 255   2.0000      -0.366245        -9.9660
 256   2.0000      -0.362130        -9.8540
 257   2.0000      -0.349015        -9.4972
 258   2.0000      -0.343305        -9.3418
 259   2.0000      -0.337402        -9.1812
 260   2.0000      -0.327650        -8.9158
 261   2.0000      -0.325280        -8.8513
 262   2.0000      -0.323044        -8.7905
 263   2.0000      -0.321703        -8.7540
 264   2.0000      -0.310989        -8.4625
 265   2.0000      -0.304033        -8.2732
 266   2.0000      -0.298320        -8.1177
 267   2.0000      -0.285548        -7.7702
 268   2.0000      -0.269017        -7.3203
 269   2.0000      -0.260926        -7.1002
 270   2.0000      -0.241344        -6.5673
 271   2.0000      -0.200025        -5.4429
 272   0.0000      -0.098954        -2.6927
 273   0.0000      -0.091670        -2.4945
 274   0.0000      -0.077185        -2.1003
 275   0.0000      -0.073017        -1.9869
 276   0.0000      -0.045023        -1.2251

MULLIKEN ATOMIC CHARGES
-----------------------
   0 C :    0.326173
   1 C :   -0.341494
   2 C :   -0.184836
   3 N :    0.151509
   4 C :   -0.198804
   5 N :    0.146438
   6 C :    0.009418
   7 C :    0.000069
   8 C :   -0.073495
   9 C :    0.112800
  10 C :   -0.089914
  11 C :   -0.021681
  12 S :    0.191628
  13 C :   -0.125375
  14 C :    0.039083
  15 Br:    0.029541
  16 C :    0.172074
  17 O :   -0.234266
  18 C :   -0.133987
  19 C :    0.033302
  20 N :   -0.006529
  21 C :   -0.128267
  22 S :    0.180928
  23 C :    0.001414
  24 N :    0.273513
  25 O :   -0.246666
  26 O :   -0.255087
  27 C :    0.002086
  28 C :    0.146403
  29 C :   -0.063990
  30 C :    0.059629
  31 C :   -0.140113
  32 S :    0.117788
  33 C :   -0.115155
  34 C :   -0.063512
  35 C :   -0.094052
  36 C :    0.117786
  37 C :    0.053582
  38 C :   -0.110445
  39 C :    0.162653
  40 O :   -0.175370
  41 C :    0.119957
  42 C :    0.025241
  43 C :   -0.010638
  44 C :   -0.009660
  45 C :   -0.020843
  46 C :    0.035471
  47 C :    0.025550
  48 C :   -0.043639
  49 S :    0.046239
  50 C :   -0.025515
  51 C :    0.020148
  52 C :    0.039073
  53 C :   -0.023771
  54 S :    0.053056
  55 C :   -0.009411
  56 C :    0.056405
  57 C :   -0.035055
  58 C :    0.061560
  59 C :   -0.004168
  60 C :    0.061682
  61 C :   -0.030620
  62 C :    0.063278
  63 C :   -0.022599
  64 C :    0.051421
  65 C :   -0.000899
  66 C :    0.054621
  67 C :   -0.043853
  68 C :    0.010274
  69 C :   -0.024101
  70 H :   -0.007770
  71 H :   -0.004331
  72 H :    0.005193
  73 H :    0.044893
  74 H :    0.188647
  75 H :    0.014663
  76 H :   -0.034345
  77 H :   -0.022664
  78 H :    0.019732
  79 H :    0.050317
  80 H :    0.004355
  81 H :    0.013690
  82 H :    0.011692
  83 H :   -0.017964
  84 H :    0.029850
  85 H :    0.031677
  86 H :   -0.020055
  87 H :   -0.001528
  88 H :   -0.019002
  89 H :   -0.014745
  90 H :   -0.013194
  91 H :   -0.017220
  92 H :   -0.014595
  93 H :   -0.026031
  94 H :   -0.025420
  95 H :   -0.027878
  96 H :   -0.028708
  97 H :   -0.026068
  98 H :   -0.028922
  99 H :   -0.015853
 100 H :   -0.019659
 101 H :    0.007234
 102 H :    0.020026
Sum of atomic charges:   -0.0000000

LOEWDIN ATOMIC CHARGES
----------------------
   0 C :    0.078720
   1 C :   -0.148917
   2 C :   -0.019969
   3 N :   -0.053528
   4 C :   -0.020653
   5 N :   -0.053255
   6 C :   -0.018296
   7 C :   -0.052475
   8 C :    0.024882
   9 C :   -0.033631
  10 C :   -0.143730
  11 C :   -0.007063
  12 S :    0.437670
  13 C :   -0.270900
  14 C :   -0.068233
  15 Br:    0.140693
  16 C :    0.100306
  17 O :   -0.183582
  18 C :   -0.149063
  19 C :    0.113528
  20 N :    0.084530
  21 C :   -0.122371
  22 S :    0.468737
  23 C :   -0.198099
  24 N :    0.272996
  25 O :   -0.213067
  26 O :   -0.222303
  27 C :    0.001615
  28 C :   -0.076676
  29 C :   -0.049958
  30 C :   -0.024315
  31 C :   -0.183091
  32 S :    0.430470
  33 C :   -0.164981
  34 C :   -0.060561
  35 C :   -0.046852
  36 C :   -0.027894
  37 C :   -0.012601
  38 C :   -0.066150
  39 C :    0.117334
  40 O :   -0.127406
  41 C :   -0.021177
  42 C :   -0.051066
  43 C :   -0.030838
  44 C :   -0.063697
  45 C :   -0.139680
  46 C :   -0.040715
  47 C :   -0.028905
  48 C :   -0.184266
  49 S :    0.362068
  50 C :   -0.173564
  51 C :   -0.045741
  52 C :   -0.026251
  53 C :   -0.153870
  54 S :    0.384579
  55 C :   -0.043483
  56 C :   -0.066672
  57 C :    0.040199
  58 C :   -0.063831
  59 C :    0.066937
  60 C :   -0.056062
  61 C :    0.010412
  62 C :   -0.057213
  63 C :    0.043334
  64 C :   -0.060062
  65 C :    0.066060
  66 C :   -0.052909
  67 C :   -0.007932
  68 C :   -0.020780
  69 C :   -0.054682
  70 H :    0.042268
  71 H :    0.042186
  72 H :    0.041966
  73 H :    0.037713
  74 H :    0.082718
  75 H :    0.045484
  76 H :    0.026762
  77 H :    0.027091
  78 H :    0.034820
  79 H :    0.035429
  80 H :    0.022828
  81 H :    0.027925
  82 H :    0.033674
  83 H :   -0.010174
  84 H :    0.029419
  85 H :    0.037231
  86 H :    0.027274
  87 H :    0.019372
  88 H :    0.031381
  89 H :    0.032732
  90 H :    0.031979
  91 H :    0.030571
  92 H :    0.032680
  93 H :    0.032968
  94 H :    0.024379
  95 H :    0.034005
  96 H :    0.023583
  97 H :    0.024245
  98 H :    0.033618
  99 H :    0.010796
 100 H :    0.029208
 101 H :    0.017457
 102 H :    0.024358

  Mayer bond orders larger than 0.100000
B(  0-C ,  1-C ) :   1.6277 B(  0-C ,  6-C ) :   1.0014 B(  0-C , 18-C ) :   1.0965
B(  1-C ,  2-C ) :   1.1436 B(  1-C ,  4-C ) :   1.1485 B(  2-C ,  3-N ) :   2.9683
B(  4-C ,  5-N ) :   2.9561 B(  6-C ,  7-C ) :   1.2727 B(  6-C , 11-C ) :   1.4296
B(  7-C ,  8-C ) :   1.4151 B(  7-C , 16-C ) :   0.9863 B(  8-C ,  9-C ) :   1.2449
B(  8-C , 70-H ) :   1.0203 B(  9-C , 10-C ) :   1.3109 B(  9-C , 14-C ) :   1.1623
B( 10-C , 11-C ) :   1.3151 B( 10-C , 12-S ) :   1.0911 B( 11-C , 71-H ) :   0.9801
B( 12-S , 13-C ) :   1.0881 B( 13-C , 14-C ) :   1.6155 B( 13-C , 15-Br) :   1.0233
B( 14-C , 72-H ) :   1.0016 B( 16-C , 17-O ) :   1.9771 B( 16-C , 18-C ) :   1.0250
B( 17-O , 74-H ) :   0.1495 B( 18-C , 19-C ) :   1.4267 B( 19-C , 20-N ) :   1.3566
B( 19-C , 73-H ) :   0.9347 B( 20-N , 21-C ) :   1.1924 B( 20-N , 74-H ) :   0.8198
B( 21-C , 22-S ) :   1.1266 B( 21-C , 28-C ) :   1.3618 B( 22-S , 23-C ) :   1.0858
B( 23-C , 24-N ) :   0.9632 B( 23-C , 27-C ) :   1.5037 B( 24-N , 25-O ) :   1.5351
B( 24-N , 26-O ) :   1.5176 B( 25-O , 26-O ) :   0.2627 B( 27-C , 28-C ) :   1.2142
B( 27-C , 75-H ) :   0.9992 B( 28-C , 29-C ) :   1.0902 B( 29-C , 30-C ) :   1.7001
B( 29-C , 76-H ) :   0.9536 B( 30-C , 31-C ) :   1.1369 B( 30-C , 77-H ) :   0.9516
B( 31-C , 32-S ) :   1.1091 B( 31-C , 35-C ) :   1.4745 B( 32-S , 33-C ) :   1.1183
B( 33-C , 34-C ) :   1.4606 B( 33-C , 42-C ) :   1.1423 B( 34-C , 35-C ) :   1.3554
B( 34-C , 41-C ) :   1.0485 B( 35-C , 36-C ) :   1.0505 B( 36-C , 37-C ) :   1.0899
B( 36-C , 78-H ) :   0.9074 B( 36-C , 79-H ) :   0.8906 B( 37-C , 38-C ) :   1.0242
B( 37-C , 80-H ) :   0.9314 B( 37-C , 81-H ) :   0.9337 B( 38-C , 39-C ) :   0.9347
B( 38-C , 41-C ) :   1.0138 B( 38-C , 82-H ) :   0.9196 B( 39-C , 40-O ) :   2.2166
B( 39-C , 83-H ) :   0.9383 B( 41-C , 84-H ) :   0.8949 B( 41-C , 85-H ) :   0.9167
B( 42-C , 43-C ) :   1.6151 B( 42-C , 86-H ) :   0.9575 B( 43-C , 44-C ) :   1.1810
B( 43-C , 87-H ) :   0.9632 B( 44-C , 45-C ) :   1.5289 B( 44-C , 88-H ) :   0.9861
B( 45-C , 46-C ) :   1.1588 B( 45-C , 49-S ) :   1.0392 B( 46-C , 47-C ) :   1.5673
B( 46-C , 89-H ) :   0.9991 B( 47-C , 48-C ) :   1.2082 B( 47-C , 90-H ) :   0.9939
B( 48-C , 49-S ) :   1.0405 B( 48-C , 50-C ) :   1.4853 B( 50-C , 51-C ) :   1.1959
B( 50-C , 54-S ) :   1.0485 B( 51-C , 52-C ) :   1.5785 B( 51-C , 91-H ) :   0.9934
B( 52-C , 53-C ) :   1.1517 B( 52-C , 92-H ) :   0.9985 B( 53-C , 54-S ) :   1.0310
B( 53-C , 55-C ) :   1.5624 B( 55-C , 56-C ) :   1.1430 B( 55-C , 93-H ) :   0.9690
B( 56-C , 57-C ) :   1.1161 B( 56-C , 67-C ) :   1.4428 B( 57-C , 58-C ) :   1.4476
B( 57-C , 94-H ) :   1.0159 B( 58-C , 59-C ) :   1.1128 B( 58-C , 66-C ) :   1.1294
B( 59-C , 60-C ) :   1.4770 B( 59-C , 95-H ) :   1.0050 B( 60-C , 61-C ) :   1.0825
B( 60-C , 64-C ) :   1.1244 B( 61-C , 62-C ) :   1.5093 B( 61-C , 96-H ) :   1.0168
B( 62-C , 63-C ) :   1.1436 B( 62-C , 68-C ) :   1.0850 B( 63-C , 64-C ) :   1.4356
B( 63-C , 97-H ) :   1.0080 B( 64-C , 65-C ) :   1.1365 B( 65-C , 66-C ) :   1.4345
B( 65-C , 98-H ) :   1.0033 B( 66-C , 67-C ) :   1.1369 B( 67-C , 99-H ) :   0.9944
B( 68-C , 69-C ) :   1.9330 B( 68-C ,100-H ) :   0.9667 B( 69-C ,101-H ) :   0.9526
B( 69-C ,102-H ) :   0.9490

-----------------------------------------------------------------------------
         ABSORPTION SPECTRUM VIA TRANSITION ELECTRIC DIPOLE MOMENTS
-----------------------------------------------------------------------------
State   Energy  Wavelength   fosc         T2         TX        TY        TZ
        (cm-1)    (nm)                  (au**2)     (au)      (au)      (au)
-----------------------------------------------------------------------------
   0    6730.6   1485.7   0.065446696   3.20117  -1.03961  -0.77452  -1.23308
   1   12554.6    796.5   0.932562635  24.45411   2.50144  -0.70548   4.20704
   2   14422.0    693.4   0.029224081   0.66710   0.12555   0.79108   0.15978
   3   15327.9    652.4   0.414694914   8.90683   0.99121   1.91390   2.06430
   4   17759.4    563.1   0.060365583   1.11902   0.19322   0.81659   0.64410
   5   20600.6    485.4   0.521330674   8.33121   0.47419  -2.82896  -0.32152
   6   21802.1    458.7   0.269269310   4.06596   0.05693   1.88918   0.70264
   7   22317.9    448.1   0.076619565   1.13022   0.22136   0.66893   0.79609
   8   23119.1    432.5   1.255787016  17.88217   1.14613   3.71804  -1.65673
   9   23941.2    417.7   0.028697633   0.39462   0.21544   0.58511  -0.07650
  10   24176.9    413.6   0.190954775   2.60019   0.53721   0.56494  -1.41154
  11   25558.0    391.3   0.609688130   7.85337  -0.97649  -2.15405   1.50330
  12   25916.2    385.9   0.372697040   4.73434   0.09536  -1.99943  -0.85295
  13   27187.8    367.8   0.027726287   0.33573  -0.47493   0.19710   0.26707
  14   27399.6    365.0   0.003757918   0.04515  -0.11822  -0.05885  -0.16647
  15   28431.7    351.7   0.004668598   0.05406  -0.17800   0.08815   0.12085
  16   28911.2    345.9   0.007410039   0.08438  -0.11312  -0.17770   0.20001
  17   29304.2    341.2   0.008568602   0.09626   0.29118   0.10708   0.00294
  18   29538.7    338.5   0.846936961   9.43921   0.74391   0.23871  -2.97133
  19   29974.4    333.6   0.180985405   1.98778  -0.09401   1.39457   0.18468
  20   30421.9    328.7   0.055370093   0.59919  -0.26625   0.08111   0.72230
  21   30609.7    326.7   0.081284891   0.87423  -0.17231  -0.66724  -0.63192
  22   31071.6    321.8   0.023077709   0.24451   0.02008   0.42396   0.25371
  23   31559.7    316.9   0.007861982   0.08201  -0.01808   0.12933   0.25487
  24   32212.3    310.4   0.119001251   1.21620   0.15625   0.90871  -0.60501
  25   32522.8    307.5   0.107496187   1.08813   0.19093  -0.53921  -0.87231
  26   32862.1    304.3   0.003377127   0.03383  -0.06067  -0.14799  -0.09083
  27   33087.5    302.2   0.014582513   0.14509  -0.06340  -0.18663   0.32594
  28   33410.3    299.3   0.010814421   0.10656  -0.00504  -0.26764  -0.18683
  29   33691.0    296.8   0.023628422   0.23089   0.18737   0.44066  -0.03991
  30   33830.3    295.6   0.177986200   1.73203  -0.24179  -1.01096   0.80718
  31   34006.3    294.1   0.253061636   2.44987  -0.04148  -0.05780   1.56359
  32   34070.8    293.5   0.057595508   0.55652   0.07658  -0.03821   0.74108
  33   34261.1    291.9   0.001595385   0.01533   0.02504   0.02760  -0.11807
  34   34641.8    288.7   0.006334668   0.06020   0.03052   0.23976  -0.04226
  35   34711.5    288.1   0.169617601   1.60869   0.23898   0.70948  -1.02383
  36   35195.7    284.1   0.061968426   0.57964   0.01816  -0.39963   0.64776
  37   35332.3    283.0   0.002555315   0.02381   0.09071  -0.03913  -0.11853
  38   35465.8    282.0   0.020795538   0.19303  -0.09650   0.31273  -0.29312
  39   35585.9    281.0   0.004746084   0.04391   0.02198  -0.17100   0.11910
  40   35708.1    280.0   0.010650724   0.09819   0.03685   0.11092  -0.29075
  41   36314.2    275.4   0.099955554   0.90616   0.14343   0.68038  -0.65014
  42   36471.7    274.2   0.117625968   1.06175   0.05454   0.70433  -0.75013
  43   36630.2    273.0   0.069504092   0.62466  -0.11112  -0.76600   0.15989
  44   36852.8    271.3   0.008804769   0.07865  -0.20155   0.00138  -0.19501
  45   36946.6    270.7   0.001926859   0.01717   0.00244   0.10503  -0.07831
  46   37467.8    266.9   0.075820195   0.66620  -0.13283  -0.71808   0.36457
  47   37761.8    264.8   0.062092088   0.54133  -0.25332   0.65020   0.23323
  48   37833.6    264.3   0.236674756   2.05944  -0.33802  -0.54942   1.28192
  49   37893.9    263.9   0.167097032   1.45169   0.12646  -1.14767  -0.34431
  50   38340.9    260.8   0.032725391   0.28099  -0.04515   0.26911  -0.45446
  51   38609.5    259.0   0.023929721   0.20404   0.04557  -0.23502   0.38305
  52   38783.9    257.8   0.186520125   1.58325   0.05259  -1.14678   0.51514
  53   39016.8    256.3   0.005781988   0.04879   0.19998   0.04733   0.08096
  54   39255.8    254.7   0.046861238   0.39299  -0.13813  -0.32108   0.52040
  55   39424.6    253.6   0.045147363   0.37700  -0.03431  -0.59250   0.15737
  56   39841.6    251.0   0.027109231   0.22400   0.16404   0.43267  -0.09946
  57   40152.7    249.0   0.021087496   0.17290   0.21595   0.29159  -0.20308
  58   40188.6    248.8   0.013981669   0.11453   0.03730   0.18515   0.28082

FINAL SINGLE POINT ENERGY     -7234.408755778917

DIPOLE MOMENT
-------------
                                X             Y             Z
Electronic contribution:     77.13716    -114.04374      15.19446
Nuclear contribution   :    -77.61567     116.45770     -19.41300
                        -----------------------------------------
Total Dipole Moment    :     -0.47850       2.41396      -4.21854
                        -----------------------------------------
Magnitude (a.u.)       :      4.88388
Magnitude (Debye)      :     12.41383

Rotational constants in cm-1:     0.000661     0.000364     0.000275
Rotational constants in MHz :    19.809567    10.914334     8.231571

                             ****ORCA TERMINATED NORMALLY****
TOTAL RUN TIME: 0 days 0 hours 11 minutes 48 seconds 586 msec
