                         Program Version 4.2.0 -  RELEASE  -
|  1> # ORCA input file
|  2> # SCF done       -192.439199140882          0.000337032035
|  3> ! CAM-B3LYP def2-SVP def2/J RIJCOSX Grid4 TightSCF
|  4> %maxcore 5000
|  5> %tddft
|  6>     Mode sTDDFT
|  7>     Ethresh 5.0
|  8>     maxcore 5000
|  9> end
| 10>
| 11> %pal
| 12>   nprocs 6
| 13>   end
| 14> * xyz 0 1
| 15>    C       -8.08814        -1.76790        -1.79048
| 16>    C       -8.30531        -1.62747        -3.14450
| 17>    C       -9.01168        -2.55617        -3.92863
| 18>    N       -9.60911        -3.24689        -4.62671
| 19>    C       -7.90102        -0.54517        -3.94241
| 20>    N       -7.59486         0.27272        -4.69176
| 21>    C       -8.43052        -2.95569        -1.01418
| 22>    C       -8.12573        -2.70943         0.34604
| 23>    C       -8.33007        -3.64270         1.33037
| 24>    C       -8.84357        -4.88957         0.95216
| 25>    C       -9.13628        -5.12977        -0.41015
| 26>    C       -8.93992        -4.17914        -1.40507
| 27>    S       -9.75742        -6.73372        -0.65876
| 28>    C       -9.61585        -7.05546         1.04830
| 29>    C       -9.12957        -6.01700         1.76918
| 30>   Br      -10.12262        -8.73152         1.72072
| 31>    C       -7.59842        -1.33331         0.48072
| 32>    O       -7.42395        -0.73453         1.52218
| 33>    C       -7.49806        -0.80868        -0.89433
| 34>    C       -7.10263         0.46778        -1.23111
| 35>    C       -6.39525         1.39123        -0.45555
| 36>    S       -6.61121         3.08626        -0.84173
| 37>    C       -5.62147         3.59449         0.49331
| 38>    C       -5.06899         2.47255         1.13845
| 39>    C       -5.49489         1.24510         0.61600
| 40>    O       -5.05683         0.02846         1.00221
| 41>    C       -4.75707        -0.10071         2.38481
| 42>    C       -3.35968         0.39973         2.75765
| 43>    C       -3.05982         1.75169         2.10297
| 44>    O       -4.15396         2.65482         2.13676
| 45>    C       -5.41131         4.92435         0.86518
| 46>    C       -5.88205         6.03753         0.20211
| 47>    C       -5.72650         7.39381         0.57685
| 48>    C       -6.30037         8.28684        -0.28437
| 49>    C       -6.92246         7.68116        -1.39191
| 50>    S       -6.78269         5.93649        -1.28882
| 51>    C       -7.56843         8.21188        -2.49705
| 52>    C       -7.89060         9.54034        -2.85268
| 53>    C       -8.54271         9.64035        -4.04703
| 54>    C       -8.74988         8.40180        -4.70943
| 55>    S       -8.08720         7.10740        -3.73770
| 56>    C       -9.45992         8.15695        -5.86162
| 57>    C       -9.55762         6.87443        -6.43790
| 58>    S      -10.99480         6.31486        -7.25321
| 59>    C      -10.38364         4.68489        -7.37538
| 60>    C       -9.10248         4.60484        -6.81584
| 61>    C       -8.61358         5.84675        -6.36600
| 62>    O       -7.32767         6.10144        -6.01384
| 63>    C       -6.35312         5.26473        -6.62077
| 64>    C       -6.20231         3.91877        -5.90726
| 65>    C       -7.57377         3.35421        -5.54141
| 66>    O       -8.49970         3.41678        -6.62148
| 67>    C      -11.20783         3.64179        -7.82833
| 68>    C      -10.88408         2.34144        -8.10798
| 69>    C       -9.63857         1.66568        -8.36283
| 70>    C       -8.51282         2.20678        -8.93342
| 71>    C       -7.33344         1.48786        -9.20528
| 72>    N       -6.33228         0.97350        -9.43380
| 73>    C       -8.41384         3.55025        -9.33395
| 74>    N       -8.27887         4.64436        -9.65837
| 75>    C       -9.85065         0.24643        -8.10540
| 76>    C      -11.23860         0.01855        -7.92847
| 77>    C      -11.95441         1.30695        -8.02100
| 78>    O      -13.14830         1.50045        -7.98371
| 79>    C      -11.75085        -1.23196        -7.68029
| 80>    C      -10.85216        -2.30110        -7.59129
| 81>    C       -9.46754        -2.05695        -7.75537
| 82>    C       -8.94846        -0.79433        -8.01508
| 83>    S       -8.53921        -3.51283        -7.59227
| 84>    C       -9.99943        -4.41675        -7.30406
| 85>    C      -11.12820        -3.67203        -7.33604
| 86>   Br       -9.89288        -6.25443        -6.98101
| 87>    H       -8.09649        -3.42490         2.36079
| 88>    H       -9.18074        -4.41120        -2.42895
| 89>    H       -8.97909        -6.04385         2.83298
| 90>    H       -7.42374         0.85016        -2.19381
| 91>    H       -5.51841         0.43088         2.96470
| 92>    H       -4.84662        -1.16795         2.59684
| 93>    H       -2.59956        -0.31057         2.43104
| 94>    H       -3.31432         0.48489         3.84350
| 95>    H       -2.25149         2.25879         2.63579
| 96>    H       -2.75002         1.59935         1.06112
| 97>    H       -4.82872         5.07340         1.76404
| 98>    H       -5.19747         7.66874         1.47219
| 99>    H       -6.27798         9.35432        -0.15542
|100>    H       -7.64650        10.37601        -2.22129
|101>    H       -8.87796        10.56652        -4.47982
|102>    H      -10.03900         8.95877        -6.29714
|103>    H       -6.61668         5.11028        -7.67427
|104>    H       -5.42129         5.83225        -6.57112
|105>    H       -5.63168         4.03446        -4.98583
|106>    H       -5.67247         3.23344        -6.56883
|107>    H       -7.50147         2.29250        -5.29503
|108>    H       -7.98374         3.89752        -4.68063
|109>    H      -12.27045         3.86292        -7.85901
|110>    H      -12.81147        -1.38313        -7.55319
|111>    H       -7.88579        -0.64973        -8.11868
|112>    H      -12.11375        -4.06761        -7.17184
|113> *
|114>
|115>                          ****END OF INPUT****

CARTESIAN COORDINATES (ANGSTROEM)
---------------------------------
  C     -8.088140   -1.767900   -1.790480
  C     -8.305310   -1.627470   -3.144500
  C     -9.011680   -2.556170   -3.928630
  N     -9.609110   -3.246890   -4.626710
  C     -7.901020   -0.545170   -3.942410
  N     -7.594860    0.272720   -4.691760
  C     -8.430520   -2.955690   -1.014180
  C     -8.125730   -2.709430    0.346040
  C     -8.330070   -3.642700    1.330370
  C     -8.843570   -4.889570    0.952160
  C     -9.136280   -5.129770   -0.410150
  C     -8.939920   -4.179140   -1.405070
  S     -9.757420   -6.733720   -0.658760
  C     -9.615850   -7.055460    1.048300
  C     -9.129570   -6.017000    1.769180
  Br   -10.122620   -8.731520    1.720720
  C     -7.598420   -1.333310    0.480720
  O     -7.423950   -0.734530    1.522180
  C     -7.498060   -0.808680   -0.894330
  C     -7.102630    0.467780   -1.231110
  C     -6.395250    1.391230   -0.455550
  S     -6.611210    3.086260   -0.841730
  C     -5.621470    3.594490    0.493310
  C     -5.068990    2.472550    1.138450
  C     -5.494890    1.245100    0.616000
  O     -5.056830    0.028460    1.002210
  C     -4.757070   -0.100710    2.384810
  C     -3.359680    0.399730    2.757650
  C     -3.059820    1.751690    2.102970
  O     -4.153960    2.654820    2.136760
  C     -5.411310    4.924350    0.865180
  C     -5.882050    6.037530    0.202110
  C     -5.726500    7.393810    0.576850
  C     -6.300370    8.286840   -0.284370
  C     -6.922460    7.681160   -1.391910
  S     -6.782690    5.936490   -1.288820
  C     -7.568430    8.211880   -2.497050
  C     -7.890600    9.540340   -2.852680
  C     -8.542710    9.640350   -4.047030
  C     -8.749880    8.401800   -4.709430
  S     -8.087200    7.107400   -3.737700
  C     -9.459920    8.156950   -5.861620
  C     -9.557620    6.874430   -6.437900
  S    -10.994800    6.314860   -7.253210
  C    -10.383640    4.684890   -7.375380
  C     -9.102480    4.604840   -6.815840
  C     -8.613580    5.846750   -6.366000
  O     -7.327670    6.101440   -6.013840
  C     -6.353120    5.264730   -6.620770
  C     -6.202310    3.918770   -5.907260
  C     -7.573770    3.354210   -5.541410
  O     -8.499700    3.416780   -6.621480
  C    -11.207830    3.641790   -7.828330
  C    -10.884080    2.341440   -8.107980
  C     -9.638570    1.665680   -8.362830
  C     -8.512820    2.206780   -8.933420
  C     -7.333440    1.487860   -9.205280
  N     -6.332280    0.973500   -9.433800
  C     -8.413840    3.550250   -9.333950
  N     -8.278870    4.644360   -9.658370
  C     -9.850650    0.246430   -8.105400
  C    -11.238600    0.018550   -7.928470
  C    -11.954410    1.306950   -8.021000
  O    -13.148300    1.500450   -7.983710
  C    -11.750850   -1.231960   -7.680290
  C    -10.852160   -2.301100   -7.591290
  C     -9.467540   -2.056950   -7.755370
  C     -8.948460   -0.794330   -8.015080
  S     -8.539210   -3.512830   -7.592270
  C     -9.999430   -4.416750   -7.304060
  C    -11.128200   -3.672030   -7.336040
  Br    -9.892880   -6.254430   -6.981010
  H     -8.096490   -3.424900    2.360790
  H     -9.180740   -4.411200   -2.428950
  H     -8.979090   -6.043850    2.832980
  H     -7.423740    0.850160   -2.193810
  H     -5.518410    0.430880    2.964700
  H     -4.846620   -1.167950    2.596840
  H     -2.599560   -0.310570    2.431040
  H     -3.314320    0.484890    3.843500
  H     -2.251490    2.258790    2.635790
  H     -2.750020    1.599350    1.061120
  H     -4.828720    5.073400    1.764040
  H     -5.197470    7.668740    1.472190
  H     -6.277980    9.354320   -0.155420
  H     -7.646500   10.376010   -2.221290
  H     -8.877960   10.566520   -4.479820
  H    -10.039000    8.958770   -6.297140
  H     -6.616680    5.110280   -7.674270
  H     -5.421290    5.832250   -6.571120
  H     -5.631680    4.034460   -4.985830
  H     -5.672470    3.233440   -6.568830
  H     -7.501470    2.292500   -5.295030
  H     -7.983740    3.897520   -4.680630
  H    -12.270450    3.862920   -7.859010
  H    -12.811470   -1.383130   -7.553190
  H     -7.885790   -0.649730   -8.118680
  H    -12.113750   -4.067610   -7.171840

 Total Charge           Charge          ....    0
 Multiplicity           Mult            ....    1
 Number of Electrons    NEL             ....  592
 Basis Dimension        Dim             .... 1198

ORBITAL ENERGIES
----------------

  NO   OCC          E(Eh)            E(eV)
   0   2.0000    -482.881815    -13139.8822
   1   2.0000    -482.864946    -13139.4232
   2   2.0000     -88.970062     -2420.9985
   3   2.0000     -88.965864     -2420.8842
   4   2.0000     -88.958832     -2420.6929
   5   2.0000     -88.957624     -2420.6600
   6   2.0000     -88.951669     -2420.4980
   7   2.0000     -88.950700     -2420.4716
   8   2.0000     -62.559530     -1702.3314
   9   2.0000     -62.542687     -1701.8730
  10   2.0000     -56.393473     -1534.5444
  11   2.0000     -56.390774     -1534.4710
  12   2.0000     -56.390735     -1534.4699
  13   2.0000     -56.376580     -1534.0847
  14   2.0000     -56.373957     -1534.0134
  15   2.0000     -56.373929     -1534.0126
  16   2.0000     -19.260808      -524.1132
  17   2.0000     -19.255861      -523.9786
  18   2.0000     -19.254246      -523.9347
  19   2.0000     -19.251886      -523.8704
  20   2.0000     -19.203309      -522.5486
  21   2.0000     -19.197199      -522.3824
  22   2.0000     -14.414990      -392.2518
  23   2.0000     -14.406115      -392.0103
  24   2.0000     -14.399818      -391.8390
  25   2.0000     -14.397999      -391.7895
  26   2.0000     -10.354117      -281.7498
  27   2.0000     -10.353842      -281.7424
  28   2.0000     -10.353452      -281.7318
  29   2.0000     -10.349986      -281.6374
  30   2.0000     -10.347936      -281.5816
  31   2.0000     -10.342312      -281.4286
  32   2.0000     -10.340386      -281.3762
  33   2.0000     -10.333731      -281.1951
  34   2.0000     -10.333581      -281.1910
  35   2.0000     -10.332771      -281.1690
  36   2.0000     -10.328310      -281.0476
  37   2.0000     -10.327376      -281.0222
  38   2.0000     -10.324403      -280.9413
  39   2.0000     -10.322967      -280.9022
  40   2.0000     -10.322509      -280.8897
  41   2.0000     -10.321606      -280.8652
  42   2.0000     -10.320750      -280.8419
  43   2.0000     -10.319437      -280.8062
  44   2.0000     -10.318219      -280.7730
  45   2.0000     -10.317738      -280.7599
  46   2.0000     -10.317418      -280.7512
  47   2.0000     -10.316810      -280.7347
  48   2.0000     -10.314206      -280.6638
  49   2.0000     -10.314184      -280.6632
  50   2.0000     -10.312651      -280.6215
  51   2.0000     -10.311245      -280.5832
  52   2.0000     -10.308183      -280.4999
  53   2.0000     -10.307616      -280.4845
  54   2.0000     -10.303722      -280.3785
  55   2.0000     -10.302814      -280.3538
  56   2.0000     -10.302236      -280.3381
  57   2.0000     -10.301629      -280.3216
  58   2.0000     -10.300991      -280.3042
  59   2.0000     -10.300925      -280.3024
  60   2.0000     -10.300242      -280.2838
  61   2.0000     -10.299559      -280.2652
  62   2.0000     -10.299215      -280.2559
  63   2.0000     -10.298437      -280.2347
  64   2.0000     -10.297180      -280.2005
  65   2.0000     -10.293527      -280.1011
  66   2.0000     -10.293132      -280.0904
  67   2.0000     -10.291853      -280.0556
  68   2.0000     -10.290838      -280.0280
  69   2.0000     -10.285575      -279.8847
  70   2.0000     -10.283873      -279.8384
  71   2.0000     -10.283608      -279.8312
  72   2.0000     -10.282910      -279.8122
  73   2.0000     -10.282703      -279.8066
  74   2.0000     -10.280246      -279.7397
  75   2.0000     -10.280161      -279.7374
  76   2.0000     -10.279731      -279.7257
  77   2.0000     -10.271256      -279.4951
  78   2.0000     -10.271206      -279.4937
  79   2.0000     -10.267700      -279.3983
  80   2.0000      -8.788957      -239.1597
  81   2.0000      -8.772136      -238.7020
  82   2.0000      -8.066069      -219.4889
  83   2.0000      -8.061124      -219.3543
  84   2.0000      -8.054417      -219.1718
  85   2.0000      -8.053889      -219.1575
  86   2.0000      -8.047523      -218.9842
  87   2.0000      -8.046755      -218.9633
  88   2.0000      -6.625192      -180.2806
  89   2.0000      -6.610716      -179.8867
  90   2.0000      -6.610537      -179.8818
  91   2.0000      -6.608245      -179.8195
  92   2.0000      -6.593948      -179.4304
  93   2.0000      -6.593820      -179.4270
  94   2.0000      -6.035732      -164.2406
  95   2.0000      -6.031517      -164.1259
  96   2.0000      -6.030543      -164.0994
  97   2.0000      -6.027290      -164.0109
  98   2.0000      -6.026688      -163.9945
  99   2.0000      -6.023930      -163.9195
 100   2.0000      -6.023564      -163.9095
 101   2.0000      -6.022597      -163.8832
 102   2.0000      -6.020197      -163.8179
 103   2.0000      -6.019377      -163.7956
 104   2.0000      -6.017215      -163.7368
 105   2.0000      -6.016502      -163.7173
 106   2.0000      -6.015600      -163.6928
 107   2.0000      -6.015001      -163.6765
 108   2.0000      -6.013003      -163.6221
 109   2.0000      -6.012189      -163.6000
 110   2.0000      -6.008721      -163.5056
 111   2.0000      -6.007750      -163.4792
 112   2.0000      -2.741105       -74.5893
 113   2.0000      -2.736991       -74.4773
 114   2.0000      -2.736866       -74.4739
 115   2.0000      -2.725349       -74.1605
 116   2.0000      -2.725340       -74.1603
 117   2.0000      -2.724173       -74.1285
 118   2.0000      -2.720115       -74.0181
 119   2.0000      -2.720058       -74.0165
 120   2.0000      -2.708665       -73.7065
 121   2.0000      -2.708659       -73.7064
 122   2.0000      -1.177504       -32.0415
 123   2.0000      -1.174261       -31.9533
 124   2.0000      -1.149712       -31.2852
 125   2.0000      -1.148110       -31.2417
 126   2.0000      -1.116688       -30.3866
 127   2.0000      -1.112059       -30.2607
 128   2.0000      -1.016505       -27.6605
 129   2.0000      -1.009356       -27.4660
 130   2.0000      -1.009002       -27.4563
 131   2.0000      -1.002613       -27.2825
 132   2.0000      -0.995907       -27.1000
 133   2.0000      -0.993942       -27.0465
 134   2.0000      -0.989925       -26.9372
 135   2.0000      -0.988772       -26.9058
 136   2.0000      -0.981744       -26.7146
 137   2.0000      -0.979338       -26.6491
 138   2.0000      -0.977486       -26.5988
 139   2.0000      -0.968746       -26.3609
 140   2.0000      -0.936177       -25.4747
 141   2.0000      -0.922753       -25.1094
 142   2.0000      -0.912532       -24.8312
 143   2.0000      -0.903235       -24.5783
 144   2.0000      -0.901786       -24.5389
 145   2.0000      -0.891874       -24.2691
 146   2.0000      -0.888107       -24.1666
 147   2.0000      -0.884956       -24.0809
 148   2.0000      -0.881024       -23.9739
 149   2.0000      -0.879245       -23.9255
 150   2.0000      -0.874857       -23.8061
 151   2.0000      -0.864820       -23.5329
 152   2.0000      -0.863434       -23.4952
 153   2.0000      -0.855799       -23.2875
 154   2.0000      -0.847295       -23.0561
 155   2.0000      -0.833092       -22.6696
 156   2.0000      -0.827654       -22.5216
 157   2.0000      -0.823024       -22.3956
 158   2.0000      -0.819917       -22.3111
 159   2.0000      -0.817830       -22.2543
 160   2.0000      -0.813453       -22.1352
 161   2.0000      -0.806045       -21.9336
 162   2.0000      -0.802087       -21.8259
 163   2.0000      -0.785293       -21.3689
 164   2.0000      -0.775309       -21.0972
 165   2.0000      -0.761843       -20.7308
 166   2.0000      -0.751571       -20.4513
 167   2.0000      -0.742143       -20.1947
 168   2.0000      -0.734991       -20.0001
 169   2.0000      -0.720893       -19.6165
 170   2.0000      -0.707606       -19.2549
 171   2.0000      -0.700988       -19.0748
 172   2.0000      -0.698369       -19.0036
 173   2.0000      -0.693616       -18.8742
 174   2.0000      -0.686627       -18.6841
 175   2.0000      -0.685162       -18.6442
 176   2.0000      -0.679231       -18.4828
 177   2.0000      -0.676393       -18.4056
 178   2.0000      -0.671074       -18.2608
 179   2.0000      -0.664471       -18.0812
 180   2.0000      -0.661736       -18.0068
 181   2.0000      -0.654153       -17.8004
 182   2.0000      -0.651543       -17.7294
 183   2.0000      -0.643769       -17.5178
 184   2.0000      -0.637713       -17.3531
 185   2.0000      -0.631417       -17.1817
 186   2.0000      -0.629471       -17.1288
 187   2.0000      -0.617843       -16.8124
 188   2.0000      -0.615538       -16.7496
 189   2.0000      -0.614809       -16.7298
 190   2.0000      -0.602987       -16.4081
 191   2.0000      -0.600466       -16.3395
 192   2.0000      -0.599703       -16.3187
 193   2.0000      -0.596354       -16.2276
 194   2.0000      -0.590500       -16.0683
 195   2.0000      -0.588270       -16.0076
 196   2.0000      -0.586141       -15.9497
 197   2.0000      -0.579318       -15.7641
 198   2.0000      -0.577540       -15.7157
 199   2.0000      -0.574181       -15.6243
 200   2.0000      -0.566490       -15.4150
 201   2.0000      -0.562490       -15.3061
 202   2.0000      -0.557706       -15.1760
 203   2.0000      -0.548902       -14.9364
 204   2.0000      -0.548675       -14.9302
 205   2.0000      -0.540764       -14.7149
 206   2.0000      -0.539078       -14.6691
 207   2.0000      -0.534218       -14.5368
 208   2.0000      -0.531774       -14.4703
 209   2.0000      -0.528222       -14.3736
 210   2.0000      -0.527172       -14.3451
 211   2.0000      -0.525114       -14.2891
 212   2.0000      -0.523430       -14.2432
 213   2.0000      -0.519277       -14.1302
 214   2.0000      -0.516674       -14.0594
 215   2.0000      -0.515611       -14.0305
 216   2.0000      -0.513758       -13.9801
 217   2.0000      -0.511995       -13.9321
 218   2.0000      -0.509517       -13.8647
 219   2.0000      -0.507474       -13.8091
 220   2.0000      -0.507042       -13.7973
 221   2.0000      -0.504392       -13.7252
 222   2.0000      -0.501711       -13.6523
 223   2.0000      -0.500952       -13.6316
 224   2.0000      -0.499153       -13.5827
 225   2.0000      -0.498280       -13.5589
 226   2.0000      -0.496472       -13.5097
 227   2.0000      -0.495393       -13.4803
 228   2.0000      -0.491297       -13.3689
 229   2.0000      -0.488205       -13.2847
 230   2.0000      -0.485582       -13.2133
 231   2.0000      -0.484764       -13.1911
 232   2.0000      -0.481470       -13.1015
 233   2.0000      -0.478837       -13.0298
 234   2.0000      -0.474924       -12.9233
 235   2.0000      -0.473616       -12.8877
 236   2.0000      -0.470169       -12.7940
 237   2.0000      -0.467657       -12.7256
 238   2.0000      -0.466495       -12.6940
 239   2.0000      -0.461914       -12.5693
 240   2.0000      -0.459389       -12.5006
 241   2.0000      -0.454114       -12.3571
 242   2.0000      -0.452061       -12.3012
 243   2.0000      -0.451668       -12.2905
 244   2.0000      -0.448400       -12.2016
 245   2.0000      -0.443693       -12.0735
 246   2.0000      -0.441341       -12.0095
 247   2.0000      -0.440391       -11.9837
 248   2.0000      -0.438304       -11.9269
 249   2.0000      -0.436970       -11.8905
 250   2.0000      -0.435534       -11.8515
 251   2.0000      -0.434745       -11.8300
 252   2.0000      -0.431274       -11.7356
 253   2.0000      -0.428329       -11.6554
 254   2.0000      -0.425505       -11.5786
 255   2.0000      -0.425143       -11.5687
 256   2.0000      -0.424205       -11.5432
 257   2.0000      -0.419377       -11.4118
 258   2.0000      -0.418911       -11.3992
 259   2.0000      -0.416303       -11.3282
 260   2.0000      -0.414688       -11.2842
 261   2.0000      -0.410815       -11.1788
 262   2.0000      -0.409298       -11.1376
 263   2.0000      -0.407360       -11.0848
 264   2.0000      -0.404856       -11.0167
 265   2.0000      -0.404180       -10.9983
 266   2.0000      -0.402109       -10.9420
 267   2.0000      -0.398180       -10.8350
 268   2.0000      -0.395577       -10.7642
 269   2.0000      -0.393743       -10.7143
 270   2.0000      -0.392048       -10.6682
 271   2.0000      -0.387780       -10.5520
 272   2.0000      -0.382276       -10.4023
 273   2.0000      -0.380657       -10.3582
 274   2.0000      -0.376167       -10.2360
 275   2.0000      -0.371253       -10.1023
 276   2.0000      -0.368634       -10.0310
 277   2.0000      -0.365722        -9.9518
 278   2.0000      -0.360753        -9.8166
 279   2.0000      -0.355013        -9.6604
 280   2.0000      -0.350745        -9.5443
 281   2.0000      -0.344782        -9.3820
 282   2.0000      -0.334029        -9.0894
 283   2.0000      -0.327476        -8.9111
 284   2.0000      -0.327143        -8.9020
 285   2.0000      -0.322609        -8.7786
 286   2.0000      -0.313601        -8.5335
 287   2.0000      -0.308883        -8.4051
 288   2.0000      -0.297178        -8.0866
 289   2.0000      -0.293768        -7.9938
 290   2.0000      -0.289054        -7.8656
 291   2.0000      -0.287795        -7.8313
 292   2.0000      -0.283424        -7.7124
 293   2.0000      -0.268372        -7.3028
 294   2.0000      -0.261025        -7.1029
 295   2.0000      -0.217853        -5.9281
 296   0.0000      -0.107271        -2.9190
 297   0.0000      -0.076630        -2.0852
 298   0.0000      -0.058865        -1.6018
 299   0.0000      -0.045783        -1.2458
 300   0.0000      -0.036818        -1.0019

MULLIKEN ATOMIC CHARGES
-----------------------
   0 C :    0.320796
   1 C :   -0.377748
   2 C :   -0.174707
   3 N :    0.133322
   4 C :   -0.168867
   5 N :    0.149781
   6 C :    0.016349
   7 C :   -0.002262
   8 C :   -0.085976
   9 C :    0.120758
  10 C :   -0.092497
  11 C :   -0.027650
  12 S :    0.181763
  13 C :   -0.123270
  14 C :    0.034558
  15 Br:    0.017996
  16 C :    0.143345
  17 O :   -0.168291
  18 C :   -0.089668
  19 C :    0.016346
  20 C :   -0.149346
  21 S :    0.108972
  22 C :   -0.095533
  23 C :    0.109545
  24 C :    0.215211
  25 O :   -0.297829
  26 C :    0.185970
  27 C :    0.000515
  28 C :    0.187204
  29 O :   -0.323813
  30 C :   -0.011314
  31 C :   -0.008834
  32 C :    0.026052
  33 C :    0.042583
  34 C :   -0.038669
  35 S :    0.052886
  36 C :   -0.031400
  37 C :    0.029521
  38 C :    0.049366
  39 C :   -0.036214
  40 S :    0.102658
  41 C :    0.042414
  42 C :   -0.134480
  43 S :    0.154177
  44 C :   -0.129097
  45 C :    0.166928
  46 C :    0.122250
  47 O :   -0.320105
  48 C :    0.183309
  49 C :   -0.020441
  50 C :    0.193710
  51 O :   -0.307314
  52 C :    0.065425
  53 C :   -0.136870
  54 C :    0.309897
  55 C :   -0.330264
  56 C :   -0.193130
  57 N :    0.143389
  58 C :   -0.176770
  59 N :    0.131327
  60 C :    0.005758
  61 C :    0.005874
  62 C :    0.128162
  63 O :   -0.151340
  64 C :   -0.081248
  65 C :    0.117943
  66 C :   -0.084228
  67 C :   -0.021158
  68 S :    0.172585
  69 C :   -0.099765
  70 C :    0.057621
  71 Br:    0.000757
  72 H :   -0.019364
  73 H :   -0.006824
  74 H :   -0.006566
  75 H :    0.007406
  76 H :    0.038776
  77 H :    0.026719
  78 H :    0.020718
  79 H :    0.021526
  80 H :    0.026465
  81 H :    0.026612
  82 H :   -0.000548
  83 H :   -0.008718
  84 H :   -0.007986
  85 H :   -0.010543
  86 H :   -0.004685
  87 H :   -0.001218
  88 H :    0.037176
  89 H :    0.028311
  90 H :    0.020552
  91 H :    0.036065
  92 H :    0.022669
  93 H :    0.017842
  94 H :    0.015612
  95 H :   -0.015423
  96 H :   -0.007903
  97 H :   -0.013596
Sum of atomic charges:   -0.0000000

LOEWDIN ATOMIC CHARGES
----------------------
   0 C :    0.082287
   1 C :   -0.166731
   2 C :   -0.013334
   3 N :   -0.069854
   4 C :    0.002304
   5 N :   -0.068135
   6 C :   -0.021448
   7 C :   -0.045068
   8 C :    0.013490
   9 C :   -0.034145
  10 C :   -0.147382
  11 C :   -0.011084
  12 S :    0.429151
  13 C :   -0.273925
  14 C :   -0.071912
  15 Br:    0.132339
  16 C :    0.080844
  17 O :   -0.151353
  18 C :   -0.113826
  19 C :    0.042550
  20 C :   -0.205282
  21 S :    0.433130
  22 C :   -0.157591
  23 C :   -0.023349
  24 C :    0.028129
  25 O :   -0.082029
  26 C :    0.085374
  27 C :   -0.061949
  28 C :    0.084449
  29 O :   -0.115519
  30 C :   -0.084153
  31 C :   -0.134083
  32 C :   -0.041404
  33 C :   -0.022799
  34 C :   -0.189806
  35 S :    0.381298
  36 C :   -0.159192
  37 C :   -0.041180
  38 C :   -0.013727
  39 C :   -0.146641
  40 S :    0.429229
  41 C :   -0.050027
  42 C :   -0.187396
  43 S :    0.441534
  44 C :   -0.196243
  45 C :    0.020858
  46 C :   -0.022808
  47 O :   -0.104392
  48 C :    0.083755
  49 C :   -0.057939
  50 C :    0.080709
  51 O :   -0.058172
  52 C :    0.036692
  53 C :   -0.087392
  54 C :    0.070613
  55 C :   -0.144976
  56 C :   -0.019732
  57 N :   -0.067215
  58 C :   -0.012397
  59 N :   -0.069901
  60 C :   -0.016028
  61 C :   -0.056801
  62 C :    0.084759
  63 O :   -0.149780
  64 C :    0.020147
  65 C :   -0.031210
  66 C :   -0.141246
  67 C :   -0.012517
  68 S :    0.431201
  69 C :   -0.264538
  70 C :   -0.065975
  71 Br:    0.126260
  72 H :    0.037059
  73 H :    0.040223
  74 H :    0.037357
  75 H :    0.039890
  76 H :    0.024761
  77 H :    0.028629
  78 H :    0.032706
  79 H :    0.033556
  80 H :    0.027674
  81 H :    0.019460
  82 H :    0.043036
  83 H :    0.034737
  84 H :    0.035133
  85 H :    0.033152
  86 H :    0.036316
  87 H :    0.038146
  88 H :    0.024528
  89 H :    0.029643
  90 H :    0.033009
  91 H :    0.038496
  92 H :    0.021722
  93 H :    0.015535
  94 H :    0.044240
  95 H :    0.038711
  96 H :    0.039597
  97 H :    0.035165

  Mayer bond orders larger than 0.100000
B(  0-C ,  1-C ) :   1.5581 B(  0-C ,  6-C ) :   0.9934 B(  0-C , 18-C ) :   1.1385
B(  1-C ,  2-C ) :   1.1519 B(  1-C ,  4-C ) :   1.1642 B(  2-C ,  3-N ) :   2.9321
B(  4-C ,  5-N ) :   2.9033 B(  5-N , 92-H ) :   0.1357 B(  6-C ,  7-C ) :   1.2760
B(  6-C , 11-C ) :   1.4148 B(  7-C ,  8-C ) :   1.4312 B(  7-C , 16-C ) :   0.9270
B(  8-C ,  9-C ) :   1.2373 B(  8-C , 72-H ) :   1.0171 B(  9-C , 10-C ) :   1.3153
B(  9-C , 14-C ) :   1.1632 B( 10-C , 11-C ) :   1.3255 B( 10-C , 12-S ) :   1.0825
B( 11-C , 73-H ) :   0.9798 B( 12-S , 13-C ) :   1.0877 B( 13-C , 14-C ) :   1.6177
B( 13-C , 15-Br) :   1.0156 B( 14-C , 74-H ) :   1.0005 B( 16-C , 17-O ) :   2.1841
B( 16-C , 18-C ) :   0.9756 B( 18-C , 19-C ) :   1.4764 B( 19-C , 20-C ) :   1.3016
B( 19-C , 75-H ) :   0.9186 B( 20-C , 21-S ) :   1.0634 B( 20-C , 24-C ) :   1.3232
B( 21-S , 22-C ) :   1.1038 B( 22-C , 23-C ) :   1.3663 B( 22-C , 30-C ) :   1.2514
B( 23-C , 24-C ) :   1.2749 B( 23-C , 29-O ) :   1.1523 B( 24-C , 25-O ) :   1.2057
B( 25-O , 26-C ) :   0.9220 B( 26-C , 27-C ) :   1.0946 B( 26-C , 76-H ) :   0.9366
B( 26-C , 77-H ) :   0.9604 B( 27-C , 28-C ) :   1.0905 B( 27-C , 78-H ) :   0.9325
B( 27-C , 79-H ) :   0.9333 B( 28-C , 29-O ) :   0.9557 B( 28-C , 80-H ) :   0.9585
B( 28-C , 81-H ) :   0.9370 B( 30-C , 31-C ) :   1.4738 B( 30-C , 82-H ) :   0.9734
B( 31-C , 32-C ) :   1.1725 B( 31-C , 35-S ) :   1.0647 B( 32-C , 33-C ) :   1.5562
B( 32-C , 83-H ) :   0.9997 B( 33-C , 34-C ) :   1.2143 B( 33-C , 84-H ) :   0.9947
B( 34-C , 35-S ) :   1.0367 B( 34-C , 36-C ) :   1.4683 B( 36-C , 37-C ) :   1.1846
B( 36-C , 40-S ) :   1.0978 B( 37-C , 38-C ) :   1.5921 B( 37-C , 85-H ) :   0.9957
B( 38-C , 39-C ) :   1.1511 B( 38-C , 86-H ) :   0.9961 B( 39-C , 40-S ) :   1.0567
B( 39-C , 41-C ) :   1.5805 B( 41-C , 42-C ) :   1.1558 B( 41-C , 87-H ) :   0.9582
B( 42-C , 43-S ) :   1.0932 B( 42-C , 46-C ) :   1.4326 B( 43-S , 44-C ) :   1.0879
B( 44-C , 45-C ) :   1.3937 B( 44-C , 52-C ) :   1.2048 B( 45-C , 46-C ) :   1.1970
B( 45-C , 51-O ) :   1.1831 B( 46-C , 47-O ) :   1.1489 B( 47-O , 48-C ) :   0.9308
B( 48-C , 49-C ) :   1.0967 B( 48-C , 88-H ) :   0.9302 B( 48-C , 89-H ) :   0.9557
B( 49-C , 50-C ) :   1.1098 B( 49-C , 90-H ) :   0.9318 B( 49-C , 91-H ) :   0.9322
B( 50-C , 51-O ) :   0.8987 B( 50-C , 92-H ) :   0.9236 B( 50-C , 93-H ) :   0.9252
B( 52-C , 53-C ) :   1.6105 B( 52-C , 94-H ) :   0.9292 B( 53-C , 54-C ) :   1.0744
B( 53-C , 62-C ) :   0.9438 B( 54-C , 55-C ) :   1.6062 B( 54-C , 60-C ) :   1.0122
B( 55-C , 56-C ) :   1.1532 B( 55-C , 58-C ) :   1.1844 B( 56-C , 57-N ) :   2.9738
B( 58-C , 59-N ) :   2.9150 B( 60-C , 61-C ) :   1.2723 B( 60-C , 67-C ) :   1.4183
B( 61-C , 62-C ) :   0.9217 B( 61-C , 64-C ) :   1.4198 B( 62-C , 63-O ) :   2.2587
B( 64-C , 65-C ) :   1.2483 B( 64-C , 95-H ) :   1.0173 B( 65-C , 66-C ) :   1.3120
B( 65-C , 70-C ) :   1.1666 B( 66-C , 67-C ) :   1.3203 B( 66-C , 68-S ) :   1.0847
B( 67-C , 96-H ) :   0.9841 B( 68-S , 69-C ) :   1.0843 B( 69-C , 70-C ) :   1.6280
B( 69-C , 71-Br) :   1.0061 B( 70-C , 97-H ) :   0.9981

-----------------------------------------------------------------------------
         ABSORPTION SPECTRUM VIA TRANSITION ELECTRIC DIPOLE MOMENTS
-----------------------------------------------------------------------------
State   Energy  Wavelength   fosc         T2         TX        TY        TZ
        (cm-1)    (nm)                  (au**2)     (au)      (au)      (au)
-----------------------------------------------------------------------------
   0    9711.4   1029.7   0.492906701  16.70922   0.95914  -2.78323   2.83600
   1   17051.5    586.5   0.363349203   7.01515  -0.90576  -1.88944  -1.62012
   2   19403.4    515.4   1.388178723  23.55283  -1.29647  -4.00674  -2.41206
   3   21095.8    474.0   0.312583384   4.87804   0.31637  -2.16566   0.29642
   4   21928.1    456.0   0.048888166   0.73397   0.70004   0.34752   0.35092
   5   23325.9    428.7   0.106902177   1.50877  -0.39611  -1.16035  -0.07390
   6   23684.3    422.2   0.235114635   3.26809  -1.29303   0.01186  -1.26334
   7   24228.2    412.7   0.102037059   1.38648   0.93730  -0.13494   0.69981
   8   25294.5    395.3   0.001386268   0.01804   0.10616  -0.01935   0.07998
   9   25650.1    389.9   0.040417779   0.51875   0.16176  -0.61277  -0.34220
  10   26168.7    382.1   0.295469969   3.71712   0.43358  -1.76604   0.64049
  11   26610.2    375.8   0.126323425   1.56283   0.54852   1.07018  -0.34158
  12   26980.2    370.6   0.144971648   1.76894   0.42121   1.20121  -0.38551
  13   27607.6    362.2   0.006729092   0.08024  -0.11892  -0.21390   0.14264
  14   28321.1    353.1   0.013185575   0.15327  -0.17002  -0.34380  -0.07854
  15   28624.8    349.3   0.057397652   0.66013   0.60500  -0.44266  -0.31329
  16   29232.1    342.1   0.083677396   0.94237   0.15285   0.93539  -0.20990
  17   29388.8    340.3   0.027213537   0.30485  -0.35696  -0.21263  -0.36361
  18   29576.5    338.1   0.015468642   0.17218   0.16154   0.30922   0.22465
  19   29879.1    334.7   0.038672884   0.42610   0.47281   0.44485   0.06829
  20   30216.4    330.9   0.064338896   0.70098  -0.28782   0.59638  -0.51231
  21   30278.0    330.3   0.135313211   1.47126   0.07829   1.16947  -0.31218
  22   30645.4    326.3   0.028389729   0.30498   0.06462   0.00144  -0.54846
  23   31248.0    320.0   0.087939120   0.92648   0.00502   0.78362  -0.55893
  24   31625.3    316.2   0.108438137   1.12881  -0.37947  -0.76356   0.63387
  25   31808.0    314.4   0.085457048   0.88448   0.17687   0.76984  -0.51042
  26   32122.1    311.3   0.175030388   1.79385   0.43366   1.01423  -0.75968
  27   32199.6    310.6   0.106238284   1.08619  -0.25786  -0.55131   0.84602
  28   32739.2    305.4   0.094627431   0.95154  -0.21437  -0.94001  -0.14818
  29   32803.5    304.8   0.031270214   0.31382  -0.10875  -0.01304  -0.54939
  30   33141.8    301.7   0.355327875   3.52962  -0.27861  -1.69577   0.75917
  31   33441.9    299.0   0.033812722   0.33286   0.37137   0.37100   0.23939
  32   33594.0    297.7   0.014471608   0.14182   0.34292   0.12219  -0.09642
  33   34056.9    293.6   0.091053519   0.88017   0.20365   0.82302  -0.40166
  34   34307.8    291.5   0.007548983   0.07244  -0.07694   0.18433   0.18039
  35   34853.5    286.9   0.047813420   0.45163  -0.45453  -0.00549  -0.49498
  36   35062.2    285.2   0.027553137   0.25871  -0.42978   0.10156  -0.25235
  37   35244.4    283.7   0.028875636   0.26972  -0.21008   0.31986  -0.35111
  38   35698.4    280.1   0.068069535   0.62774   0.61892   0.33460   0.36432
  39   36038.4    277.5   0.052495602   0.47955  -0.30285  -0.42093   0.45897
  40   36178.0    276.4   0.012468420   0.11346  -0.06633  -0.01478   0.32991
  41   36753.3    272.1   0.127994793   1.14649   0.61735   0.83252  -0.26883
  42   36887.1    271.1   0.002414605   0.02155   0.10080   0.03378   0.10124
  43   37176.6    269.0   0.099141945   0.87794   0.17371  -0.14863   0.90866
  44   37281.6    268.2   0.097761327   0.86327  -0.25868  -0.25248   0.85593
  45   37684.5    265.4   0.108424652   0.94720  -0.12246   0.07807   0.96234
  46   38369.3    260.6   0.017518935   0.15031  -0.10922   0.37190  -0.00859
  47   38669.9    258.6   0.050315981   0.42836   0.65116  -0.03722   0.05441
  48   38911.4    257.0   0.041240441   0.34892   0.33046  -0.35722   0.33483
  49   39149.8    255.4   0.059188943   0.49772  -0.05285  -0.62806  -0.31697
  50   39293.4    254.5   0.082532654   0.69148  -0.37027   0.63923  -0.38180
  51   39644.0    252.2   0.012605854   0.10468   0.14999  -0.18278  -0.22086
  52   39756.5    251.5   0.022676134   0.18777  -0.33745  -0.23645  -0.13413
  53   39902.3    250.6   0.041435706   0.34186   0.15279  -0.56221  -0.04938
  54   40195.0    248.8   0.034175671   0.27991   0.45917  -0.26164   0.02494
  55   40214.5    248.7   0.066591826   0.54515  -0.52896  -0.50584   0.09736

FINAL SINGLE POINT ENERGY    -10276.502938974094

DIPOLE MOMENT
-------------
                                X             Y             Z
Electronic contribution:    -62.55631    -195.37893      -7.85305
Nuclear contribution   :     64.25476     197.12598      12.50418
                        -----------------------------------------
Total Dipole Moment    :      1.69845       1.74705       4.65113
                        -----------------------------------------
Magnitude (a.u.)       :      5.25071
Magnitude (Debye)      :     13.34623

Rotational constants in cm-1:     0.000821     0.000485     0.000331
Rotational constants in MHz :    24.605783    14.548846     9.921931

                             ****ORCA TERMINATED NORMALLY****
TOTAL RUN TIME: 0 days 0 hours 11 minutes 57 seconds 574 msec
