                         Program Version 4.2.0 -  RELEASE  -
|  1> # ORCA input file
|  2> # SCF done       -198.641390236730          0.000647936869
|  3> ! CAM-B3LYP def2-SVP def2/J RIJCOSX Grid4 TightSCF
|  4> %maxcore 5000
|  5> %tddft
|  6>     Mode sTDDFT
|  7>     Ethresh 5.0
|  8>     maxcore 5000
|  9> end
| 10>
| 11> %pal
| 12>   nprocs 6
| 13>   end
| 14> * xyz 0 1
| 15>    C       -2.81787         3.87668         1.50504
| 16>    C       -2.70199         2.52916         1.74175
| 17>    C       -1.56608         1.92040         2.31709
| 18>    N       -0.67419         1.36644         2.78008
| 19>    C       -3.68125         1.56453         1.44701
| 20>    N       -4.44215         0.72800         1.23557
| 21>    C       -1.81611         4.88366         1.83547
| 22>    C       -2.28603         6.15348         1.41516
| 23>    C       -1.56838         7.30935         1.59983
| 24>    C       -0.32898         7.21168         2.24170
| 25>    C        0.13391         5.93999         2.65792
| 26>    C       -0.58946         4.76974         2.46288
| 27>    S        1.68571         6.04658         3.43013
| 28>    C        1.69043         7.77350         3.19235
| 29>    C        0.58798         8.24808         2.56330
| 30>   Br        3.14993         8.78590         3.79036
| 31>    C       -3.61202         5.99891         0.79450
| 32>    O       -4.25681         6.85466         0.21676
| 33>    C       -3.94921         4.56947         0.92455
| 34>    C       -5.10165         3.98641         0.47270
| 35>    N       -6.22015         4.60755         0.06260
| 36>    C       -6.66694         5.84839         0.46068
| 37>    S       -6.49615         6.36969         2.10746
| 38>    C       -7.47590         7.74908         1.75800
| 39>    N       -7.69576         8.67045         2.79522
| 40>    O       -8.39063         9.63667         2.55628
| 41>    O       -7.16692         8.42258         3.86383
| 42>    C       -7.91917         7.79242         0.46483
| 43>    C       -7.45423         6.70443        -0.30183
| 44>    C       -7.72959         6.59702        -1.71633
| 45>    C       -6.94649         5.94294        -2.58643
| 46>    N       -7.09073         5.85556        -3.95655
| 47>    C       -7.91990         6.52052        -4.80554
| 48>    S       -9.13998         7.63759        -4.30011
| 49>    C       -9.48618         8.01610        -5.95825
| 50>    N      -10.49549         8.94800        -6.20593
| 51>    O      -10.74053         9.22806        -7.36448
| 52>    O      -11.05643         9.41251        -5.22669
| 53>    C       -8.70108         7.32529        -6.84100
| 54>    C       -7.81421         6.44309        -6.20324
| 55>    C       -6.89367         5.60818        -6.94677
| 56>    C       -6.53173         4.35684        -6.62299
| 57>    N       -5.64102         3.63576        -7.38885
| 58>    C       -5.14727         2.38901        -7.19313
| 59>    S       -4.46227         1.59332        -8.57876
| 60>    C       -4.15227         0.18370        -7.61196
| 61>    N       -3.53329        -0.90298        -8.24712
| 62>    O       -3.34237        -1.90786        -7.59386
| 63>    O       -3.24477        -0.74513        -9.42058
| 64>    C       -4.55236         0.32026        -6.31655
| 65>    C       -5.11941         1.58606        -6.03859
| 66>    C       -5.53942         1.98876        -4.73133
| 67>    C       -5.78941         1.14767        -3.69967
| 68>    C       -6.26817         1.61560        -2.45238
| 69>    C       -6.44041         0.89631        -1.30846
| 70>    C       -5.96828        -0.42001        -0.92274
| 71>    C       -4.81007        -1.01028        -1.35096
| 72>    C       -4.36453        -2.27561        -0.91427
| 73>    N       -3.98202        -3.31437        -0.61429
| 74>    C       -3.88245        -0.35248        -2.18476
| 75>    N       -3.09575         0.19026        -2.82067
| 76>    C       -6.80251        -0.86802         0.18337
| 77>    C       -7.61740         0.21716         0.60491
| 78>    C       -7.37036         1.36903        -0.26174
| 79>    O       -7.86288         2.48680        -0.18648
| 80>    C       -8.46597         0.12680         1.68406
| 81>    C       -8.52294        -1.09095         2.36698
| 82>    C       -7.71573        -2.17101         1.92957
| 83>    C       -6.84973        -2.07745         0.84628
| 84>    S       -7.94825        -3.58045         2.91280
| 85>    C       -9.10534        -2.71539         3.89085
| 86>    C       -9.31066        -1.43491         3.49902
| 87>   Br       -9.93753        -3.58561         5.32680
| 88>    H       -1.95474         8.26102         1.27034
| 89>    H       -0.19292         3.82625         2.79845
| 90>    H        0.42693         9.28624         2.33708
| 91>    H       -5.14438         2.90891         0.38419
| 92>    H       -6.95307         3.98063        -0.30172
| 93>    H       -8.53188         8.58958         0.08420
| 94>    H       -8.58713         7.16037        -2.04522
| 95>    H       -6.06670         5.42491        -2.23280
| 96>    H       -6.32682         5.39931        -4.43981
| 97>    H       -8.78323         7.44195        -7.90623
| 98>    H       -6.51091         6.04625        -7.85956
| 99>    H       -6.97513         3.82561        -5.79714
|100>    H       -5.40622         4.05619        -8.28058
|101>    H       -4.38898        -0.44782        -5.58344
|102>    H       -5.61636         3.05013        -4.54258
|103>    H       -5.69463         0.08183        -3.83736
|104>    H       -6.64590         2.63410        -2.42825
|105>    H       -9.06305         0.96986         1.99515
|106>    H       -6.25091        -2.92333         0.55149
|107>    H       -9.98962        -0.76012         3.98756
|108> *
|109>
|110>                          ****END OF INPUT****

CARTESIAN COORDINATES (ANGSTROEM)
---------------------------------
  C     -2.817870    3.876680    1.505040
  C     -2.701990    2.529160    1.741750
  C     -1.566080    1.920400    2.317090
  N     -0.674190    1.366440    2.780080
  C     -3.681250    1.564530    1.447010
  N     -4.442150    0.728000    1.235570
  C     -1.816110    4.883660    1.835470
  C     -2.286030    6.153480    1.415160
  C     -1.568380    7.309350    1.599830
  C     -0.328980    7.211680    2.241700
  C      0.133910    5.939990    2.657920
  C     -0.589460    4.769740    2.462880
  S      1.685710    6.046580    3.430130
  C      1.690430    7.773500    3.192350
  C      0.587980    8.248080    2.563300
  Br     3.149930    8.785900    3.790360
  C     -3.612020    5.998910    0.794500
  O     -4.256810    6.854660    0.216760
  C     -3.949210    4.569470    0.924550
  C     -5.101650    3.986410    0.472700
  N     -6.220150    4.607550    0.062600
  C     -6.666940    5.848390    0.460680
  S     -6.496150    6.369690    2.107460
  C     -7.475900    7.749080    1.758000
  N     -7.695760    8.670450    2.795220
  O     -8.390630    9.636670    2.556280
  O     -7.166920    8.422580    3.863830
  C     -7.919170    7.792420    0.464830
  C     -7.454230    6.704430   -0.301830
  C     -7.729590    6.597020   -1.716330
  C     -6.946490    5.942940   -2.586430
  N     -7.090730    5.855560   -3.956550
  C     -7.919900    6.520520   -4.805540
  S     -9.139980    7.637590   -4.300110
  C     -9.486180    8.016100   -5.958250
  N    -10.495490    8.948000   -6.205930
  O    -10.740530    9.228060   -7.364480
  O    -11.056430    9.412510   -5.226690
  C     -8.701080    7.325290   -6.841000
  C     -7.814210    6.443090   -6.203240
  C     -6.893670    5.608180   -6.946770
  C     -6.531730    4.356840   -6.622990
  N     -5.641020    3.635760   -7.388850
  C     -5.147270    2.389010   -7.193130
  S     -4.462270    1.593320   -8.578760
  C     -4.152270    0.183700   -7.611960
  N     -3.533290   -0.902980   -8.247120
  O     -3.342370   -1.907860   -7.593860
  O     -3.244770   -0.745130   -9.420580
  C     -4.552360    0.320260   -6.316550
  C     -5.119410    1.586060   -6.038590
  C     -5.539420    1.988760   -4.731330
  C     -5.789410    1.147670   -3.699670
  C     -6.268170    1.615600   -2.452380
  C     -6.440410    0.896310   -1.308460
  C     -5.968280   -0.420010   -0.922740
  C     -4.810070   -1.010280   -1.350960
  C     -4.364530   -2.275610   -0.914270
  N     -3.982020   -3.314370   -0.614290
  C     -3.882450   -0.352480   -2.184760
  N     -3.095750    0.190260   -2.820670
  C     -6.802510   -0.868020    0.183370
  C     -7.617400    0.217160    0.604910
  C     -7.370360    1.369030   -0.261740
  O     -7.862880    2.486800   -0.186480
  C     -8.465970    0.126800    1.684060
  C     -8.522940   -1.090950    2.366980
  C     -7.715730   -2.171010    1.929570
  C     -6.849730   -2.077450    0.846280
  S     -7.948250   -3.580450    2.912800
  C     -9.105340   -2.715390    3.890850
  C     -9.310660   -1.434910    3.499020
  Br    -9.937530   -3.585610    5.326800
  H     -1.954740    8.261020    1.270340
  H     -0.192920    3.826250    2.798450
  H      0.426930    9.286240    2.337080
  H     -5.144380    2.908910    0.384190
  H     -6.953070    3.980630   -0.301720
  H     -8.531880    8.589580    0.084200
  H     -8.587130    7.160370   -2.045220
  H     -6.066700    5.424910   -2.232800
  H     -6.326820    5.399310   -4.439810
  H     -8.783230    7.441950   -7.906230
  H     -6.510910    6.046250   -7.859560
  H     -6.975130    3.825610   -5.797140
  H     -5.406220    4.056190   -8.280580
  H     -4.388980   -0.447820   -5.583440
  H     -5.616360    3.050130   -4.542580
  H     -5.694630    0.081830   -3.837360
  H     -6.645900    2.634100   -2.428250
  H     -9.063050    0.969860    1.995150
  H     -6.250910   -2.923330    0.551490
  H     -9.989620   -0.760120    3.987560

 Total Charge           Charge          ....    0
 Multiplicity           Mult            ....    1
 Number of Electrons    NEL             ....  592
 Basis Dimension        Dim             .... 1178

ORBITAL ENERGIES
----------------

  NO   OCC          E(Eh)            E(eV)
   0   2.0000    -482.890999    -13140.1321
   1   2.0000    -482.887126    -13140.0267
   2   2.0000     -89.001867     -2421.8639
   3   2.0000     -88.997853     -2421.7547
   4   2.0000     -88.983302     -2421.3588
   5   2.0000     -88.981590     -2421.3122
   6   2.0000     -88.977590     -2421.2033
   7   2.0000     -62.568716     -1702.5813
   8   2.0000     -62.564863     -1702.4765
   9   2.0000     -56.402678     -1534.7949
  10   2.0000     -56.399943     -1534.7205
  11   2.0000     -56.399909     -1534.7195
  12   2.0000     -56.398816     -1534.6898
  13   2.0000     -56.396092     -1534.6157
  14   2.0000     -56.396062     -1534.6149
  15   2.0000     -19.249281      -523.7996
  16   2.0000     -19.249012      -523.7922
  17   2.0000     -19.246267      -523.7176
  18   2.0000     -19.240517      -523.5611
  19   2.0000     -19.240434      -523.5588
  20   2.0000     -19.239223      -523.5259
  21   2.0000     -19.238978      -523.5192
  22   2.0000     -19.219905      -523.0002
  23   2.0000     -14.661112      -398.9491
  24   2.0000     -14.652903      -398.7258
  25   2.0000     -14.650556      -398.6619
  26   2.0000     -14.509514      -394.8239
  27   2.0000     -14.498079      -394.5128
  28   2.0000     -14.489005      -394.2659
  29   2.0000     -14.430195      -392.6656
  30   2.0000     -14.426678      -392.5699
  31   2.0000     -14.423379      -392.4801
  32   2.0000     -14.415979      -392.2787
  33   2.0000     -10.398015      -282.9444
  34   2.0000     -10.393972      -282.8343
  35   2.0000     -10.382815      -282.5308
  36   2.0000     -10.371357      -282.2190
  37   2.0000     -10.367560      -282.1156
  38   2.0000     -10.365563      -282.0613
  39   2.0000     -10.362232      -281.9707
  40   2.0000     -10.361021      -281.9377
  41   2.0000     -10.360578      -281.9257
  42   2.0000     -10.358110      -281.8585
  43   2.0000     -10.354007      -281.7469
  44   2.0000     -10.351497      -281.6786
  45   2.0000     -10.349754      -281.6311
  46   2.0000     -10.346744      -281.5492
  47   2.0000     -10.345734      -281.5217
  48   2.0000     -10.344549      -281.4895
  49   2.0000     -10.343579      -281.4631
  50   2.0000     -10.337615      -281.3008
  51   2.0000     -10.336007      -281.2570
  52   2.0000     -10.335139      -281.2334
  53   2.0000     -10.334304      -281.2107
  54   2.0000     -10.328873      -281.0629
  55   2.0000     -10.327432      -281.0237
  56   2.0000     -10.326613      -281.0014
  57   2.0000     -10.324966      -280.9566
  58   2.0000     -10.322713      -280.8953
  59   2.0000     -10.319785      -280.8156
  60   2.0000     -10.318259      -280.7741
  61   2.0000     -10.318242      -280.7736
  62   2.0000     -10.318142      -280.7709
  63   2.0000     -10.316041      -280.7137
  64   2.0000     -10.315060      -280.6870
  65   2.0000     -10.313799      -280.6527
  66   2.0000     -10.313611      -280.6476
  67   2.0000     -10.313261      -280.6381
  68   2.0000     -10.313143      -280.6349
  69   2.0000     -10.310920      -280.5744
  70   2.0000     -10.310118      -280.5526
  71   2.0000     -10.308929      -280.5202
  72   2.0000     -10.307404      -280.4787
  73   2.0000     -10.306174      -280.4452
  74   2.0000     -10.305377      -280.4236
  75   2.0000     -10.303813      -280.3810
  76   2.0000     -10.303782      -280.3802
  77   2.0000     -10.298608      -280.2394
  78   2.0000     -10.298404      -280.2338
  79   2.0000     -10.297940      -280.2212
  80   2.0000     -10.295434      -280.1530
  81   2.0000      -8.798156      -239.4100
  82   2.0000      -8.794316      -239.3055
  83   2.0000      -8.097985      -220.3574
  84   2.0000      -8.092551      -220.2095
  85   2.0000      -8.079326      -219.8496
  86   2.0000      -8.077033      -219.7872
  87   2.0000      -8.073650      -219.6952
  88   2.0000      -6.634515      -180.5343
  89   2.0000      -6.630649      -180.4291
  90   2.0000      -6.619848      -180.1352
  91   2.0000      -6.619659      -180.1301
  92   2.0000      -6.616040      -180.0316
  93   2.0000      -6.615823      -180.0257
  94   2.0000      -6.067774      -165.1125
  95   2.0000      -6.063297      -164.9907
  96   2.0000      -6.062240      -164.9619
  97   2.0000      -6.059123      -164.8771
  98   2.0000      -6.057694      -164.8382
  99   2.0000      -6.054180      -164.7426
 100   2.0000      -6.048980      -164.6011
 101   2.0000      -6.046536      -164.5346
 102   2.0000      -6.044699      -164.4846
 103   2.0000      -6.043331      -164.4474
 104   2.0000      -6.042231      -164.4175
 105   2.0000      -6.040601      -164.3731
 106   2.0000      -6.039041      -164.3307
 107   2.0000      -6.038682      -164.3209
 108   2.0000      -6.034880      -164.2174
 109   2.0000      -2.750386       -74.8418
 110   2.0000      -2.746487       -74.7357
 111   2.0000      -2.746293       -74.7304
 112   2.0000      -2.746072       -74.7244
 113   2.0000      -2.742435       -74.6255
 114   2.0000      -2.742269       -74.6209
 115   2.0000      -2.734465       -74.4086
 116   2.0000      -2.734453       -74.4083
 117   2.0000      -2.730653       -74.3049
 118   2.0000      -2.730644       -74.3046
 119   2.0000      -1.331308       -36.2267
 120   2.0000      -1.321843       -35.9692
 121   2.0000      -1.321391       -35.9569
 122   2.0000      -1.158572       -31.5263
 123   2.0000      -1.151154       -31.3245
 124   2.0000      -1.141189       -31.0533
 125   2.0000      -1.140618       -31.0378
 126   2.0000      -1.136041       -30.9132
 127   2.0000      -1.113837       -30.3091
 128   2.0000      -1.099882       -29.9293
 129   2.0000      -1.093331       -29.7510
 130   2.0000      -1.033532       -28.1238
 131   2.0000      -1.028192       -27.9785
 132   2.0000      -1.023787       -27.8587
 133   2.0000      -1.022182       -27.8150
 134   2.0000      -1.019897       -27.7528
 135   2.0000      -1.013931       -27.5905
 136   2.0000      -1.006681       -27.3932
 137   2.0000      -1.003878       -27.3169
 138   2.0000      -1.002427       -27.2774
 139   2.0000      -1.000593       -27.2275
 140   2.0000      -0.991866       -26.9900
 141   2.0000      -0.960168       -26.1275
 142   2.0000      -0.945608       -25.7313
 143   2.0000      -0.945116       -25.7179
 144   2.0000      -0.939520       -25.5656
 145   2.0000      -0.922801       -25.1107
 146   2.0000      -0.918679       -24.9985
 147   2.0000      -0.913560       -24.8592
 148   2.0000      -0.912323       -24.8256
 149   2.0000      -0.903512       -24.5858
 150   2.0000      -0.895258       -24.3612
 151   2.0000      -0.894490       -24.3403
 152   2.0000      -0.888978       -24.1903
 153   2.0000      -0.888540       -24.1784
 154   2.0000      -0.880617       -23.9628
 155   2.0000      -0.879508       -23.9326
 156   2.0000      -0.857315       -23.3287
 157   2.0000      -0.852305       -23.1924
 158   2.0000      -0.847163       -23.0525
 159   2.0000      -0.844358       -22.9761
 160   2.0000      -0.837535       -22.7905
 161   2.0000      -0.832172       -22.6445
 162   2.0000      -0.806234       -21.9387
 163   2.0000      -0.800415       -21.7804
 164   2.0000      -0.790361       -21.5068
 165   2.0000      -0.779992       -21.2247
 166   2.0000      -0.772466       -21.0199
 167   2.0000      -0.767093       -20.8736
 168   2.0000      -0.765249       -20.8235
 169   2.0000      -0.750880       -20.4325
 170   2.0000      -0.732195       -19.9241
 171   2.0000      -0.722517       -19.6607
 172   2.0000      -0.719350       -19.5745
 173   2.0000      -0.715730       -19.4760
 174   2.0000      -0.708687       -19.2844
 175   2.0000      -0.702854       -19.1256
 176   2.0000      -0.699107       -19.0237
 177   2.0000      -0.692103       -18.8331
 178   2.0000      -0.687551       -18.7092
 179   2.0000      -0.681129       -18.5345
 180   2.0000      -0.676616       -18.4117
 181   2.0000      -0.672728       -18.3058
 182   2.0000      -0.667238       -18.1565
 183   2.0000      -0.660645       -17.9771
 184   2.0000      -0.653094       -17.7716
 185   2.0000      -0.651412       -17.7258
 186   2.0000      -0.645068       -17.5532
 187   2.0000      -0.642551       -17.4847
 188   2.0000      -0.641236       -17.4489
 189   2.0000      -0.639655       -17.4059
 190   2.0000      -0.634447       -17.2642
 191   2.0000      -0.633824       -17.2472
 192   2.0000      -0.631799       -17.1921
 193   2.0000      -0.627855       -17.0848
 194   2.0000      -0.625741       -17.0273
 195   2.0000      -0.618843       -16.8396
 196   2.0000      -0.616255       -16.7691
 197   2.0000      -0.613644       -16.6981
 198   2.0000      -0.610535       -16.6135
 199   2.0000      -0.607937       -16.5428
 200   2.0000      -0.604076       -16.4378
 201   2.0000      -0.599175       -16.3044
 202   2.0000      -0.596009       -16.2182
 203   2.0000      -0.595722       -16.2104
 204   2.0000      -0.585669       -15.9369
 205   2.0000      -0.585017       -15.9191
 206   2.0000      -0.578441       -15.7402
 207   2.0000      -0.574894       -15.6437
 208   2.0000      -0.570629       -15.5276
 209   2.0000      -0.561549       -15.2805
 210   2.0000      -0.559509       -15.2250
 211   2.0000      -0.557641       -15.1742
 212   2.0000      -0.555498       -15.1159
 213   2.0000      -0.552146       -15.0247
 214   2.0000      -0.549801       -14.9608
 215   2.0000      -0.546834       -14.8801
 216   2.0000      -0.545359       -14.8400
 217   2.0000      -0.543127       -14.7792
 218   2.0000      -0.542412       -14.7598
 219   2.0000      -0.537705       -14.6317
 220   2.0000      -0.533733       -14.5236
 221   2.0000      -0.531422       -14.4607
 222   2.0000      -0.527947       -14.3662
 223   2.0000      -0.525030       -14.2868
 224   2.0000      -0.520154       -14.1541
 225   2.0000      -0.518906       -14.1201
 226   2.0000      -0.517297       -14.0764
 227   2.0000      -0.515212       -14.0196
 228   2.0000      -0.511759       -13.9257
 229   2.0000      -0.511045       -13.9062
 230   2.0000      -0.508800       -13.8451
 231   2.0000      -0.508014       -13.8238
 232   2.0000      -0.504947       -13.7403
 233   2.0000      -0.503602       -13.7037
 234   2.0000      -0.497944       -13.5498
 235   2.0000      -0.495843       -13.4926
 236   2.0000      -0.489124       -13.3097
 237   2.0000      -0.488294       -13.2872
 238   2.0000      -0.486868       -13.2483
 239   2.0000      -0.480300       -13.0696
 240   2.0000      -0.476909       -12.9774
 241   2.0000      -0.470605       -12.8058
 242   2.0000      -0.469827       -12.7847
 243   2.0000      -0.467712       -12.7271
 244   2.0000      -0.466588       -12.6965
 245   2.0000      -0.461648       -12.5621
 246   2.0000      -0.460556       -12.5324
 247   2.0000      -0.459041       -12.4911
 248   2.0000      -0.458393       -12.4735
 249   2.0000      -0.457408       -12.4467
 250   2.0000      -0.452578       -12.3153
 251   2.0000      -0.450694       -12.2640
 252   2.0000      -0.450239       -12.2516
 253   2.0000      -0.447838       -12.1863
 254   2.0000      -0.446131       -12.1398
 255   2.0000      -0.442973       -12.0539
 256   2.0000      -0.438023       -11.9192
 257   2.0000      -0.436933       -11.8896
 258   2.0000      -0.434859       -11.8331
 259   2.0000      -0.434022       -11.8103
 260   2.0000      -0.429743       -11.6939
 261   2.0000      -0.419016       -11.4020
 262   2.0000      -0.415093       -11.2953
 263   2.0000      -0.411612       -11.2005
 264   2.0000      -0.410321       -11.1654
 265   2.0000      -0.401217       -10.9177
 266   2.0000      -0.396963       -10.8019
 267   2.0000      -0.396079       -10.7779
 268   2.0000      -0.391700       -10.6587
 269   2.0000      -0.389987       -10.6121
 270   2.0000      -0.388669       -10.5762
 271   2.0000      -0.387721       -10.5504
 272   2.0000      -0.385914       -10.5013
 273   2.0000      -0.382716       -10.4142
 274   2.0000      -0.380923       -10.3654
 275   2.0000      -0.380557       -10.3555
 276   2.0000      -0.378406       -10.2970
 277   2.0000      -0.377786       -10.2801
 278   2.0000      -0.376577       -10.2472
 279   2.0000      -0.374303       -10.1853
 280   2.0000      -0.370762       -10.0890
 281   2.0000      -0.369806       -10.0629
 282   2.0000      -0.366841        -9.9823
 283   2.0000      -0.357428        -9.7261
 284   2.0000      -0.352614        -9.5951
 285   2.0000      -0.351687        -9.5699
 286   2.0000      -0.337752        -9.1907
 287   2.0000      -0.328396        -8.9361
 288   2.0000      -0.325933        -8.8691
 289   2.0000      -0.320804        -8.7295
 290   2.0000      -0.317982        -8.6527
 291   2.0000      -0.302331        -8.2269
 292   2.0000      -0.300945        -8.1891
 293   2.0000      -0.295892        -8.0516
 294   2.0000      -0.285645        -7.7728
 295   2.0000      -0.263897        -7.1810
 296   0.0000      -0.106767        -2.9053
 297   0.0000      -0.086862        -2.3636
 298   0.0000      -0.080572        -2.1925
 299   0.0000      -0.068543        -1.8652
 300   0.0000      -0.066375        -1.8062

MULLIKEN ATOMIC CHARGES
-----------------------
   0 C :    0.323860
   1 C :   -0.359112
   2 C :   -0.188233
   3 N :    0.153421
   4 C :   -0.172252
   5 N :    0.116136
   6 C :    0.012736
   7 C :   -0.000278
   8 C :   -0.074770
   9 C :    0.123078
  10 C :   -0.090700
  11 C :   -0.023353
  12 S :    0.189708
  13 C :   -0.123528
  14 C :    0.036359
  15 Br:    0.026681
  16 C :    0.132209
  17 O :   -0.159079
  18 C :   -0.134380
  19 C :    0.007411
  20 N :   -0.055218
  21 C :   -0.081892
  22 S :    0.191963
  23 C :    0.001356
  24 N :    0.275703
  25 O :   -0.244430
  26 O :   -0.261376
  27 C :   -0.002378
  28 C :    0.134877
  29 C :   -0.059293
  30 C :    0.049778
  31 N :   -0.048273
  32 C :   -0.092316
  33 S :    0.145418
  34 C :    0.000710
  35 N :    0.278580
  36 O :   -0.252349
  37 O :   -0.268007
  38 C :    0.018557
  39 C :    0.078562
  40 C :   -0.049012
  41 C :    0.026034
  42 N :   -0.022855
  43 C :   -0.095786
  44 S :    0.173037
  45 C :   -0.002622
  46 N :    0.278590
  47 O :   -0.236548
  48 O :   -0.261566
  49 C :    0.018072
  50 C :    0.095366
  51 C :   -0.013929
  52 C :    0.021421
  53 C :    0.012031
  54 C :   -0.099685
  55 C :    0.280080
  56 C :   -0.316781
  57 C :   -0.173096
  58 N :    0.165309
  59 C :   -0.213498
  60 N :    0.166282
  61 C :    0.048079
  62 C :    0.007021
  63 C :    0.172196
  64 O :   -0.224161
  65 C :   -0.064284
  66 C :    0.109647
  67 C :   -0.084251
  68 C :   -0.018452
  69 S :    0.195855
  70 C :   -0.124447
  71 C :    0.039873
  72 Br:    0.031206
  73 H :   -0.010133
  74 H :   -0.005553
  75 H :   -0.002002
  76 H :    0.024578
  77 H :    0.181613
  78 H :    0.011879
  79 H :    0.013322
  80 H :    0.021849
  81 H :    0.142386
  82 H :    0.007598
  83 H :    0.005803
  84 H :    0.037223
  85 H :    0.140198
  86 H :    0.021743
  87 H :   -0.029978
  88 H :    0.023220
  89 H :   -0.017138
  90 H :   -0.009042
  91 H :   -0.002154
  92 H :   -0.000424
Sum of atomic charges:   -0.0000000

LOEWDIN ATOMIC CHARGES
----------------------
   0 C :    0.089104
   1 C :   -0.160010
   2 C :   -0.020836
   3 N :   -0.054389
   4 C :   -0.000199
   5 N :   -0.077076
   6 C :   -0.023448
   7 C :   -0.048600
   8 C :    0.022028
   9 C :   -0.031122
  10 C :   -0.145648
  11 C :   -0.005869
  12 S :    0.435726
  13 C :   -0.271070
  14 C :   -0.070043
  15 Br:    0.139396
  16 C :    0.070263
  17 O :   -0.160266
  18 C :   -0.159628
  19 C :    0.098463
  20 N :    0.059888
  21 C :   -0.112034
  22 S :    0.482977
  23 C :   -0.197351
  24 N :    0.273429
  25 O :   -0.209540
  26 O :   -0.226815
  27 C :   -0.004761
  28 C :   -0.065529
  29 C :   -0.083155
  30 C :    0.018029
  31 N :    0.028745
  32 C :   -0.099142
  33 S :    0.486959
  34 C :   -0.219780
  35 N :    0.273764
  36 O :   -0.218500
  37 O :   -0.234309
  38 C :    0.000002
  39 C :   -0.111026
  40 C :   -0.060620
  41 C :    0.005944
  42 N :    0.033945
  43 C :   -0.083491
  44 S :    0.454532
  45 C :   -0.203345
  46 N :    0.273329
  47 O :   -0.202802
  48 O :   -0.227277
  49 C :    0.018769
  50 C :   -0.118005
  51 C :    0.024320
  52 C :   -0.031175
  53 C :    0.055308
  54 C :   -0.093831
  55 C :    0.074809
  56 C :   -0.127751
  57 C :   -0.017156
  58 N :   -0.040019
  59 C :   -0.019271
  60 N :   -0.052707
  61 C :   -0.003109
  62 C :   -0.053288
  63 C :    0.108320
  64 O :   -0.171242
  65 C :    0.029934
  66 C :   -0.033494
  67 C :   -0.137011
  68 C :   -0.005308
  69 S :    0.441888
  70 C :   -0.270716
  71 C :   -0.069048
  72 Br:    0.142656
  73 H :    0.041223
  74 H :    0.041631
  75 H :    0.039316
  76 H :    0.037601
  77 H :    0.077286
  78 H :    0.045829
  79 H :    0.016544
  80 H :    0.028300
  81 H :    0.086950
  82 H :    0.045822
  83 H :    0.033777
  84 H :    0.031915
  85 H :    0.094989
  86 H :    0.050056
  87 H :    0.024235
  88 H :    0.035347
  89 H :    0.033303
  90 H :    0.041741
  91 H :    0.042568
  92 H :    0.039849

  Mayer bond orders larger than 0.100000
B(  0-C ,  1-C ) :   1.6002 B(  0-C ,  6-C ) :   1.0086 B(  0-C , 18-C ) :   1.1189
B(  1-C ,  2-C ) :   1.1420 B(  1-C ,  4-C ) :   1.1570 B(  2-C ,  3-N ) :   2.9720
B(  4-C ,  5-N ) :   2.9240 B(  6-C ,  7-C ) :   1.2736 B(  6-C , 11-C ) :   1.4102
B(  7-C ,  8-C ) :   1.4293 B(  7-C , 16-C ) :   0.9391 B(  8-C ,  9-C ) :   1.2386
B(  8-C , 73-H ) :   1.0184 B(  9-C , 10-C ) :   1.3068 B(  9-C , 14-C ) :   1.1640
B( 10-C , 11-C ) :   1.3274 B( 10-C , 12-S ) :   1.0874 B( 11-C , 74-H ) :   0.9803
B( 12-S , 13-C ) :   1.0892 B( 13-C , 14-C ) :   1.6150 B( 13-C , 15-Br) :   1.0210
B( 14-C , 75-H ) :   1.0010 B( 16-C , 17-O ) :   2.2110 B( 16-C , 18-C ) :   0.9492
B( 18-C , 19-C ) :   1.4943 B( 19-C , 20-N ) :   1.3402 B( 19-C , 76-H ) :   0.9305
B( 20-N , 21-C ) :   1.0578 B( 20-N , 77-H ) :   0.8391 B( 21-C , 22-S ) :   1.1350
B( 21-C , 28-C ) :   1.4672 B( 22-S , 23-C ) :   1.1200 B( 23-C , 24-N ) :   0.9557
B( 23-C , 27-C ) :   1.4935 B( 24-N , 25-O ) :   1.5436 B( 24-N , 26-O ) :   1.5190
B( 25-O , 26-O ) :   0.2630 B( 27-C , 28-C ) :   1.2169 B( 27-C , 78-H ) :   1.0030
B( 28-C , 29-C ) :   1.1106 B( 29-C , 30-C ) :   1.7416 B( 29-C , 79-H ) :   0.9398
B( 30-C , 31-N ) :   1.1117 B( 30-C , 80-H ) :   0.9494 B( 31-N , 32-C ) :   1.2129
B( 31-N , 81-H ) :   0.8928 B( 32-C , 33-S ) :   1.1454 B( 32-C , 39-C ) :   1.3806
B( 33-S , 34-C ) :   1.0756 B( 34-C , 35-N ) :   0.9806 B( 34-C , 38-C ) :   1.4712
B( 35-N , 36-O ) :   1.5317 B( 35-N , 37-O ) :   1.5063 B( 36-O , 37-O ) :   0.2552
B( 38-C , 39-C ) :   1.2613 B( 38-C , 82-H ) :   1.0065 B( 39-C , 40-C ) :   1.0716
B( 40-C , 41-C ) :   1.7259 B( 40-C , 83-H ) :   0.9587 B( 41-C , 42-N ) :   1.0987
B( 41-C , 84-H ) :   0.9611 B( 42-N , 43-C ) :   1.2267 B( 42-N , 85-H ) :   0.9092
B( 43-C , 44-S ) :   1.1474 B( 43-C , 50-C ) :   1.3425 B( 44-S , 45-C ) :   1.0640
B( 45-C , 46-N ) :   0.9615 B( 45-C , 49-C ) :   1.5282 B( 46-N , 47-O ) :   1.5438
B( 46-N , 48-O ) :   1.5096 B( 47-O , 48-O ) :   0.2631 B( 49-C , 50-C ) :   1.2127
B( 49-C , 86-H ) :   0.9958 B( 50-C , 51-C ) :   1.0871 B( 51-C , 52-C ) :   1.6634
B( 51-C , 87-H ) :   0.9701 B( 52-C , 53-C ) :   1.1476 B( 52-C , 88-H ) :   0.9614
B( 53-C , 54-C ) :   1.5974 B( 53-C , 89-H ) :   0.9496 B( 54-C , 55-C ) :   1.0211
B( 54-C , 63-C ) :   0.9746 B( 55-C , 56-C ) :   1.6665 B( 55-C , 61-C ) :   1.0213
B( 56-C , 57-C ) :   1.1285 B( 56-C , 59-C ) :   1.1665 B( 57-C , 58-N ) :   2.9883
B( 59-C , 60-N ) :   2.9939 B( 61-C , 62-C ) :   1.2642 B( 61-C , 68-C ) :   1.4230
B( 62-C , 63-C ) :   0.9778 B( 62-C , 65-C ) :   1.4027 B( 63-C , 64-O ) :   2.0433
B( 64-O , 77-H ) :   0.1369 B( 65-C , 66-C ) :   1.2593 B( 65-C , 90-H ) :   1.0163
B( 66-C , 67-C ) :   1.3008 B( 66-C , 71-C ) :   1.1625 B( 67-C , 68-C ) :   1.3184
B( 67-C , 69-S ) :   1.0944 B( 68-C , 91-H ) :   0.9826 B( 69-S , 70-C ) :   1.0861
B( 70-C , 71-C ) :   1.6192 B( 70-C , 72-Br) :   1.0235 B( 71-C , 92-H ) :   1.0002

-----------------------------------------------------------------------------
         ABSORPTION SPECTRUM VIA TRANSITION ELECTRIC DIPOLE MOMENTS
-----------------------------------------------------------------------------
State   Energy  Wavelength   fosc         T2         TX        TY        TZ
        (cm-1)    (nm)                  (au**2)     (au)      (au)      (au)
-----------------------------------------------------------------------------
   0   18233.0    548.5   0.181346020   3.27434  -0.02374   1.18552  -1.36687
   1   22177.9    450.9   0.212497960   3.15435   1.31581   0.33833  -1.14391
   2   22828.6    438.0   0.747722323  10.78295  -1.52083   1.46334  -2.51568
   3   25136.1    397.8   0.007790483   0.10203   0.15630   0.00979  -0.27840
   4   25535.7    391.6   0.040086623   0.51681  -0.25662  -0.30375  -0.59891
   5   25932.5    385.6   0.086905139   1.10326  -0.78939  -0.01232  -0.69279
   6   26485.9    377.6   0.223095467   2.77301  -0.71819  -0.07609   1.50047
   7   27127.4    368.6   0.477031797   5.78914  -0.58744   1.36810   1.89006
   8   27582.4    362.6   0.658070761   7.85446  -1.45713   2.18106  -0.98702
   9   27952.4    357.8   0.051290534   0.60408   0.04145   0.45844  -0.62625
  10   28350.8    352.7   0.111675464   1.29678   0.90932  -0.67845   0.09815
  11   28901.3    346.0   0.203393428   2.31683   1.37412   0.63872  -0.14374
  12   29109.2    343.5   0.250381451   2.83170  -0.84707  -1.14957  -0.89032
  13   29678.7    336.9   0.221700675   2.45923  -0.83242  -0.65099   1.15867
  14   30354.1    329.4   0.030219026   0.32775   0.00778  -0.52040  -0.23848
  15   30787.2    324.8   0.052925668   0.56594  -0.03905   0.48371  -0.57484
  16   30889.0    323.7   0.036906249   0.39334  -0.11320   0.16990   0.59301
  17   30910.2    323.5   0.105965791   1.12860   0.86470   0.51216  -0.34437
  18   31732.6    315.1   0.100685805   1.04457   0.30782   0.09789  -0.96966
  19   31808.4    314.4   0.633435146   6.55595   1.86625   0.65491  -1.62608
  20   31926.0    313.2   0.152060632   1.56801   0.65492   0.63132  -0.86054
  21   32080.7    311.7   0.109465584   1.12334   0.14199   0.47367   0.93745
  22   32474.7    307.9   0.140185866   1.42113   0.25357  -1.11279  -0.34430
  23   32573.9    307.0   0.080924735   0.81788   0.40577   0.79163  -0.16296
  24   32749.0    305.4   0.114471869   1.15074  -0.29112  -0.43082   0.93828
  25   33263.3    300.6   0.005694195   0.05636  -0.03257   0.22207   0.07732
  26   33362.4    299.7   0.001732818   0.01710  -0.08498   0.04489   0.08867
  27   34109.7    293.2   0.054277838   0.52387   0.30221   0.49609  -0.43177
  28   34258.9    291.9   0.315573179   3.03251   0.17940   1.72571   0.14918
  29   34469.1    290.1   0.096841976   0.92493   0.55423  -0.28530  -0.73237
  30   34905.8    286.5   0.101766198   0.95980   0.59801  -0.70621  -0.32165
  31   35040.6    285.4   0.035744641   0.33583  -0.14461  -0.34152   0.44528
  32   35685.9    280.2   0.105220437   0.97069   0.17920  -0.92576  -0.28555
  33   35794.9    279.4   0.009360952   0.08609   0.01211  -0.14790  -0.25313
  34   36196.1    276.3   0.031644806   0.28782  -0.04821  -0.44804   0.29113
  35   36747.9    272.1   0.082070630   0.73524   0.28651  -0.40094  -0.70172
  36   36927.1    270.8   0.001328682   0.01185   0.00413  -0.01088   0.10821
  37   37039.2    270.0   0.131798948   1.17146   0.72714  -0.72230  -0.34786
  38   37244.3    268.5   0.092043334   0.81359  -0.63882  -0.39736  -0.49760
  39   37725.6    265.1   0.023223747   0.20266  -0.09120  -0.44051   0.01729
  40   37861.8    264.1   0.119035778   1.03503   0.68369  -0.48363  -0.57767
  41   38063.8    262.7   0.019775617   0.17104   0.21305   0.27947  -0.21804
  42   38075.9    262.6   0.149813689   1.29532   0.53178  -0.70495   0.71804
  43   38633.6    258.8   0.064931692   0.55331   0.53348  -0.50419   0.12041
  44   38882.0    257.2   0.017532242   0.14844   0.25732   0.19777   0.20766
  45   38926.4    256.9   0.025127705   0.21251  -0.35699  -0.15233  -0.24872
  46   39142.8    255.5   0.232112185   1.95219  -0.25189   1.13744   0.77134
  47   39342.0    254.2   0.057739657   0.48316  -0.01771  -0.65877  -0.22105
  48   39413.9    253.7   0.040867938   0.34136  -0.53842   0.22596  -0.02010
  49   39551.8    252.8   0.168743622   1.40455   0.98714  -0.64129   0.13734
  50   39694.6    251.9   0.004274300   0.03545  -0.12753   0.13051  -0.04638
  51   39803.9    251.2   0.026785286   0.22154   0.36985  -0.01468   0.29074
  52   39906.0    250.6   0.001557830   0.01285  -0.06127   0.09339  -0.01939
  53   40113.8    249.3   0.123873536   1.01662   0.44489  -0.05980   0.90284
  54   40212.9    248.7   0.052875969   0.43288   0.27605  -0.56743  -0.18630

FINAL SINGLE POINT ENERGY    -10124.637246896775

DIPOLE MOMENT
-------------
                                X             Y             Z
Electronic contribution:     46.84674     -24.84298     123.01947
Nuclear contribution   :    -47.49494      25.18292    -124.12844
                        -----------------------------------------
Total Dipole Moment    :     -0.64820       0.33994      -1.10896
                        -----------------------------------------
Magnitude (a.u.)       :      1.32873
Magnitude (Debye)      :      3.37736

Rotational constants in cm-1:     0.000501     0.000458     0.000356
Rotational constants in MHz :    15.027262    13.738478    10.678967

                             ****ORCA TERMINATED NORMALLY****
TOTAL RUN TIME: 0 days 0 hours 22 minutes 20 seconds 774 msec
