                         Program Version 4.2.0 -  RELEASE  -
|  1> # ORCA input file
|  2> # SCF done       -160.918741517908          0.000300727515
|  3> ! CAM-B3LYP def2-SVP def2/J RIJCOSX Grid4 TightSCF
|  4> %maxcore 5000
|  5> %tddft
|  6>     Mode sTDDFT
|  7>     Ethresh 5.0
|  8>     maxcore 5000
|  9> end
| 10>
| 11> %pal
| 12>   nprocs 6
| 13>   end
| 14> * xyz 0 1
| 15>    C       -1.43934         2.07373         2.45046
| 16>    N       -0.58432         2.74769         1.69910
| 17>    C       -0.65557         2.52657         0.39269
| 18>    C       -1.56606         1.64617        -0.15911
| 19>    C       -2.42876         0.98256         0.72630
| 20>    N       -2.34620         1.21486         2.04402
| 21>    C       -3.41763         0.04633         0.25350
| 22>    C       -4.25903        -0.59466         1.09262
| 23>    C       -5.26402        -1.52291         0.71569
| 24>    S       -6.26686        -2.23102         1.96916
| 25>    C       -7.13144        -3.12438         0.79146
| 26>    C       -6.66600        -2.88930        -0.50542
| 27>    C       -5.61400        -1.98783        -0.54499
| 28>    C       -7.45659        -3.69372        -1.51154
| 29>    C       -8.17793        -2.78626        -2.51138
| 30>    C       -6.56245        -4.70084        -2.24084
| 31>    C       -8.43473        -4.39397        -0.59601
| 32>    C       -8.20506        -4.03976         0.73950
| 33>    S       -9.28640        -4.81036         1.82012
| 34>    C      -10.07522        -5.61691         0.47332
| 35>    C       -9.48612        -5.27877        -0.74457
| 36>    C      -11.16706        -6.46370         0.74580
| 37>    C      -11.91497        -7.10446        -0.20061
| 38>    C      -13.01168        -7.92372         0.11261
| 39>    C      -13.54178        -8.27310         1.36502
| 40>    C      -14.70021        -9.12062         1.26935
| 41>    N      -15.34451        -9.55785         2.34839
| 42>    C      -14.87295        -9.18233         3.51992
| 43>    C      -15.58014        -9.66891         4.72509
| 44>    O      -16.56355       -10.38175         4.67212
| 45>    C      -15.00139        -9.22655         6.00404
| 46>    C      -13.92429        -8.43869         6.10015
| 47>    C      -13.18792        -7.91934         4.93767
| 48>    O      -12.21456        -7.19942         5.05438
| 49>    C      -13.71959        -8.33972         3.62167
| 50>    N      -13.07709        -7.90059         2.55842
| 51>    C      -15.06699        -9.42678        -0.04739
| 52>    S      -13.96184        -8.66707        -1.15192
| 53>    C      -16.16679       -10.20491        -0.42979
| 54>    S      -17.22177       -10.85898         0.80990
| 55>    C      -18.20174       -11.55304        -0.41666
| 56>    C      -17.72953       -11.29815        -1.71266
| 57>    C      -16.57912       -10.53566        -1.71992
| 58>    C      -18.63212       -11.92438        -2.75012
| 59>    C      -19.23849       -10.86563        -3.67464
| 60>    C      -17.89077       -12.99127        -3.56092
| 61>    C      -19.68179       -12.54565        -1.85852
| 62>    C      -19.38835       -12.31165        -0.51139
| 63>    S      -20.55803       -12.99383         0.53848
| 64>    C      -21.46201       -13.59715        -0.83720
| 65>    C      -20.84928       -13.26963        -2.03933
| 66>    C      -22.67072       -14.30832        -0.60723
| 67>    C      -23.48515       -14.79633        -1.56448
| 68>    C      -24.71138       -15.49624        -1.26091
| 69>    N      -25.04413       -15.68136         0.02206
| 70>    C      -26.17229       -16.31976         0.26038
| 71>    C      -26.99557       -16.78655        -0.75261
| 72>    C      -26.57078       -16.54959        -2.06485
| 73>    N      -25.43092       -15.90699        -2.30252
| 74>    C      -27.36212       -16.99712        -3.20586
| 75>    C      -26.99441       -16.79616        -4.46483
| 76>    H       -1.38574         2.24962         3.51810
| 77>    H        0.04567         3.08029        -0.21940
| 78>    H       -1.61593         1.47370        -1.22270
| 79>    H       -3.45359        -0.11556        -0.81418
| 80>    H       -4.16420        -0.38120         2.14886
| 81>    H       -5.11316        -1.67005        -1.44099
| 82>    H       -7.45379        -2.24094        -3.11158
| 83>    H       -8.80612        -2.07018        -1.98657
| 84>    H       -8.80399        -3.38116        -3.17177
| 85>    H       -5.81327        -4.17777        -2.83003
| 86>    H       -7.16087        -5.32074        -2.90385
| 87>    H       -6.05625        -5.34391        -1.52454
| 88>    H       -9.82592        -5.67538        -1.68364
| 89>    H      -11.43458        -6.60202         1.78429
| 90>    H      -11.68953        -6.98620        -1.25171
| 91>    H      -15.51453        -9.58579         6.88609
| 92>    H      -13.53319        -8.13642         7.06247
| 93>    H      -16.03926       -10.21169        -2.59195
| 94>    H      -18.45511       -10.38196        -4.25283
| 95>    H      -19.75951       -10.10981        -3.09164
| 96>    H      -19.94605       -11.32763        -4.35854
| 97>    H      -17.08682       -12.53449        -4.13272
| 98>    H      -18.57629       -13.48185        -4.24740
| 99>    H      -17.46542       -13.74083        -2.89770
|100>    H      -21.25411       -13.55459        -2.99274
|101>    H      -22.95902       -14.45851         0.42439
|102>    H      -23.27151       -14.68460        -2.61617
|103>    H      -26.42360       -16.45900         1.30521
|104>    H      -27.91673       -17.30572        -0.54255
|105>    H      -28.28259       -17.51116        -2.96240
|106>    H      -26.07415       -16.28246        -4.68415
|107>    H      -27.58987       -17.13226        -5.29617
|108> *
|109>
|110>                          ****END OF INPUT****

CARTESIAN COORDINATES (ANGSTROEM)
---------------------------------
  C     -1.439340    2.073730    2.450460
  N     -0.584320    2.747690    1.699100
  C     -0.655570    2.526570    0.392690
  C     -1.566060    1.646170   -0.159110
  C     -2.428760    0.982560    0.726300
  N     -2.346200    1.214860    2.044020
  C     -3.417630    0.046330    0.253500
  C     -4.259030   -0.594660    1.092620
  C     -5.264020   -1.522910    0.715690
  S     -6.266860   -2.231020    1.969160
  C     -7.131440   -3.124380    0.791460
  C     -6.666000   -2.889300   -0.505420
  C     -5.614000   -1.987830   -0.544990
  C     -7.456590   -3.693720   -1.511540
  C     -8.177930   -2.786260   -2.511380
  C     -6.562450   -4.700840   -2.240840
  C     -8.434730   -4.393970   -0.596010
  C     -8.205060   -4.039760    0.739500
  S     -9.286400   -4.810360    1.820120
  C    -10.075220   -5.616910    0.473320
  C     -9.486120   -5.278770   -0.744570
  C    -11.167060   -6.463700    0.745800
  C    -11.914970   -7.104460   -0.200610
  C    -13.011680   -7.923720    0.112610
  C    -13.541780   -8.273100    1.365020
  C    -14.700210   -9.120620    1.269350
  N    -15.344510   -9.557850    2.348390
  C    -14.872950   -9.182330    3.519920
  C    -15.580140   -9.668910    4.725090
  O    -16.563550  -10.381750    4.672120
  C    -15.001390   -9.226550    6.004040
  C    -13.924290   -8.438690    6.100150
  C    -13.187920   -7.919340    4.937670
  O    -12.214560   -7.199420    5.054380
  C    -13.719590   -8.339720    3.621670
  N    -13.077090   -7.900590    2.558420
  C    -15.066990   -9.426780   -0.047390
  S    -13.961840   -8.667070   -1.151920
  C    -16.166790  -10.204910   -0.429790
  S    -17.221770  -10.858980    0.809900
  C    -18.201740  -11.553040   -0.416660
  C    -17.729530  -11.298150   -1.712660
  C    -16.579120  -10.535660   -1.719920
  C    -18.632120  -11.924380   -2.750120
  C    -19.238490  -10.865630   -3.674640
  C    -17.890770  -12.991270   -3.560920
  C    -19.681790  -12.545650   -1.858520
  C    -19.388350  -12.311650   -0.511390
  S    -20.558030  -12.993830    0.538480
  C    -21.462010  -13.597150   -0.837200
  C    -20.849280  -13.269630   -2.039330
  C    -22.670720  -14.308320   -0.607230
  C    -23.485150  -14.796330   -1.564480
  C    -24.711380  -15.496240   -1.260910
  N    -25.044130  -15.681360    0.022060
  C    -26.172290  -16.319760    0.260380
  C    -26.995570  -16.786550   -0.752610
  C    -26.570780  -16.549590   -2.064850
  N    -25.430920  -15.906990   -2.302520
  C    -27.362120  -16.997120   -3.205860
  C    -26.994410  -16.796160   -4.464830
  H     -1.385740    2.249620    3.518100
  H      0.045670    3.080290   -0.219400
  H     -1.615930    1.473700   -1.222700
  H     -3.453590   -0.115560   -0.814180
  H     -4.164200   -0.381200    2.148860
  H     -5.113160   -1.670050   -1.440990
  H     -7.453790   -2.240940   -3.111580
  H     -8.806120   -2.070180   -1.986570
  H     -8.803990   -3.381160   -3.171770
  H     -5.813270   -4.177770   -2.830030
  H     -7.160870   -5.320740   -2.903850
  H     -6.056250   -5.343910   -1.524540
  H     -9.825920   -5.675380   -1.683640
  H    -11.434580   -6.602020    1.784290
  H    -11.689530   -6.986200   -1.251710
  H    -15.514530   -9.585790    6.886090
  H    -13.533190   -8.136420    7.062470
  H    -16.039260  -10.211690   -2.591950
  H    -18.455110  -10.381960   -4.252830
  H    -19.759510  -10.109810   -3.091640
  H    -19.946050  -11.327630   -4.358540
  H    -17.086820  -12.534490   -4.132720
  H    -18.576290  -13.481850   -4.247400
  H    -17.465420  -13.740830   -2.897700
  H    -21.254110  -13.554590   -2.992740
  H    -22.959020  -14.458510    0.424390
  H    -23.271510  -14.684600   -2.616170
  H    -26.423600  -16.459000    1.305210
  H    -27.916730  -17.305720   -0.542550
  H    -28.282590  -17.511160   -2.962400
  H    -26.074150  -16.282460   -4.684150
  H    -27.589870  -17.132260   -5.296170

 Total Charge           Charge          ....    0
 Multiplicity           Mult            ....    1
 Number of Electrons    NEL             ....  458
 Basis Dimension        Dim             .... 1034

ORBITAL ENERGIES
----------------

  NO   OCC          E(Eh)            E(eV)
   0   2.0000     -88.979990     -2421.2686
   1   2.0000     -88.960346     -2420.7341
   2   2.0000     -88.958753     -2420.6907
   3   2.0000     -88.954971     -2420.5878
   4   2.0000     -88.954134     -2420.5651
   5   2.0000     -19.215885      -522.8908
   6   2.0000     -19.214931      -522.8648
   7   2.0000     -14.438221      -392.8840
   8   2.0000     -14.436356      -392.8332
   9   2.0000     -14.395898      -391.7323
  10   2.0000     -14.395550      -391.7228
  11   2.0000     -14.394641      -391.6981
  12   2.0000     -14.392875      -391.6500
  13   2.0000     -10.365096      -282.0486
  14   2.0000     -10.364905      -282.0434
  15   2.0000     -10.329943      -281.0920
  16   2.0000     -10.328027      -281.0399
  17   2.0000     -10.327263      -281.0191
  18   2.0000     -10.321435      -280.8605
  19   2.0000     -10.318451      -280.7793
  20   2.0000     -10.317545      -280.7547
  21   2.0000     -10.317413      -280.7511
  22   2.0000     -10.316956      -280.7386
  23   2.0000     -10.316334      -280.7217
  24   2.0000     -10.314815      -280.6804
  25   2.0000     -10.310803      -280.5712
  26   2.0000     -10.308930      -280.5203
  27   2.0000     -10.304760      -280.4068
  28   2.0000     -10.302127      -280.3351
  29   2.0000     -10.300782      -280.2985
  30   2.0000     -10.299903      -280.2746
  31   2.0000     -10.299843      -280.2730
  32   2.0000     -10.299441      -280.2620
  33   2.0000     -10.299210      -280.2557
  34   2.0000     -10.296202      -280.1739
  35   2.0000     -10.295034      -280.1421
  36   2.0000     -10.294490      -280.1273
  37   2.0000     -10.294464      -280.1266
  38   2.0000     -10.290313      -280.0137
  39   2.0000     -10.282571      -279.8030
  40   2.0000     -10.282268      -279.7947
  41   2.0000     -10.278527      -279.6929
  42   2.0000     -10.278297      -279.6867
  43   2.0000     -10.277983      -279.6781
  44   2.0000     -10.276636      -279.6415
  45   2.0000     -10.275352      -279.6066
  46   2.0000     -10.274407      -279.5808
  47   2.0000     -10.273509      -279.5564
  48   2.0000     -10.273201      -279.5480
  49   2.0000     -10.272294      -279.5233
  50   2.0000     -10.271751      -279.5086
  51   2.0000     -10.269239      -279.4402
  52   2.0000     -10.269053      -279.4351
  53   2.0000     -10.268986      -279.4333
  54   2.0000     -10.267716      -279.3988
  55   2.0000     -10.266385      -279.3625
  56   2.0000     -10.265990      -279.3518
  57   2.0000     -10.265833      -279.3475
  58   2.0000     -10.262340      -279.2525
  59   2.0000     -10.262221      -279.2492
  60   2.0000     -10.258199      -279.1398
  61   2.0000      -8.074587      -219.7207
  62   2.0000      -8.055359      -219.1975
  63   2.0000      -8.053725      -219.1530
  64   2.0000      -8.050089      -219.0541
  65   2.0000      -8.047886      -218.9941
  66   2.0000      -6.043631      -164.4556
  67   2.0000      -6.039640      -164.3470
  68   2.0000      -6.037236      -164.2815
  69   2.0000      -6.024615      -163.9381
  70   2.0000      -6.022983      -163.8937
  71   2.0000      -6.020549      -163.8275
  72   2.0000      -6.019299      -163.7935
  73   2.0000      -6.018925      -163.7833
  74   2.0000      -6.017589      -163.7469
  75   2.0000      -6.017405      -163.7419
  76   2.0000      -6.015916      -163.7014
  77   2.0000      -6.015295      -163.6845
  78   2.0000      -6.013020      -163.6226
  79   2.0000      -6.012307      -163.6032
  80   2.0000      -6.009818      -163.5355
  81   2.0000      -1.131495       -30.7895
  82   2.0000      -1.126900       -30.6645
  83   2.0000      -1.087214       -29.5846
  84   2.0000      -1.069434       -29.1008
  85   2.0000      -1.067254       -29.0415
  86   2.0000      -1.015816       -27.6418
  87   2.0000      -1.010102       -27.4863
  88   2.0000      -1.005996       -27.3745
  89   2.0000      -0.989845       -26.9350
  90   2.0000      -0.973001       -26.4767
  91   2.0000      -0.968796       -26.3623
  92   2.0000      -0.966861       -26.3096
  93   2.0000      -0.964591       -26.2478
  94   2.0000      -0.929295       -25.2874
  95   2.0000      -0.927649       -25.2426
  96   2.0000      -0.921974       -25.0882
  97   2.0000      -0.901437       -24.5293
  98   2.0000      -0.895302       -24.3624
  99   2.0000      -0.892230       -24.2788
 100   2.0000      -0.873721       -23.7751
 101   2.0000      -0.868859       -23.6429
 102   2.0000      -0.860959       -23.4279
 103   2.0000      -0.856684       -23.3116
 104   2.0000      -0.844991       -22.9934
 105   2.0000      -0.834798       -22.7160
 106   2.0000      -0.828062       -22.5327
 107   2.0000      -0.826031       -22.4774
 108   2.0000      -0.821395       -22.3513
 109   2.0000      -0.819380       -22.2965
 110   2.0000      -0.816841       -22.2274
 111   2.0000      -0.789312       -21.4783
 112   2.0000      -0.784328       -21.3427
 113   2.0000      -0.777415       -21.1545
 114   2.0000      -0.776420       -21.1275
 115   2.0000      -0.773887       -21.0585
 116   2.0000      -0.766864       -20.8674
 117   2.0000      -0.752464       -20.4756
 118   2.0000      -0.742690       -20.2096
 119   2.0000      -0.738339       -20.0912
 120   2.0000      -0.731092       -19.8940
 121   2.0000      -0.713200       -19.4071
 122   2.0000      -0.705595       -19.2002
 123   2.0000      -0.702265       -19.1096
 124   2.0000      -0.693755       -18.8780
 125   2.0000      -0.680443       -18.5158
 126   2.0000      -0.675021       -18.3682
 127   2.0000      -0.672632       -18.3032
 128   2.0000      -0.663441       -18.0531
 129   2.0000      -0.656389       -17.8612
 130   2.0000      -0.641717       -17.4620
 131   2.0000      -0.638238       -17.3673
 132   2.0000      -0.630489       -17.1565
 133   2.0000      -0.625319       -17.0158
 134   2.0000      -0.623843       -16.9756
 135   2.0000      -0.621233       -16.9046
 136   2.0000      -0.614531       -16.7222
 137   2.0000      -0.610683       -16.6175
 138   2.0000      -0.603207       -16.4141
 139   2.0000      -0.602134       -16.3849
 140   2.0000      -0.595241       -16.1973
 141   2.0000      -0.590583       -16.0706
 142   2.0000      -0.586196       -15.9512
 143   2.0000      -0.574420       -15.6308
 144   2.0000      -0.570290       -15.5184
 145   2.0000      -0.558670       -15.2022
 146   2.0000      -0.556466       -15.1422
 147   2.0000      -0.555082       -15.1046
 148   2.0000      -0.554151       -15.0792
 149   2.0000      -0.549607       -14.9556
 150   2.0000      -0.548159       -14.9162
 151   2.0000      -0.541021       -14.7219
 152   2.0000      -0.535575       -14.5737
 153   2.0000      -0.534609       -14.5475
 154   2.0000      -0.531822       -14.4716
 155   2.0000      -0.526940       -14.3388
 156   2.0000      -0.524304       -14.2670
 157   2.0000      -0.523407       -14.2426
 158   2.0000      -0.518307       -14.1039
 159   2.0000      -0.516393       -14.0518
 160   2.0000      -0.514565       -14.0020
 161   2.0000      -0.512443       -13.9443
 162   2.0000      -0.508627       -13.8405
 163   2.0000      -0.507794       -13.8178
 164   2.0000      -0.507480       -13.8092
 165   2.0000      -0.506506       -13.7827
 166   2.0000      -0.503163       -13.6918
 167   2.0000      -0.496508       -13.5107
 168   2.0000      -0.493574       -13.4308
 169   2.0000      -0.492540       -13.4027
 170   2.0000      -0.491857       -13.3841
 171   2.0000      -0.487602       -13.2683
 172   2.0000      -0.482257       -13.1229
 173   2.0000      -0.478644       -13.0246
 174   2.0000      -0.478111       -13.0101
 175   2.0000      -0.476506       -12.9664
 176   2.0000      -0.474424       -12.9097
 177   2.0000      -0.472531       -12.8582
 178   2.0000      -0.468694       -12.7538
 179   2.0000      -0.468482       -12.7481
 180   2.0000      -0.463451       -12.6111
 181   2.0000      -0.462182       -12.5766
 182   2.0000      -0.460141       -12.5211
 183   2.0000      -0.457598       -12.4519
 184   2.0000      -0.452877       -12.3234
 185   2.0000      -0.450226       -12.2513
 186   2.0000      -0.445600       -12.1254
 187   2.0000      -0.444353       -12.0915
 188   2.0000      -0.442587       -12.0434
 189   2.0000      -0.438954       -11.9446
 190   2.0000      -0.431412       -11.7393
 191   2.0000      -0.429890       -11.6979
 192   2.0000      -0.428707       -11.6657
 193   2.0000      -0.426365       -11.6020
 194   2.0000      -0.425893       -11.5891
 195   2.0000      -0.424570       -11.5531
 196   2.0000      -0.421236       -11.4624
 197   2.0000      -0.418855       -11.3976
 198   2.0000      -0.410677       -11.1751
 199   2.0000      -0.410163       -11.1611
 200   2.0000      -0.409056       -11.1310
 201   2.0000      -0.403286       -10.9740
 202   2.0000      -0.400991       -10.9115
 203   2.0000      -0.398315       -10.8387
 204   2.0000      -0.392241       -10.6734
 205   2.0000      -0.386686       -10.5223
 206   2.0000      -0.379483       -10.3263
 207   2.0000      -0.367760       -10.0073
 208   2.0000      -0.366538        -9.9740
 209   2.0000      -0.363435        -9.8896
 210   2.0000      -0.358557        -9.7568
 211   2.0000      -0.356791        -9.7088
 212   2.0000      -0.351485        -9.5644
 213   2.0000      -0.348265        -9.4768
 214   2.0000      -0.336651        -9.1607
 215   2.0000      -0.335701        -9.1349
 216   2.0000      -0.329638        -8.9699
 217   2.0000      -0.323980        -8.8159
 218   2.0000      -0.322067        -8.7639
 219   2.0000      -0.319291        -8.6883
 220   2.0000      -0.319200        -8.6859
 221   2.0000      -0.315204        -8.5771
 222   2.0000      -0.313530        -8.5316
 223   2.0000      -0.313524        -8.5314
 224   2.0000      -0.312468        -8.5027
 225   2.0000      -0.299206        -8.1418
 226   2.0000      -0.269176        -7.3247
 227   2.0000      -0.238823        -6.4987
 228   2.0000      -0.206192        -5.6108
 229   0.0000      -0.091782        -2.4975
 230   0.0000      -0.080917        -2.2019
 231   0.0000      -0.050198        -1.3660
 232   0.0000      -0.039304        -1.0695
 233   0.0000      -0.016228        -0.4416

MULLIKEN ATOMIC CHARGES
-----------------------
   0 C :    0.068954
   1 N :   -0.115372
   2 C :    0.066104
   3 C :   -0.038941
   4 C :    0.032856
   5 N :   -0.097195
   6 C :   -0.021617
   7 C :    0.081694
   8 C :   -0.078887
   9 S :    0.161543
  10 C :   -0.087642
  11 C :    0.005056
  12 C :   -0.027556
  13 C :   -0.112628
  14 C :    0.102912
  15 C :    0.105775
  16 C :    0.011925
  17 C :   -0.089913
  18 S :    0.173862
  19 C :   -0.079249
  20 C :   -0.036942
  21 C :    0.042801
  22 C :    0.002196
  23 C :   -0.141630
  24 C :    0.039237
  25 C :    0.010058
  26 N :    0.043311
  27 C :   -0.121397
  28 C :    0.134921
  29 O :   -0.112456
  30 C :   -0.019784
  31 C :   -0.015920
  32 C :    0.139065
  33 O :   -0.118383
  34 C :   -0.118770
  35 N :    0.065589
  36 C :   -0.115368
  37 S :    0.181068
  38 C :   -0.082516
  39 S :    0.201368
  40 C :   -0.073882
  41 C :    0.030933
  42 C :   -0.089745
  43 C :   -0.105308
  44 C :    0.102522
  45 C :    0.107293
  46 C :    0.009669
  47 C :   -0.091154
  48 S :    0.163102
  49 C :   -0.071908
  50 C :   -0.037744
  51 C :    0.076220
  52 C :    0.017328
  53 C :   -0.064205
  54 N :   -0.082055
  55 C :    0.079380
  56 C :   -0.050226
  57 C :    0.033536
  58 N :   -0.059442
  59 C :   -0.016999
  60 C :    0.035890
  61 H :    0.011574
  62 H :    0.005448
  63 H :   -0.012405
  64 H :   -0.030688
  65 H :    0.004990
  66 H :   -0.026557
  67 H :    0.009590
  68 H :    0.024064
  69 H :    0.009532
  70 H :    0.009665
  71 H :    0.009399
  72 H :    0.023618
  73 H :   -0.027794
  74 H :    0.011561
  75 H :   -0.036352
  76 H :    0.013483
  77 H :    0.012769
  78 H :   -0.025457
  79 H :    0.007312
  80 H :    0.023032
  81 H :    0.010497
  82 H :    0.007384
  83 H :    0.010284
  84 H :    0.022155
  85 H :   -0.024980
  86 H :    0.001592
  87 H :   -0.024230
  88 H :    0.002438
  89 H :   -0.011419
  90 H :   -0.019446
  91 H :    0.034501
  92 H :    0.023107
Sum of atomic charges:   -0.0000000

LOEWDIN ATOMIC CHARGES
----------------------
   0 C :    0.043575
   1 N :   -0.104391
   2 C :    0.045660
   3 C :   -0.069601
   4 C :    0.035801
   5 N :   -0.095716
   6 C :   -0.057254
   7 C :    0.002884
   8 C :   -0.174237
   9 S :    0.449566
  10 C :   -0.193236
  11 C :   -0.038249
  12 C :   -0.043665
  13 C :   -0.035234
  14 C :   -0.025004
  15 C :   -0.024291
  16 C :   -0.035004
  17 C :   -0.196861
  18 S :    0.457167
  19 C :   -0.165918
  20 C :   -0.050009
  21 C :   -0.018374
  22 C :   -0.060606
  23 C :   -0.168972
  24 C :   -0.049204
  25 C :   -0.058065
  26 N :   -0.006337
  27 C :   -0.047411
  28 C :    0.053378
  29 O :   -0.110055
  30 C :   -0.013136
  31 C :   -0.014600
  32 C :    0.054435
  33 O :   -0.113729
  34 C :   -0.048109
  35 N :    0.008927
  36 C :   -0.189750
  37 S :    0.483513
  38 C :   -0.187696
  39 S :    0.490279
  40 C :   -0.191729
  41 C :   -0.039809
  42 C :   -0.054821
  43 C :   -0.035399
  44 C :   -0.025050
  45 C :   -0.024392
  46 C :   -0.035362
  47 C :   -0.196806
  48 S :    0.449501
  49 C :   -0.169487
  50 C :   -0.046134
  51 C :   -0.006386
  52 C :   -0.047484
  53 C :    0.031540
  54 N :   -0.096617
  55 C :    0.049343
  56 C :   -0.077110
  57 C :    0.034956
  58 N :   -0.092840
  59 C :   -0.044706
  60 C :    0.003041
  61 H :    0.016800
  62 H :    0.024322
  63 H :    0.030289
  64 H :    0.022614
  65 H :    0.034693
  66 H :    0.028375
  67 H :    0.023156
  68 H :    0.030955
  69 H :    0.023062
  70 H :    0.023124
  71 H :    0.023025
  72 H :    0.031063
  73 H :    0.026946
  74 H :    0.033955
  75 H :    0.022997
  76 H :    0.043869
  77 H :    0.043664
  78 H :    0.024492
  79 H :    0.022257
  80 H :    0.030619
  81 H :    0.023453
  82 H :    0.022279
  83 H :    0.023408
  84 H :    0.030613
  85 H :    0.029312
  86 H :    0.032666
  87 H :    0.026768
  88 H :    0.024361
  89 H :    0.030426
  90 H :    0.026742
  91 H :    0.028861
  92 H :    0.026112

  Mayer bond orders larger than 0.100000
B(  0-C ,  1-N ) :   1.5009 B(  0-C ,  5-N ) :   1.5345 B(  0-C , 61-H ) :   0.9747
B(  1-N ,  2-C ) :   1.5358 B(  2-C ,  3-C ) :   1.3952 B(  2-C , 62-H ) :   0.9810
B(  3-C ,  4-C ) :   1.3284 B(  3-C , 63-H ) :   0.9754 B(  4-C ,  5-N ) :   1.5089
B(  4-C ,  6-C ) :   1.1029 B(  6-C ,  7-C ) :   1.7023 B(  6-C , 64-H ) :   0.9732
B(  7-C ,  8-C ) :   1.0981 B(  7-C , 65-H ) :   0.9578 B(  8-C ,  9-S ) :   1.1057
B(  8-C , 12-C ) :   1.4434 B(  9-S , 10-C ) :   1.0975 B( 10-C , 11-C ) :   1.5073
B( 10-C , 17-C ) :   1.1876 B( 11-C , 12-C ) :   1.3356 B( 11-C , 13-C ) :   0.9417
B( 12-C , 66-H ) :   1.0000 B( 13-C , 14-C ) :   1.0355 B( 13-C , 15-C ) :   1.0331
B( 13-C , 16-C ) :   0.9423 B( 14-C , 67-H ) :   0.9647 B( 14-C , 68-H ) :   0.9649
B( 14-C , 69-H ) :   0.9646 B( 15-C , 70-H ) :   0.9646 B( 15-C , 71-H ) :   0.9646
B( 15-C , 72-H ) :   0.9646 B( 16-C , 17-C ) :   1.4968 B( 16-C , 20-C ) :   1.3479
B( 17-C , 18-S ) :   1.0929 B( 18-S , 19-C ) :   1.1111 B( 19-C , 20-C ) :   1.4125
B( 19-C , 21-C ) :   1.1495 B( 20-C , 73-H ) :   0.9995 B( 21-C , 22-C ) :   1.6204
B( 21-C , 74-H ) :   0.9441 B( 22-C , 23-C ) :   1.2047 B( 22-C , 75-H ) :   0.9497
B( 23-C , 24-C ) :   1.3047 B( 23-C , 36-C ) :   0.1093 B( 23-C , 37-S ) :   1.1344
B( 24-C , 25-C ) :   1.1710 B( 24-C , 35-N ) :   1.4395 B( 25-C , 26-N ) :   1.4357
B( 25-C , 36-C ) :   1.3059 B( 26-N , 27-C ) :   1.6887 B( 27-C , 28-C ) :   0.9040
B( 27-C , 34-C ) :   1.0986 B( 28-C , 29-O ) :   2.2415 B( 28-C , 30-C ) :   1.0217
B( 30-C , 31-C ) :   1.6762 B( 30-C , 76-H ) :   0.9985 B( 31-C , 32-C ) :   1.0279
B( 31-C , 77-H ) :   0.9995 B( 32-C , 33-O ) :   2.2191 B( 32-C , 34-C ) :   0.9049
B( 34-C , 35-N ) :   1.7025 B( 36-C , 37-S ) :   1.1470 B( 36-C , 38-C ) :   1.2567
B( 38-C , 39-S ) :   1.1167 B( 38-C , 42-C ) :   1.3728 B( 39-S , 40-C ) :   1.0641
B( 40-C , 41-C ) :   1.4885 B( 40-C , 47-C ) :   1.1901 B( 41-C , 42-C ) :   1.3514
B( 41-C , 43-C ) :   0.9388 B( 42-C , 78-H ) :   1.0038 B( 43-C , 44-C ) :   1.0350
B( 43-C , 45-C ) :   1.0341 B( 43-C , 46-C ) :   0.9403 B( 44-C , 79-H ) :   0.9646
B( 44-C , 80-H ) :   0.9650 B( 44-C , 81-H ) :   0.9648 B( 45-C , 82-H ) :   0.9643
B( 45-C , 83-H ) :   0.9647 B( 45-C , 84-H ) :   0.9642 B( 46-C , 47-C ) :   1.5036
B( 46-C , 50-C ) :   1.3291 B( 47-C , 48-S ) :   1.0924 B( 48-S , 49-C ) :   1.1098
B( 49-C , 50-C ) :   1.4473 B( 49-C , 51-C ) :   1.0932 B( 50-C , 85-H ) :   1.0029
B( 51-C , 52-C ) :   1.6968 B( 51-C , 86-H ) :   0.9581 B( 52-C , 53-C ) :   1.0506
B( 52-C , 87-H ) :   0.9691 B( 53-C , 54-N ) :   1.5122 B( 53-C , 58-N ) :   1.5374
B( 54-N , 55-C ) :   1.5642 B( 55-C , 56-C ) :   1.3602 B( 55-C , 88-H ) :   0.9807
B( 56-C , 57-C ) :   1.3440 B( 56-C , 89-H ) :   0.9735 B( 57-C , 58-N ) :   1.5169
B( 57-C , 59-C ) :   1.0629 B( 59-C , 60-C ) :   1.9601 B( 59-C , 90-H ) :   0.9660
B( 60-C , 91-H ) :   0.9375 B( 60-C , 92-H ) :   0.9471

-----------------------------------------------------------------------------
         ABSORPTION SPECTRUM VIA TRANSITION ELECTRIC DIPOLE MOMENTS
-----------------------------------------------------------------------------
State   Energy  Wavelength   fosc         T2         TX        TY        TZ
        (cm-1)    (nm)                  (au**2)     (au)      (au)      (au)
-----------------------------------------------------------------------------
   0    9728.0   1028.0   0.941547229  31.86341  -4.52523  -3.33488  -0.51407
   1   13012.7    768.5   0.122214767   3.09195  -0.18766  -0.25648   1.72944
   2   18970.8    527.1   0.033300271   0.57788   0.18593   0.38695  -0.62736
   3   20034.5    499.1   2.183154506  35.87410  -4.73704  -3.63525  -0.46855
   4   21995.9    454.6   0.086728807   1.29807   0.92253   0.64846   0.16280
   5   23246.0    430.2   0.155797056   2.20641   1.35467   0.51474   0.32609
   6   25096.0    398.5   0.001266526   0.01661   0.07446  -0.10521  -0.00159
   7   25473.9    392.6   0.000318244   0.00411  -0.05601   0.03097  -0.00414
   8   25518.2    391.9   0.020365346   0.26273   0.39822   0.31075   0.08714
   9   26462.5    377.9   0.001542948   0.01920   0.08995  -0.10537   0.00082
  10   28246.0    354.0   0.199918667   2.33008  -1.13421  -0.96816  -0.32607
  11   28496.6    350.9   0.011572669   0.13370  -0.18157  -0.00423   0.31735
  12   29539.1    338.5   0.032711609   0.36457  -0.32967  -0.44525  -0.24008
  13   30082.7    332.4   0.016213271   0.17743   0.00798   0.02511  -0.42040
  14   30442.3    328.5   0.000033853   0.00037   0.01427   0.01242   0.00284
  15   30589.0    326.9   0.001583416   0.01704  -0.10713  -0.05592  -0.04937
  16   31426.6    318.2   0.043246937   0.45304   0.54169   0.30845   0.25391
  17   32050.9    312.0   0.321321617   3.30047   1.52568   0.96588  -0.19961
  18   33431.9    299.1   0.033799936   0.33284   0.15474   0.18098   0.52549
  19   33683.7    296.9   0.000876475   0.00857  -0.05471   0.07465  -0.00044
  20   34253.1    291.9   0.000035423   0.00034  -0.00150   0.00921  -0.01592
  21   34473.4    290.1   0.136946287   1.30780  -0.21684  -0.03233   1.12238
  22   34664.7    288.5   0.042323279   0.40195   0.12483   0.13149   0.60751
  23   34822.2    287.2   0.032328089   0.30563   0.09863   0.05341  -0.54134
  24   35012.6    285.6   0.042266694   0.39742  -0.30436  -0.15205   0.53072
  25   35515.4    281.6   0.008461941   0.07844   0.12944   0.15988   0.19005
  26   35886.6    278.7   0.000014113   0.00013  -0.00165  -0.01118   0.00128
  27   36008.8    277.7   0.043447857   0.39722   0.02631   0.01465   0.62954
  28   36191.3    276.3   0.006729951   0.06122  -0.12001   0.21635   0.00288
  29   36349.7    275.1   0.060377823   0.54683  -0.41092  -0.33383   0.51627
  30   36580.4    273.4   0.164074678   1.47662   0.12550   0.05727  -1.20731
  31   36703.3    272.5   0.004329888   0.03884  -0.04187   0.01918   0.19162
  32   36938.2    270.7   0.006283198   0.05600   0.01564  -0.17041  -0.16345
  33   37010.0    270.2   0.003625225   0.03225   0.04445  -0.07439   0.15728
  34   37624.2    265.8   0.018931266   0.16565  -0.01673  -0.09780  -0.39472
  35   37869.7    264.1   0.002022322   0.01758   0.08622   0.07741  -0.06445
  36   38460.1    260.0   0.043417646   0.37165  -0.17533  -0.08368  -0.57784
  37   38689.8    258.5   0.026289853   0.22370   0.40953   0.21748  -0.09321
  38   38960.5    256.7   0.045955681   0.38832   0.07423   0.02872   0.61805
  39   39541.8    252.9   0.020217341   0.16832   0.01881   0.00705  -0.40978
  40   39686.5    252.0   0.023952088   0.19869   0.18898   0.17736   0.36266
  41   40088.7    249.4   0.001141217   0.00937  -0.06877  -0.05271   0.04317
  42   40296.2    248.2   0.004081585   0.03335   0.01479   0.00452   0.18195

FINAL SINGLE POINT ENERGY     -4314.661182159648

DIPOLE MOMENT
-------------
                                X             Y             Z
Electronic contribution:      6.63220       3.60987      48.52561
Nuclear contribution   :     -7.49801      -4.41293     -51.15480
                        -----------------------------------------
Total Dipole Moment    :     -0.86582      -0.80306      -2.62919
                        -----------------------------------------
Magnitude (a.u.)       :      2.88222
Magnitude (Debye)      :      7.32601

Rotational constants in cm-1:     0.003738     0.000229     0.000217
Rotational constants in MHz :   112.064002     6.868442     6.511916

                             ****ORCA TERMINATED NORMALLY****
TOTAL RUN TIME: 0 days 0 hours 7 minutes 28 seconds 516 msec
