                         Program Version 4.2.0 -  RELEASE  -
|  1> # ORCA input file
|  2> # SCF done       -228.875036176428          0.000854192065
|  3> ! CAM-B3LYP def2-SVP def2/J RIJCOSX Grid4 TightSCF
|  4> %maxcore 5000
|  5> %tddft
|  6>     Mode sTDDFT
|  7>     Ethresh 5.0
|  8>     maxcore 5000
|  9> end
| 10>
| 11> %pal
| 12>   nprocs 6
| 13>   end
| 14> * xyz 0 1
| 15>    C        0.93914        -2.61890         3.58670
| 16>    C       -0.32467        -2.20640         3.87816
| 17>    S       -1.17669        -3.41748         4.76301
| 18>    C        0.17707        -4.48763         4.74942
| 19>    C        1.22127        -3.92981         4.08787
| 20>    C        2.60137        -4.29852         3.74820
| 21>    O        3.19445        -5.29906         4.10260
| 22>    C        3.11649        -3.16348         2.94000
| 23>    C        2.11866        -2.11016         2.91609
| 24>    C        2.21719        -0.83829         2.39968
| 25>    C        1.13002         0.05734         2.45887
| 26>    N        0.25698         0.80175         2.49378
| 27>    C        3.35495        -0.26257         1.81212
| 28>    N        4.26308         0.26787         1.34401
| 29>    C        4.33304        -3.03434         2.30766
| 30>    C        5.39980        -3.93054         2.12897
| 31>    C        5.23804        -5.36704         2.41607
| 32>    C        6.03722        -6.03036         3.34528
| 33>    C        5.84121        -7.37203         3.64718
| 34>    C        4.83390        -8.08573         3.00686
| 35>    C        4.03255        -7.44932         2.06446
| 36>    C        4.24108        -6.10693         1.78076
| 37>    F        3.45888        -5.50840         0.87518
| 38>    F        3.07009        -8.13034         1.43769
| 39>    F        4.64395        -9.37574         3.28717
| 40>    F        6.62359        -7.98075         4.54267
| 41>    F        7.00861        -5.36425         3.97850
| 42>    C        6.62701        -3.45741         1.63894
| 43>    C        6.80651        -1.99122         1.47822
| 44>    C        6.94040        -1.16213         2.58911
| 45>    C        7.15068         0.20481         2.45348
| 46>    C        7.22088         0.76695         1.18372
| 47>    C        7.07253        -0.03765         0.05931
| 48>    C        6.86165        -1.40246         0.21642
| 49>    F        6.72595        -2.17205        -0.86705
| 50>    F        7.15534         0.50000        -1.15852
| 51>    F        7.44268         2.07333         1.04680
| 52>    F        7.29778         0.97522         3.53162
| 53>    F        6.87889        -1.69284         3.81205
| 54>    C        7.69030        -4.30188         1.32689
| 55>    C        9.00123        -3.96681         1.02057
| 56>    C       10.02984        -4.91144         0.81836
| 57>    C       11.26553        -4.36702         0.60216
| 58>    C       11.26622        -2.96184         0.59659
| 59>    S        9.65380        -2.35155         0.89628
| 60>    C       12.33128        -2.09887         0.37879
| 61>    C       13.69885        -2.42678         0.26320
| 62>    C       14.50519        -1.34505         0.07333
| 63>    C       13.81395        -0.11038        -0.00219
| 64>    S       12.09369        -0.37915         0.21420
| 65>    C       14.39161         1.11525        -0.22335
| 66>    C       13.74920         2.34733        -0.42066
| 67>    C       14.38653         3.55506        -0.63387
| 68>    C       13.51858         4.62682        -0.87980
| 69>    C       12.14842         4.24197        -0.86296
| 70>    S       12.01016         2.52862        -0.49905
| 71>    C       11.14010         5.15119        -1.13015
| 72>    O        9.81316         4.95933        -1.16632
| 73>    C        9.25724         3.69656        -0.87369
| 74>    C       11.55311         6.47941        -1.42150
| 75>    C       12.92224         6.87046        -1.41612
| 76>    C       13.92821         5.96021        -1.14115
| 77>    O       15.26408         6.15704        -1.09129
| 78>    C       15.80585         7.44278        -1.29599
| 79>    S       13.05189         8.56777        -1.81500
| 80>    C       11.30751         8.72248        -2.00038
| 81>    C       10.67783         7.52671        -1.74871
| 82>    C       10.84540        10.00784        -2.36222
| 83>    C        9.59827        10.48238        -2.65675
| 84>    C        8.30950         9.73296        -2.72414
| 85>    O        8.10339         8.56472        -2.47952
| 86>    C        7.31742        10.72022        -3.16607
| 87>    C        5.98935        10.73320        -3.44511
| 88>    S        5.48373        12.31062        -3.92335
| 89>    C        7.07231        12.95689        -3.74725
| 90>    C        7.94489        11.99445        -3.33778
| 91>    C        9.35180        11.87589        -3.01522
| 92>    C       10.23282        12.92570        -3.04860
| 93>    C        9.80849        14.21823        -3.42480
| 94>    N        9.48641        15.27625        -3.73128
| 95>    C       11.60470        12.89887        -2.72997
| 96>    N       12.72505        12.96869        -2.48496
| 97>    H       -0.81742        -1.28565         3.63844
| 98>    H        0.11044        -5.44667         5.22248
| 99>    H        4.50578        -2.06388         1.86390
|100>    H        7.49856        -5.36587         1.36429
|101>    H        9.83368        -5.96822         0.85135
|102>    H       12.15763        -4.94256         0.43451
|103>    H       14.05069        -3.43945         0.33923
|104>    H       15.57477        -1.39348        -0.02876
|105>    H       15.47260         1.13793        -0.28209
|106>    H       15.45520         3.66654        -0.62214
|107>    H        9.51806         3.36818         0.13445
|108>    H        9.56522         2.94100        -1.60058
|109>    H        8.17971         3.83541        -0.93454
|110>    H       15.43318         8.15908        -0.55994
|111>    H       15.59884         7.81273        -2.30299
|112>    H       16.88097         7.32355        -1.17021
|113>    H        9.61260         7.39561        -1.80220
|114>    H       11.64865        10.73362        -2.42346
|115>    H        5.28230         9.92931        -3.40060
|116>    H        7.24450        13.99311        -3.95819
|117> *
|118>
|119>                          ****END OF INPUT****

CARTESIAN COORDINATES (ANGSTROEM)
---------------------------------
  C      0.939140   -2.618900    3.586700
  C     -0.324670   -2.206400    3.878160
  S     -1.176690   -3.417480    4.763010
  C      0.177070   -4.487630    4.749420
  C      1.221270   -3.929810    4.087870
  C      2.601370   -4.298520    3.748200
  O      3.194450   -5.299060    4.102600
  C      3.116490   -3.163480    2.940000
  C      2.118660   -2.110160    2.916090
  C      2.217190   -0.838290    2.399680
  C      1.130020    0.057340    2.458870
  N      0.256980    0.801750    2.493780
  C      3.354950   -0.262570    1.812120
  N      4.263080    0.267870    1.344010
  C      4.333040   -3.034340    2.307660
  C      5.399800   -3.930540    2.128970
  C      5.238040   -5.367040    2.416070
  C      6.037220   -6.030360    3.345280
  C      5.841210   -7.372030    3.647180
  C      4.833900   -8.085730    3.006860
  C      4.032550   -7.449320    2.064460
  C      4.241080   -6.106930    1.780760
  F      3.458880   -5.508400    0.875180
  F      3.070090   -8.130340    1.437690
  F      4.643950   -9.375740    3.287170
  F      6.623590   -7.980750    4.542670
  F      7.008610   -5.364250    3.978500
  C      6.627010   -3.457410    1.638940
  C      6.806510   -1.991220    1.478220
  C      6.940400   -1.162130    2.589110
  C      7.150680    0.204810    2.453480
  C      7.220880    0.766950    1.183720
  C      7.072530   -0.037650    0.059310
  C      6.861650   -1.402460    0.216420
  F      6.725950   -2.172050   -0.867050
  F      7.155340    0.500000   -1.158520
  F      7.442680    2.073330    1.046800
  F      7.297780    0.975220    3.531620
  F      6.878890   -1.692840    3.812050
  C      7.690300   -4.301880    1.326890
  C      9.001230   -3.966810    1.020570
  C     10.029840   -4.911440    0.818360
  C     11.265530   -4.367020    0.602160
  C     11.266220   -2.961840    0.596590
  S      9.653800   -2.351550    0.896280
  C     12.331280   -2.098870    0.378790
  C     13.698850   -2.426780    0.263200
  C     14.505190   -1.345050    0.073330
  C     13.813950   -0.110380   -0.002190
  S     12.093690   -0.379150    0.214200
  C     14.391610    1.115250   -0.223350
  C     13.749200    2.347330   -0.420660
  C     14.386530    3.555060   -0.633870
  C     13.518580    4.626820   -0.879800
  C     12.148420    4.241970   -0.862960
  S     12.010160    2.528620   -0.499050
  C     11.140100    5.151190   -1.130150
  O      9.813160    4.959330   -1.166320
  C      9.257240    3.696560   -0.873690
  C     11.553110    6.479410   -1.421500
  C     12.922240    6.870460   -1.416120
  C     13.928210    5.960210   -1.141150
  O     15.264080    6.157040   -1.091290
  C     15.805850    7.442780   -1.295990
  S     13.051890    8.567770   -1.815000
  C     11.307510    8.722480   -2.000380
  C     10.677830    7.526710   -1.748710
  C     10.845400   10.007840   -2.362220
  C      9.598270   10.482380   -2.656750
  C      8.309500    9.732960   -2.724140
  O      8.103390    8.564720   -2.479520
  C      7.317420   10.720220   -3.166070
  C      5.989350   10.733200   -3.445110
  S      5.483730   12.310620   -3.923350
  C      7.072310   12.956890   -3.747250
  C      7.944890   11.994450   -3.337780
  C      9.351800   11.875890   -3.015220
  C     10.232820   12.925700   -3.048600
  C      9.808490   14.218230   -3.424800
  N      9.486410   15.276250   -3.731280
  C     11.604700   12.898870   -2.729970
  N     12.725050   12.968690   -2.484960
  H     -0.817420   -1.285650    3.638440
  H      0.110440   -5.446670    5.222480
  H      4.505780   -2.063880    1.863900
  H      7.498560   -5.365870    1.364290
  H      9.833680   -5.968220    0.851350
  H     12.157630   -4.942560    0.434510
  H     14.050690   -3.439450    0.339230
  H     15.574770   -1.393480   -0.028760
  H     15.472600    1.137930   -0.282090
  H     15.455200    3.666540   -0.622140
  H      9.518060    3.368180    0.134450
  H      9.565220    2.941000   -1.600580
  H      8.179710    3.835410   -0.934540
  H     15.433180    8.159080   -0.559940
  H     15.598840    7.812730   -2.302990
  H     16.880970    7.323550   -1.170210
  H      9.612600    7.395610   -1.802200
  H     11.648650   10.733620   -2.423460
  H      5.282300    9.929310   -3.400600
  H      7.244500   13.993110   -3.958190

 Total Charge           Charge          ....    0
 Multiplicity           Mult            ....    1
 Number of Electrons    NEL             ....  614
 Basis Dimension        Dim             .... 1272

ORBITAL ENERGIES
----------------

  NO   OCC          E(Eh)            E(eV)
   0   2.0000     -88.983275     -2421.3580
   1   2.0000     -88.975615     -2421.1496
   2   2.0000     -88.973527     -2421.0928
   3   2.0000     -88.972456     -2421.0636
   4   2.0000     -88.968406     -2420.9534
   5   2.0000     -88.961456     -2420.7643
   6   2.0000     -24.814031      -675.2241
   7   2.0000     -24.805166      -674.9829
   8   2.0000     -24.804732      -674.9711
   9   2.0000     -24.804047      -674.9524
  10   2.0000     -24.801812      -674.8916
  11   2.0000     -24.797829      -674.7832
  12   2.0000     -24.796040      -674.7345
  13   2.0000     -24.795021      -674.7068
  14   2.0000     -24.793789      -674.6733
  15   2.0000     -24.793210      -674.6575
  16   2.0000     -19.263575      -524.1885
  17   2.0000     -19.260316      -524.0998
  18   2.0000     -19.219121      -522.9789
  19   2.0000     -19.204629      -522.5845
  20   2.0000     -14.417802      -392.3283
  21   2.0000     -14.413704      -392.2168
  22   2.0000     -14.413503      -392.2113
  23   2.0000     -14.403062      -391.9273
  24   2.0000     -10.389891      -282.7233
  25   2.0000     -10.387491      -282.6580
  26   2.0000     -10.387073      -282.6466
  27   2.0000     -10.382172      -282.5133
  28   2.0000     -10.381955      -282.5074
  29   2.0000     -10.377685      -282.3912
  30   2.0000     -10.374198      -282.2963
  31   2.0000     -10.372583      -282.2523
  32   2.0000     -10.372369      -282.2465
  33   2.0000     -10.371740      -282.2294
  34   2.0000     -10.370935      -282.2075
  35   2.0000     -10.361122      -281.9405
  36   2.0000     -10.356857      -281.8244
  37   2.0000     -10.354970      -281.7731
  38   2.0000     -10.345417      -281.5131
  39   2.0000     -10.343739      -281.4674
  40   2.0000     -10.340895      -281.3900
  41   2.0000     -10.337941      -281.3097
  42   2.0000     -10.334463      -281.2150
  43   2.0000     -10.334137      -281.2062
  44   2.0000     -10.333370      -281.1853
  45   2.0000     -10.328865      -281.0627
  46   2.0000     -10.327639      -281.0293
  47   2.0000     -10.325715      -280.9770
  48   2.0000     -10.325554      -280.9726
  49   2.0000     -10.325297      -280.9656
  50   2.0000     -10.324094      -280.9329
  51   2.0000     -10.321773      -280.8697
  52   2.0000     -10.321093      -280.8512
  53   2.0000     -10.320612      -280.8381
  54   2.0000     -10.320424      -280.8330
  55   2.0000     -10.320097      -280.8241
  56   2.0000     -10.319635      -280.8115
  57   2.0000     -10.319383      -280.8047
  58   2.0000     -10.317745      -280.7601
  59   2.0000     -10.317089      -280.7423
  60   2.0000     -10.316321      -280.7214
  61   2.0000     -10.315833      -280.7081
  62   2.0000     -10.312399      -280.6146
  63   2.0000     -10.312158      -280.6081
  64   2.0000     -10.311970      -280.6030
  65   2.0000     -10.311041      -280.5777
  66   2.0000     -10.307068      -280.4696
  67   2.0000     -10.304965      -280.4124
  68   2.0000     -10.304157      -280.3904
  69   2.0000     -10.303192      -280.3641
  70   2.0000     -10.302605      -280.3481
  71   2.0000     -10.302134      -280.3353
  72   2.0000     -10.300822      -280.2996
  73   2.0000     -10.300728      -280.2971
  74   2.0000     -10.298294      -280.2308
  75   2.0000     -10.295437      -280.1531
  76   2.0000     -10.292695      -280.0785
  77   2.0000     -10.292640      -280.0770
  78   2.0000     -10.290373      -280.0153
  79   2.0000     -10.289130      -279.9815
  80   2.0000     -10.287241      -279.9301
  81   2.0000     -10.280582      -279.7489
  82   2.0000      -8.079030      -219.8416
  83   2.0000      -8.071685      -219.6417
  84   2.0000      -8.069276      -219.5762
  85   2.0000      -8.067543      -219.5290
  86   2.0000      -8.063030      -219.4062
  87   2.0000      -8.056538      -219.2296
  88   2.0000      -6.048240      -164.5810
  89   2.0000      -6.043537      -164.4530
  90   2.0000      -6.041832      -164.4066
  91   2.0000      -6.041401      -164.3949
  92   2.0000      -6.038535      -164.3169
  93   2.0000      -6.037226      -164.2813
  94   2.0000      -6.037209      -164.2808
  95   2.0000      -6.033832      -164.1889
  96   2.0000      -6.033028      -164.1670
  97   2.0000      -6.032934      -164.1645
  98   2.0000      -6.032712      -164.1585
  99   2.0000      -6.031999      -164.1390
 100   2.0000      -6.028889      -164.0544
 101   2.0000      -6.028633      -164.0474
 102   2.0000      -6.026365      -163.9857
 103   2.0000      -6.024076      -163.9234
 104   2.0000      -6.022098      -163.8696
 105   2.0000      -6.017664      -163.7490
 106   2.0000      -1.337416       -36.3929
 107   2.0000      -1.327444       -36.1216
 108   2.0000      -1.324427       -36.0395
 109   2.0000      -1.323633       -36.0179
 110   2.0000      -1.317509       -35.8512
 111   2.0000      -1.312793       -35.7229
 112   2.0000      -1.312111       -35.7044
 113   2.0000      -1.309138       -35.6234
 114   2.0000      -1.302387       -35.4398
 115   2.0000      -1.298120       -35.3236
 116   2.0000      -1.169495       -31.8236
 117   2.0000      -1.168261       -31.7900
 118   2.0000      -1.135085       -30.8872
 119   2.0000      -1.120377       -30.4870
 120   2.0000      -1.023810       -27.8593
 121   2.0000      -1.023531       -27.8517
 122   2.0000      -1.015012       -27.6199
 123   2.0000      -1.010919       -27.5085
 124   2.0000      -1.007571       -27.4174
 125   2.0000      -1.004295       -27.3283
 126   2.0000      -1.001049       -27.2399
 127   2.0000      -0.995301       -27.0835
 128   2.0000      -0.993985       -27.0477
 129   2.0000      -0.990404       -26.9503
 130   2.0000      -0.986187       -26.8355
 131   2.0000      -0.983515       -26.7628
 132   2.0000      -0.963425       -26.2161
 133   2.0000      -0.957302       -26.0495
 134   2.0000      -0.945556       -25.7299
 135   2.0000      -0.934661       -25.4334
 136   2.0000      -0.911503       -24.8032
 137   2.0000      -0.901259       -24.5245
 138   2.0000      -0.895875       -24.3780
 139   2.0000      -0.887933       -24.1619
 140   2.0000      -0.887808       -24.1585
 141   2.0000      -0.883289       -24.0355
 142   2.0000      -0.872312       -23.7368
 143   2.0000      -0.868958       -23.6456
 144   2.0000      -0.860923       -23.4269
 145   2.0000      -0.857370       -23.3302
 146   2.0000      -0.853739       -23.2314
 147   2.0000      -0.849643       -23.1200
 148   2.0000      -0.847712       -23.0674
 149   2.0000      -0.841706       -22.9040
 150   2.0000      -0.839174       -22.8351
 151   2.0000      -0.832039       -22.6409
 152   2.0000      -0.824521       -22.4364
 153   2.0000      -0.820581       -22.3291
 154   2.0000      -0.812659       -22.1136
 155   2.0000      -0.803990       -21.8777
 156   2.0000      -0.785599       -21.3772
 157   2.0000      -0.774188       -21.0667
 158   2.0000      -0.762728       -20.7549
 159   2.0000      -0.755886       -20.5687
 160   2.0000      -0.755693       -20.5635
 161   2.0000      -0.746358       -20.3094
 162   2.0000      -0.745644       -20.2900
 163   2.0000      -0.744750       -20.2657
 164   2.0000      -0.735002       -20.0004
 165   2.0000      -0.731524       -19.9058
 166   2.0000      -0.717359       -19.5203
 167   2.0000      -0.704471       -19.1696
 168   2.0000      -0.694009       -18.8849
 169   2.0000      -0.686766       -18.6878
 170   2.0000      -0.682841       -18.5810
 171   2.0000      -0.682683       -18.5767
 172   2.0000      -0.679633       -18.4938
 173   2.0000      -0.676803       -18.4168
 174   2.0000      -0.671480       -18.2719
 175   2.0000      -0.670681       -18.2502
 176   2.0000      -0.669257       -18.2114
 177   2.0000      -0.668466       -18.1899
 178   2.0000      -0.665360       -18.1054
 179   2.0000      -0.659637       -17.9496
 180   2.0000      -0.658266       -17.9123
 181   2.0000      -0.649676       -17.6786
 182   2.0000      -0.648286       -17.6408
 183   2.0000      -0.645673       -17.5697
 184   2.0000      -0.640447       -17.4275
 185   2.0000      -0.636630       -17.3236
 186   2.0000      -0.631487       -17.1836
 187   2.0000      -0.628740       -17.1089
 188   2.0000      -0.626390       -17.0449
 189   2.0000      -0.625650       -17.0248
 190   2.0000      -0.619252       -16.8507
 191   2.0000      -0.616822       -16.7846
 192   2.0000      -0.616386       -16.7727
 193   2.0000      -0.615733       -16.7549
 194   2.0000      -0.611319       -16.6348
 195   2.0000      -0.606894       -16.5144
 196   2.0000      -0.605852       -16.4861
 197   2.0000      -0.604713       -16.4551
 198   2.0000      -0.602106       -16.3841
 199   2.0000      -0.600804       -16.3487
 200   2.0000      -0.594584       -16.1794
 201   2.0000      -0.588943       -16.0260
 202   2.0000      -0.587389       -15.9837
 203   2.0000      -0.580468       -15.7953
 204   2.0000      -0.580130       -15.7861
 205   2.0000      -0.574187       -15.6244
 206   2.0000      -0.573806       -15.6141
 207   2.0000      -0.571535       -15.5523
 208   2.0000      -0.569926       -15.5085
 209   2.0000      -0.566563       -15.4170
 210   2.0000      -0.563956       -15.3460
 211   2.0000      -0.556695       -15.1484
 212   2.0000      -0.554801       -15.0969
 213   2.0000      -0.552056       -15.0222
 214   2.0000      -0.551053       -14.9949
 215   2.0000      -0.549366       -14.9490
 216   2.0000      -0.544219       -14.8089
 217   2.0000      -0.540979       -14.7208
 218   2.0000      -0.540966       -14.7204
 219   2.0000      -0.536763       -14.6061
 220   2.0000      -0.535410       -14.5692
 221   2.0000      -0.534097       -14.5335
 222   2.0000      -0.530656       -14.4399
 223   2.0000      -0.526870       -14.3369
 224   2.0000      -0.525059       -14.2876
 225   2.0000      -0.523778       -14.2527
 226   2.0000      -0.522832       -14.2270
 227   2.0000      -0.521615       -14.1939
 228   2.0000      -0.519440       -14.1347
 229   2.0000      -0.517137       -14.0720
 230   2.0000      -0.515520       -14.0280
 231   2.0000      -0.514440       -13.9986
 232   2.0000      -0.514234       -13.9930
 233   2.0000      -0.511857       -13.9283
 234   2.0000      -0.510260       -13.8849
 235   2.0000      -0.508956       -13.8494
 236   2.0000      -0.504971       -13.7410
 237   2.0000      -0.500080       -13.6079
 238   2.0000      -0.497544       -13.5388
 239   2.0000      -0.496725       -13.5166
 240   2.0000      -0.496160       -13.5012
 241   2.0000      -0.494344       -13.4518
 242   2.0000      -0.493543       -13.4300
 243   2.0000      -0.492285       -13.3958
 244   2.0000      -0.489033       -13.3073
 245   2.0000      -0.488175       -13.2839
 246   2.0000      -0.486596       -13.2410
 247   2.0000      -0.483288       -13.1509
 248   2.0000      -0.482444       -13.1280
 249   2.0000      -0.480989       -13.0884
 250   2.0000      -0.478968       -13.0334
 251   2.0000      -0.476344       -12.9620
 252   2.0000      -0.470577       -12.8050
 253   2.0000      -0.470314       -12.7979
 254   2.0000      -0.466032       -12.6814
 255   2.0000      -0.464056       -12.6276
 256   2.0000      -0.462493       -12.5851
 257   2.0000      -0.460899       -12.5417
 258   2.0000      -0.459020       -12.4906
 259   2.0000      -0.454631       -12.3711
 260   2.0000      -0.453504       -12.3405
 261   2.0000      -0.451757       -12.2929
 262   2.0000      -0.449240       -12.2244
 263   2.0000      -0.448928       -12.2159
 264   2.0000      -0.447346       -12.1729
 265   2.0000      -0.446374       -12.1465
 266   2.0000      -0.446036       -12.1373
 267   2.0000      -0.440207       -11.9786
 268   2.0000      -0.439418       -11.9572
 269   2.0000      -0.437526       -11.9057
 270   2.0000      -0.434189       -11.8149
 271   2.0000      -0.431569       -11.7436
 272   2.0000      -0.427662       -11.6373
 273   2.0000      -0.426768       -11.6129
 274   2.0000      -0.423380       -11.5208
 275   2.0000      -0.420866       -11.4523
 276   2.0000      -0.420671       -11.4470
 277   2.0000      -0.418444       -11.3864
 278   2.0000      -0.416927       -11.3452
 279   2.0000      -0.413331       -11.2473
 280   2.0000      -0.410821       -11.1790
 281   2.0000      -0.409786       -11.1509
 282   2.0000      -0.406931       -11.0732
 283   2.0000      -0.404221       -10.9994
 284   2.0000      -0.400817       -10.9068
 285   2.0000      -0.394952       -10.7472
 286   2.0000      -0.380808       -10.3623
 287   2.0000      -0.369016       -10.0414
 288   2.0000      -0.363081        -9.8799
 289   2.0000      -0.353441        -9.6176
 290   2.0000      -0.346071        -9.4171
 291   2.0000      -0.342812        -9.3284
 292   2.0000      -0.341650        -9.2968
 293   2.0000      -0.339739        -9.2448
 294   2.0000      -0.337132        -9.1738
 295   2.0000      -0.335945        -9.1415
 296   2.0000      -0.330632        -8.9970
 297   2.0000      -0.328583        -8.9412
 298   2.0000      -0.320006        -8.7078
 299   2.0000      -0.318434        -8.6650
 300   2.0000      -0.311356        -8.4724
 301   2.0000      -0.308468        -8.3938
 302   2.0000      -0.301757        -8.2112
 303   2.0000      -0.296945        -8.0803
 304   2.0000      -0.287061        -7.8113
 305   2.0000      -0.250654        -6.8206
 306   2.0000      -0.224558        -6.1105
 307   0.0000      -0.125218        -3.4073
 308   0.0000      -0.093455        -2.5430
 309   0.0000      -0.068121        -1.8537
 310   0.0000      -0.047981        -1.3056
 311   0.0000      -0.041858        -1.1390

MULLIKEN ATOMIC CHARGES
-----------------------
   0 C :    0.028720
   1 C :   -0.136631
   2 S :    0.148637
   3 C :   -0.141467
   4 C :    0.044925
   5 C :    0.153955
   6 O :   -0.164002
   7 C :   -0.082257
   8 C :    0.296838
   9 C :   -0.364119
  10 C :   -0.192577
  11 N :    0.142911
  12 C :   -0.154125
  13 N :    0.112136
  14 C :   -0.042864
  15 C :    0.058091
  16 C :   -0.136210
  17 C :    0.194938
  18 C :    0.165202
  19 C :    0.139392
  20 C :    0.171208
  21 C :    0.191499
  22 F :   -0.164551
  23 F :   -0.163320
  24 F :   -0.160137
  25 F :   -0.165143
  26 F :   -0.162990
  27 C :    0.101318
  28 C :   -0.335934
  29 C :    0.251728
  30 C :    0.173346
  31 C :    0.163766
  32 C :    0.182282
  33 C :    0.257135
  34 F :   -0.154772
  35 F :   -0.159490
  36 F :   -0.155606
  37 F :   -0.156554
  38 F :   -0.151743
  39 C :   -0.039078
  40 C :    0.009414
  41 C :    0.019548
  42 C :    0.049603
  43 C :   -0.051750
  44 S :    0.092903
  45 C :   -0.017934
  46 C :    0.028004
  47 C :    0.049424
  48 C :   -0.041270
  49 S :    0.099220
  50 C :    0.012184
  51 C :   -0.010559
  52 C :   -0.041136
  53 C :    0.074636
  54 C :   -0.103378
  55 S :    0.067704
  56 C :    0.122964
  57 O :   -0.289521
  58 C :    0.157465
  59 C :    0.037153
  60 C :   -0.094273
  61 C :    0.108151
  62 O :   -0.309069
  63 C :    0.162579
  64 S :    0.090560
  65 C :   -0.060266
  66 C :   -0.026202
  67 C :    0.042502
  68 C :   -0.098337
  69 C :    0.174475
  70 O :   -0.142510
  71 C :    0.035038
  72 C :   -0.138850
  73 S :    0.161013
  74 C :   -0.135391
  75 C :    0.027941
  76 C :    0.304231
  77 C :   -0.349606
  78 C :   -0.194064
  79 N :    0.151893
  80 C :   -0.177274
  81 N :    0.150479
  82 H :    0.048773
  83 H :    0.035541
  84 H :    0.005768
  85 H :    0.002432
  86 H :   -0.000621
  87 H :   -0.004666
  88 H :   -0.004009
  89 H :    0.001752
  90 H :    0.003019
  91 H :   -0.005896
  92 H :    0.036568
  93 H :    0.038501
  94 H :    0.054272
  95 H :    0.043235
  96 H :    0.041855
  97 H :    0.043602
  98 H :    0.022071
  99 H :    0.002120
 100 H :    0.041312
 101 H :    0.052225
Sum of atomic charges:   -0.0000000

LOEWDIN ATOMIC CHARGES
----------------------
   0 C :   -0.063499
   1 C :   -0.151519
   2 S :    0.477723
   3 C :   -0.143329
   4 C :   -0.087311
   5 C :    0.079081
   6 O :   -0.151492
   7 C :   -0.106269
   8 C :    0.083510
   9 C :   -0.162767
  10 C :   -0.016406
  11 N :   -0.067457
  12 C :   -0.006219
  13 N :   -0.081309
  14 C :    0.059364
  15 C :   -0.041399
  16 C :   -0.074134
  17 C :    0.064635
  18 C :    0.026917
  19 C :    0.042486
  20 C :    0.028470
  21 C :    0.066436
  22 F :   -0.041604
  23 F :   -0.042046
  24 F :   -0.036878
  25 F :   -0.043693
  26 F :   -0.040819
  27 C :    0.039569
  28 C :   -0.107568
  29 C :    0.067728
  30 C :    0.032479
  31 C :    0.054696
  32 C :    0.031338
  33 C :    0.060000
  34 F :   -0.037491
  35 F :   -0.037841
  36 F :   -0.025341
  37 F :   -0.035466
  38 F :   -0.033712
  39 C :   -0.070133
  40 C :   -0.108198
  41 C :   -0.040582
  42 C :   -0.009591
  43 C :   -0.196959
  44 S :    0.420498
  45 C :   -0.145756
  46 C :   -0.039595
  47 C :   -0.007107
  48 C :   -0.161325
  49 S :    0.396449
  50 C :   -0.031669
  51 C :   -0.165955
  52 C :   -0.015951
  53 C :   -0.052999
  54 C :   -0.185784
  55 S :    0.398747
  56 C :    0.039893
  57 O :   -0.080878
  58 C :    0.065705
  59 C :   -0.062467
  60 C :   -0.178852
  61 C :    0.027046
  62 O :   -0.098202
  63 C :    0.068474
  64 S :    0.408212
  65 C :   -0.171899
  66 C :    0.018368
  67 C :    0.047648
  68 C :   -0.088989
  69 C :    0.086636
  70 O :   -0.133415
  71 C :   -0.090453
  72 C :   -0.139928
  73 S :    0.489090
  74 C :   -0.150286
  75 C :   -0.064923
  76 C :    0.077541
  77 C :   -0.144538
  78 C :   -0.014088
  79 N :   -0.057064
  80 C :   -0.025115
  81 N :   -0.052159
  82 H :    0.034728
  83 H :    0.034243
  84 H :    0.041202
  85 H :    0.038798
  86 H :    0.037988
  87 H :    0.036002
  88 H :    0.035964
  89 H :    0.039223
  90 H :    0.046547
  91 H :    0.036755
  92 H :    0.011266
  93 H :    0.014919
  94 H :    0.036075
  95 H :    0.016833
  96 H :    0.015354
  97 H :    0.032797
  98 H :    0.038318
  99 H :    0.042562
 100 H :    0.036411
 101 H :    0.035706

  Mayer bond orders larger than 0.100000
B(  0-C ,  1-C ) :   1.5350 B(  0-C ,  4-C ) :   1.2256 B(  0-C ,  8-C ) :   0.9883
B(  1-C ,  2-S ) :   1.1763 B(  1-C , 82-H ) :   0.9557 B(  2-S ,  3-C ) :   1.1804
B(  3-C ,  4-C ) :   1.5455 B(  3-C , 83-H ) :   0.9698 B(  4-C ,  5-C ) :   0.9481
B(  5-C ,  6-O ) :   2.1975 B(  5-C ,  7-C ) :   0.9401 B(  7-C ,  8-C ) :   1.1300
B(  7-C , 14-C ) :   1.4834 B(  8-C ,  9-C ) :   1.5839 B(  9-C , 10-C ) :   1.1535
B(  9-C , 12-C ) :   1.1556 B( 10-C , 11-N ) :   2.9879 B( 12-C , 13-N ) :   2.9318
B( 14-C , 15-C ) :   1.3032 B( 14-C , 84-H ) :   0.9167 B( 15-C , 16-C ) :   0.9190
B( 15-C , 27-C ) :   1.4821 B( 16-C , 17-C ) :   1.3492 B( 16-C , 19-C ) :   0.1127
B( 16-C , 21-C ) :   1.3438 B( 17-C , 18-C ) :   1.2756 B( 17-C , 26-F ) :   1.1669
B( 18-C , 19-C ) :   1.2784 B( 18-C , 25-F ) :   1.1669 B( 19-C , 20-C ) :   1.2802
B( 19-C , 24-F ) :   1.1687 B( 20-C , 21-C ) :   1.2833 B( 20-C , 23-F ) :   1.1705
B( 21-C , 22-F ) :   1.1687 B( 27-C , 28-C ) :   0.9307 B( 27-C , 39-C ) :   1.3268
B( 28-C , 29-C ) :   1.3342 B( 28-C , 31-C ) :   0.1126 B( 28-C , 33-C ) :   1.3268
B( 29-C , 30-C ) :   1.2855 B( 29-C , 38-F ) :   1.1959 B( 30-C , 31-C ) :   1.2829
B( 30-C , 37-F ) :   1.1788 B( 31-C , 32-C ) :   1.2832 B( 31-C , 36-F ) :   1.1423
B( 32-C , 33-C ) :   1.2829 B( 32-C , 35-F ) :   1.1755 B( 33-C , 34-F ) :   1.2020
B( 39-C , 40-C ) :   1.4234 B( 39-C , 85-H ) :   0.9478 B( 40-C , 41-C ) :   1.1999
B( 40-C , 44-S ) :   1.0814 B( 41-C , 42-C ) :   1.5216 B( 41-C , 86-H ) :   1.0017
B( 42-C , 43-C ) :   1.2322 B( 42-C , 87-H ) :   0.9943 B( 43-C , 44-S ) :   1.0433
B( 43-C , 45-C ) :   1.4398 B( 45-C , 46-C ) :   1.2054 B( 45-C , 49-S ) :   1.0840
B( 46-C , 47-C ) :   1.5676 B( 46-C , 88-H ) :   0.9950 B( 47-C , 48-C ) :   1.1566
B( 47-C , 89-H ) :   1.0006 B( 48-C , 49-S ) :   1.0290 B( 48-C , 50-C ) :   1.5384
B( 50-C , 51-C ) :   1.2018 B( 50-C , 90-H ) :   0.9724 B( 51-C , 52-C ) :   1.4346
B( 51-C , 55-S ) :   1.0440 B( 52-C , 53-C ) :   1.2219 B( 52-C , 91-H ) :   1.0140
B( 53-C , 54-C ) :   1.2811 B( 53-C , 61-C ) :   1.2732 B( 54-C , 55-S ) :   1.0092
B( 54-C , 56-C ) :   1.3945 B( 56-C , 57-O ) :   1.2522 B( 56-C , 59-C ) :   1.2458
B( 57-O , 58-C ) :   0.9270 B( 58-C , 92-H ) :   0.9659 B( 58-C , 93-H ) :   0.9669
B( 58-C , 94-H ) :   0.9746 B( 59-C , 60-C ) :   1.2875 B( 59-C , 66-C ) :   1.2041
B( 60-C , 61-C ) :   1.3732 B( 60-C , 64-S ) :   1.0234 B( 61-C , 62-O ) :   1.2310
B( 62-O , 63-C ) :   0.9374 B( 63-C , 95-H ) :   0.9682 B( 63-C , 96-H ) :   0.9680
B( 63-C , 97-H ) :   0.9764 B( 64-S , 65-C ) :   1.0460 B( 65-C , 66-C ) :   1.4625
B( 65-C , 67-C ) :   1.2023 B( 66-C , 98-H ) :   0.9888 B( 67-C , 68-C ) :   1.6180
B( 67-C , 99-H ) :   0.9090 B( 68-C , 69-C ) :   0.9252 B( 68-C , 76-C ) :   1.0869
B( 69-C , 70-O ) :   2.1789 B( 69-C , 71-C ) :   0.9631 B( 71-C , 72-C ) :   1.5375
B( 71-C , 75-C ) :   1.2237 B( 72-C , 73-S ) :   1.1898 B( 72-C ,100-H ) :   0.9711
B( 73-S , 74-C ) :   1.1824 B( 74-C , 75-C ) :   1.5325 B( 74-C ,101-H ) :   0.9548
B( 75-C , 76-C ) :   0.9922 B( 76-C , 77-C ) :   1.6291 B( 77-C , 78-C ) :   1.1560
B( 77-C , 80-C ) :   1.1352 B( 78-C , 79-N ) :   2.9888 B( 80-C , 81-N ) :   2.9606

-----------------------------------------------------------------------------
         ABSORPTION SPECTRUM VIA TRANSITION ELECTRIC DIPOLE MOMENTS
-----------------------------------------------------------------------------
State   Energy  Wavelength   fosc         T2         TX        TY        TZ
        (cm-1)    (nm)                  (au**2)     (au)      (au)      (au)
-----------------------------------------------------------------------------
   0    8879.9   1126.1   1.227929942  45.52424  -4.37837  -4.70643   2.05027
   1   14508.6    689.2   0.490755912  11.13565  -2.95060   1.53141   0.29049
   2   16215.3    616.7   0.356962543   7.24726  -1.41053   2.25442  -0.41865
   3   20226.2    494.4   0.041873447   0.68155  -0.31011   0.74628   0.16869
   4   21625.0    462.4   0.657383320  10.00779  -1.68126   2.67632  -0.13583
   5   22830.7    438.0   0.163356597   2.35555   0.90076  -1.22437   0.21235
   6   23006.1    434.7   0.240337361   3.43917  -0.25522   1.82952  -0.16398
   7   24632.9    406.0   0.238604122   3.18887   1.40072  -1.10455   0.08265
   8   25079.7    398.7   0.040303760   0.52905   0.39478  -0.53736   0.29060
   9   25398.3    393.7   0.057670540   0.74752  -0.80117   0.32259   0.03990
  10   25823.7    387.2   0.019728248   0.25150  -0.34515   0.28599   0.22492
  11   26178.7    382.0   0.022842177   0.28725  -0.41843  -0.30385  -0.14087
  12   27170.4    368.0   0.019134613   0.23185   0.29245  -0.30733   0.22775
  13   27412.7    364.8   0.113340644   1.36116  -0.70008  -0.67648   0.64298
  14   27905.7    358.3   0.006046707   0.07133   0.15534   0.20362  -0.07578
  15   28192.8    354.7   0.004434442   0.05178  -0.05539   0.11344  -0.18932
  16   28823.1    346.9   0.113290740   1.29399  -0.59087   0.97176  -0.02323
  17   29728.8    336.4   0.006350509   0.07032  -0.14294  -0.16817   0.14701
  18   30017.9    333.1   0.168857425   1.85189   1.22428  -0.36111   0.47184
  19   30522.9    327.6   0.066992230   0.72256  -0.66226   0.52806  -0.07157
  20   30829.1    324.4   0.013310728   0.14214   0.27851  -0.11505   0.22658
  21   31140.6    321.1   0.027048645   0.28595   0.21222  -0.46758  -0.14928
  22   31800.2    314.5   0.017058489   0.17660   0.00018  -0.37213  -0.19523
  23   32011.0    312.4   0.109635961   1.12753   0.91728   0.40580  -0.34851
  24   32503.0    307.7   0.054770210   0.55475   0.73484   0.01342  -0.12073
  25   32627.9    306.5   0.032851549   0.33147  -0.35064   0.41093  -0.19913
  26   32802.8    304.9   0.005129963   0.05148  -0.18585   0.00206   0.13015
  27   33157.6    301.6   0.002947114   0.02926  -0.02992   0.16361  -0.03996
  28   33197.2    301.2   0.038777073   0.38455  -0.55092  -0.28074  -0.04712
  29   33383.2    299.6   0.013201157   0.13018  -0.13280   0.28270  -0.18063
  30   33969.4    294.4   0.039419085   0.38203  -0.40333  -0.34290   0.31902
  31   34406.4    290.6   0.027130143   0.25959  -0.29423  -0.33947   0.24038
  32   34545.6    289.5   0.003591545   0.03423  -0.04023   0.17758  -0.03274
  33   34861.0    286.9   0.010137601   0.09574  -0.24582   0.01879   0.18696
  34   34985.3    285.8   0.019051714   0.17928   0.02329   0.41950  -0.05244
  35   35032.1    285.5   0.007098004   0.06670  -0.10242   0.20078  -0.12609
  36   35445.5    282.1   0.041596356   0.38634  -0.25370   0.52050   0.22595
  37   35814.3    279.2   0.027800657   0.25555   0.43095   0.08390  -0.25058
  38   35843.0    279.0   0.002463610   0.02263  -0.04434   0.03691  -0.13892
  39   36139.5    276.7   0.013962369   0.12719  -0.28662   0.07960   0.19672
  40   36472.7    274.2   0.074219583   0.66992  -0.77364   0.08662  -0.25279
  41   36658.7    272.8   0.092128444   0.82736  -0.74701   0.39781  -0.33328
  42   36960.0    270.6   0.036656159   0.32651   0.55053   0.15205  -0.01724
  43   37361.4    267.7   0.367675496   3.23979   1.59168   0.81292  -0.21335
  44   37623.8    265.8   0.014973267   0.13102   0.33601   0.12291   0.05483
  45   37960.7    263.4   0.126677465   1.09860  -0.42264  -0.74106   0.60894
  46   38283.2    261.2   0.062490697   0.53738  -0.20587  -0.60705   0.35565
  47   38454.6    260.0   0.007967531   0.06821  -0.24114  -0.04966   0.08715
  48   38525.2    259.6   0.114192294   0.97581   0.29836   0.85994  -0.38380
  49   38832.5    257.5   0.198755638   1.68500   0.35056  -1.08615   0.61837
  50   39033.0    256.2   0.071560048   0.60355   0.13250  -0.75219   0.14214
  51   39241.0    254.8   0.097027959   0.81402  -0.73201  -0.52553   0.04458
  52   39403.5    253.8   0.006527655   0.05454   0.20576   0.03721  -0.10400
  53   39495.3    253.2   0.174033832   1.45065   1.12958  -0.37513   0.18432
  54   39665.9    252.1   0.131105294   1.08813  -0.94905  -0.42798   0.06531
  55   39729.0    251.7   0.250187853   2.07317   0.74887   1.22671   0.08691
  56   39986.1    250.1   0.036011399   0.29649  -0.49066   0.19726   0.12973

FINAL SINGLE POINT ENERGY     -6124.256717413115

DIPOLE MOMENT
-------------
                                X             Y             Z
Electronic contribution:    -55.95616     -70.57880      27.59995
Nuclear contribution   :     59.45545      68.42597     -28.32063
                        -----------------------------------------
Total Dipole Moment    :      3.49929      -2.15283      -0.72069
                        -----------------------------------------
Magnitude (a.u.)       :      4.17122
Magnitude (Debye)      :     10.60241

Rotational constants in cm-1:     0.001014     0.000267     0.000218
Rotational constants in MHz :    30.398918     8.007713     6.546444

                             ****ORCA TERMINATED NORMALLY****
TOTAL RUN TIME: 0 days 0 hours 14 minutes 25 seconds 142 msec
