                         Program Version 4.2.0 -  RELEASE  -
|  1> # ORCA input file
|  2> # SCF done       -182.555179475305          0.000829161570
|  3> ! CAM-B3LYP def2-SVP def2/J RIJCOSX Grid4 TightSCF
|  4> %maxcore 5000
|  5> %tddft
|  6>     Mode sTDDFT
|  7>     Ethresh 5.0
|  8>     maxcore 5000
|  9> end
| 10>
| 11> %pal
| 12>   nprocs 6
| 13>   end
| 14> * xyz 0 1
| 15>    C       14.48553        13.52797         6.30065
| 16>    C       14.41817        14.88572         6.30690
| 17>    S       15.26892        15.53801         7.66132
| 18>    C       15.72050        13.96838         8.22491
| 19>    C       15.23456        13.00581         7.40433
| 20>    C       15.25501        11.53580         7.32487
| 21>    O       15.79907        10.76644         8.09236
| 22>    C       14.46811        11.20864         6.11257
| 23>    C       14.01021        12.42238         5.48714
| 24>    C       13.26647        12.57781         4.33823
| 25>    C       12.90385        13.85724         3.87550
| 26>    N       12.59688        14.89002         3.47717
| 27>    C       12.78539        11.56184         3.49546
| 28>    N       12.35155        10.80915         2.74128
| 29>    C       14.20310         9.92419         5.67463
| 30>    C       14.64294         8.76028         6.29205
| 31>    C       14.31466         7.49704         5.83067
| 32>    C       14.69478         6.25767         6.38918
| 33>    C       14.19662         5.16932         5.72768
| 34>    C       13.40133         5.50312         4.61589
| 35>    S       13.30927         7.23938         4.42558
| 36>    C       12.72274         4.67408         3.73482
| 37>    C       12.62597         3.26725         3.71079
| 38>    C       11.84130         2.79140         2.70075
| 39>    C       11.28004         3.79294         1.86970
| 40>    S       11.80113         5.36939         2.43078
| 41>    C       10.43989         3.58033         0.80155
| 42>    C        9.88144         4.55301        -0.04394
| 43>    C       10.08476         5.92003        -0.07234
| 44>    C        9.35590         6.57995        -1.06723
| 45>    C        8.55232         5.69657        -1.83319
| 46>    S        8.74052         4.05371        -1.29393
| 47>    C        7.75094         6.14054        -2.86337
| 48>    O        7.01052         5.27503        -3.61989
| 49>    C        5.61121         5.28164        -3.36765
| 50>    C        7.79015         7.52617        -3.14015
| 51>    C        8.59320         8.42119        -2.37125
| 52>    C        9.37721         7.97752        -1.32053
| 53>    O       10.17413         8.67221        -0.48951
| 54>    C       10.25511        10.07916        -0.54862
| 55>    S        8.43536        10.05269        -2.99956
| 56>    C        7.31681         9.52966        -4.24722
| 57>    C        7.09754         8.17085        -4.17695
| 58>    C        6.78952        10.48624        -5.13475
| 59>    C        5.75269        10.30534        -6.01622
| 60>    C        5.23946        11.27849        -6.91141
| 61>    C        4.16334        10.86462        -7.63897
| 62>    C        3.76121         9.54245        -7.35321
| 63>    S        4.80741         8.83413        -6.15248
| 64>    C        2.70107         8.81258        -7.86622
| 65>    C        1.75146         9.17983        -8.83953
| 66>    C        0.81939         8.21107        -9.08561
| 67>    C        0.98795         7.03833        -8.31706
| 68>    S        2.38321         7.19754        -7.27637
| 69>    C        0.19450         5.90518        -8.32404
| 70>    C        0.45097         4.81612        -7.49928
| 71>    C       -0.30646         3.66391        -7.42671
| 72>    C       -1.52668         3.40596        -8.22761
| 73>    O       -2.04043         4.13074        -9.05632
| 74>    C       -1.98558         2.07470        -7.79778
| 75>    C       -3.00296         1.22734        -8.08684
| 76>    S       -2.88454        -0.21544        -7.14415
| 77>    C       -1.45053         0.33252        -6.35332
| 78>    C       -1.09104         1.56483        -6.80141
| 79>    C       -0.04425         2.54201        -6.56100
| 80>    C        0.97911         2.37183        -5.65547
| 81>    C        1.07475         1.19986        -4.88035
| 82>    N        1.16910         0.25118        -4.23953
| 83>    C        2.01481         3.27949        -5.37603
| 84>    N        2.89417         3.95968        -5.08041
| 85>    H       13.93408        15.55222         5.62183
| 86>    H       16.30757        13.86667         9.11539
| 87>    H       13.59592         9.80914         4.78324
| 88>    H       15.25920         8.83501         7.17618
| 89>    H       15.32019         6.20629         7.26258
| 90>    H       14.38078         4.14895         6.01312
| 91>    H       13.12648         2.64807         4.43328
| 92>    H       11.64624         1.74805         2.52553
| 93>    H       10.17259         2.55223         0.59449
| 94>    H       10.74476         6.45637         0.58123
| 95>    H        5.39797         4.85557        -2.38207
| 96>    H        5.15676         4.66226        -4.13733
| 97>    H        5.19457         6.29088        -3.41843
| 98>    H        9.27435        10.54386        -0.42111
| 99>    H       10.70039        10.41755        -1.48780
|100>    H       10.90050        10.36038         0.28325
|101>    H        6.50104         7.62573        -4.88386
|102>    H        7.22743        11.47519        -5.09490
|103>    H        5.68289        12.25576        -6.98558
|104>    H        3.64644        11.47436        -8.35790
|105>    H        1.77599        10.13676        -9.32961
|106>    H        0.01420         8.30543        -9.79229
|107>    H       -0.65723         5.87726        -8.98780
|108>    H        1.31977         4.88767        -6.85451
|109>    H       -3.80847         1.34862        -8.78285
|110>    H       -0.98305        -0.29400        -5.62057
|111> *
|112>
|113>                          ****END OF INPUT****

CARTESIAN COORDINATES (ANGSTROEM)
---------------------------------
  C     14.485530   13.527970    6.300650
  C     14.418170   14.885720    6.306900
  S     15.268920   15.538010    7.661320
  C     15.720500   13.968380    8.224910
  C     15.234560   13.005810    7.404330
  C     15.255010   11.535800    7.324870
  O     15.799070   10.766440    8.092360
  C     14.468110   11.208640    6.112570
  C     14.010210   12.422380    5.487140
  C     13.266470   12.577810    4.338230
  C     12.903850   13.857240    3.875500
  N     12.596880   14.890020    3.477170
  C     12.785390   11.561840    3.495460
  N     12.351550   10.809150    2.741280
  C     14.203100    9.924190    5.674630
  C     14.642940    8.760280    6.292050
  C     14.314660    7.497040    5.830670
  C     14.694780    6.257670    6.389180
  C     14.196620    5.169320    5.727680
  C     13.401330    5.503120    4.615890
  S     13.309270    7.239380    4.425580
  C     12.722740    4.674080    3.734820
  C     12.625970    3.267250    3.710790
  C     11.841300    2.791400    2.700750
  C     11.280040    3.792940    1.869700
  S     11.801130    5.369390    2.430780
  C     10.439890    3.580330    0.801550
  C      9.881440    4.553010   -0.043940
  C     10.084760    5.920030   -0.072340
  C      9.355900    6.579950   -1.067230
  C      8.552320    5.696570   -1.833190
  S      8.740520    4.053710   -1.293930
  C      7.750940    6.140540   -2.863370
  O      7.010520    5.275030   -3.619890
  C      5.611210    5.281640   -3.367650
  C      7.790150    7.526170   -3.140150
  C      8.593200    8.421190   -2.371250
  C      9.377210    7.977520   -1.320530
  O     10.174130    8.672210   -0.489510
  C     10.255110   10.079160   -0.548620
  S      8.435360   10.052690   -2.999560
  C      7.316810    9.529660   -4.247220
  C      7.097540    8.170850   -4.176950
  C      6.789520   10.486240   -5.134750
  C      5.752690   10.305340   -6.016220
  C      5.239460   11.278490   -6.911410
  C      4.163340   10.864620   -7.638970
  C      3.761210    9.542450   -7.353210
  S      4.807410    8.834130   -6.152480
  C      2.701070    8.812580   -7.866220
  C      1.751460    9.179830   -8.839530
  C      0.819390    8.211070   -9.085610
  C      0.987950    7.038330   -8.317060
  S      2.383210    7.197540   -7.276370
  C      0.194500    5.905180   -8.324040
  C      0.450970    4.816120   -7.499280
  C     -0.306460    3.663910   -7.426710
  C     -1.526680    3.405960   -8.227610
  O     -2.040430    4.130740   -9.056320
  C     -1.985580    2.074700   -7.797780
  C     -3.002960    1.227340   -8.086840
  S     -2.884540   -0.215440   -7.144150
  C     -1.450530    0.332520   -6.353320
  C     -1.091040    1.564830   -6.801410
  C     -0.044250    2.542010   -6.561000
  C      0.979110    2.371830   -5.655470
  C      1.074750    1.199860   -4.880350
  N      1.169100    0.251180   -4.239530
  C      2.014810    3.279490   -5.376030
  N      2.894170    3.959680   -5.080410
  H     13.934080   15.552220    5.621830
  H     16.307570   13.866670    9.115390
  H     13.595920    9.809140    4.783240
  H     15.259200    8.835010    7.176180
  H     15.320190    6.206290    7.262580
  H     14.380780    4.148950    6.013120
  H     13.126480    2.648070    4.433280
  H     11.646240    1.748050    2.525530
  H     10.172590    2.552230    0.594490
  H     10.744760    6.456370    0.581230
  H      5.397970    4.855570   -2.382070
  H      5.156760    4.662260   -4.137330
  H      5.194570    6.290880   -3.418430
  H      9.274350   10.543860   -0.421110
  H     10.700390   10.417550   -1.487800
  H     10.900500   10.360380    0.283250
  H      6.501040    7.625730   -4.883860
  H      7.227430   11.475190   -5.094900
  H      5.682890   12.255760   -6.985580
  H      3.646440   11.474360   -8.357900
  H      1.775990   10.136760   -9.329610
  H      0.014200    8.305430   -9.792290
  H     -0.657230    5.877260   -8.987800
  H      1.319770    4.887670   -6.854510
  H     -3.808470    1.348620   -8.782850
  H     -0.983050   -0.294000   -5.620570

 Total Charge           Charge          ....    0
 Multiplicity           Mult            ....    1
 Number of Electrons    NEL             ....  538
 Basis Dimension        Dim             .... 1142

ORBITAL ENERGIES
----------------

  NO   OCC          E(Eh)            E(eV)
   0   2.0000     -88.970242     -2421.0034
   1   2.0000     -88.968063     -2420.9441
   2   2.0000     -88.965924     -2420.8859
   3   2.0000     -88.963067     -2420.8081
   4   2.0000     -88.961948     -2420.7777
   5   2.0000     -88.957489     -2420.6563
   6   2.0000     -88.956863     -2420.6393
   7   2.0000     -88.951781     -2420.5010
   8   2.0000     -19.252838      -523.8964
   9   2.0000     -19.229370      -523.2578
  10   2.0000     -19.201607      -522.5023
  11   2.0000     -19.196146      -522.3537
  12   2.0000     -14.409021      -392.0894
  13   2.0000     -14.403591      -391.9416
  14   2.0000     -14.400148      -391.8479
  15   2.0000     -14.395787      -391.7293
  16   2.0000     -10.356554      -281.8162
  17   2.0000     -10.351143      -281.6689
  18   2.0000     -10.348996      -281.6105
  19   2.0000     -10.338527      -281.3256
  20   2.0000     -10.334284      -281.2102
  21   2.0000     -10.330269      -281.1009
  22   2.0000     -10.329954      -281.0923
  23   2.0000     -10.328804      -281.0611
  24   2.0000     -10.327747      -281.0323
  25   2.0000     -10.325701      -280.9766
  26   2.0000     -10.324667      -280.9485
  27   2.0000     -10.323707      -280.9223
  28   2.0000     -10.323533      -280.9176
  29   2.0000     -10.321362      -280.8585
  30   2.0000     -10.319288      -280.8021
  31   2.0000     -10.317826      -280.7623
  32   2.0000     -10.317261      -280.7469
  33   2.0000     -10.317201      -280.7453
  34   2.0000     -10.313600      -280.6473
  35   2.0000     -10.312414      -280.6151
  36   2.0000     -10.310885      -280.5734
  37   2.0000     -10.310486      -280.5626
  38   2.0000     -10.310197      -280.5547
  39   2.0000     -10.310058      -280.5509
  40   2.0000     -10.309624      -280.5391
  41   2.0000     -10.309185      -280.5272
  42   2.0000     -10.309147      -280.5262
  43   2.0000     -10.308112      -280.4980
  44   2.0000     -10.306116      -280.4437
  45   2.0000     -10.305821      -280.4356
  46   2.0000     -10.305700      -280.4324
  47   2.0000     -10.304740      -280.4062
  48   2.0000     -10.304331      -280.3951
  49   2.0000     -10.304294      -280.3941
  50   2.0000     -10.303563      -280.3742
  51   2.0000     -10.301674      -280.3228
  52   2.0000     -10.300937      -280.3027
  53   2.0000     -10.300333      -280.2863
  54   2.0000     -10.299886      -280.2741
  55   2.0000     -10.296659      -280.1863
  56   2.0000     -10.296118      -280.1716
  57   2.0000     -10.291692      -280.0512
  58   2.0000     -10.290214      -280.0110
  59   2.0000     -10.290137      -280.0089
  60   2.0000     -10.287720      -279.9431
  61   2.0000     -10.285614      -279.8858
  62   2.0000     -10.285000      -279.8691
  63   2.0000     -10.283264      -279.8218
  64   2.0000     -10.281217      -279.7661
  65   2.0000     -10.278139      -279.6824
  66   2.0000     -10.277596      -279.6676
  67   2.0000     -10.274809      -279.5918
  68   2.0000     -10.273483      -279.5557
  69   2.0000     -10.270640      -279.4783
  70   2.0000      -8.066137      -219.4907
  71   2.0000      -8.064017      -219.4331
  72   2.0000      -8.061739      -219.3711
  73   2.0000      -8.058964      -219.2956
  74   2.0000      -8.058030      -219.2701
  75   2.0000      -8.052979      -219.1327
  76   2.0000      -8.052588      -219.1221
  77   2.0000      -8.046958      -218.9689
  78   2.0000      -6.035431      -164.2324
  79   2.0000      -6.033716      -164.1858
  80   2.0000      -6.031050      -164.1132
  81   2.0000      -6.030725      -164.1044
  82   2.0000      -6.029514      -164.0714
  83   2.0000      -6.028747      -164.0505
  84   2.0000      -6.028648      -164.0479
  85   2.0000      -6.027621      -164.0199
  86   2.0000      -6.026349      -163.9853
  87   2.0000      -6.025116      -163.9517
  88   2.0000      -6.024427      -163.9330
  89   2.0000      -6.024354      -163.9310
  90   2.0000      -6.023564      -163.9095
  91   2.0000      -6.022560      -163.8822
  92   2.0000      -6.022480      -163.8800
  93   2.0000      -6.020129      -163.8160
  94   2.0000      -6.019231      -163.7916
  95   2.0000      -6.018487      -163.7714
  96   2.0000      -6.018258      -163.7651
  97   2.0000      -6.016688      -163.7224
  98   2.0000      -6.014211      -163.6550
  99   2.0000      -6.013562      -163.6373
 100   2.0000      -6.012635      -163.6121
 101   2.0000      -6.008091      -163.4885
 102   2.0000      -1.159186       -31.5431
 103   2.0000      -1.132686       -30.8220
 104   2.0000      -1.115776       -30.3618
 105   2.0000      -1.110454       -30.2170
 106   2.0000      -1.017085       -27.6763
 107   2.0000      -1.011920       -27.5357
 108   2.0000      -1.010428       -27.4951
 109   2.0000      -1.005548       -27.3623
 110   2.0000      -1.000534       -27.2259
 111   2.0000      -0.996395       -27.1133
 112   2.0000      -0.993346       -27.0303
 113   2.0000      -0.991457       -26.9789
 114   2.0000      -0.988331       -26.8939
 115   2.0000      -0.982302       -26.7298
 116   2.0000      -0.979930       -26.6653
 117   2.0000      -0.977736       -26.6056
 118   2.0000      -0.950044       -25.8520
 119   2.0000      -0.944786       -25.7089
 120   2.0000      -0.927377       -25.2352
 121   2.0000      -0.913447       -24.8562
 122   2.0000      -0.905867       -24.6499
 123   2.0000      -0.895277       -24.3617
 124   2.0000      -0.885753       -24.1026
 125   2.0000      -0.881477       -23.9862
 126   2.0000      -0.877221       -23.8704
 127   2.0000      -0.873057       -23.7571
 128   2.0000      -0.868880       -23.6434
 129   2.0000      -0.862715       -23.4757
 130   2.0000      -0.848852       -23.0984
 131   2.0000      -0.844017       -22.9669
 132   2.0000      -0.839753       -22.8508
 133   2.0000      -0.837773       -22.7969
 134   2.0000      -0.834509       -22.7082
 135   2.0000      -0.829263       -22.5654
 136   2.0000      -0.824774       -22.4432
 137   2.0000      -0.819380       -22.2965
 138   2.0000      -0.808007       -21.9870
 139   2.0000      -0.802602       -21.8399
 140   2.0000      -0.791944       -21.5499
 141   2.0000      -0.782804       -21.3012
 142   2.0000      -0.771386       -20.9905
 143   2.0000      -0.757218       -20.6050
 144   2.0000      -0.743044       -20.2193
 145   2.0000      -0.740764       -20.1572
 146   2.0000      -0.737384       -20.0652
 147   2.0000      -0.732612       -19.9354
 148   2.0000      -0.721280       -19.6270
 149   2.0000      -0.704325       -19.1657
 150   2.0000      -0.696787       -18.9605
 151   2.0000      -0.683574       -18.6010
 152   2.0000      -0.678664       -18.4674
 153   2.0000      -0.673383       -18.3237
 154   2.0000      -0.667955       -18.1760
 155   2.0000      -0.664578       -18.0841
 156   2.0000      -0.660418       -17.9709
 157   2.0000      -0.656583       -17.8665
 158   2.0000      -0.652260       -17.7489
 159   2.0000      -0.651128       -17.7181
 160   2.0000      -0.647096       -17.6084
 161   2.0000      -0.642008       -17.4699
 162   2.0000      -0.640101       -17.4180
 163   2.0000      -0.631926       -17.1956
 164   2.0000      -0.628984       -17.1155
 165   2.0000      -0.626695       -17.0532
 166   2.0000      -0.620343       -16.8804
 167   2.0000      -0.615139       -16.7388
 168   2.0000      -0.611577       -16.6419
 169   2.0000      -0.607926       -16.5425
 170   2.0000      -0.606403       -16.5011
 171   2.0000      -0.604682       -16.4542
 172   2.0000      -0.594650       -16.1812
 173   2.0000      -0.585129       -15.9222
 174   2.0000      -0.584086       -15.8938
 175   2.0000      -0.579585       -15.7713
 176   2.0000      -0.565524       -15.3887
 177   2.0000      -0.562944       -15.3185
 178   2.0000      -0.559657       -15.2290
 179   2.0000      -0.550221       -14.9723
 180   2.0000      -0.544933       -14.8284
 181   2.0000      -0.537861       -14.6360
 182   2.0000      -0.537210       -14.6182
 183   2.0000      -0.535428       -14.5697
 184   2.0000      -0.532711       -14.4958
 185   2.0000      -0.531478       -14.4623
 186   2.0000      -0.526657       -14.3311
 187   2.0000      -0.521669       -14.1953
 188   2.0000      -0.521526       -14.1914
 189   2.0000      -0.519070       -14.1246
 190   2.0000      -0.517477       -14.0813
 191   2.0000      -0.515859       -14.0372
 192   2.0000      -0.514633       -14.0039
 193   2.0000      -0.512378       -13.9425
 194   2.0000      -0.510232       -13.8841
 195   2.0000      -0.509670       -13.8688
 196   2.0000      -0.505490       -13.7551
 197   2.0000      -0.504819       -13.7368
 198   2.0000      -0.500074       -13.6077
 199   2.0000      -0.497078       -13.5262
 200   2.0000      -0.496426       -13.5084
 201   2.0000      -0.491390       -13.3714
 202   2.0000      -0.488619       -13.2960
 203   2.0000      -0.487609       -13.2685
 204   2.0000      -0.484711       -13.1897
 205   2.0000      -0.484050       -13.1717
 206   2.0000      -0.482461       -13.1284
 207   2.0000      -0.480486       -13.0747
 208   2.0000      -0.479927       -13.0595
 209   2.0000      -0.479033       -13.0351
 210   2.0000      -0.475966       -12.9517
 211   2.0000      -0.475140       -12.9292
 212   2.0000      -0.471499       -12.8301
 213   2.0000      -0.469034       -12.7631
 214   2.0000      -0.467417       -12.7191
 215   2.0000      -0.465480       -12.6664
 216   2.0000      -0.460774       -12.5383
 217   2.0000      -0.458683       -12.4814
 218   2.0000      -0.456208       -12.4141
 219   2.0000      -0.454125       -12.3574
 220   2.0000      -0.449732       -12.2378
 221   2.0000      -0.448685       -12.2093
 222   2.0000      -0.445720       -12.1287
 223   2.0000      -0.440566       -11.9884
 224   2.0000      -0.439673       -11.9641
 225   2.0000      -0.438082       -11.9208
 226   2.0000      -0.435678       -11.8554
 227   2.0000      -0.434910       -11.8345
 228   2.0000      -0.431003       -11.7282
 229   2.0000      -0.430420       -11.7123
 230   2.0000      -0.428056       -11.6480
 231   2.0000      -0.424070       -11.5395
 232   2.0000      -0.422636       -11.5005
 233   2.0000      -0.420497       -11.4423
 234   2.0000      -0.417615       -11.3639
 235   2.0000      -0.417263       -11.3543
 236   2.0000      -0.416884       -11.3440
 237   2.0000      -0.412962       -11.2373
 238   2.0000      -0.412765       -11.2319
 239   2.0000      -0.411357       -11.1936
 240   2.0000      -0.410388       -11.1672
 241   2.0000      -0.407780       -11.0963
 242   2.0000      -0.401185       -10.9168
 243   2.0000      -0.401090       -10.9142
 244   2.0000      -0.399960       -10.8835
 245   2.0000      -0.396220       -10.7817
 246   2.0000      -0.395789       -10.7700
 247   2.0000      -0.381712       -10.3869
 248   2.0000      -0.371846       -10.1184
 249   2.0000      -0.359662        -9.7869
 250   2.0000      -0.357289        -9.7223
 251   2.0000      -0.351728        -9.5710
 252   2.0000      -0.345828        -9.4105
 253   2.0000      -0.342254        -9.3132
 254   2.0000      -0.340043        -9.2531
 255   2.0000      -0.334935        -9.1141
 256   2.0000      -0.327964        -8.9244
 257   2.0000      -0.326918        -8.8959
 258   2.0000      -0.324499        -8.8301
 259   2.0000      -0.322510        -8.7759
 260   2.0000      -0.320050        -8.7090
 261   2.0000      -0.317170        -8.6306
 262   2.0000      -0.308264        -8.3883
 263   2.0000      -0.300891        -8.1876
 264   2.0000      -0.291274        -7.9260
 265   2.0000      -0.282257        -7.6806
 266   2.0000      -0.250202        -6.8083
 267   2.0000      -0.234383        -6.3779
 268   2.0000      -0.217397        -5.9157
 269   0.0000      -0.118620        -3.2278
 270   0.0000      -0.104404        -2.8410
 271   0.0000      -0.060772        -1.6537
 272   0.0000      -0.049356        -1.3430
 273   0.0000      -0.034320        -0.9339

MULLIKEN ATOMIC CHARGES
-----------------------
   0 C :    0.025430
   1 C :   -0.140249
   2 S :    0.137265
   3 C :   -0.147578
   4 C :    0.039889
   5 C :    0.156652
   6 O :   -0.162412
   7 C :   -0.115251
   8 C :    0.322350
   9 C :   -0.357681
  10 C :   -0.203907
  11 N :    0.134935
  12 C :   -0.187207
  13 N :    0.133999
  14 C :   -0.042246
  15 C :   -0.024156
  16 C :    0.008156
  17 C :    0.022865
  18 C :    0.045610
  19 C :   -0.051720
  20 S :    0.101598
  21 C :   -0.009373
  22 C :    0.019560
  23 C :    0.054216
  24 C :   -0.047173
  25 S :    0.082179
  26 C :    0.068345
  27 C :   -0.071116
  28 C :   -0.049128
  29 C :    0.037479
  30 C :   -0.068446
  31 S :    0.140090
  32 C :    0.048309
  33 O :   -0.336334
  34 C :    0.200698
  35 C :    0.085792
  36 C :   -0.122445
  37 C :    0.128438
  38 O :   -0.295051
  39 C :    0.155225
  40 S :    0.092828
  41 C :   -0.066897
  42 C :   -0.071455
  43 C :    0.060776
  44 C :   -0.041070
  45 C :    0.052315
  46 C :    0.023589
  47 C :   -0.018401
  48 S :    0.087228
  49 C :   -0.049055
  50 C :    0.048455
  51 C :    0.023826
  52 C :    0.007764
  53 S :    0.098134
  54 C :   -0.018901
  55 C :   -0.046896
  56 C :   -0.104656
  57 C :    0.156974
  58 O :   -0.162569
  59 C :    0.036951
  60 C :   -0.145049
  61 S :    0.142440
  62 C :   -0.142304
  63 C :    0.029665
  64 C :    0.319410
  65 C :   -0.353597
  66 C :   -0.201017
  67 N :    0.139279
  68 C :   -0.180446
  69 N :    0.138048
  70 H :    0.045768
  71 H :    0.031924
  72 H :    0.015848
  73 H :    0.016348
  74 H :   -0.000818
  75 H :   -0.005630
  76 H :   -0.007130
  77 H :   -0.000631
  78 H :   -0.003882
  79 H :    0.015399
  80 H :    0.010116
  81 H :    0.051118
  82 H :    0.006542
  83 H :    0.033312
  84 H :    0.032322
  85 H :    0.062079
  86 H :    0.019865
  87 H :   -0.002943
  88 H :   -0.000383
  89 H :   -0.004465
  90 H :   -0.004620
  91 H :    0.001999
  92 H :    0.017779
  93 H :    0.014791
  94 H :    0.034446
  95 H :    0.047872
Sum of atomic charges:   -0.0000000

LOEWDIN ATOMIC CHARGES
----------------------
   0 C :   -0.061912
   1 C :   -0.154783
   2 S :    0.465345
   3 C :   -0.146371
   4 C :   -0.087889
   5 C :    0.080311
   6 O :   -0.158681
   7 C :   -0.111218
   8 C :    0.075620
   9 C :   -0.167288
  10 C :   -0.016414
  11 N :   -0.077703
  12 C :   -0.015635
  13 N :   -0.080612
  14 C :    0.047061
  15 C :   -0.076390
  16 C :   -0.102634
  17 C :   -0.045543
  18 C :   -0.006426
  19 C :   -0.196326
  20 S :    0.411367
  21 C :   -0.144000
  22 C :   -0.047706
  23 C :   -0.004774
  24 C :   -0.157760
  25 S :    0.423068
  26 C :   -0.031061
  27 C :   -0.169114
  28 C :   -0.029004
  29 C :   -0.061065
  30 C :   -0.162058
  31 S :    0.410383
  32 C :    0.013172
  33 O :   -0.133818
  34 C :    0.082477
  35 C :   -0.048771
  36 C :   -0.188782
  37 C :    0.041731
  38 O :   -0.084628
  39 C :    0.069230
  40 S :    0.398321
  41 C :   -0.165245
  42 C :   -0.042274
  43 C :   -0.038665
  44 C :   -0.150453
  45 C :   -0.007209
  46 C :   -0.041861
  47 C :   -0.147761
  48 S :    0.416201
  49 C :   -0.191835
  50 C :   -0.006163
  51 C :   -0.041430
  52 C :   -0.102386
  53 S :    0.410673
  54 C :   -0.071976
  55 C :    0.047430
  56 C :   -0.106542
  57 C :    0.080994
  58 O :   -0.156577
  59 C :   -0.088426
  60 C :   -0.145029
  61 S :    0.469903
  62 C :   -0.153288
  63 C :   -0.062324
  64 C :    0.076152
  65 C :   -0.163251
  66 C :   -0.016412
  67 N :   -0.071853
  68 C :   -0.011102
  69 N :   -0.073049
  70 H :    0.033459
  71 H :    0.032543
  72 H :    0.030579
  73 H :    0.038526
  74 H :    0.038240
  75 H :    0.035578
  76 H :    0.034459
  77 H :    0.038360
  78 H :    0.039398
  79 H :    0.020875
  80 H :    0.012812
  81 H :    0.027808
  82 H :    0.008107
  83 H :    0.014039
  84 H :    0.012552
  85 H :    0.039087
  86 H :    0.021841
  87 H :    0.039147
  88 H :    0.038730
  89 H :    0.035414
  90 H :    0.036139
  91 H :    0.039325
  92 H :    0.039348
  93 H :    0.030067
  94 H :    0.033321
  95 H :    0.034283

  Mayer bond orders larger than 0.100000
B(  0-C ,  1-C ) :   1.5494 B(  0-C ,  4-C ) :   1.2230 B(  0-C ,  8-C ) :   0.9818
B(  1-C ,  2-S ) :   1.1666 B(  1-C , 70-H ) :   0.9547 B(  2-S ,  3-C ) :   1.1748
B(  3-C ,  4-C ) :   1.5541 B(  3-C , 71-H ) :   0.9704 B(  4-C ,  5-C ) :   0.9435
B(  5-C ,  6-O ) :   2.1866 B(  5-C ,  7-C ) :   0.9635 B(  7-C ,  8-C ) :   1.1380
B(  7-C , 14-C ) :   1.4646 B(  8-C ,  9-C ) :   1.5715 B(  9-C , 10-C ) :   1.1602
B(  9-C , 12-C ) :   1.1507 B( 10-C , 11-N ) :   2.9849 B( 12-C , 13-N ) :   2.9531
B( 14-C , 15-C ) :   1.2876 B( 14-C , 72-H ) :   0.9452 B( 15-C , 16-C ) :   1.3887
B( 15-C , 73-H ) :   0.9782 B( 16-C , 17-C ) :   1.1966 B( 16-C , 20-S ) :   1.0937
B( 17-C , 18-C ) :   1.5193 B( 17-C , 74-H ) :   1.0020 B( 18-C , 19-C ) :   1.2361
B( 18-C , 75-H ) :   0.9958 B( 19-C , 20-S ) :   1.0466 B( 19-C , 21-C ) :   1.4390
B( 21-C , 22-C ) :   1.2094 B( 21-C , 25-S ) :   1.0846 B( 22-C , 23-C ) :   1.5635
B( 22-C , 76-H ) :   0.9945 B( 23-C , 24-C ) :   1.1634 B( 23-C , 77-H ) :   0.9987
B( 24-C , 25-S ) :   1.0366 B( 24-C , 26-C ) :   1.5685 B( 26-C , 27-C ) :   1.1894
B( 26-C , 78-H ) :   0.9575 B( 27-C , 28-C ) :   1.4520 B( 27-C , 31-S ) :   1.0399
B( 28-C , 29-C ) :   1.2596 B( 28-C , 79-H ) :   0.9794 B( 29-C , 30-C ) :   1.3055
B( 29-C , 37-C ) :   1.2557 B( 30-C , 31-S ) :   1.0474 B( 30-C , 32-C ) :   1.4302
B( 32-C , 33-O ) :   1.2191 B( 32-C , 35-C ) :   1.2577 B( 33-O , 34-C ) :   0.9108
B( 34-C , 80-H ) :   0.9686 B( 34-C , 81-H ) :   0.9727 B( 34-C , 82-H ) :   0.9656
B( 35-C , 36-C ) :   1.2611 B( 35-C , 42-C ) :   1.2246 B( 36-C , 37-C ) :   1.3953
B( 36-C , 40-S ) :   1.0075 B( 37-C , 38-O ) :   1.2502 B( 38-O , 39-C ) :   0.9253
B( 39-C , 83-H ) :   0.9677 B( 39-C , 84-H ) :   0.9675 B( 39-C , 85-H ) :   0.9675
B( 40-S , 41-C ) :   1.0468 B( 41-C , 42-C ) :   1.4828 B( 41-C , 43-C ) :   1.1686
B( 42-C , 86-H ) :   0.9768 B( 43-C , 44-C ) :   1.5877 B( 43-C , 87-H ) :   0.9563
B( 44-C , 45-C ) :   1.1553 B( 44-C , 48-S ) :   1.0352 B( 45-C , 46-C ) :   1.5744
B( 45-C , 88-H ) :   0.9985 B( 46-C , 47-C ) :   1.1983 B( 46-C , 89-H ) :   0.9950
B( 47-C , 48-S ) :   1.0784 B( 47-C , 49-C ) :   1.4585 B( 49-C , 50-C ) :   1.2222
B( 49-C , 53-S ) :   1.0471 B( 50-C , 51-C ) :   1.5341 B( 50-C , 90-H ) :   0.9950
B( 51-C , 52-C ) :   1.1856 B( 51-C , 91-H ) :   1.0020 B( 52-C , 53-S ) :   1.0892
B( 52-C , 54-C ) :   1.4050 B( 54-C , 55-C ) :   1.2703 B( 54-C , 92-H ) :   0.9802
B( 55-C , 56-C ) :   1.4817 B( 55-C , 93-H ) :   0.9437 B( 56-C , 57-C ) :   0.9582
B( 56-C , 64-C ) :   1.1306 B( 57-C , 58-O ) :   2.1900 B( 57-C , 59-C ) :   0.9437
B( 59-C , 60-C ) :   1.5534 B( 59-C , 63-C ) :   1.2218 B( 60-C , 61-S ) :   1.1766
B( 60-C , 94-H ) :   0.9705 B( 61-S , 62-C ) :   1.1700 B( 62-C , 63-C ) :   1.5450
B( 62-C , 95-H ) :   0.9555 B( 63-C , 64-C ) :   0.9858 B( 64-C , 65-C ) :   1.5792
B( 65-C , 66-C ) :   1.1590 B( 65-C , 68-C ) :   1.1483 B( 66-C , 67-N ) :   2.9850
B( 68-C , 69-N ) :   2.9492

-----------------------------------------------------------------------------
         ABSORPTION SPECTRUM VIA TRANSITION ELECTRIC DIPOLE MOMENTS
-----------------------------------------------------------------------------
State   Energy  Wavelength   fosc         T2         TX        TY        TZ
        (cm-1)    (nm)                  (au**2)     (au)      (au)      (au)
-----------------------------------------------------------------------------
   0    8867.3   1127.7   1.368926351  50.82357  -4.82509  -2.82832  -4.42071
   1   11868.7    842.6   0.091152293   2.52836   1.22943  -0.31538  -0.95781
   2   14547.0    687.4   0.141937509   3.21217   1.08446   1.42455  -0.08234
   3   15763.6    634.4   0.664469356  13.87695  -1.14256  -3.52545  -0.37782
   4   18532.1    539.6   0.432682825   7.68637   0.40780  -2.55068   1.00703
   5   19420.7    514.9   0.072975535   1.23705   0.14615  -0.83714   0.71756
   6   21281.4    469.9   0.083118351   1.28579   0.32191  -0.95259   0.52415
   7   22760.0    439.4   0.036957769   0.53458  -0.22848   0.55720  -0.41462
   8   23498.7    425.6   1.672179414  23.42692   2.00252  -3.10399   3.12763
   9   25229.2    396.4   0.004722313   0.06162  -0.02534  -0.18282  -0.16600
  10   25582.8    390.9   0.032924830   0.42369   0.36930   0.45765   0.27905
  11   26148.8    382.4   0.003570359   0.04495  -0.16143  -0.07777  -0.11333
  12   26452.6    378.0   0.000280859   0.00350   0.01184   0.05463   0.01927
  13   26633.5    375.5   0.000042943   0.00053  -0.00326   0.01548   0.01675
  14   27037.2    369.9   0.029179786   0.35530   0.21692  -0.29294   0.47163
  15   27326.6    365.9   0.313090748   3.77190   0.98511   1.57386   0.56957
  16   27622.4    362.0   0.044864462   0.53471  -0.61716   0.28686  -0.26746
  17   28186.2    354.8   0.143707032   1.67848   0.66551   0.95888   0.56224
  18   28784.7    347.4   0.028783164   0.32919   0.13468  -0.00839   0.55766
  19   29261.8    341.7   0.020682031   0.23268   0.25202   0.36486   0.18987
  20   29979.8    333.6   0.011117220   0.12208   0.12030   0.17652  -0.27649
  21   30736.3    325.3   0.007253574   0.07769  -0.02820   0.26392  -0.08511
  22   31143.4    321.1   0.041198734   0.43551  -0.37969  -0.49914  -0.20542
  23   31321.8    319.3   0.050733218   0.53324  -0.36553   0.34711  -0.52834
  24   31516.9    317.3   0.053463387   0.55846   0.22590  -0.62942   0.33355
  25   31836.9    314.1   0.102379707   1.05867  -0.21869  -0.94813   0.33448
  26   32081.5    311.7   0.083087961   0.85263  -0.09267   0.91715  -0.05366
  27   32178.4    310.8   0.009737391   0.09962  -0.14750   0.20189   0.19263
  28   32556.0    307.2   0.077179155   0.78045   0.26774   0.84119  -0.03422
  29   32789.5    305.0   0.017157199   0.17226  -0.19141  -0.36610  -0.03996
  30   33203.9    301.2   0.000899367   0.00892   0.05782  -0.00187  -0.07463
  31   33679.2    296.9   0.000376496   0.00368  -0.02998   0.04219  -0.03165
  32   33696.2    296.8   0.005356740   0.05234   0.14016  -0.17894   0.02587
  33   33860.0    295.3   0.011633983   0.11311  -0.12305  -0.23238   0.20970
  34   34111.2    293.2   0.003204959   0.03093   0.04606   0.06669  -0.15608
  35   34923.2    286.3   0.012731789   0.12002   0.32206  -0.01183   0.12710
  36   35016.2    285.6   0.026145866   0.24582  -0.27401  -0.27762  -0.30604
  37   35031.1    285.5   0.000101452   0.00095   0.01188   0.00867   0.02715
  38   35192.6    284.2   0.060018553   0.56145  -0.31496  -0.60839  -0.30351
  39   35464.8    282.0   0.012896667   0.11972  -0.22800  -0.25381  -0.05756
  40   35766.1    279.6   0.003328117   0.03063   0.00815  -0.07719   0.15687
  41   35951.6    278.2   0.051146358   0.46835   0.24994   0.63012   0.09398
  42   36089.4    277.1   0.011710742   0.10683  -0.03931   0.29537  -0.13430
  43   36564.8    273.5   0.044552519   0.40113   0.27451   0.56352  -0.09064
  44   36655.3    272.8   0.022703721   0.20391  -0.11208   0.30623   0.31236
  45   37200.3    268.8   0.041866742   0.37051  -0.23651  -0.55276  -0.09501
  46   37549.9    266.3   0.032408282   0.28413  -0.30205  -0.43591  -0.05368
  47   37690.7    265.3   0.012781303   0.11164   0.15798  -0.19889   0.21708
  48   37729.9    265.0   0.000248728   0.00217  -0.00533   0.04381  -0.01492
  49   38251.1    261.4   0.009432339   0.08118   0.01870  -0.28236  -0.03322
  50   38564.5    259.3   0.242832518   2.07298  -0.99337  -0.43347  -0.94779
  51   38735.6    258.2   0.377122238   3.20514   1.15301   0.72313   1.16309
  52   39005.3    256.4   0.075860102   0.64027   0.71769   0.11960   0.33300
  53   39126.3    255.6   0.135070140   1.13649   0.92847   0.01710   0.52359
  54   39383.3    253.9   0.298571033   2.49581  -0.73482  -0.21950  -1.38118
  55   39707.8    251.8   0.103740393   0.86010  -0.70815  -0.21501  -0.55892
  56   39800.5    251.3   0.000353248   0.00292   0.03822  -0.00122   0.03821
  57   39962.9    250.2   0.041551187   0.34230   0.44129   0.17560   0.34165
  58   40239.2    248.5   0.099663032   0.81538   0.56042   0.17817   0.68525

FINAL SINGLE POINT ENERGY     -5774.407377679753

DIPOLE MOMENT
-------------
                                X             Y             Z
Electronic contribution:     -1.95723      -2.21319       3.99107
Nuclear contribution   :      1.79489       2.33480      -5.06312
                        -----------------------------------------
Total Dipole Moment    :     -0.16235       0.12160      -1.07204
                        -----------------------------------------
Magnitude (a.u.)       :      1.09106
Magnitude (Debye)      :      2.77326

Rotational constants in cm-1:     0.001386     0.000231     0.000205
Rotational constants in MHz :    41.563071     6.923351     6.135389

                             ****ORCA TERMINATED NORMALLY****
TOTAL RUN TIME: 0 days 0 hours 9 minutes 32 seconds 887 msec
