                         Program Version 4.2.0 -  RELEASE  -
|  1> # ORCA input file
|  2> # SCF done       -226.087169358215          0.000581314650
|  3> ! CAM-B3LYP def2-SVP def2/J RIJCOSX Grid4 TightSCF
|  4> %maxcore 5000
|  5> %tddft
|  6>     Mode sTDDFT
|  7>     Ethresh 5.0
|  8>     maxcore 5000
|  9> end
| 10>
| 11> %pal
| 12>   nprocs 6
| 13>   end
| 14> * xyz 0 1
| 15>    C       -0.16496         5.30501        -0.54043
| 16>    C        0.96147         6.02885        -0.83023
| 17>    C        1.18691         7.34730        -0.38505
| 18>    N        1.43010         8.41225        -0.03335
| 19>    C        1.97373         5.56764        -1.69826
| 20>    N        2.78727         5.24814        -2.44245
| 21>    C       -1.38040         5.84683         0.06760
| 22>    C       -2.46494         5.01672        -0.27418
| 23>    C       -3.75534         5.30989         0.12016
| 24>    C       -3.96803         6.45933         0.87287
| 25>    C       -2.89328         7.28220         1.22486
| 26>    C       -1.59083         6.98415         0.82556
| 27>    C       -3.19379         8.51448         2.00496
| 28>    O       -4.30026         8.98532         2.10417
| 29>    O       -2.10718         9.04089         2.56541
| 30>    C       -2.30603        10.23105         3.31667
| 31>    C       -5.34885         6.78581         1.37507
| 32>    O       -5.74749         6.46681         2.46247
| 33>    O       -6.06927         7.38130         0.43135
| 34>    C       -7.37470         7.79747         0.81478
| 35>    C       -1.97326         3.86256        -1.06338
| 36>    O       -2.62209         2.97814        -1.57055
| 37>    C       -0.49304         3.99325        -1.05311
| 38>    C        0.28137         2.93375        -1.42120
| 39>    C        1.63669         2.67029        -1.12887
| 40>    C        2.46174         1.79270        -1.82152
| 41>    C        3.74673         1.71319        -1.31155
| 42>    C        3.90343         2.50446        -0.17314
| 43>    S        2.47498         3.36441         0.24207
| 44>    C        5.16695         2.50092         0.45898
| 45>    C        6.17545         1.73451        -0.12131
| 46>   Ge        5.47415         0.85425        -1.74068
| 47>    C        5.43222        -1.12362        -1.59708
| 48>    C        6.27752         1.56390        -3.40275
| 49>    C        7.37638         1.83177         0.56533
| 50>    C        7.31173         2.65937         1.67485
| 51>    S        5.70194         3.33068         1.86550
| 52>    C        8.29189         2.96697         2.65571
| 53>    C        9.68537         2.87823         2.64451
| 54>    C       10.51692         2.57004         1.48768
| 55>    O       10.11369         2.38753         0.35530
| 56>    C       11.96793         2.52088         1.79511
| 57>    C       12.51997         2.83955         3.06386
| 58>    C       13.88852         2.72110         3.07348
| 59>    S       14.52640         2.21673         1.55975
| 60>    C       12.94316         2.16611         0.89254
| 61>    C       12.77132         1.74312        -0.53333
| 62>    F       11.97296         0.67762        -0.66424
| 63>    F       12.28808         2.71120        -1.31494
| 64>    F       13.95557         1.38789        -1.06628
| 65>    C       14.81976         2.97326         4.21815
| 66>    F       14.58335         2.17519         5.26338
| 67>    F       16.09449         2.74300         3.85115
| 68>    F       14.77927         4.23578         4.65199
| 69>    C       11.68070         3.24526         4.21265
| 70>    O       12.14426         3.54641         5.29520
| 71>    C       10.25996         3.23750         3.89985
| 72>    C        9.31716         3.61277         4.84922
| 73>    S        7.70865         3.52726         4.20485
| 74>    C        9.58493         3.99499         6.14400
| 75>    C        9.81525         4.31647         7.29521
| 76>    C       10.21984         4.63695         8.57308
| 77>    S       11.90746         4.53497         8.99062
| 78>    C       11.54398         5.02938        10.62149
| 79>    C       10.18828         5.26015        10.79993
| 80>    C        9.44473         5.03949         9.64866
| 81>    C       12.54220         5.14369        11.56975
| 82>    C       13.44048         5.22480        12.38673
| 83>    C       14.45107         5.31355        13.32893
| 84>    C       14.21826         5.62414        14.63011
| 85>    C       15.22130         5.71314        15.62593
| 86>    C       16.67048         5.51744        15.47459
| 87>    N       17.35360         5.65943        16.57013
| 88>    C       16.43658         5.95783        17.54010
| 89>    C       15.07919         5.99948        16.96795
| 90>    C       14.11779         6.30928        17.98654
| 91>    S       12.49008         6.46090        17.82988
| 92>    C       14.91104         6.45647        19.19151
| 93>    C       16.34710         6.23124        18.87607
| 94>    N       17.10272         6.36433        19.99829
| 95>    C       16.25482         6.64686        20.95228
| 96>    C       14.86872         6.71997        20.52113
| 97>    H       -4.57202         4.66038        -0.15456
| 98>    H       -0.78495         7.63776         1.11709
| 99>    H       -1.31839        10.55877         3.62968
|100>    H       -2.93802        10.02822         4.18348
|101>    H       -2.78825        10.99156         2.69966
|102>    H       -7.29819         8.62688         1.52005
|103>    H       -7.91225         6.97309         1.28776
|104>    H       -7.87373         8.11370        -0.09763
|105>    H       -0.24029         2.14801        -1.96050
|106>    H        2.12492         1.26528        -2.69686
|107>    H        4.97433        -1.42904        -0.66124
|108>    H        6.44368        -1.51605        -1.63685
|109>    H        4.86444        -1.54730        -2.41982
|110>    H        6.14701         2.64092        -3.44582
|111>    H        5.80616         1.11755        -4.27308
|112>    H        7.33939         1.33821        -3.42442
|113>    H        8.27153         1.31851         0.26915
|114>    H        9.77562         5.57545        11.74140
|115>    H        8.37851         5.16100         9.57861
|116>    H       15.45309         5.11220        12.97234
|117>    H       13.20406         5.81592        14.95595
|118>    H       17.17758         5.27669        14.55624
|119>    H       16.60183         6.80411        21.95888
|120>    H       14.03014         6.93788        21.15260
|121> *
|122>
|123>                          ****END OF INPUT****

CARTESIAN COORDINATES (ANGSTROEM)
---------------------------------
  C     -0.164960    5.305010   -0.540430
  C      0.961470    6.028850   -0.830230
  C      1.186910    7.347300   -0.385050
  N      1.430100    8.412250   -0.033350
  C      1.973730    5.567640   -1.698260
  N      2.787270    5.248140   -2.442450
  C     -1.380400    5.846830    0.067600
  C     -2.464940    5.016720   -0.274180
  C     -3.755340    5.309890    0.120160
  C     -3.968030    6.459330    0.872870
  C     -2.893280    7.282200    1.224860
  C     -1.590830    6.984150    0.825560
  C     -3.193790    8.514480    2.004960
  O     -4.300260    8.985320    2.104170
  O     -2.107180    9.040890    2.565410
  C     -2.306030   10.231050    3.316670
  C     -5.348850    6.785810    1.375070
  O     -5.747490    6.466810    2.462470
  O     -6.069270    7.381300    0.431350
  C     -7.374700    7.797470    0.814780
  C     -1.973260    3.862560   -1.063380
  O     -2.622090    2.978140   -1.570550
  C     -0.493040    3.993250   -1.053110
  C      0.281370    2.933750   -1.421200
  C      1.636690    2.670290   -1.128870
  C      2.461740    1.792700   -1.821520
  C      3.746730    1.713190   -1.311550
  C      3.903430    2.504460   -0.173140
  S      2.474980    3.364410    0.242070
  C      5.166950    2.500920    0.458980
  C      6.175450    1.734510   -0.121310
  Ge     5.474150    0.854250   -1.740680
  C      5.432220   -1.123620   -1.597080
  C      6.277520    1.563900   -3.402750
  C      7.376380    1.831770    0.565330
  C      7.311730    2.659370    1.674850
  S      5.701940    3.330680    1.865500
  C      8.291890    2.966970    2.655710
  C      9.685370    2.878230    2.644510
  C     10.516920    2.570040    1.487680
  O     10.113690    2.387530    0.355300
  C     11.967930    2.520880    1.795110
  C     12.519970    2.839550    3.063860
  C     13.888520    2.721100    3.073480
  S     14.526400    2.216730    1.559750
  C     12.943160    2.166110    0.892540
  C     12.771320    1.743120   -0.533330
  F     11.972960    0.677620   -0.664240
  F     12.288080    2.711200   -1.314940
  F     13.955570    1.387890   -1.066280
  C     14.819760    2.973260    4.218150
  F     14.583350    2.175190    5.263380
  F     16.094490    2.743000    3.851150
  F     14.779270    4.235780    4.651990
  C     11.680700    3.245260    4.212650
  O     12.144260    3.546410    5.295200
  C     10.259960    3.237500    3.899850
  C      9.317160    3.612770    4.849220
  S      7.708650    3.527260    4.204850
  C      9.584930    3.994990    6.144000
  C      9.815250    4.316470    7.295210
  C     10.219840    4.636950    8.573080
  S     11.907460    4.534970    8.990620
  C     11.543980    5.029380   10.621490
  C     10.188280    5.260150   10.799930
  C      9.444730    5.039490    9.648660
  C     12.542200    5.143690   11.569750
  C     13.440480    5.224800   12.386730
  C     14.451070    5.313550   13.328930
  C     14.218260    5.624140   14.630110
  C     15.221300    5.713140   15.625930
  C     16.670480    5.517440   15.474590
  N     17.353600    5.659430   16.570130
  C     16.436580    5.957830   17.540100
  C     15.079190    5.999480   16.967950
  C     14.117790    6.309280   17.986540
  S     12.490080    6.460900   17.829880
  C     14.911040    6.456470   19.191510
  C     16.347100    6.231240   18.876070
  N     17.102720    6.364330   19.998290
  C     16.254820    6.646860   20.952280
  C     14.868720    6.719970   20.521130
  H     -4.572020    4.660380   -0.154560
  H     -0.784950    7.637760    1.117090
  H     -1.318390   10.558770    3.629680
  H     -2.938020   10.028220    4.183480
  H     -2.788250   10.991560    2.699660
  H     -7.298190    8.626880    1.520050
  H     -7.912250    6.973090    1.287760
  H     -7.873730    8.113700   -0.097630
  H     -0.240290    2.148010   -1.960500
  H      2.124920    1.265280   -2.696860
  H      4.974330   -1.429040   -0.661240
  H      6.443680   -1.516050   -1.636850
  H      4.864440   -1.547300   -2.419820
  H      6.147010    2.640920   -3.445820
  H      5.806160    1.117550   -4.273080
  H      7.339390    1.338210   -3.424420
  H      8.271530    1.318510    0.269150
  H      9.775620    5.575450   11.741400
  H      8.378510    5.161000    9.578610
  H     15.453090    5.112200   12.972340
  H     13.204060    5.815920   14.955950
  H     17.177580    5.276690   14.556240
  H     16.601830    6.804110   21.958880
  H     14.030140    6.937880   21.152600

 Total Charge           Charge          ....    0
 Multiplicity           Mult            ....    1
 Number of Electrons    NEL             ....  638
 Basis Dimension        Dim             .... 1310

ORBITAL ENERGIES
----------------

  NO   OCC          E(Eh)            E(eV)
   0   2.0000    -398.783024    -10851.4378
   1   2.0000     -89.011016     -2422.1129
   2   2.0000     -88.989719     -2421.5334
   3   2.0000     -88.977160     -2421.1916
   4   2.0000     -88.976915     -2421.1850
   5   2.0000     -88.970573     -2421.0124
   6   2.0000     -88.900890     -2419.1162
   7   2.0000     -49.842588     -1356.2858
   8   2.0000     -44.379900     -1207.6385
   9   2.0000     -44.379129     -1207.6175
  10   2.0000     -44.378597     -1207.6030
  11   2.0000     -24.809187      -675.0923
  12   2.0000     -24.807675      -675.0512
  13   2.0000     -24.801873      -674.8933
  14   2.0000     -24.800638      -674.8597
  15   2.0000     -24.799596      -674.8313
  16   2.0000     -24.799279      -674.8227
  17   2.0000     -19.270871      -524.3871
  18   2.0000     -19.254796      -523.9496
  19   2.0000     -19.223559      -523.0996
  20   2.0000     -19.220507      -523.0166
  21   2.0000     -19.218566      -522.9638
  22   2.0000     -19.215035      -522.8677
  23   2.0000     -19.197790      -522.3984
  24   2.0000     -14.419638      -392.3783
  25   2.0000     -14.416572      -392.2949
  26   2.0000     -14.414559      -392.2401
  27   2.0000     -14.411299      -392.1514
  28   2.0000     -10.534019      -286.6452
  29   2.0000     -10.532403      -286.6013
  30   2.0000     -10.410967      -283.2968
  31   2.0000     -10.399031      -282.9720
  32   2.0000     -10.385760      -282.6109
  33   2.0000     -10.380152      -282.4583
  34   2.0000     -10.369581      -282.1706
  35   2.0000     -10.347723      -281.5759
  36   2.0000     -10.346949      -281.5548
  37   2.0000     -10.346313      -281.5375
  38   2.0000     -10.346143      -281.5329
  39   2.0000     -10.345281      -281.5094
  40   2.0000     -10.343778      -281.4685
  41   2.0000     -10.342560      -281.4354
  42   2.0000     -10.339786      -281.3599
  43   2.0000     -10.334630      -281.2196
  44   2.0000     -10.332221      -281.1540
  45   2.0000     -10.329506      -281.0802
  46   2.0000     -10.328283      -281.0469
  47   2.0000     -10.327180      -281.0169
  48   2.0000     -10.326652      -281.0025
  49   2.0000     -10.325927      -280.9828
  50   2.0000     -10.323967      -280.9294
  51   2.0000     -10.323565      -280.9185
  52   2.0000     -10.323420      -280.9145
  53   2.0000     -10.320226      -280.8276
  54   2.0000     -10.318955      -280.7930
  55   2.0000     -10.318862      -280.7905
  56   2.0000     -10.318064      -280.7688
  57   2.0000     -10.316776      -280.7337
  58   2.0000     -10.314674      -280.6765
  59   2.0000     -10.312139      -280.6076
  60   2.0000     -10.311397      -280.5874
  61   2.0000     -10.310248      -280.5561
  62   2.0000     -10.309226      -280.5283
  63   2.0000     -10.307852      -280.4909
  64   2.0000     -10.307089      -280.4702
  65   2.0000     -10.305727      -280.4331
  66   2.0000     -10.304587      -280.4021
  67   2.0000     -10.303425      -280.3704
  68   2.0000     -10.301414      -280.3157
  69   2.0000     -10.299846      -280.2731
  70   2.0000     -10.298840      -280.2457
  71   2.0000     -10.297134      -280.1992
  72   2.0000     -10.297116      -280.1988
  73   2.0000     -10.296694      -280.1873
  74   2.0000     -10.296598      -280.1847
  75   2.0000     -10.295400      -280.1521
  76   2.0000     -10.293022      -280.0874
  77   2.0000     -10.292560      -280.0748
  78   2.0000     -10.290287      -280.0129
  79   2.0000     -10.289170      -279.9826
  80   2.0000     -10.289068      -279.9798
  81   2.0000     -10.286203      -279.9018
  82   2.0000     -10.278187      -279.6837
  83   2.0000     -10.277366      -279.6613
  84   2.0000     -10.270258      -279.4679
  85   2.0000     -10.265852      -279.3480
  86   2.0000      -8.105906      -220.5729
  87   2.0000      -8.085373      -220.0142
  88   2.0000      -8.072790      -219.6718
  89   2.0000      -8.072000      -219.6503
  90   2.0000      -8.065863      -219.4833
  91   2.0000      -7.996578      -217.5979
  92   2.0000      -6.302447      -171.4983
  93   2.0000      -6.075044      -165.3104
  94   2.0000      -6.070545      -165.1879
  95   2.0000      -6.068616      -165.1354
  96   2.0000      -6.054701      -164.7568
  97   2.0000      -6.050378      -164.6391
  98   2.0000      -6.047399      -164.5581
  99   2.0000      -6.042023      -164.4118
 100   2.0000      -6.041209      -164.3897
 101   2.0000      -6.037997      -164.3022
 102   2.0000      -6.037205      -164.2807
 103   2.0000      -6.035161      -164.2251
 104   2.0000      -6.034841      -164.2164
 105   2.0000      -6.034135      -164.1972
 106   2.0000      -6.030931      -164.1100
 107   2.0000      -6.027931      -164.0283
 108   2.0000      -5.965301      -162.3241
 109   2.0000      -5.965268      -162.3232
 110   2.0000      -5.955821      -162.0661
 111   2.0000      -4.478926      -121.8778
 112   2.0000      -4.477671      -121.8436
 113   2.0000      -4.476275      -121.8056
 114   2.0000      -1.396637       -38.0044
 115   2.0000      -1.394913       -37.9575
 116   2.0000      -1.302959       -35.4553
 117   2.0000      -1.300893       -35.3991
 118   2.0000      -1.300143       -35.3787
 119   2.0000      -1.299404       -35.3586
 120   2.0000      -1.298876       -35.3442
 121   2.0000      -1.298553       -35.3354
 122   2.0000      -1.297056       -35.2947
 123   2.0000      -1.296004       -35.2661
 124   2.0000      -1.294311       -35.2200
 125   2.0000      -1.204327       -32.7714
 126   2.0000      -1.187509       -32.3138
 127   2.0000      -1.144530       -31.1443
 128   2.0000      -1.138670       -30.9848
 129   2.0000      -1.133837       -30.8533
 130   2.0000      -1.109156       -30.1817
 131   2.0000      -1.093368       -29.7521
 132   2.0000      -1.084404       -29.5081
 133   2.0000      -1.064117       -28.9561
 134   2.0000      -1.033662       -28.1274
 135   2.0000      -1.023687       -27.8559
 136   2.0000      -1.021262       -27.7900
 137   2.0000      -1.009610       -27.4729
 138   2.0000      -1.000648       -27.2290
 139   2.0000      -0.997648       -27.1474
 140   2.0000      -0.994384       -27.0586
 141   2.0000      -0.986201       -26.8359
 142   2.0000      -0.963347       -26.2140
 143   2.0000      -0.959824       -26.1181
 144   2.0000      -0.928189       -25.2573
 145   2.0000      -0.924358       -25.1530
 146   2.0000      -0.916403       -24.9366
 147   2.0000      -0.906935       -24.6790
 148   2.0000      -0.904450       -24.6113
 149   2.0000      -0.901166       -24.5220
 150   2.0000      -0.890129       -24.2216
 151   2.0000      -0.879367       -23.9288
 152   2.0000      -0.873787       -23.7770
 153   2.0000      -0.869854       -23.6699
 154   2.0000      -0.866533       -23.5796
 155   2.0000      -0.861725       -23.4487
 156   2.0000      -0.854855       -23.2618
 157   2.0000      -0.850136       -23.1334
 158   2.0000      -0.844092       -22.9689
 159   2.0000      -0.837602       -22.7923
 160   2.0000      -0.834253       -22.7012
 161   2.0000      -0.828010       -22.5313
 162   2.0000      -0.825065       -22.4512
 163   2.0000      -0.821275       -22.3480
 164   2.0000      -0.806323       -21.9412
 165   2.0000      -0.804617       -21.8948
 166   2.0000      -0.797097       -21.6901
 167   2.0000      -0.791624       -21.5412
 168   2.0000      -0.777829       -21.1658
 169   2.0000      -0.773643       -21.0519
 170   2.0000      -0.773382       -21.0448
 171   2.0000      -0.769374       -20.9357
 172   2.0000      -0.756530       -20.5862
 173   2.0000      -0.749895       -20.4057
 174   2.0000      -0.748132       -20.3577
 175   2.0000      -0.735745       -20.0206
 176   2.0000      -0.724189       -19.7062
 177   2.0000      -0.719922       -19.5901
 178   2.0000      -0.718756       -19.5583
 179   2.0000      -0.714926       -19.4541
 180   2.0000      -0.703556       -19.1447
 181   2.0000      -0.699115       -19.0239
 182   2.0000      -0.689799       -18.7704
 183   2.0000      -0.689486       -18.7619
 184   2.0000      -0.683717       -18.6049
 185   2.0000      -0.678489       -18.4626
 186   2.0000      -0.677566       -18.4375
 187   2.0000      -0.676511       -18.4088
 188   2.0000      -0.676390       -18.4055
 189   2.0000      -0.669409       -18.2155
 190   2.0000      -0.666627       -18.1398
 191   2.0000      -0.657231       -17.8842
 192   2.0000      -0.651295       -17.7226
 193   2.0000      -0.647007       -17.6060
 194   2.0000      -0.639925       -17.4133
 195   2.0000      -0.632789       -17.2191
 196   2.0000      -0.630679       -17.1616
 197   2.0000      -0.627765       -17.0824
 198   2.0000      -0.624459       -16.9924
 199   2.0000      -0.623614       -16.9694
 200   2.0000      -0.622151       -16.9296
 201   2.0000      -0.617799       -16.8112
 202   2.0000      -0.610398       -16.6098
 203   2.0000      -0.604911       -16.4605
 204   2.0000      -0.601582       -16.3699
 205   2.0000      -0.596430       -16.2297
 206   2.0000      -0.593859       -16.1597
 207   2.0000      -0.590670       -16.0729
 208   2.0000      -0.582154       -15.8412
 209   2.0000      -0.580131       -15.7862
 210   2.0000      -0.574822       -15.6417
 211   2.0000      -0.569916       -15.5082
 212   2.0000      -0.569091       -15.4858
 213   2.0000      -0.567384       -15.4393
 214   2.0000      -0.562212       -15.2986
 215   2.0000      -0.560871       -15.2621
 216   2.0000      -0.556796       -15.1512
 217   2.0000      -0.554248       -15.0819
 218   2.0000      -0.553652       -15.0656
 219   2.0000      -0.549013       -14.9394
 220   2.0000      -0.548483       -14.9250
 221   2.0000      -0.547967       -14.9109
 222   2.0000      -0.545629       -14.8473
 223   2.0000      -0.543403       -14.7867
 224   2.0000      -0.541945       -14.7471
 225   2.0000      -0.540345       -14.7035
 226   2.0000      -0.539098       -14.6696
 227   2.0000      -0.536962       -14.6115
 228   2.0000      -0.530020       -14.4226
 229   2.0000      -0.524939       -14.2843
 230   2.0000      -0.523834       -14.2542
 231   2.0000      -0.523326       -14.2404
 232   2.0000      -0.522942       -14.2300
 233   2.0000      -0.518452       -14.1078
 234   2.0000      -0.517827       -14.0908
 235   2.0000      -0.516779       -14.0623
 236   2.0000      -0.515738       -14.0340
 237   2.0000      -0.513560       -13.9747
 238   2.0000      -0.512711       -13.9516
 239   2.0000      -0.509337       -13.8598
 240   2.0000      -0.507349       -13.8057
 241   2.0000      -0.506031       -13.7698
 242   2.0000      -0.505576       -13.7574
 243   2.0000      -0.502443       -13.6722
 244   2.0000      -0.501302       -13.6411
 245   2.0000      -0.497317       -13.5327
 246   2.0000      -0.496048       -13.4981
 247   2.0000      -0.495266       -13.4769
 248   2.0000      -0.495062       -13.4713
 249   2.0000      -0.493720       -13.4348
 250   2.0000      -0.493065       -13.4170
 251   2.0000      -0.491351       -13.3703
 252   2.0000      -0.489030       -13.3072
 253   2.0000      -0.488387       -13.2897
 254   2.0000      -0.488026       -13.2799
 255   2.0000      -0.487318       -13.2606
 256   2.0000      -0.485843       -13.2205
 257   2.0000      -0.483478       -13.1561
 258   2.0000      -0.482596       -13.1321
 259   2.0000      -0.481004       -13.0888
 260   2.0000      -0.480543       -13.0762
 261   2.0000      -0.478828       -13.0296
 262   2.0000      -0.475442       -12.9374
 263   2.0000      -0.473902       -12.8955
 264   2.0000      -0.469521       -12.7763
 265   2.0000      -0.469507       -12.7759
 266   2.0000      -0.467584       -12.7236
 267   2.0000      -0.466097       -12.6831
 268   2.0000      -0.464546       -12.6409
 269   2.0000      -0.459766       -12.5109
 270   2.0000      -0.458471       -12.4756
 271   2.0000      -0.453745       -12.3470
 272   2.0000      -0.449543       -12.2327
 273   2.0000      -0.445936       -12.1345
 274   2.0000      -0.445787       -12.1305
 275   2.0000      -0.442171       -12.0321
 276   2.0000      -0.440103       -11.9758
 277   2.0000      -0.439574       -11.9614
 278   2.0000      -0.438573       -11.9342
 279   2.0000      -0.434607       -11.8263
 280   2.0000      -0.429907       -11.6984
 281   2.0000      -0.428350       -11.6560
 282   2.0000      -0.426881       -11.6160
 283   2.0000      -0.425246       -11.5715
 284   2.0000      -0.420686       -11.4474
 285   2.0000      -0.413546       -11.2532
 286   2.0000      -0.410781       -11.1779
 287   2.0000      -0.394043       -10.7224
 288   2.0000      -0.388898       -10.5825
 289   2.0000      -0.387391       -10.5415
 290   2.0000      -0.385634       -10.4936
 291   2.0000      -0.380087       -10.3427
 292   2.0000      -0.377370       -10.2688
 293   2.0000      -0.375355       -10.2139
 294   2.0000      -0.369884       -10.0650
 295   2.0000      -0.365263        -9.9393
 296   2.0000      -0.364562        -9.9202
 297   2.0000      -0.358550        -9.7566
 298   2.0000      -0.358084        -9.7439
 299   2.0000      -0.354490        -9.6462
 300   2.0000      -0.354261        -9.6399
 301   2.0000      -0.352689        -9.5971
 302   2.0000      -0.351311        -9.5597
 303   2.0000      -0.350074        -9.5260
 304   2.0000      -0.349352        -9.5064
 305   2.0000      -0.348166        -9.4741
 306   2.0000      -0.341381        -9.2895
 307   2.0000      -0.338701        -9.2165
 308   2.0000      -0.336618        -9.1598
 309   2.0000      -0.336471        -9.1559
 310   2.0000      -0.334934        -9.1140
 311   2.0000      -0.332346        -9.0436
 312   2.0000      -0.326736        -8.8909
 313   2.0000      -0.315145        -8.5755
 314   2.0000      -0.311261        -8.4698
 315   2.0000      -0.296393        -8.0653
 316   2.0000      -0.288569        -7.8524
 317   2.0000      -0.265298        -7.2191
 318   2.0000      -0.246999        -6.7212
 319   0.0000      -0.112586        -3.0636
 320   0.0000      -0.101271        -2.7557
 321   0.0000      -0.087347        -2.3768
 322   0.0000      -0.074827        -2.0362
 323   0.0000      -0.074553        -2.0287

MULLIKEN ATOMIC CHARGES
-----------------------
   0 C :    0.254750
   1 C :   -0.323082
   2 C :   -0.174496
   3 N :    0.158723
   4 C :   -0.209318
   5 N :    0.172663
   6 C :    0.040704
   7 C :    0.008375
   8 C :   -0.041352
   9 C :    0.026005
  10 C :    0.018460
  11 C :   -0.051417
  12 C :    0.204358
  13 O :   -0.208995
  14 O :   -0.286682
  15 C :    0.189653
  16 C :    0.182068
  17 O :   -0.211369
  18 O :   -0.291557
  19 C :    0.185735
  20 C :    0.141945
  21 O :   -0.136900
  22 C :   -0.141825
  23 C :    0.053956
  24 C :   -0.100782
  25 C :    0.024024
  26 C :   -0.085135
  27 C :   -0.075677
  28 S :    0.172012
  29 C :   -0.074099
  30 C :   -0.105346
  31 Ge:    0.465973
  32 C :   -0.193553
  33 C :   -0.192483
  34 C :    0.010731
  35 C :   -0.082176
  36 S :    0.148373
  37 C :   -0.090586
  38 C :    0.021596
  39 C :    0.114878
  40 O :   -0.155813
  41 C :    0.062051
  42 C :    0.056262
  43 C :   -0.344265
  44 S :    0.280434
  45 C :   -0.345423
  46 C :    0.568628
  47 F :   -0.152178
  48 F :   -0.143377
  49 F :   -0.166961
  50 C :    0.566294
  51 F :   -0.145466
  52 F :   -0.167161
  53 F :   -0.144153
  54 C :    0.116290
  55 O :   -0.133603
  56 C :    0.039354
  57 C :   -0.176028
  58 S :    0.203285
  59 C :    0.015168
  60 C :    0.036025
  61 C :   -0.181694
  62 S :    0.234546
  63 C :   -0.149930
  64 C :    0.054265
  65 C :    0.056562
  66 C :    0.068629
  67 C :   -0.003591
  68 C :   -0.081399
  69 C :   -0.002767
  70 C :   -0.009577
  71 C :    0.064574
  72 N :   -0.030235
  73 C :    0.031827
  74 C :    0.011047
  75 C :    0.002789
  76 S :   -0.123542
  77 C :    0.069574
  78 C :   -0.015689
  79 N :   -0.049978
  80 C :    0.093763
  81 C :   -0.087932
  82 H :    0.001400
  83 H :    0.012414
  84 H :    0.042851
  85 H :    0.037755
  86 H :    0.037532
  87 H :    0.040869
  88 H :    0.033706
  89 H :    0.033396
  90 H :    0.028572
  91 H :   -0.007733
  92 H :    0.056836
  93 H :    0.051336
  94 H :    0.047917
  95 H :    0.072420
  96 H :    0.046679
  97 H :    0.056349
  98 H :    0.004893
  99 H :   -0.000127
 100 H :   -0.001308
 101 H :    0.031040
 102 H :    0.010925
 103 H :    0.011462
 104 H :    0.014188
 105 H :   -0.002127
Sum of atomic charges:   -0.0000000

LOEWDIN ATOMIC CHARGES
----------------------
   0 C :    0.061051
   1 C :   -0.140158
   2 C :   -0.021266
   3 N :   -0.048898
   4 C :   -0.033998
   5 N :   -0.048510
   6 C :   -0.011759
   7 C :   -0.029761
   8 C :    0.026344
   9 C :   -0.000138
  10 C :   -0.040238
  11 C :    0.023366
  12 C :    0.094169
  13 O :   -0.159529
  14 O :   -0.075695
  15 C :    0.086196
  16 C :    0.075890
  17 O :   -0.165402
  18 O :   -0.079053
  19 C :    0.083783
  20 C :    0.082883
  21 O :   -0.137738
  22 C :   -0.108633
  23 C :    0.055979
  24 C :   -0.185801
  25 C :   -0.005859
  26 C :   -0.163532
  27 C :   -0.161647
  28 S :    0.472102
  29 C :   -0.183951
  30 C :   -0.157023
  31 Ge:    0.521022
  32 C :   -0.199692
  33 C :   -0.195233
  34 C :   -0.015471
  35 C :   -0.193720
  36 S :    0.435797
  37 C :   -0.127848
  38 C :   -0.100706
  39 C :    0.079378
  40 O :   -0.135238
  41 C :   -0.064495
  42 C :   -0.064758
  43 C :   -0.208372
  44 S :    0.558441
  45 C :   -0.207869
  46 C :    0.144646
  47 F :   -0.050026
  48 F :   -0.043229
  49 F :   -0.068181
  50 C :    0.145049
  51 F :   -0.045127
  52 F :   -0.068484
  53 F :   -0.043966
  54 C :    0.072525
  55 O :   -0.127725
  56 C :   -0.082761
  57 C :   -0.145520
  58 S :    0.481492
  59 C :   -0.048540
  60 C :   -0.012611
  61 C :   -0.188186
  62 S :    0.499917
  63 C :   -0.180997
  64 C :   -0.031171
  65 C :   -0.027303
  66 C :   -0.044127
  67 C :   -0.019395
  68 C :   -0.025224
  69 C :    0.006313
  70 C :   -0.041986
  71 C :    0.093014
  72 N :   -0.077615
  73 C :    0.044622
  74 C :   -0.034725
  75 C :   -0.145674
  76 S :    0.051964
  77 C :   -0.020858
  78 C :    0.031647
  79 N :   -0.092687
  80 C :    0.082354
  81 C :   -0.031366
  82 H :    0.044747
  83 H :    0.042586
  84 H :    0.029787
  85 H :    0.026721
  86 H :    0.026067
  87 H :    0.028027
  88 H :    0.022530
  89 H :    0.025547
  90 H :    0.052368
  91 H :    0.035875
  92 H :    0.041697
  93 H :    0.039563
  94 H :    0.037934
  95 H :    0.048427
  96 H :    0.037852
  97 H :    0.041714
  98 H :    0.034451
  99 H :    0.038651
 100 H :    0.038052
 101 H :    0.042981
 102 H :    0.037703
 103 H :    0.025131
 104 H :    0.025556
 105 H :    0.035562

  Mayer bond orders larger than 0.100000
B(  0-C ,  1-C ) :   1.6569 B(  0-C ,  6-C ) :   0.9936 B(  0-C , 22-C ) :   1.0438
B(  1-C ,  2-C ) :   1.1365 B(  1-C ,  4-C ) :   1.1526 B(  2-C ,  3-N ) :   2.9896
B(  4-C ,  5-N ) :   3.0258 B(  6-C ,  7-C ) :   1.3370 B(  6-C , 11-C ) :   1.3451
B(  7-C ,  8-C ) :   1.3676 B(  7-C , 20-C ) :   0.9128 B(  8-C ,  9-C ) :   1.3776
B(  8-C , 82-H ) :   1.0130 B(  9-C , 10-C ) :   1.4651 B(  9-C , 16-C ) :   0.8456
B( 10-C , 11-C ) :   1.3300 B( 10-C , 12-C ) :   0.8992 B( 11-C , 83-H ) :   0.9892
B( 12-C , 13-O ) :   2.0416 B( 12-C , 14-O ) :   1.2573 B( 14-O , 15-C ) :   0.9119
B( 15-C , 84-H ) :   0.9809 B( 15-C , 85-H ) :   0.9773 B( 15-C , 86-H ) :   0.9746
B( 16-C , 17-O ) :   2.1124 B( 16-C , 18-O ) :   1.2290 B( 18-O , 19-C ) :   0.9170
B( 19-C , 87-H ) :   0.9770 B( 19-C , 88-H ) :   0.9717 B( 19-C , 89-H ) :   0.9808
B( 20-C , 21-O ) :   2.2736 B( 20-C , 22-C ) :   0.9481 B( 22-C , 23-C ) :   1.6129
B( 23-C , 24-C ) :   1.1578 B( 23-C , 90-H ) :   0.9481 B( 24-C , 25-C ) :   1.3942
B( 24-C , 28-S ) :   1.0946 B( 25-C , 26-C ) :   1.2996 B( 25-C , 91-H ) :   1.0034
B( 26-C , 27-C ) :   1.4696 B( 26-C , 31-Ge) :   0.8627 B( 27-C , 28-S ) :   1.1354
B( 27-C , 29-C ) :   1.1726 B( 29-C , 30-C ) :   1.4839 B( 29-C , 35-C ) :   0.1044
B( 29-C , 36-S ) :   1.1166 B( 30-C , 31-Ge) :   0.8695 B( 30-C , 34-C ) :   1.2838
B( 31-Ge, 32-C ) :   1.0173 B( 31-Ge, 33-C ) :   1.0287 B( 32-C , 92-H ) :   0.9581
B( 32-C , 93-H ) :   0.9603 B( 32-C , 94-H ) :   0.9603 B( 33-C , 95-H ) :   0.9552
B( 33-C , 96-H ) :   0.9589 B( 33-C , 97-H ) :   0.9588 B( 34-C , 35-C ) :   1.4689
B( 34-C , 98-H ) :   0.9875 B( 35-C , 36-S ) :   1.0915 B( 35-C , 37-C ) :   1.1419
B( 37-C , 38-C ) :   1.4916 B( 37-C , 58-S ) :   1.1418 B( 38-C , 39-C ) :   0.9894
B( 38-C , 56-C ) :   1.1766 B( 39-C , 40-O ) :   2.1574 B( 39-C , 41-C ) :   0.9410
B( 41-C , 42-C ) :   1.2221 B( 41-C , 45-C ) :   1.5779 B( 42-C , 43-C ) :   1.5833
B( 42-C , 54-C ) :   0.9290 B( 43-C , 44-S ) :   1.1867 B( 43-C , 50-C ) :   0.9300
B( 44-S , 45-C ) :   1.1903 B( 45-C , 46-C ) :   0.9320 B( 46-C , 47-F ) :   1.1761
B( 46-C , 48-F ) :   1.1880 B( 46-C , 49-F ) :   1.1488 B( 50-C , 51-F ) :   1.1855
B( 50-C , 52-F ) :   1.1498 B( 50-C , 53-F ) :   1.1880 B( 54-C , 55-O ) :   2.2163
B( 54-C , 56-C ) :   0.9815 B( 56-C , 57-C ) :   1.4993 B( 57-C , 58-S ) :   1.1101
B( 57-C , 59-C ) :   1.0059 B( 59-C , 60-C ) :   2.2854 B( 60-C , 61-C ) :   1.0215
B( 61-C , 62-S ) :   1.1201 B( 61-C , 63-C ) :   0.1101 B( 61-C , 65-C ) :   1.4526
B( 62-S , 63-C ) :   1.1199 B( 63-C , 64-C ) :   1.4673 B( 63-C , 66-C ) :   0.9850
B( 64-C , 65-C ) :   1.2926 B( 64-C , 99-H ) :   1.0011 B( 65-C ,100-H ) :   1.0019
B( 66-C , 67-C ) :   2.2756 B( 67-C , 68-C ) :   1.0154 B( 68-C , 69-C ) :   1.6578
B( 68-C ,101-H ) :   0.9514 B( 69-C , 70-C ) :   1.1324 B( 69-C ,102-H ) :   0.9740
B( 70-C , 71-C ) :   1.0112 B( 70-C , 74-C ) :   1.4999 B( 71-C , 72-N ) :   1.7406
B( 71-C ,103-H ) :   0.9875 B( 72-N , 73-C ) :   1.2547 B( 73-C , 74-C ) :   1.0621
B( 73-C , 78-C ) :   1.5323 B( 74-C , 75-C ) :   1.0469 B( 75-C , 76-S ) :   1.7027
B( 75-C , 77-C ) :   0.9842 B( 77-C , 78-C ) :   1.0566 B( 77-C , 81-C ) :   1.6070
B( 78-C , 79-N ) :   1.2771 B( 79-N , 80-C ) :   1.6807 B( 80-C , 81-C ) :   1.0487
B( 80-C ,104-H ) :   0.9882 B( 81-C ,105-H ) :   1.0081

-----------------------------------------------------------------------------
         ABSORPTION SPECTRUM VIA TRANSITION ELECTRIC DIPOLE MOMENTS
-----------------------------------------------------------------------------
State   Energy  Wavelength   fosc         T2         TX        TY        TZ
        (cm-1)    (nm)                  (au**2)     (au)      (au)      (au)
-----------------------------------------------------------------------------
   0   15991.8    625.3   1.168135504  24.04754   2.83367   0.23136   3.99554
   1   16760.9    596.6   0.000079517   0.00156  -0.02553  -0.02770  -0.01194
   2   16988.8    588.6   0.702247326  13.60827  -3.39006   0.97752  -1.07713
   3   18721.2    534.2   0.000024664   0.00043   0.00106   0.01900   0.00847
   4   19819.1    504.6   0.861268608  14.30641   0.03256   1.27871   3.55953
   5   22057.3    453.4   0.004799406   0.07163   0.12439  -0.12811  -0.19937
   6   22498.4    444.5   0.204125936   2.98691  -1.22878  -0.99511  -0.69768
   7   23090.1    433.1   0.026705728   0.38076   0.38879  -0.35826   0.31820
   8   24149.2    414.1   0.082505005   1.12474  -0.60463   0.35084   0.79754
   9   24735.5    404.3   0.062343501   0.82975  -0.63151   0.19907  -0.62555
  10   25665.1    389.6   0.083900559   1.07621   0.98477  -0.24982   0.20981
  11   25791.0    387.7   0.001771244   0.02261  -0.01653  -0.14812   0.01994
  12   26502.3    377.3   0.000925385   0.01150  -0.02331  -0.10341  -0.01606
  13   26739.6    374.0   0.094729635   1.16629  -0.51729  -0.12290  -0.94000
  14   27630.0    361.9   0.001342477   0.01600   0.10217  -0.03994   0.06294
  15   28495.3    350.9   0.032420708   0.37456  -0.36564  -0.12611  -0.47431
  16   28535.8    350.4   0.123581292   1.42573   1.14706   0.33164   0.00090
  17   28992.2    344.9   0.418780601   4.75534   0.96401   0.63580   1.84980
  18   29650.6    337.3   0.024636240   0.27354   0.19602  -0.43685   0.21042
  19   30361.0    329.4   0.035268462   0.38242  -0.49028  -0.10953   0.36062
  20   30652.3    326.2   0.037711432   0.40503  -0.56275  -0.00758   0.29712
  21   30871.3    323.9   0.041387609   0.44136   0.65175   0.11071   0.06571
  22   31124.3    321.3   0.101020404   1.06853  -0.70243  -0.09276  -0.75267
  23   31712.3    315.3   0.080628488   0.83702   0.39330  -0.39000  -0.72818
  24   32100.8    311.5   0.038334172   0.39314   0.36126   0.49504   0.13251
  25   32673.2    306.1   0.130358950   1.31349   0.35332  -0.70231  -0.83391
  26   32871.6    304.2   0.038843787   0.38902  -0.50202   0.33374   0.16007
  27   33506.7    298.4   0.027299798   0.26823  -0.04382   0.09335  -0.50754
  28   33797.6    295.9   0.056280511   0.54821  -0.71433   0.04317   0.18993
  29   34123.9    293.0   0.040052778   0.38641  -0.21474  -0.25771  -0.52334
  30   34348.6    291.1   0.001153946   0.01106  -0.05112  -0.04357  -0.08092
  31   34447.1    290.3   0.006318620   0.06039  -0.14697  -0.10780  -0.16482
  32   35049.5    285.3   0.000901864   0.00847   0.01999   0.05818   0.06846
  33   35381.0    282.6   0.240320612   2.23612   1.39969   0.37858  -0.36561
  34   35451.8    282.1   0.017238133   0.16008   0.03941  -0.09908  -0.38563
  35   35617.7    280.8   0.019914402   0.18407  -0.42288   0.03221  -0.06480
  36   36042.6    277.4   0.196751223   1.79712  -0.56594   0.67111   1.01313
  37   36076.6    277.2   0.001580783   0.01443  -0.02241   0.09025   0.07601
  38   36078.0    277.2   0.001143167   0.01043  -0.04734  -0.05566   0.07136
  39   36258.5    275.8   0.005270200   0.04785   0.05641  -0.09091  -0.19080
  40   36426.8    274.5   0.015905228   0.14375   0.05343   0.37529  -0.00672
  41   36493.1    274.0   0.002239522   0.02020  -0.02932  -0.13438   0.03586
  42   36772.9    271.9   0.010156562   0.09093  -0.05892   0.17082  -0.24141
  43   36904.3    271.0   0.151167305   1.34852  -1.12009  -0.02622   0.30533
  44   37240.0    268.5   0.431463882   3.81426  -1.77127   0.03260  -0.82208
  45   37803.8    264.5   0.042149489   0.36706  -0.06492   0.08985   0.59562
  46   37859.9    264.1   0.189471680   1.64756   1.19336   0.45257  -0.13650
  47   38088.9    262.5   0.015321508   0.13243  -0.27238  -0.00175   0.24131
  48   38328.3    260.9   0.022262107   0.19122   0.35690   0.04845   0.24798
  49   38432.7    260.2   0.008099067   0.06938  -0.17102   0.07309   0.18651
  50   38719.9    258.3   0.192426421   1.63609   0.75548  -0.36243  -0.96643
  51   39100.6    255.8   0.004306268   0.03626  -0.08969   0.15113  -0.07329
  52   39580.4    252.7   0.005830389   0.04849  -0.01840   0.07033   0.20787
  53   39726.2    251.7   0.068294864   0.56596  -0.64265   0.12224   0.37150
  54   39843.8    251.0   0.099002166   0.81801   0.13055   0.18914   0.87476
  55   40048.5    249.7   0.203371053   1.67178  -0.95551   0.34437   0.80012
  56   40111.9    249.3   0.003586512   0.02944  -0.01205  -0.07950  -0.15156
  57   40185.8    248.8   0.033373511   0.27340  -0.39014   0.12910   0.32331
  58   40268.4    248.3   0.057997360   0.47415  -0.54152   0.20342   0.37353

FINAL SINGLE POINT ENERGY     -8030.044515971038

DIPOLE MOMENT
-------------
                                X             Y             Z
Electronic contribution:     89.15388     -50.61738     -59.32605
Nuclear contribution   :    -89.89646      49.50752      59.49431
                        -----------------------------------------
Total Dipole Moment    :     -0.74259      -1.10986       0.16827
                        -----------------------------------------
Magnitude (a.u.)       :      1.34593
Magnitude (Debye)      :      3.42109

Rotational constants in cm-1:     0.000582     0.000181     0.000142
Rotational constants in MHz :    17.448608     5.430046     4.263499

                             ****ORCA TERMINATED NORMALLY****
TOTAL RUN TIME: 0 days 0 hours 10 minutes 46 seconds 609 msec
