                         Program Version 4.2.0 -  RELEASE  -
|  1> # ORCA input file
|  2> # SCF done       -192.780616106173          0.000470995761
|  3> ! CAM-B3LYP def2-SVP def2/J RIJCOSX Grid4 TightSCF
|  4> %maxcore 5000
|  5> %tddft
|  6>     Mode sTDDFT
|  7>     Ethresh 5.0
|  8>     maxcore 5000
|  9> end
| 10>
| 11> %pal
| 12>   nprocs 6
| 13>   end
| 14> * xyz 0 1
| 15>    C        1.32949        -3.36858         4.69014
| 16>    O        1.32606        -4.56080         4.48382
| 17>    C        2.32018        -2.63546         5.50892
| 18>    C        2.00027        -1.26744         5.54307
| 19>    C        2.80702        -0.39162         6.25148
| 20>    C        3.91629        -0.90005         6.91738
| 21>    C        4.22169        -2.26313         6.88352
| 22>    C        3.41875        -3.14369         6.17092
| 23>   Br        5.73098        -2.92738         7.80614
| 24>   Br        5.02131         0.29329         7.88046
| 25>    C        0.78468        -1.05294         4.76555
| 26>    C        0.06451         0.10820         4.71042
| 27>    C        0.45740         1.30638         5.34577
| 28>    N        0.73794         2.30361         5.83850
| 29>    C       -1.18693         0.25076         4.06974
| 30>    N       -2.22252         0.43224         3.61073
| 31>    C        0.41996        -2.32285         4.15397
| 32>    C       -0.43967        -2.44695         3.10353
| 33>    C       -0.90806        -3.62959         2.45689
| 34>    C       -1.05623        -4.88608         3.02678
| 35>    C       -1.53513        -5.99090         2.31787
| 36>    C       -1.91033        -5.95023         0.98385
| 37>    C       -1.81976        -4.66978         0.36615
| 38>    C       -1.33638        -3.52866         1.10199
| 39>    N       -1.35974        -2.49746         0.28272
| 40>    O       -1.82762        -2.95139        -0.87498
| 41>    N       -2.10739        -4.25138        -0.85040
| 42>    C       -2.34569        -7.10277         0.26059
| 43>    C       -2.72179        -7.17068        -1.05478
| 44>    C       -3.05265        -8.47743        -1.47966
| 45>    C       -2.92067        -9.42870        -0.42991
| 46>    S       -2.40297        -8.67303         1.04770
| 47>    C       -3.16373       -10.77066        -0.61182
| 48>    C       -3.54548       -11.19693        -1.88407
| 49>    C       -3.68577       -10.24682        -2.93349
| 50>    C       -3.45052        -8.90380        -2.74933
| 51>    S       -4.15547       -11.02146        -4.42221
| 52>    C       -4.14250       -12.59259        -3.64805
| 53>    C       -3.81343       -12.51443        -2.32317
| 54>    C       -4.42711       -13.77347        -4.40136
| 55>    C       -4.35761       -15.06666        -3.95745
| 56>    C       -4.66330       -16.01790        -4.95752
| 57>    C       -4.96489       -15.40498        -6.19208
| 58>    S       -4.88743       -13.67179        -6.08494
| 59>    C       -5.25138       -16.09211        -7.37022
| 60>    O       -5.50113       -15.29117        -8.42707
| 61>    C       -5.59991       -15.79253        -9.73936
| 62>    C       -5.24057       -17.50136        -7.30185
| 63>    C       -4.92574       -18.10847        -6.04775
| 64>    C       -4.65134       -17.42206        -4.88432
| 65>    O       -4.32602       -18.10820        -3.74081
| 66>    C       -5.33284       -18.12195        -2.74527
| 67>    S       -4.91199       -19.84295        -6.13269
| 68>    C       -5.34224       -19.78065        -7.83272
| 69>    C       -5.50807       -18.49294        -8.27519
| 70>    C       -5.55403       -20.95491        -8.60142
| 71>    C       -5.02918       -22.19175        -8.39402
| 72>    C       -5.67948       -23.39650        -8.97243
| 73>    O       -6.53017       -23.42966        -9.82904
| 74>    C       -5.09856       -24.53424        -8.22198
| 75>    C       -4.08541       -24.06670        -7.36331
| 76>    C       -3.92218       -22.63059        -7.56923
| 77>    C       -2.79582       -21.90539        -7.28668
| 78>    C       -2.56835       -20.61477        -7.81155
| 79>    N       -2.32936       -19.59884        -8.28904
| 80>    C       -1.70385       -22.41049        -6.55178
| 81>    N       -0.80255       -22.78493        -5.94880
| 82>    C       -3.41483       -24.95209        -6.53759
| 83>    C       -3.76469       -26.29683        -6.58422
| 84>    C       -4.76119       -26.75623        -7.44827
| 85>    C       -5.43807       -25.87008        -8.27698
| 86>   Br       -5.20674       -28.59236        -7.50003
| 87>   Br       -2.86399       -27.50856        -5.44743
| 88>    H        2.60509         0.66636         6.29566
| 89>    H        3.64469        -4.19817         6.13460
| 90>    H       -0.78733        -1.53585         2.62934
| 91>    H       -0.80720        -5.02567         4.06489
| 92>    H       -1.60845        -6.93415         2.83927
| 93>    H       -2.74815        -6.30544        -1.69220
| 94>    H       -3.05372       -11.47699         0.19539
| 95>    H       -3.55668        -8.19613        -3.55565
| 96>    H       -3.75419       -13.36828        -1.67356
| 97>    H       -4.06178       -15.33791        -2.96105
| 98>    H       -5.60382       -14.91139       -10.38035
| 99>    H       -6.53418       -16.34215        -9.88647
|100>    H       -4.74270       -16.42083        -9.99341
|101>    H       -4.89222       -18.61640        -1.88216
|102>    H       -6.20753       -18.68810        -3.08332
|103>    H       -5.64853       -17.11090        -2.47222
|104>    H       -5.78341       -18.30444        -9.29525
|105>    H       -6.27884       -20.87843        -9.40591
|106>    H       -2.64344       -24.62655        -5.85798
|107>    H       -6.20973       -26.21662        -8.94678
|108> *
|109>
|110>                          ****END OF INPUT****

CARTESIAN COORDINATES (ANGSTROEM)
---------------------------------
  C      1.329490   -3.368580    4.690140
  O      1.326060   -4.560800    4.483820
  C      2.320180   -2.635460    5.508920
  C      2.000270   -1.267440    5.543070
  C      2.807020   -0.391620    6.251480
  C      3.916290   -0.900050    6.917380
  C      4.221690   -2.263130    6.883520
  C      3.418750   -3.143690    6.170920
  Br     5.730980   -2.927380    7.806140
  Br     5.021310    0.293290    7.880460
  C      0.784680   -1.052940    4.765550
  C      0.064510    0.108200    4.710420
  C      0.457400    1.306380    5.345770
  N      0.737940    2.303610    5.838500
  C     -1.186930    0.250760    4.069740
  N     -2.222520    0.432240    3.610730
  C      0.419960   -2.322850    4.153970
  C     -0.439670   -2.446950    3.103530
  C     -0.908060   -3.629590    2.456890
  C     -1.056230   -4.886080    3.026780
  C     -1.535130   -5.990900    2.317870
  C     -1.910330   -5.950230    0.983850
  C     -1.819760   -4.669780    0.366150
  C     -1.336380   -3.528660    1.101990
  N     -1.359740   -2.497460    0.282720
  O     -1.827620   -2.951390   -0.874980
  N     -2.107390   -4.251380   -0.850400
  C     -2.345690   -7.102770    0.260590
  C     -2.721790   -7.170680   -1.054780
  C     -3.052650   -8.477430   -1.479660
  C     -2.920670   -9.428700   -0.429910
  S     -2.402970   -8.673030    1.047700
  C     -3.163730  -10.770660   -0.611820
  C     -3.545480  -11.196930   -1.884070
  C     -3.685770  -10.246820   -2.933490
  C     -3.450520   -8.903800   -2.749330
  S     -4.155470  -11.021460   -4.422210
  C     -4.142500  -12.592590   -3.648050
  C     -3.813430  -12.514430   -2.323170
  C     -4.427110  -13.773470   -4.401360
  C     -4.357610  -15.066660   -3.957450
  C     -4.663300  -16.017900   -4.957520
  C     -4.964890  -15.404980   -6.192080
  S     -4.887430  -13.671790   -6.084940
  C     -5.251380  -16.092110   -7.370220
  O     -5.501130  -15.291170   -8.427070
  C     -5.599910  -15.792530   -9.739360
  C     -5.240570  -17.501360   -7.301850
  C     -4.925740  -18.108470   -6.047750
  C     -4.651340  -17.422060   -4.884320
  O     -4.326020  -18.108200   -3.740810
  C     -5.332840  -18.121950   -2.745270
  S     -4.911990  -19.842950   -6.132690
  C     -5.342240  -19.780650   -7.832720
  C     -5.508070  -18.492940   -8.275190
  C     -5.554030  -20.954910   -8.601420
  C     -5.029180  -22.191750   -8.394020
  C     -5.679480  -23.396500   -8.972430
  O     -6.530170  -23.429660   -9.829040
  C     -5.098560  -24.534240   -8.221980
  C     -4.085410  -24.066700   -7.363310
  C     -3.922180  -22.630590   -7.569230
  C     -2.795820  -21.905390   -7.286680
  C     -2.568350  -20.614770   -7.811550
  N     -2.329360  -19.598840   -8.289040
  C     -1.703850  -22.410490   -6.551780
  N     -0.802550  -22.784930   -5.948800
  C     -3.414830  -24.952090   -6.537590
  C     -3.764690  -26.296830   -6.584220
  C     -4.761190  -26.756230   -7.448270
  C     -5.438070  -25.870080   -8.276980
  Br    -5.206740  -28.592360   -7.500030
  Br    -2.863990  -27.508560   -5.447430
  H      2.605090    0.666360    6.295660
  H      3.644690   -4.198170    6.134600
  H     -0.787330   -1.535850    2.629340
  H     -0.807200   -5.025670    4.064890
  H     -1.608450   -6.934150    2.839270
  H     -2.748150   -6.305440   -1.692200
  H     -3.053720  -11.476990    0.195390
  H     -3.556680   -8.196130   -3.555650
  H     -3.754190  -13.368280   -1.673560
  H     -4.061780  -15.337910   -2.961050
  H     -5.603820  -14.911390  -10.380350
  H     -6.534180  -16.342150   -9.886470
  H     -4.742700  -16.420830   -9.993410
  H     -4.892220  -18.616400   -1.882160
  H     -6.207530  -18.688100   -3.083320
  H     -5.648530  -17.110900   -2.472220
  H     -5.783410  -18.304440   -9.295250
  H     -6.278840  -20.878430   -9.405910
  H     -2.643440  -24.626550   -5.857980
  H     -6.209730  -26.216620   -8.946780

 Total Charge           Charge          ....    0
 Multiplicity           Mult            ....    1
 Number of Electrons    NEL             ....  630
 Basis Dimension        Dim             .... 1210

ORBITAL ENERGIES
----------------

  NO   OCC          E(Eh)            E(eV)
   0   2.0000    -482.881174    -13139.8648
   1   2.0000    -482.879557    -13139.8208
   2   2.0000    -482.877374    -13139.7614
   3   2.0000    -482.876638    -13139.7413
   4   2.0000     -88.961069     -2420.7538
   5   2.0000     -88.960378     -2420.7349
   6   2.0000     -88.960353     -2420.7343
   7   2.0000     -88.959950     -2420.7233
   8   2.0000     -62.558783     -1702.3110
   9   2.0000     -62.557144     -1702.2664
  10   2.0000     -62.555002     -1702.2081
  11   2.0000     -62.554253     -1702.1878
  12   2.0000     -56.392738     -1534.5244
  13   2.0000     -56.391111     -1534.4801
  14   2.0000     -56.390078     -1534.4520
  15   2.0000     -56.389980     -1534.4494
  16   2.0000     -56.388950     -1534.4213
  17   2.0000     -56.388437     -1534.4074
  18   2.0000     -56.388335     -1534.4046
  19   2.0000     -56.388212     -1534.4012
  20   2.0000     -56.386296     -1534.3491
  21   2.0000     -56.386206     -1534.3467
  22   2.0000     -56.385545     -1534.3287
  23   2.0000     -56.385451     -1534.3261
  24   2.0000     -19.365901      -526.9730
  25   2.0000     -19.267629      -524.2988
  26   2.0000     -19.243774      -523.6497
  27   2.0000     -19.232596      -523.3455
  28   2.0000     -19.223614      -523.1011
  29   2.0000     -14.493143      -394.3785
  30   2.0000     -14.489189      -394.2709
  31   2.0000     -14.424023      -392.4976
  32   2.0000     -14.422461      -392.4551
  33   2.0000     -14.420183      -392.3931
  34   2.0000     -14.415537      -392.2667
  35   2.0000     -10.384554      -282.5781
  36   2.0000     -10.375146      -282.3221
  37   2.0000     -10.360055      -281.9114
  38   2.0000     -10.359012      -281.8831
  39   2.0000     -10.358568      -281.8710
  40   2.0000     -10.355420      -281.7853
  41   2.0000     -10.355164      -281.7783
  42   2.0000     -10.354000      -281.7467
  43   2.0000     -10.351484      -281.6782
  44   2.0000     -10.350541      -281.6525
  45   2.0000     -10.346175      -281.5337
  46   2.0000     -10.339389      -281.3491
  47   2.0000     -10.338681      -281.3298
  48   2.0000     -10.336481      -281.2699
  49   2.0000     -10.335822      -281.2520
  50   2.0000     -10.332471      -281.1608
  51   2.0000     -10.329688      -281.0851
  52   2.0000     -10.326194      -280.9900
  53   2.0000     -10.325735      -280.9775
  54   2.0000     -10.325668      -280.9757
  55   2.0000     -10.324127      -280.9338
  56   2.0000     -10.323468      -280.9159
  57   2.0000     -10.323238      -280.9096
  58   2.0000     -10.322504      -280.8896
  59   2.0000     -10.321724      -280.8684
  60   2.0000     -10.321156      -280.8529
  61   2.0000     -10.319456      -280.8067
  62   2.0000     -10.319345      -280.8037
  63   2.0000     -10.317983      -280.7666
  64   2.0000     -10.317097      -280.7425
  65   2.0000     -10.316811      -280.7347
  66   2.0000     -10.316455      -280.7250
  67   2.0000     -10.314051      -280.6596
  68   2.0000     -10.313893      -280.6553
  69   2.0000     -10.313002      -280.6310
  70   2.0000     -10.312803      -280.6256
  71   2.0000     -10.312351      -280.6133
  72   2.0000     -10.312342      -280.6131
  73   2.0000     -10.312278      -280.6114
  74   2.0000     -10.309523      -280.5364
  75   2.0000     -10.307095      -280.4703
  76   2.0000     -10.306691      -280.4593
  77   2.0000     -10.306203      -280.4460
  78   2.0000     -10.305073      -280.4153
  79   2.0000     -10.303429      -280.3705
  80   2.0000     -10.302764      -280.3525
  81   2.0000     -10.296504      -280.1821
  82   2.0000     -10.296415      -280.1797
  83   2.0000     -10.294861      -280.1374
  84   2.0000     -10.294488      -280.1273
  85   2.0000     -10.292212      -280.0653
  86   2.0000     -10.291544      -280.0471
  87   2.0000     -10.287686      -279.9422
  88   2.0000     -10.287564      -279.9388
  89   2.0000      -8.788108      -239.1366
  90   2.0000      -8.786454      -239.0916
  91   2.0000      -8.784335      -239.0339
  92   2.0000      -8.783573      -239.0132
  93   2.0000      -8.056356      -219.2246
  94   2.0000      -8.056258      -219.2219
  95   2.0000      -8.056236      -219.2213
  96   2.0000      -8.054801      -219.1823
  97   2.0000      -6.624253      -180.2551
  98   2.0000      -6.622616      -180.2105
  99   2.0000      -6.620463      -180.1520
 100   2.0000      -6.619716      -180.1316
 101   2.0000      -6.610216      -179.8731
 102   2.0000      -6.609439      -179.8520
 103   2.0000      -6.608562      -179.8281
 104   2.0000      -6.607767      -179.8065
 105   2.0000      -6.606445      -179.7705
 106   2.0000      -6.605693      -179.7500
 107   2.0000      -6.605687      -179.7499
 108   2.0000      -6.604904      -179.7286
 109   2.0000      -6.026001      -163.9758
 110   2.0000      -6.025900      -163.9731
 111   2.0000      -6.025861      -163.9720
 112   2.0000      -6.024579      -163.9371
 113   2.0000      -6.021941      -163.8653
 114   2.0000      -6.021897      -163.8642
 115   2.0000      -6.021775      -163.8608
 116   2.0000      -6.020471      -163.8254
 117   2.0000      -6.017634      -163.7481
 118   2.0000      -6.017521      -163.7451
 119   2.0000      -6.017411      -163.7421
 120   2.0000      -6.015890      -163.7007
 121   2.0000      -2.740140       -74.5630
 122   2.0000      -2.738551       -74.5198
 123   2.0000      -2.736396       -74.4611
 124   2.0000      -2.736355       -74.4600
 125   2.0000      -2.735786       -74.4445
 126   2.0000      -2.735640       -74.4405
 127   2.0000      -2.734717       -74.4154
 128   2.0000      -2.734117       -74.3991
 129   2.0000      -2.732598       -74.3578
 130   2.0000      -2.732023       -74.3421
 131   2.0000      -2.731836       -74.3370
 132   2.0000      -2.731244       -74.3209
 133   2.0000      -2.724612       -74.1405
 134   2.0000      -2.724605       -74.1403
 135   2.0000      -2.722927       -74.0946
 136   2.0000      -2.722914       -74.0943
 137   2.0000      -2.720859       -74.0383
 138   2.0000      -2.720852       -74.0382
 139   2.0000      -2.720074       -74.0170
 140   2.0000      -2.720058       -74.0165
 141   2.0000      -1.320286       -35.9268
 142   2.0000      -1.172618       -31.9086
 143   2.0000      -1.148644       -31.2562
 144   2.0000      -1.147206       -31.2171
 145   2.0000      -1.139077       -30.9959
 146   2.0000      -1.031215       -28.0608
 147   2.0000      -1.027108       -27.9490
 148   2.0000      -1.024891       -27.8887
 149   2.0000      -1.018556       -27.7163
 150   2.0000      -1.014006       -27.5925
 151   2.0000      -1.012522       -27.5521
 152   2.0000      -1.009200       -27.4617
 153   2.0000      -1.006166       -27.3792
 154   2.0000      -1.001517       -27.2527
 155   2.0000      -0.997645       -27.1473
 156   2.0000      -0.992469       -27.0065
 157   2.0000      -0.983516       -26.7628
 158   2.0000      -0.981487       -26.7076
 159   2.0000      -0.977146       -26.5895
 160   2.0000      -0.937284       -25.5048
 161   2.0000      -0.934927       -25.4407
 162   2.0000      -0.927662       -25.2430
 163   2.0000      -0.924616       -25.1601
 164   2.0000      -0.920292       -25.0424
 165   2.0000      -0.916825       -24.9481
 166   2.0000      -0.913084       -24.8463
 167   2.0000      -0.907475       -24.6936
 168   2.0000      -0.896682       -24.4000
 169   2.0000      -0.887152       -24.1406
 170   2.0000      -0.885496       -24.0956
 171   2.0000      -0.884278       -24.0624
 172   2.0000      -0.865067       -23.5397
 173   2.0000      -0.858510       -23.3613
 174   2.0000      -0.854755       -23.2591
 175   2.0000      -0.853713       -23.2307
 176   2.0000      -0.852937       -23.2096
 177   2.0000      -0.844404       -22.9774
 178   2.0000      -0.830284       -22.5932
 179   2.0000      -0.821354       -22.3502
 180   2.0000      -0.809036       -22.0150
 181   2.0000      -0.804157       -21.8822
 182   2.0000      -0.795909       -21.6578
 183   2.0000      -0.786853       -21.4113
 184   2.0000      -0.776505       -21.1298
 185   2.0000      -0.774829       -21.0842
 186   2.0000      -0.769076       -20.9276
 187   2.0000      -0.765691       -20.8355
 188   2.0000      -0.759343       -20.6628
 189   2.0000      -0.754508       -20.5312
 190   2.0000      -0.743507       -20.2319
 191   2.0000      -0.726207       -19.7611
 192   2.0000      -0.717200       -19.5160
 193   2.0000      -0.704666       -19.1749
 194   2.0000      -0.701299       -19.0833
 195   2.0000      -0.695330       -18.9209
 196   2.0000      -0.693947       -18.8832
 197   2.0000      -0.687144       -18.6981
 198   2.0000      -0.684701       -18.6317
 199   2.0000      -0.679318       -18.4852
 200   2.0000      -0.675853       -18.3909
 201   2.0000      -0.666734       -18.1427
 202   2.0000      -0.661492       -18.0001
 203   2.0000      -0.656062       -17.8523
 204   2.0000      -0.647062       -17.6074
 205   2.0000      -0.640215       -17.4211
 206   2.0000      -0.628541       -17.1035
 207   2.0000      -0.626992       -17.0613
 208   2.0000      -0.624346       -16.9893
 209   2.0000      -0.621777       -16.9194
 210   2.0000      -0.617372       -16.7996
 211   2.0000      -0.616191       -16.7674
 212   2.0000      -0.612297       -16.6615
 213   2.0000      -0.604235       -16.4421
 214   2.0000      -0.599927       -16.3249
 215   2.0000      -0.597538       -16.2598
 216   2.0000      -0.595594       -16.2069
 217   2.0000      -0.584795       -15.9131
 218   2.0000      -0.581602       -15.8262
 219   2.0000      -0.575528       -15.6609
 220   2.0000      -0.575405       -15.6576
 221   2.0000      -0.571109       -15.5407
 222   2.0000      -0.565916       -15.3994
 223   2.0000      -0.559518       -15.2253
 224   2.0000      -0.553999       -15.0751
 225   2.0000      -0.553435       -15.0597
 226   2.0000      -0.552890       -15.0449
 227   2.0000      -0.549777       -14.9602
 228   2.0000      -0.549428       -14.9507
 229   2.0000      -0.545759       -14.8509
 230   2.0000      -0.544619       -14.8198
 231   2.0000      -0.543689       -14.7945
 232   2.0000      -0.539211       -14.6727
 233   2.0000      -0.537110       -14.6155
 234   2.0000      -0.535862       -14.5815
 235   2.0000      -0.532283       -14.4842
 236   2.0000      -0.527944       -14.3661
 237   2.0000      -0.523466       -14.2442
 238   2.0000      -0.520352       -14.1595
 239   2.0000      -0.518795       -14.1171
 240   2.0000      -0.515440       -14.0258
 241   2.0000      -0.514279       -13.9942
 242   2.0000      -0.509880       -13.8745
 243   2.0000      -0.508886       -13.8475
 244   2.0000      -0.506454       -13.7813
 245   2.0000      -0.504333       -13.7236
 246   2.0000      -0.503735       -13.7073
 247   2.0000      -0.497906       -13.5487
 248   2.0000      -0.496587       -13.5128
 249   2.0000      -0.492200       -13.3934
 250   2.0000      -0.487379       -13.2623
 251   2.0000      -0.486444       -13.2368
 252   2.0000      -0.483656       -13.1609
 253   2.0000      -0.480677       -13.0799
 254   2.0000      -0.479315       -13.0428
 255   2.0000      -0.476390       -12.9632
 256   2.0000      -0.470060       -12.7910
 257   2.0000      -0.468630       -12.7521
 258   2.0000      -0.467408       -12.7188
 259   2.0000      -0.464905       -12.6507
 260   2.0000      -0.463457       -12.6113
 261   2.0000      -0.461107       -12.5474
 262   2.0000      -0.458792       -12.4844
 263   2.0000      -0.455051       -12.3826
 264   2.0000      -0.452405       -12.3106
 265   2.0000      -0.451599       -12.2886
 266   2.0000      -0.450203       -12.2506
 267   2.0000      -0.449523       -12.2321
 268   2.0000      -0.445576       -12.1247
 269   2.0000      -0.442395       -12.0382
 270   2.0000      -0.440620       -11.9899
 271   2.0000      -0.437606       -11.9079
 272   2.0000      -0.435025       -11.8376
 273   2.0000      -0.433389       -11.7931
 274   2.0000      -0.432357       -11.7650
 275   2.0000      -0.432006       -11.7555
 276   2.0000      -0.430443       -11.7129
 277   2.0000      -0.429030       -11.6745
 278   2.0000      -0.426699       -11.6111
 279   2.0000      -0.423738       -11.5305
 280   2.0000      -0.419153       -11.4057
 281   2.0000      -0.418360       -11.3841
 282   2.0000      -0.415411       -11.3039
 283   2.0000      -0.413277       -11.2458
 284   2.0000      -0.408495       -11.1157
 285   2.0000      -0.404620       -11.0103
 286   2.0000      -0.403340       -10.9754
 287   2.0000      -0.402302       -10.9472
 288   2.0000      -0.400728       -10.9044
 289   2.0000      -0.396665       -10.7938
 290   2.0000      -0.394668       -10.7395
 291   2.0000      -0.393934       -10.7195
 292   2.0000      -0.390906       -10.6371
 293   2.0000      -0.388820       -10.5803
 294   2.0000      -0.378234       -10.2923
 295   2.0000      -0.373976       -10.1764
 296   2.0000      -0.365909        -9.9569
 297   2.0000      -0.361310        -9.8318
 298   2.0000      -0.356073        -9.6892
 299   2.0000      -0.353257        -9.6126
 300   2.0000      -0.351214        -9.5570
 301   2.0000      -0.349282        -9.5044
 302   2.0000      -0.347147        -9.4464
 303   2.0000      -0.342530        -9.3207
 304   2.0000      -0.342119        -9.3095
 305   2.0000      -0.341249        -9.2858
 306   2.0000      -0.334373        -9.0987
 307   2.0000      -0.330829        -9.0023
 308   2.0000      -0.317170        -8.6306
 309   2.0000      -0.313852        -8.5403
 310   2.0000      -0.308018        -8.3816
 311   2.0000      -0.291264        -7.9257
 312   2.0000      -0.284704        -7.7472
 313   2.0000      -0.265412        -7.2222
 314   2.0000      -0.249379        -6.7860
 315   0.0000      -0.111976        -3.0470
 316   0.0000      -0.096354        -2.6219
 317   0.0000      -0.080481        -2.1900
 318   0.0000      -0.068981        -1.8771
 319   0.0000      -0.057026        -1.5518

MULLIKEN ATOMIC CHARGES
-----------------------
   0 C :    0.155173
   1 O :   -0.142060
   2 C :   -0.019769
   3 C :    0.041544
   4 C :   -0.008585
   5 C :   -0.024062
   6 C :   -0.015136
   7 C :   -0.020534
   8 Br:    0.017845
   9 Br:    0.025900
  10 C :    0.279049
  11 C :   -0.325441
  12 C :   -0.184763
  13 N :    0.162142
  14 C :   -0.207260
  15 N :    0.179981
  16 C :   -0.077731
  17 C :   -0.038987
  18 C :    0.039467
  19 C :    0.039581
  20 C :   -0.077850
  21 C :    0.172629
  22 C :   -0.041713
  23 C :   -0.037369
  24 N :    0.058690
  25 O :   -0.087593
  26 N :    0.043511
  27 C :   -0.102552
  28 C :   -0.037409
  29 C :    0.113513
  30 C :   -0.025004
  31 S :    0.096567
  32 C :   -0.059031
  33 C :    0.120923
  34 C :   -0.041624
  35 C :   -0.046889
  36 S :    0.126276
  37 C :   -0.023011
  38 C :   -0.048914
  39 C :   -0.006114
  40 C :   -0.097176
  41 C :    0.108367
  42 C :   -0.127680
  43 S :    0.156223
  44 C :    0.151772
  45 O :   -0.300597
  46 C :    0.173007
  47 C :    0.059408
  48 C :   -0.093955
  49 C :    0.054966
  50 O :   -0.332369
  51 C :    0.203938
  52 S :    0.143184
  53 C :   -0.077527
  54 C :   -0.018839
  55 C :    0.046490
  56 C :   -0.127539
  57 C :    0.142794
  58 O :   -0.134419
  59 C :   -0.002911
  60 C :    0.027401
  61 C :    0.237465
  62 C :   -0.303786
  63 C :   -0.191294
  64 N :    0.169221
  65 C :   -0.177369
  66 N :    0.159726
  67 C :   -0.010715
  68 C :   -0.022138
  69 C :   -0.016849
  70 C :   -0.022671
  71 Br:    0.013022
  72 Br:    0.020648
  73 H :    0.010637
  74 H :    0.007598
  75 H :    0.047537
  76 H :    0.009180
  77 H :    0.007193
  78 H :    0.004761
  79 H :   -0.027929
  80 H :   -0.020736
  81 H :   -0.022403
  82 H :   -0.014874
  83 H :    0.045067
  84 H :    0.034134
  85 H :    0.046218
  86 H :    0.038756
  87 H :    0.015781
  88 H :    0.012136
  89 H :   -0.024062
  90 H :    0.028022
  91 H :    0.011843
  92 H :    0.007953
Sum of atomic charges:   -0.0000000

LOEWDIN ATOMIC CHARGES
----------------------
   0 C :    0.084681
   1 O :   -0.131519
   2 C :   -0.042815
   3 C :   -0.011303
   4 C :   -0.006453
   5 C :   -0.117267
   6 C :   -0.122474
   7 C :    0.007140
   8 Br:    0.140182
   9 Br:    0.144641
  10 C :    0.071062
  11 C :   -0.124282
  12 C :   -0.019186
  13 N :   -0.039705
  14 C :   -0.027585
  15 N :   -0.034309
  16 C :   -0.087324
  17 C :    0.082760
  18 C :   -0.055854
  19 C :    0.051790
  20 C :   -0.023110
  21 C :   -0.006641
  22 C :   -0.047397
  23 C :   -0.043492
  24 N :   -0.020783
  25 O :    0.082773
  26 N :   -0.018372
  27 C :   -0.159342
  28 C :   -0.018318
  29 C :   -0.048604
  30 C :   -0.145083
  31 S :    0.395085
  32 C :   -0.037947
  33 C :   -0.035736
  34 C :   -0.152357
  35 C :   -0.023245
  36 S :    0.399508
  37 C :   -0.162024
  38 C :   -0.048001
  39 C :   -0.161796
  40 C :   -0.050292
  41 C :   -0.045745
  42 C :   -0.179425
  43 S :    0.423993
  44 C :    0.047328
  45 O :   -0.093828
  46 C :    0.081774
  47 C :   -0.082155
  48 C :   -0.152415
  49 C :    0.004778
  50 O :   -0.134151
  51 C :    0.081675
  52 S :    0.431355
  53 C :   -0.175393
  54 C :   -0.003108
  55 C :    0.054608
  56 C :   -0.096388
  57 C :    0.083917
  58 O :   -0.135387
  59 C :   -0.045243
  60 C :   -0.007300
  61 C :    0.055254
  62 C :   -0.128040
  63 C :   -0.030668
  64 N :   -0.046602
  65 C :   -0.019638
  66 N :   -0.041564
  67 C :   -0.009918
  68 C :   -0.117749
  69 C :   -0.124901
  70 C :    0.007022
  71 Br:    0.136185
  72 Br:    0.141443
  73 H :    0.045393
  74 H :    0.046501
  75 H :    0.051848
  76 H :    0.040832
  77 H :    0.032068
  78 H :    0.036049
  79 H :    0.032065
  80 H :    0.035271
  81 H :    0.030705
  82 H :    0.030801
  83 H :    0.034285
  84 H :    0.017456
  85 H :    0.024345
  86 H :    0.027310
  87 H :    0.013792
  88 H :    0.009806
  89 H :    0.031992
  90 H :    0.051087
  91 H :    0.045083
  92 H :    0.046589

  Mayer bond orders larger than 0.100000
B(  0-C ,  1-O ) :   2.2152 B(  0-C ,  2-C ) :   0.9495 B(  0-C , 16-C ) :   0.9404
B(  2-C ,  3-C ) :   1.3255 B(  2-C ,  7-C ) :   1.3698 B(  3-C ,  4-C ) :   1.3619
B(  3-C , 10-C ) :   0.9974 B(  4-C ,  5-C ) :   1.3715 B(  4-C , 73-H ) :   0.9810
B(  5-C ,  6-C ) :   1.4172 B(  5-C ,  9-Br) :   1.0597 B(  6-C ,  7-C ) :   1.3540
B(  6-C ,  8-Br) :   1.0359 B(  7-C , 74-H ) :   1.0083 B( 10-C , 11-C ) :   1.6721
B( 10-C , 16-C ) :   1.0466 B( 11-C , 12-C ) :   1.1351 B( 11-C , 14-C ) :   1.1361
B( 12-C , 13-N ) :   2.9773 B( 14-C , 15-N ) :   3.0051 B( 16-C , 17-C ) :   1.6001
B( 17-C , 18-C ) :   1.1501 B( 17-C , 75-H ) :   0.9486 B( 18-C , 19-C ) :   1.4466
B( 18-C , 21-C ) :   0.1039 B( 18-C , 23-C ) :   1.1180 B( 19-C , 20-C ) :   1.2429
B( 19-C , 76-H ) :   0.9770 B( 20-C , 21-C ) :   1.4552 B( 20-C , 77-H ) :   0.9889
B( 21-C , 22-C ) :   1.1377 B( 21-C , 27-C ) :   1.1399 B( 22-C , 23-C ) :   1.1483
B( 22-C , 26-N ) :   1.5959 B( 23-C , 24-N ) :   1.6269 B( 24-N , 25-O ) :   1.0641
B( 24-N , 26-N ) :   0.1799 B( 25-O , 26-N ) :   1.0680 B( 27-C , 28-C ) :   1.5696
B( 27-C , 31-S ) :   1.0600 B( 28-C , 29-C ) :   1.1302 B( 28-C , 78-H ) :   0.9887
B( 29-C , 30-C ) :   1.2773 B( 29-C , 35-C ) :   1.3121 B( 30-C , 31-S ) :   1.0442
B( 30-C , 32-C ) :   1.3855 B( 32-C , 33-C ) :   1.3142 B( 32-C , 79-H ) :   1.0017
B( 33-C , 34-C ) :   1.2738 B( 33-C , 38-C ) :   1.1555 B( 34-C , 35-C ) :   1.3905
B( 34-C , 36-S ) :   1.0425 B( 35-C , 80-H ) :   1.0024 B( 36-S , 37-C ) :   1.0775
B( 37-C , 38-C ) :   1.5899 B( 37-C , 39-C ) :   1.0925 B( 38-C , 81-H ) :   1.0011
B( 39-C , 40-C ) :   1.5847 B( 39-C , 43-S ) :   1.0793 B( 40-C , 41-C ) :   1.1655
B( 40-C , 82-H ) :   1.0010 B( 41-C , 42-C ) :   1.3370 B( 41-C , 49-C ) :   1.2361
B( 42-C , 43-S ) :   1.0386 B( 42-C , 44-C ) :   1.3959 B( 44-C , 45-O ) :   1.2791
B( 44-C , 47-C ) :   1.2115 B( 45-O , 46-C ) :   0.9396 B( 46-C , 83-H ) :   0.9743
B( 46-C , 84-H ) :   0.9688 B( 46-C , 85-H ) :   0.9688 B( 47-C , 48-C ) :   1.2647
B( 47-C , 54-C ) :   1.1688 B( 48-C , 49-C ) :   1.4595 B( 48-C , 52-S ) :   1.0410
B( 49-C , 50-O ) :   1.2077 B( 50-O , 51-C ) :   0.9431 B( 51-C , 86-H ) :   0.9830
B( 51-C , 87-H ) :   0.9681 B( 51-C , 88-H ) :   0.9679 B( 52-S , 53-C ) :   1.0553
B( 53-C , 54-C ) :   1.5178 B( 53-C , 55-C ) :   1.1029 B( 54-C , 89-H ) :   0.9996
B( 55-C , 56-C ) :   1.6548 B( 55-C , 90-H ) :   0.9534 B( 56-C , 57-C ) :   0.9413
B( 56-C , 61-C ) :   1.0370 B( 57-C , 58-O ) :   2.2812 B( 57-C , 59-C ) :   0.9197
B( 59-C , 60-C ) :   1.3285 B( 59-C , 70-C ) :   1.3740 B( 60-C , 61-C ) :   1.0078
B( 60-C , 67-C ) :   1.3701 B( 61-C , 62-C ) :   1.6703 B( 62-C , 63-C ) :   1.1516
B( 62-C , 65-C ) :   1.1337 B( 63-C , 64-N ) :   3.0152 B( 65-C , 66-N ) :   2.9908
B( 67-C , 68-C ) :   1.3670 B( 67-C , 91-H ) :   0.9844 B( 68-C , 69-C ) :   1.4235
B( 68-C , 72-Br) :   1.0511 B( 69-C , 70-C ) :   1.3561 B( 69-C , 71-Br) :   1.0328
B( 70-C , 92-H ) :   1.0082

-----------------------------------------------------------------------------
         ABSORPTION SPECTRUM VIA TRANSITION ELECTRIC DIPOLE MOMENTS
-----------------------------------------------------------------------------
State   Energy  Wavelength   fosc         T2         TX        TY        TZ
        (cm-1)    (nm)                  (au**2)     (au)      (au)      (au)
-----------------------------------------------------------------------------
   0   16996.8    588.3   1.593678577  30.86798  -0.72031  -5.00030  -2.31217
   1   18220.8    548.8   0.582558152  10.52562  -1.64093  -1.59645  -2.29876
   2   22603.0    442.4   0.511199773   7.44562  -0.18760  -2.39107  -1.30124
   3   22882.8    437.0   0.045155098   0.64964  -0.80561  -0.00097   0.02519
   4   23518.2    425.2   0.054988461   0.76974  -0.11195   0.85174  -0.17818
   5   24786.6    403.4   0.126125874   1.67518  -0.36312  -1.16371  -0.43488
   6   25825.1    387.2   0.014772474   0.18832   0.35655  -0.04820   0.24261
   7   26726.6    374.2   0.031458668   0.38750  -0.34982  -0.40012  -0.32409
   8   27557.2    362.9   0.135801162   1.62235   0.96966   0.02569   0.82549
   9   28819.2    347.0   0.121301320   1.38567  -1.05723   0.06528  -0.51350
  10   28959.6    345.3   0.039426434   0.44820   0.12012   0.43115  -0.49788
  11   29116.9    343.4   0.158329855   1.79017   0.14443  -1.30824  -0.24045
  12   29852.5    335.0   0.109076997   1.20290   0.11667  -1.08754  -0.08095
  13   30291.1    330.1   0.001114272   0.01211  -0.02233   0.06401   0.08669
  14   30894.6    323.7   0.673960521   7.18171   0.77317   2.20789   1.30733
  15   31195.5    320.6   0.084693561   0.89379   0.13191   0.83718   0.41895
  16   31244.0    320.1   0.058087626   0.61206   0.53425   0.57148  -0.00608
  17   31580.2    316.7   0.057924742   0.60384   0.15093   0.07753   0.75832
  18   32755.1    305.3   0.038532504   0.38728   0.16733   0.04815   0.59746
  19   33076.6    302.3   0.023919090   0.23807  -0.11584  -0.32338   0.34652
  20   33144.1    301.7   0.095555511   0.94913   0.58038   0.71382   0.32055
  21   33311.0    300.2   0.033327747   0.32938  -0.20631   0.26700  -0.46425
  22   33794.0    295.9   0.014066703   0.13703  -0.30407  -0.19049  -0.09104
  23   33855.6    295.4   0.001104648   0.01074   0.09482  -0.04165  -0.00402
  24   34364.9    291.0   0.170817886   1.63642  -1.05591  -0.68930  -0.21528
  25   34393.4    290.8   0.511847081   4.89938   1.48129  -1.43374   0.80595
  26   34687.9    288.3   0.158041535   1.49992   0.26853  -1.14829  -0.33051
  27   35182.3    284.2   0.089116709   0.83389  -0.18435  -0.78825  -0.42257
  28   35202.1    284.1   0.022739874   0.21266   0.12603  -0.32366   0.30335
  29   35385.6    282.6   0.373655242   3.47632  -0.53445  -1.77082  -0.23431
  30   35545.1    281.3   0.211497112   1.95884  -1.19685   0.18955  -0.70033
  31   35802.5    279.3   0.026553065   0.24416   0.06671  -0.48769   0.04323
  32   36612.0    273.1   0.046506555   0.41818  -0.01630   0.62773  -0.15451
  33   36776.3    271.9   0.045105865   0.40378   0.44631   0.24093   0.38280
  34   37372.7    267.6   0.013812300   0.12167   0.09361  -0.33590  -0.00896
  35   37783.4    264.7   0.001273019   0.01109  -0.02673   0.07031  -0.07371
  36   37965.9    263.4   0.021435370   0.18587  -0.14649  -0.38613  -0.12375
  37   38235.9    261.5   0.027805952   0.23941   0.31932   0.31638   0.19326
  38   38615.0    259.0   0.012387525   0.10561  -0.14497   0.22175  -0.18820
  39   38787.5    257.8   0.016549826   0.14047   0.27834  -0.22901  -0.10271
  40   39019.0    256.3   0.088930500   0.75033   0.12398  -0.84727   0.13069
  41   39032.4    256.2   0.104298284   0.87969  -0.48881   0.35998  -0.71495
  42   39080.7    255.9   0.008342152   0.07027   0.19151   0.01141   0.18294
  43   39546.8    252.9   0.039926791   0.33238  -0.02617   0.07380  -0.57118
  44   39920.3    250.5   0.069924231   0.57665   0.21376  -0.50320   0.52701
  45   40166.6    249.0   0.010646770   0.08726   0.24109  -0.08579   0.14757

FINAL SINGLE POINT ENERGY    -14658.917659315024

DIPOLE MOMENT
-------------
                                X             Y             Z
Electronic contribution:    122.13800     -67.78569     110.08231
Nuclear contribution   :   -123.43323      65.72104    -110.03502
                        -----------------------------------------
Total Dipole Moment    :     -1.29522      -2.06466       0.04730
                        -----------------------------------------
Magnitude (a.u.)       :      2.43776
Magnitude (Debye)      :      6.19628

Rotational constants in cm-1:     0.001325     0.000097     0.000092
Rotational constants in MHz :    39.720182     2.915696     2.751807

                             ****ORCA TERMINATED NORMALLY****
TOTAL RUN TIME: 0 days 0 hours 9 minutes 29 seconds 663 msec
