                         Program Version 4.2.0 -  RELEASE  -
|  1> # ORCA input file
|  2> # SCF done       -192.636155675962          0.000690159449
|  3> ! CAM-B3LYP def2-SVP def2/J RIJCOSX Grid4 TightSCF
|  4> %maxcore 5000
|  5> %tddft
|  6>     Mode sTDDFT
|  7>     Ethresh 5.0
|  8>     maxcore 5000
|  9> end
| 10>
| 11> %pal
| 12>   nprocs 6
| 13>   end
| 14> * xyz 0 1
| 15>    C       -2.89847        -3.45688         5.70917
| 16>    N       -3.71867        -3.94996         4.83185
| 17>    N       -3.36433        -4.21888         3.59022
| 18>    C       -2.14283        -4.06057         3.14614
| 19>    C       -1.12410        -3.62953         4.04664
| 20>    C       -1.53247        -3.27528         5.37871
| 21>    N       -0.43961        -2.93755         6.03936
| 22>    O        0.56242        -3.08733         5.18790
| 23>    N        0.18721        -3.50511         3.98637
| 24>    C       -1.84870        -4.33815         1.76031
| 25>    C       -1.04110        -3.59901         0.92234
| 26>    C       -0.50669        -2.28817         1.29428
| 27>    O       -0.91472        -1.62463         2.22354
| 28>    C        0.56089        -1.83593         0.38135
| 29>    C        0.82981        -2.49108        -0.84954
| 30>    C        1.85780        -1.88316        -1.53142
| 31>    S        2.51638        -0.53478        -0.69088
| 32>    C        1.39609        -0.76592         0.59005
| 33>    C        1.42272         0.14587         1.77793
| 34>    F        0.34040         0.92521         1.85377
| 35>    F        1.52709        -0.51657         2.93262
| 36>    F        2.48076         0.97409         1.71802
| 37>    C        2.43549        -2.26768        -2.85843
| 38>    F        1.55456        -2.17637        -3.85888
| 39>    F        3.45678        -1.45408        -3.18340
| 40>    F        2.93080        -3.50923        -2.86972
| 41>    C        0.07235        -3.66961        -1.33691
| 42>    O        0.29840        -4.14767        -2.43301
| 43>    C       -0.88551        -4.18588        -0.36938
| 44>    C       -1.63398        -5.35739        -0.50006
| 45>    S       -2.47504        -5.73802         0.97769
| 46>    C       -1.78315        -6.24481        -1.59989
| 47>    C       -1.68239        -6.00472        -2.94274
| 48>    C       -1.89429        -7.14414        -3.74309
| 49>    C       -2.21138        -8.30033        -2.97472
| 50>    S       -2.20566        -7.91793        -1.27312
| 51>    C       -2.50638        -9.51875        -3.56099
| 52>    S       -2.92922       -10.99559        -2.68826
| 53>    C       -1.77646       -11.01286        -1.28040
| 54>    C       -2.52104        -9.57389        -4.96777
| 55>    C       -2.18976        -8.42160        -5.72854
| 56>    C       -1.85103        -7.21735        -5.14449
| 57>    S       -1.43004        -5.82576        -6.15639
| 58>    C        0.28398        -5.50107        -5.62488
| 59>    S       -2.22856        -8.74127        -7.43598
| 60>    C       -2.68247       -10.41018        -7.12725
| 61>    C       -2.79665       -10.68567        -5.79030
| 62>    C       -2.86413       -11.29470        -8.17640
| 63>    C       -2.98726       -12.04531        -9.12392
| 64>    C       -3.11990       -12.95620       -10.15568
| 65>    S       -3.57955       -14.60904        -9.83220
| 66>    C       -3.46074       -14.99653       -11.52824
| 67>    C       -3.09260       -13.89389       -12.27243
| 68>    C       -2.90319       -12.74783       -11.50255
| 69>    C       -3.70614       -16.28340       -11.97971
| 70>    C       -3.91259       -17.42293       -12.34449
| 71>    C       -4.13741       -18.73192       -12.76469
| 72>    C       -3.79881       -19.17230       -13.99170
| 73>    C       -3.99598       -20.51727       -14.48762
| 74>    C       -3.26226       -20.93124       -15.62113
| 75>    O       -2.40250       -19.99474       -16.10873
| 76>    C       -1.75673       -20.14122       -17.35286
| 77>    C       -3.43673       -22.23820       -16.11446
| 78>    O       -2.68195       -22.62582       -17.19590
| 79>    C       -2.83791       -23.92826       -17.69953
| 80>    C       -4.34684       -23.08355       -15.49431
| 81>    C       -5.07566       -22.66637       -14.39167
| 82>    C       -4.89810       -21.39976       -13.88878
| 83>    H       -3.29156        -3.23170         6.68779
| 84>    H       -1.50946        -5.02899        -3.35337
| 85>    H       -1.66267       -12.05892        -1.01251
| 86>    H       -2.18455       -10.45761        -0.44155
| 87>    H       -0.82246       -10.60237        -1.59286
| 88>    H        0.63765        -4.70490        -6.27198
| 89>    H        0.87319        -6.39936        -5.78229
| 90>    H        0.32802        -5.18185        -4.58995
| 91>    H       -3.06630       -11.65390        -5.40968
| 92>    H       -2.96848       -13.93514       -13.33982
| 93>    H       -2.61290       -11.79068       -11.89785
| 94>    H       -4.58052       -19.38731       -12.02590
| 95>    H       -3.31016       -18.48862       -14.67116
| 96>    H       -1.26419       -19.18386       -17.52706
| 97>    H       -2.46767       -20.33504       -18.15861
| 98>    H       -1.00801       -20.93510       -17.33171
| 99>    H       -2.14628       -23.99722       -18.53837
|100>    H       -3.85714       -24.10566       -18.05809
|101>    H       -2.57522       -24.68491       -16.95298
|102>    H       -4.49397       -24.08425       -15.86584
|103>    H       -5.77974       -23.34439       -13.93445
|104>    H       -5.47655       -21.07347       -13.03956
|105> *
|106>
|107>                          ****END OF INPUT****

CARTESIAN COORDINATES (ANGSTROEM)
---------------------------------
  C     -2.898470   -3.456880    5.709170
  N     -3.718670   -3.949960    4.831850
  N     -3.364330   -4.218880    3.590220
  C     -2.142830   -4.060570    3.146140
  C     -1.124100   -3.629530    4.046640
  C     -1.532470   -3.275280    5.378710
  N     -0.439610   -2.937550    6.039360
  O      0.562420   -3.087330    5.187900
  N      0.187210   -3.505110    3.986370
  C     -1.848700   -4.338150    1.760310
  C     -1.041100   -3.599010    0.922340
  C     -0.506690   -2.288170    1.294280
  O     -0.914720   -1.624630    2.223540
  C      0.560890   -1.835930    0.381350
  C      0.829810   -2.491080   -0.849540
  C      1.857800   -1.883160   -1.531420
  S      2.516380   -0.534780   -0.690880
  C      1.396090   -0.765920    0.590050
  C      1.422720    0.145870    1.777930
  F      0.340400    0.925210    1.853770
  F      1.527090   -0.516570    2.932620
  F      2.480760    0.974090    1.718020
  C      2.435490   -2.267680   -2.858430
  F      1.554560   -2.176370   -3.858880
  F      3.456780   -1.454080   -3.183400
  F      2.930800   -3.509230   -2.869720
  C      0.072350   -3.669610   -1.336910
  O      0.298400   -4.147670   -2.433010
  C     -0.885510   -4.185880   -0.369380
  C     -1.633980   -5.357390   -0.500060
  S     -2.475040   -5.738020    0.977690
  C     -1.783150   -6.244810   -1.599890
  C     -1.682390   -6.004720   -2.942740
  C     -1.894290   -7.144140   -3.743090
  C     -2.211380   -8.300330   -2.974720
  S     -2.205660   -7.917930   -1.273120
  C     -2.506380   -9.518750   -3.560990
  S     -2.929220  -10.995590   -2.688260
  C     -1.776460  -11.012860   -1.280400
  C     -2.521040   -9.573890   -4.967770
  C     -2.189760   -8.421600   -5.728540
  C     -1.851030   -7.217350   -5.144490
  S     -1.430040   -5.825760   -6.156390
  C      0.283980   -5.501070   -5.624880
  S     -2.228560   -8.741270   -7.435980
  C     -2.682470  -10.410180   -7.127250
  C     -2.796650  -10.685670   -5.790300
  C     -2.864130  -11.294700   -8.176400
  C     -2.987260  -12.045310   -9.123920
  C     -3.119900  -12.956200  -10.155680
  S     -3.579550  -14.609040   -9.832200
  C     -3.460740  -14.996530  -11.528240
  C     -3.092600  -13.893890  -12.272430
  C     -2.903190  -12.747830  -11.502550
  C     -3.706140  -16.283400  -11.979710
  C     -3.912590  -17.422930  -12.344490
  C     -4.137410  -18.731920  -12.764690
  C     -3.798810  -19.172300  -13.991700
  C     -3.995980  -20.517270  -14.487620
  C     -3.262260  -20.931240  -15.621130
  O     -2.402500  -19.994740  -16.108730
  C     -1.756730  -20.141220  -17.352860
  C     -3.436730  -22.238200  -16.114460
  O     -2.681950  -22.625820  -17.195900
  C     -2.837910  -23.928260  -17.699530
  C     -4.346840  -23.083550  -15.494310
  C     -5.075660  -22.666370  -14.391670
  C     -4.898100  -21.399760  -13.888780
  H     -3.291560   -3.231700    6.687790
  H     -1.509460   -5.028990   -3.353370
  H     -1.662670  -12.058920   -1.012510
  H     -2.184550  -10.457610   -0.441550
  H     -0.822460  -10.602370   -1.592860
  H      0.637650   -4.704900   -6.271980
  H      0.873190   -6.399360   -5.782290
  H      0.328020   -5.181850   -4.589950
  H     -3.066300  -11.653900   -5.409680
  H     -2.968480  -13.935140  -13.339820
  H     -2.612900  -11.790680  -11.897850
  H     -4.580520  -19.387310  -12.025900
  H     -3.310160  -18.488620  -14.671160
  H     -1.264190  -19.183860  -17.527060
  H     -2.467670  -20.335040  -18.158610
  H     -1.008010  -20.935100  -17.331710
  H     -2.146280  -23.997220  -18.538370
  H     -3.857140  -24.105660  -18.058090
  H     -2.575220  -24.684910  -16.952980
  H     -4.493970  -24.084250  -15.865840
  H     -5.779740  -23.344390  -13.934450
  H     -5.476550  -21.073470  -13.039560

 Total Charge           Charge          ....    0
 Multiplicity           Mult            ....    1
 Number of Electrons    NEL             ....  532
 Basis Dimension        Dim             .... 1090

ORBITAL ENERGIES
----------------

  NO   OCC          E(Eh)            E(eV)
   0   2.0000     -89.015838     -2422.2441
   1   2.0000     -88.995009     -2421.6773
   2   2.0000     -88.959813     -2420.7196
   3   2.0000     -88.955511     -2420.6025
   4   2.0000     -88.950177     -2420.4574
   5   2.0000     -88.927151     -2419.8308
   6   2.0000     -88.919382     -2419.6194
   7   2.0000     -24.812739      -675.1890
   8   2.0000     -24.811395      -675.1524
   9   2.0000     -24.804942      -674.9768
  10   2.0000     -24.804700      -674.9702
  11   2.0000     -24.804657      -674.9690
  12   2.0000     -24.802974      -674.9232
  13   2.0000     -19.381147      -527.3878
  14   2.0000     -19.244198      -523.6613
  15   2.0000     -19.237568      -523.4808
  16   2.0000     -19.234214      -523.3896
  17   2.0000     -19.229396      -523.2585
  18   2.0000     -14.504159      -394.6782
  19   2.0000     -14.503307      -394.6550
  20   2.0000     -14.460532      -393.4911
  21   2.0000     -14.457454      -393.4073
  22   2.0000     -10.537738      -286.7464
  23   2.0000     -10.536653      -286.7169
  24   2.0000     -10.392156      -282.7849
  25   2.0000     -10.391684      -282.7721
  26   2.0000     -10.365040      -282.0471
  27   2.0000     -10.351884      -281.6891
  28   2.0000     -10.351770      -281.6860
  29   2.0000     -10.350475      -281.6507
  30   2.0000     -10.346866      -281.5525
  31   2.0000     -10.346813      -281.5511
  32   2.0000     -10.345251      -281.5086
  33   2.0000     -10.340028      -281.3665
  34   2.0000     -10.330044      -281.0948
  35   2.0000     -10.329493      -281.0798
  36   2.0000     -10.325616      -280.9743
  37   2.0000     -10.325313      -280.9661
  38   2.0000     -10.324715      -280.9498
  39   2.0000     -10.319283      -280.8020
  40   2.0000     -10.317018      -280.7403
  41   2.0000     -10.315182      -280.6904
  42   2.0000     -10.312006      -280.6040
  43   2.0000     -10.311891      -280.6008
  44   2.0000     -10.311134      -280.5802
  45   2.0000     -10.310337      -280.5585
  46   2.0000     -10.310260      -280.5564
  47   2.0000     -10.308487      -280.5082
  48   2.0000     -10.304827      -280.4086
  49   2.0000     -10.304334      -280.3952
  50   2.0000     -10.294057      -280.1155
  51   2.0000     -10.289838      -280.0007
  52   2.0000     -10.289548      -279.9928
  53   2.0000     -10.287515      -279.9375
  54   2.0000     -10.280741      -279.7532
  55   2.0000     -10.279854      -279.7290
  56   2.0000     -10.277403      -279.6624
  57   2.0000     -10.276665      -279.6423
  58   2.0000     -10.276519      -279.6383
  59   2.0000     -10.275228      -279.6032
  60   2.0000     -10.273151      -279.5467
  61   2.0000     -10.271192      -279.4934
  62   2.0000     -10.270522      -279.4751
  63   2.0000     -10.267391      -279.3899
  64   2.0000     -10.267297      -279.3873
  65   2.0000     -10.263672      -279.2887
  66   2.0000     -10.262138      -279.2470
  67   2.0000     -10.261012      -279.2163
  68   2.0000      -8.110756      -220.7049
  69   2.0000      -8.090411      -220.1513
  70   2.0000      -8.055315      -219.1963
  71   2.0000      -8.051054      -219.0803
  72   2.0000      -8.045589      -218.9316
  73   2.0000      -8.022418      -218.3011
  74   2.0000      -8.014249      -218.0788
  75   2.0000      -6.079891      -165.4422
  76   2.0000      -6.075391      -165.3198
  77   2.0000      -6.073443      -165.2668
  78   2.0000      -6.059537      -164.8884
  79   2.0000      -6.055220      -164.7709
  80   2.0000      -6.052846      -164.7063
  81   2.0000      -6.025046      -163.9498
  82   2.0000      -6.020897      -163.8369
  83   2.0000      -6.020417      -163.8239
  84   2.0000      -6.016458      -163.7161
  85   2.0000      -6.016225      -163.7098
  86   2.0000      -6.015319      -163.6851
  87   2.0000      -6.012996      -163.6220
  88   2.0000      -6.011095      -163.5702
  89   2.0000      -6.006759      -163.4522
  90   2.0000      -5.992978      -163.0772
  91   2.0000      -5.988810      -162.9638
  92   2.0000      -5.984855      -162.8562
  93   2.0000      -5.981911      -162.7761
  94   2.0000      -5.980770      -162.7450
  95   2.0000      -5.973716      -162.5531
  96   2.0000      -1.400223       -38.1020
  97   2.0000      -1.399254       -38.0756
  98   2.0000      -1.335799       -36.3489
  99   2.0000      -1.302267       -35.4365
 100   2.0000      -1.301540       -35.4167
 101   2.0000      -1.299226       -35.3537
 102   2.0000      -1.298473       -35.3332
 103   2.0000      -1.154406       -31.4130
 104   2.0000      -1.153600       -31.3911
 105   2.0000      -1.148979       -31.2653
 106   2.0000      -1.138386       -30.9771
 107   2.0000      -1.132364       -30.8132
 108   2.0000      -1.039110       -28.2756
 109   2.0000      -1.036621       -28.2079
 110   2.0000      -1.026228       -27.9251
 111   2.0000      -1.008090       -27.4315
 112   2.0000      -0.992018       -26.9942
 113   2.0000      -0.982459       -26.7341
 114   2.0000      -0.980977       -26.6937
 115   2.0000      -0.959242       -26.1023
 116   2.0000      -0.945563       -25.7301
 117   2.0000      -0.933270       -25.3956
 118   2.0000      -0.921735       -25.0817
 119   2.0000      -0.919736       -25.0273
 120   2.0000      -0.909517       -24.7492
 121   2.0000      -0.895370       -24.3643
 122   2.0000      -0.883909       -24.0524
 123   2.0000      -0.878063       -23.8933
 124   2.0000      -0.870442       -23.6859
 125   2.0000      -0.865694       -23.5567
 126   2.0000      -0.851434       -23.1687
 127   2.0000      -0.843851       -22.9624
 128   2.0000      -0.839904       -22.8549
 129   2.0000      -0.838863       -22.8266
 130   2.0000      -0.836239       -22.7552
 131   2.0000      -0.830161       -22.5898
 132   2.0000      -0.825671       -22.4677
 133   2.0000      -0.825493       -22.4628
 134   2.0000      -0.810657       -22.0591
 135   2.0000      -0.798540       -21.7294
 136   2.0000      -0.794951       -21.6317
 137   2.0000      -0.790212       -21.5028
 138   2.0000      -0.787262       -21.4225
 139   2.0000      -0.779051       -21.1991
 140   2.0000      -0.761077       -20.7100
 141   2.0000      -0.757168       -20.6036
 142   2.0000      -0.755214       -20.5504
 143   2.0000      -0.752542       -20.4777
 144   2.0000      -0.740209       -20.1421
 145   2.0000      -0.728829       -19.8325
 146   2.0000      -0.724251       -19.7079
 147   2.0000      -0.721929       -19.6447
 148   2.0000      -0.703795       -19.1512
 149   2.0000      -0.702914       -19.1273
 150   2.0000      -0.692601       -18.8466
 151   2.0000      -0.681852       -18.5541
 152   2.0000      -0.681083       -18.5332
 153   2.0000      -0.680630       -18.5209
 154   2.0000      -0.679401       -18.4875
 155   2.0000      -0.678501       -18.4630
 156   2.0000      -0.675745       -18.3880
 157   2.0000      -0.666585       -18.1387
 158   2.0000      -0.662786       -18.0353
 159   2.0000      -0.656822       -17.8730
 160   2.0000      -0.650847       -17.7105
 161   2.0000      -0.644664       -17.5422
 162   2.0000      -0.640213       -17.4211
 163   2.0000      -0.639080       -17.3903
 164   2.0000      -0.633983       -17.2516
 165   2.0000      -0.630623       -17.1601
 166   2.0000      -0.626090       -17.0368
 167   2.0000      -0.614484       -16.7209
 168   2.0000      -0.610027       -16.5997
 169   2.0000      -0.607980       -16.5440
 170   2.0000      -0.603406       -16.4195
 171   2.0000      -0.595952       -16.2167
 172   2.0000      -0.588102       -16.0031
 173   2.0000      -0.582101       -15.8398
 174   2.0000      -0.581972       -15.8363
 175   2.0000      -0.569245       -15.4900
 176   2.0000      -0.567636       -15.4462
 177   2.0000      -0.561555       -15.2807
 178   2.0000      -0.560384       -15.2488
 179   2.0000      -0.557926       -15.1819
 180   2.0000      -0.556150       -15.1336
 181   2.0000      -0.555210       -15.1080
 182   2.0000      -0.553633       -15.0651
 183   2.0000      -0.552211       -15.0264
 184   2.0000      -0.549040       -14.9401
 185   2.0000      -0.542378       -14.7588
 186   2.0000      -0.539384       -14.6774
 187   2.0000      -0.539312       -14.6754
 188   2.0000      -0.538285       -14.6475
 189   2.0000      -0.535346       -14.5675
 190   2.0000      -0.531679       -14.4677
 191   2.0000      -0.529427       -14.4064
 192   2.0000      -0.525871       -14.3097
 193   2.0000      -0.524034       -14.2597
 194   2.0000      -0.523263       -14.2387
 195   2.0000      -0.521707       -14.1964
 196   2.0000      -0.519156       -14.1270
 197   2.0000      -0.517799       -14.0900
 198   2.0000      -0.515559       -14.0291
 199   2.0000      -0.512531       -13.9467
 200   2.0000      -0.511579       -13.9208
 201   2.0000      -0.510495       -13.8913
 202   2.0000      -0.508118       -13.8266
 203   2.0000      -0.503398       -13.6981
 204   2.0000      -0.502939       -13.6857
 205   2.0000      -0.500151       -13.6098
 206   2.0000      -0.498489       -13.5646
 207   2.0000      -0.494216       -13.4483
 208   2.0000      -0.492115       -13.3911
 209   2.0000      -0.491224       -13.3669
 210   2.0000      -0.489880       -13.3303
 211   2.0000      -0.488939       -13.3047
 212   2.0000      -0.486550       -13.2397
 213   2.0000      -0.484165       -13.1748
 214   2.0000      -0.480609       -13.0780
 215   2.0000      -0.478969       -13.0334
 216   2.0000      -0.478242       -13.0136
 217   2.0000      -0.477367       -12.9898
 218   2.0000      -0.475820       -12.9477
 219   2.0000      -0.474312       -12.9067
 220   2.0000      -0.470873       -12.8131
 221   2.0000      -0.467318       -12.7164
 222   2.0000      -0.466481       -12.6936
 223   2.0000      -0.465020       -12.6538
 224   2.0000      -0.460675       -12.5356
 225   2.0000      -0.444988       -12.1087
 226   2.0000      -0.441524       -12.0145
 227   2.0000      -0.437844       -11.9143
 228   2.0000      -0.432978       -11.7819
 229   2.0000      -0.432485       -11.7685
 230   2.0000      -0.428319       -11.6551
 231   2.0000      -0.425270       -11.5722
 232   2.0000      -0.423180       -11.5153
 233   2.0000      -0.420878       -11.4527
 234   2.0000      -0.418788       -11.3958
 235   2.0000      -0.415734       -11.3127
 236   2.0000      -0.414992       -11.2925
 237   2.0000      -0.412169       -11.2157
 238   2.0000      -0.411417       -11.1952
 239   2.0000      -0.409939       -11.1550
 240   2.0000      -0.404598       -11.0097
 241   2.0000      -0.392075       -10.6689
 242   2.0000      -0.383228       -10.4282
 243   2.0000      -0.381877       -10.3914
 244   2.0000      -0.377924       -10.2838
 245   2.0000      -0.373607       -10.1664
 246   2.0000      -0.369571       -10.0566
 247   2.0000      -0.365181        -9.9371
 248   2.0000      -0.359900        -9.7934
 249   2.0000      -0.357643        -9.7320
 250   2.0000      -0.355009        -9.6603
 251   2.0000      -0.354040        -9.6339
 252   2.0000      -0.347938        -9.4679
 253   2.0000      -0.344169        -9.3653
 254   2.0000      -0.336043        -9.1442
 255   2.0000      -0.332336        -9.0433
 256   2.0000      -0.322565        -8.7774
 257   2.0000      -0.321740        -8.7550
 258   2.0000      -0.320011        -8.7079
 259   2.0000      -0.306772        -8.3477
 260   2.0000      -0.299743        -8.1564
 261   2.0000      -0.294660        -8.0181
 262   2.0000      -0.279320        -7.6007
 263   2.0000      -0.270281        -7.3547
 264   2.0000      -0.253349        -6.8940
 265   2.0000      -0.233243        -6.3469
 266   0.0000      -0.096648        -2.6299
 267   0.0000      -0.084126        -2.2892
 268   0.0000      -0.065346        -1.7782
 269   0.0000      -0.052204        -1.4205
 270   0.0000      -0.034096        -0.9278

MULLIKEN ATOMIC CHARGES
-----------------------
   0 C :    0.014758
   1 N :   -0.043706
   2 N :   -0.033655
   3 C :   -0.065310
   4 C :    0.020718
   5 C :   -0.021344
   6 N :    0.076372
   7 O :   -0.080115
   8 N :    0.077318
   9 C :   -0.157843
  10 C :    0.046623
  11 C :    0.117562
  12 O :   -0.145852
  13 C :    0.063399
  14 C :    0.061935
  15 C :   -0.343691
  16 S :    0.285977
  17 C :   -0.334269
  18 C :    0.567420
  19 F :   -0.143041
  20 F :   -0.144491
  21 F :   -0.165005
  22 C :    0.574643
  23 F :   -0.147379
  24 F :   -0.165504
  25 F :   -0.148071
  26 C :    0.132107
  27 O :   -0.150162
  28 C :    0.008153
  29 C :   -0.096281
  30 S :    0.247335
  31 C :   -0.067267
  32 C :    0.001608
  33 C :    0.099596
  34 C :   -0.064265
  35 S :    0.086126
  36 C :   -0.097805
  37 S :   -0.017259
  38 C :   -0.101568
  39 C :    0.073561
  40 C :   -0.082476
  41 C :   -0.130416
  42 S :   -0.032935
  43 C :   -0.087064
  44 S :    0.171049
  45 C :   -0.119520
  46 C :   -0.013627
  47 C :    0.004398
  48 C :    0.024112
  49 C :   -0.162315
  50 S :    0.185950
  51 C :   -0.139743
  52 C :    0.042826
  53 C :    0.052545
  54 C :    0.053722
  55 C :   -0.025875
  56 C :   -0.077580
  57 C :    0.031520
  58 C :   -0.007958
  59 C :    0.156802
  60 O :   -0.321990
  61 C :    0.210940
  62 C :    0.176560
  63 O :   -0.339667
  64 C :    0.181862
  65 C :   -0.093508
  66 C :    0.028472
  67 C :   -0.018887
  68 H :    0.020696
  69 H :    0.007945
  70 H :    0.066099
  71 H :    0.076401
  72 H :    0.071810
  73 H :    0.057144
  74 H :    0.060896
  75 H :    0.077035
  76 H :   -0.004169
  77 H :   -0.007762
  78 H :   -0.007298
  79 H :    0.021671
  80 H :    0.009013
  81 H :    0.022791
  82 H :    0.015003
  83 H :    0.024412
  84 H :    0.033941
  85 H :    0.023831
  86 H :    0.024207
  87 H :   -0.032096
  88 H :   -0.021266
  89 H :   -0.028829
Sum of atomic charges:   -0.0000000

LOEWDIN ATOMIC CHARGES
----------------------
   0 C :    0.031603
   1 N :   -0.032247
   2 N :   -0.043026
   3 C :   -0.013049
   4 C :   -0.061027
   5 C :   -0.074479
   6 N :   -0.000890
   7 O :    0.101871
   8 N :   -0.006981
   9 C :   -0.151197
  10 C :   -0.073493
  11 C :    0.081469
  12 O :   -0.125099
  13 C :   -0.064891
  14 C :   -0.062656
  15 C :   -0.206045
  16 S :    0.563220
  17 C :   -0.204404
  18 C :    0.145492
  19 F :   -0.044047
  20 F :   -0.043032
  21 F :   -0.065508
  22 C :    0.145177
  23 F :   -0.045636
  24 F :   -0.066258
  25 F :   -0.046077
  26 C :    0.084565
  27 O :   -0.132756
  28 C :   -0.099684
  29 C :   -0.122986
  30 S :    0.523659
  31 C :   -0.194257
  32 C :   -0.001588
  33 C :   -0.062065
  34 C :   -0.167290
  35 S :    0.398600
  36 C :   -0.178377
  37 S :    0.285131
  38 C :   -0.163178
  39 C :   -0.054490
  40 C :   -0.168049
  41 C :   -0.176284
  42 S :    0.261916
  43 C :   -0.147172
  44 S :    0.427609
  45 C :   -0.162354
  46 C :   -0.043251
  47 C :   -0.051366
  48 C :   -0.034842
  49 C :   -0.192805
  50 S :    0.462758
  51 C :   -0.175952
  52 C :   -0.042645
  53 C :   -0.032791
  54 C :   -0.073825
  55 C :   -0.012445
  56 C :   -0.052978
  57 C :    0.022890
  58 C :   -0.050993
  59 C :    0.049309
  60 O :   -0.102664
  61 C :    0.077462
  62 C :    0.023613
  63 O :   -0.111461
  64 C :    0.075683
  65 C :   -0.064755
  66 C :   -0.035186
  67 C :   -0.022782
  68 H :    0.040241
  69 H :    0.033361
  70 H :    0.033942
  71 H :    0.015123
  72 H :    0.030603
  73 H :    0.031577
  74 H :    0.026416
  75 H :    0.023057
  76 H :    0.031340
  77 H :    0.035553
  78 H :    0.035788
  79 H :    0.038373
  80 H :    0.034989
  81 H :    0.020430
  82 H :    0.013615
  83 H :    0.014548
  84 H :    0.027772
  85 H :    0.014725
  86 H :    0.015304
  87 H :    0.028498
  88 H :    0.027757
  89 H :    0.026273

  Mayer bond orders larger than 0.100000
B(  0-C ,  1-N ) :   1.7766 B(  0-C ,  3-C ) :   0.1046 B(  0-C ,  5-C ) :   1.0897
B(  0-C , 68-H ) :   1.0143 B(  1-N ,  2-N ) :   1.1581 B(  2-N ,  3-C ) :   1.8043
B(  3-C ,  4-C ) :   1.0856 B(  3-C ,  9-C ) :   1.0393 B(  4-C ,  5-C ) :   1.1856
B(  4-C ,  8-N ) :   1.6029 B(  5-C ,  6-N ) :   1.5838 B(  6-N ,  7-O ) :   1.0939
B(  6-N ,  8-N ) :   0.1887 B(  7-O ,  8-N ) :   1.0805 B(  9-C , 10-C ) :   1.5724
B(  9-C , 30-S ) :   1.1628 B( 10-C , 11-C ) :   0.9661 B( 10-C , 28-C ) :   1.1939
B( 11-C , 12-O ) :   2.1877 B( 11-C , 13-C ) :   0.9287 B( 13-C , 14-C ) :   1.2313
B( 13-C , 17-C ) :   1.5792 B( 14-C , 15-C ) :   1.5793 B( 14-C , 26-C ) :   0.9510
B( 15-C , 16-S ) :   1.1892 B( 15-C , 22-C ) :   0.9315 B( 16-S , 17-C ) :   1.1898
B( 17-C , 18-C ) :   0.9299 B( 18-C , 19-F ) :   1.1896 B( 18-C , 20-F ) :   1.1845
B( 18-C , 21-F ) :   1.1520 B( 22-C , 23-F ) :   1.1774 B( 22-C , 24-F ) :   1.1493
B( 22-C , 25-F ) :   1.1799 B( 26-C , 27-O ) :   2.1254 B( 26-C , 28-C ) :   0.9964
B( 28-C , 29-C ) :   1.4867 B( 29-C , 30-S ) :   1.1664 B( 29-C , 31-C ) :   1.1178
B( 31-C , 32-C ) :   1.5708 B( 31-C , 35-S ) :   1.0466 B( 32-C , 33-C ) :   1.1943
B( 32-C , 69-H ) :   0.9820 B( 33-C , 34-C ) :   1.2948 B( 33-C , 41-C ) :   1.3252
B( 34-C , 35-S ) :   1.0468 B( 34-C , 36-C ) :   1.4237 B( 36-C , 37-S ) :   1.0417
B( 36-C , 39-C ) :   1.3618 B( 37-S , 38-C ) :   0.9952 B( 38-C , 70-H ) :   0.9697
B( 38-C , 71-H ) :   0.9631 B( 38-C , 72-H ) :   0.9720 B( 39-C , 40-C ) :   1.2889
B( 39-C , 46-C ) :   1.1958 B( 40-C , 41-C ) :   1.4579 B( 40-C , 44-S ) :   1.0640
B( 41-C , 42-S ) :   1.0519 B( 42-S , 43-C ) :   0.9887 B( 43-C , 73-H ) :   0.9692
B( 43-C , 74-H ) :   0.9684 B( 43-C , 75-H ) :   0.9629 B( 44-S , 45-C ) :   1.0468
B( 45-C , 46-C ) :   1.5579 B( 45-C , 47-C ) :   0.9811 B( 46-C , 76-H ) :   0.9960
B( 47-C , 48-C ) :   2.3556 B( 48-C , 49-C ) :   0.9899 B( 49-C , 50-S ) :   1.1028
B( 49-C , 51-C ) :   0.1077 B( 49-C , 53-C ) :   1.4931 B( 50-S , 51-C ) :   1.1161
B( 51-C , 52-C ) :   1.5012 B( 51-C , 54-C ) :   0.9612 B( 52-C , 53-C ) :   1.2693
B( 52-C , 77-H ) :   1.0009 B( 53-C , 78-H ) :   1.0002 B( 54-C , 55-C ) :   2.2990
B( 55-C , 56-C ) :   1.0070 B( 56-C , 57-C ) :   1.7314 B( 56-C , 79-H ) :   0.9463
B( 57-C , 58-C ) :   1.0851 B( 57-C , 80-H ) :   0.9740 B( 58-C , 59-C ) :   1.3597
B( 58-C , 67-C ) :   1.3481 B( 59-C , 60-O ) :   1.1883 B( 59-C , 62-C ) :   1.3083
B( 60-O , 61-C ) :   0.9384 B( 61-C , 81-H ) :   0.9768 B( 61-C , 82-H ) :   0.9751
B( 61-C , 83-H ) :   0.9748 B( 62-C , 63-O ) :   1.1038 B( 62-C , 65-C ) :   1.3458
B( 63-O , 64-C ) :   0.9677 B( 64-C , 84-H ) :   0.9780 B( 64-C , 85-H ) :   0.9685
B( 64-C , 86-H ) :   0.9686 B( 65-C , 66-C ) :   1.3191 B( 65-C , 87-H ) :   0.9996
B( 66-C , 67-C ) :   1.3991 B( 66-C , 88-H ) :   0.9911 B( 67-C , 89-H ) :   0.9969

-----------------------------------------------------------------------------
         ABSORPTION SPECTRUM VIA TRANSITION ELECTRIC DIPOLE MOMENTS
-----------------------------------------------------------------------------
State   Energy  Wavelength   fosc         T2         TX        TY        TZ
        (cm-1)    (nm)                  (au**2)     (au)      (au)      (au)
-----------------------------------------------------------------------------
   0   18583.5    538.1   1.015297786  17.98624  -0.60452  -2.46150  -3.40027
   1   19634.2    509.3   0.025215717   0.42280   0.39579   0.28871  -0.42755
   2   21363.5    468.1   0.001984242   0.03058  -0.04803  -0.10261  -0.13320
   3   23064.9    433.6   1.121014140  16.00059  -0.52710  -3.16508  -2.38852
   4   25141.0    397.8   0.128558184   1.68342  -0.07304  -0.89182  -0.93954
   5   25822.7    387.3   0.225533217   2.87531   0.24846  -0.84348  -1.44987
   6   26631.7    375.5   0.115977025   1.43367   0.09345  -0.43420  -1.11194
   7   26759.5    373.7   0.145873107   1.79462  -0.31337   0.26520   1.27518
   8   27523.9    363.3   0.481431318   5.75838  -0.49470  -1.87926  -1.40784
   9   28412.0    352.0   0.017802484   0.20628  -0.01708  -0.32104  -0.32081
  10   29160.7    342.9   0.102677585   1.15918  -0.08323   0.91429  -0.56244
  11   29607.9    337.7   0.015201094   0.16902  -0.11236   0.02002   0.39496
  12   30363.1    329.3   0.193061094   2.09327   0.40960   1.37026   0.21881
  13   31582.9    316.6   0.002849670   0.02970  -0.13197   0.04578   0.10095
  14   31815.8    314.3   0.030357682   0.31412   0.05497   0.06498   0.55397
  15   32117.0    311.4   0.003572225   0.03662   0.02604   0.01639   0.18886
  16   32270.4    309.9   0.001306569   0.01333  -0.04404   0.04293   0.09771
  17   32629.9    306.5   0.010118881   0.10209   0.00349  -0.02975   0.31811
  18   32715.3    305.7   0.031631070   0.31830   0.40300   0.01121  -0.39467
  19   33473.4    298.7   0.018377165   0.18074  -0.22368  -0.31553   0.17649
  20   33820.0    295.7   0.038909041   0.37875   0.20462  -0.54835  -0.19025
  21   34139.9    292.9   0.004424770   0.04267  -0.04136  -0.11272  -0.16808
  22   34169.0    292.7   0.015289062   0.14731   0.07901   0.37021  -0.06333
  23   34576.9    289.2   0.046855599   0.44612  -0.13054  -0.65212   0.06176
  24   34879.5    286.7   0.142427149   1.34431  -0.50905  -0.57833   0.86644
  25   35142.5    284.6   0.134835853   1.26313   0.01266  -0.74481  -0.84156
  26   35901.5    278.5   0.056650422   0.51948   0.11348   0.44112   0.55858
  27   36211.2    276.2   0.001725851   0.01569   0.08966   0.06613   0.05726
  28   36320.7    275.3   0.046180709   0.41858   0.26488   0.55202   0.20903
  29   36753.0    272.1   0.089223176   0.79921  -0.34315  -0.17261   0.80725
  30   36940.2    270.7   0.021126892   0.18828   0.13244   0.33356  -0.24388
  31   37106.1    269.5   0.040475861   0.35911  -0.08556  -0.59048   0.05591
  32   37504.3    266.6   0.022310420   0.19584   0.12379   0.39462   0.15745
  33   37713.1    265.2   0.011621481   0.10145  -0.09422  -0.03749  -0.30194
  34   38100.3    262.5   0.092729603   0.80125   0.12436  -0.50526  -0.72835
  35   38215.8    261.7   0.107634044   0.92722   0.46773   0.82957  -0.14235
  36   38545.8    259.4   0.026545548   0.22672   0.40877   0.07816  -0.23134
  37   38853.3    257.4   0.020805394   0.17629  -0.06385  -0.28598  -0.30071
  38   39166.0    255.3   0.013017535   0.10942   0.17989   0.10414  -0.25732
  39   39384.0    253.9   0.040836508   0.34135   0.21339   0.54303   0.03064
  40   39402.2    253.8   0.055398475   0.46286   0.15885   0.49378   0.44024
  41   39562.8    252.8   0.044115187   0.36709  -0.37984  -0.27437   0.38411
  42   39835.0    251.0   0.023365470   0.19310  -0.05361  -0.10226  -0.42399
  43   39981.8    250.1   0.003513657   0.02893   0.13954   0.00355  -0.09719
  44   40209.5    248.7   0.010208986   0.08359   0.20122  -0.18188   0.10008

FINAL SINGLE POINT ENERGY     -5743.042313186165

DIPOLE MOMENT
-------------
                                X             Y             Z
Electronic contribution:     40.35234     178.68065     138.32687
Nuclear contribution   :    -39.56486    -181.15919    -139.77757
                        -----------------------------------------
Total Dipole Moment    :      0.78748      -2.47854      -1.45070
                        -----------------------------------------
Magnitude (a.u.)       :      2.97789
Magnitude (Debye)      :      7.56918

Rotational constants in cm-1:     0.002352     0.000179     0.000169
Rotational constants in MHz :    70.510040     5.353749     5.073123

                             ****ORCA TERMINATED NORMALLY****
TOTAL RUN TIME: 0 days 0 hours 7 minutes 57 seconds 50 msec
