                         Program Version 4.2.0 -  RELEASE  -
|  1> # ORCA input file
|  2> # SCF done       -217.775035101021          0.000480669236
|  3> ! CAM-B3LYP def2-SVP def2/J RIJCOSX Grid4 TightSCF
|  4> %maxcore 5000
|  5> %tddft
|  6>     Mode sTDDFT
|  7>     Ethresh 5.0
|  8>     maxcore 5000
|  9> end
| 10>
| 11> %pal
| 12>   nprocs 6
| 13>   end
| 14> * xyz 0 1
| 15>    C        4.54306         1.26238        -0.54590
| 16>    S        5.25429        -0.35895        -0.10917
| 17>    C        4.27863        -0.73698         1.32366
| 18>    C        4.41268        -0.02481         2.52468
| 19>    C        5.32219         1.01567         2.80512
| 20>    C        5.22561         1.48822         4.08460
| 21>    C        5.99850         2.54256         4.66488
| 22>    N        6.87125         3.18240         3.91388
| 23>    N        7.62224         4.16542         4.36701
| 24>    C        7.57004         4.59729         5.59175
| 25>    C        6.67018         4.00774         6.51365
| 26>    N        6.35864         4.19361         7.78290
| 27>    O        5.41488         3.30196         8.06308
| 28>    N        5.08776         2.53110         7.02850
| 29>    C        5.84624         2.93201         6.03025
| 30>    S        4.00634         0.66332         5.01439
| 31>    C        3.60180        -0.35193         3.65080
| 32>    C        2.66819        -1.37787         3.61058
| 33>    S        1.63130        -1.90674         4.93416
| 34>    C        1.28117        -0.41499         5.90905
| 35>    C        2.56874        -2.11614         2.41447
| 36>    C        1.70595        -3.19703         2.12935
| 37>    C        1.84794        -3.67942         0.85637
| 38>    C        1.14546        -4.71721         0.26640
| 39>    C        0.52806        -5.61403        -0.27207
| 40>    C       -0.18259        -6.63024        -0.88587
| 41>    C       -1.30509        -7.28137        -0.40390
| 42>    C       -1.79425        -8.24402        -1.27781
| 43>    C       -1.05115        -8.35096        -2.44196
| 44>    C       -1.27851        -9.20447        -3.49972
| 45>    C       -1.47009        -9.95334        -4.44153
| 46>    C       -1.72853       -10.80884        -5.49276
| 47>    C       -2.83958       -11.59337        -5.54317
| 48>    C       -3.14120       -12.46744        -6.60591
| 49>    S       -2.07812       -12.65893        -7.97520
| 50>    C       -3.14379       -13.81201        -8.72788
| 51>    C       -2.87913       -14.35741       -10.01132
| 52>    C       -1.67169       -14.63297       -10.56768
| 53>    C       -1.54451       -14.78496       -12.04523
| 54>    O       -2.43468       -14.88259       -12.85055
| 55>    C       -0.08580       -14.71356       -12.30744
| 56>    C        0.57283       -14.68657       -13.51565
| 57>    C        1.96976       -14.58042       -13.51206
| 58>    C        2.61103       -14.56368       -14.77376
| 59>    N        3.09133       -14.57335       -15.81563
| 60>    C        2.67631       -14.47679       -12.30082
| 61>    C        4.16628       -14.26716       -12.19710
| 62>    O        4.63414       -13.71571       -11.24116
| 63>    O        4.94395       -14.72613       -13.17724
| 64>    C        1.98956       -14.50556       -11.08712
| 65>    C        0.61281       -14.64316       -11.08667
| 66>    C       -0.34696       -14.75077        -9.98924
| 67>    C       -0.04989       -15.16386        -8.71970
| 68>    C       -1.02870       -15.52085        -7.76649
| 69>    N       -1.79037       -15.85689        -6.97700
| 70>    C        1.26341       -15.38274        -8.24861
| 71>    N        2.30682       -15.57393        -7.81352
| 72>    C       -4.27313       -14.02199        -7.94816
| 73>    C       -4.27418       -13.27620        -6.74384
| 74>    C       -5.35225       -13.34296        -5.76396
| 75>    O       -5.39543       -12.70777        -4.72915
| 76>    C       -6.44082       -14.27034        -6.15796
| 77>    C       -7.57666       -14.50645        -5.42053
| 78>    C       -7.96059       -13.90898        -4.10114
| 79>    F       -7.09268       -14.19201        -3.12809
| 80>    F       -8.09658       -12.58096        -4.15562
| 81>    F       -9.15089       -14.39075        -3.69633
| 82>    S       -8.64297       -15.62781        -6.16896
| 83>    C       -7.56351       -15.79454        -7.49300
| 84>    C       -7.92569       -16.70597        -8.62624
| 85>    F       -9.13927       -17.25071        -8.42330
| 86>    F       -7.99429       -16.06389        -9.79588
| 87>    F       -7.07545       -17.72405        -8.76637
| 88>    C       -6.43348       -15.02201        -7.36414
| 89>    C       -5.31662       -14.97423        -8.33195
| 90>    O       -5.27766       -15.65804        -9.33189
| 91>    S        0.28600        -7.22730        -2.45053
| 92>    S        3.06970        -2.81421        -0.06388
| 93>    C        3.37989        -1.78306         1.29842
| 94>    H        5.11284         1.61906        -1.39734
| 95>    H        4.63733         1.95298         0.28522
| 96>    H        3.50126         1.12929        -0.82224
| 97>    H        6.05121         1.39447         2.11239
| 98>    H        8.22780         5.40723         5.86312
| 99>    H        0.36834        -0.64133         6.45239
|100>    H        1.11781         0.42437         5.24218
|101>    H        2.08574        -0.20998         6.60793
|102>    H        1.00885        -3.60343         2.83932
|103>    H       -1.74097        -7.04697         0.55057
|104>    H       -2.65828        -8.85576        -1.08988
|105>    H       -1.00452       -10.82802        -6.30043
|106>    H       -3.55895       -11.56186        -4.73672
|107>    H       -3.74707       -14.53272       -10.64170
|108>    H        0.02701       -14.74508       -14.44525
|109>    H        4.48105       -15.11385       -13.93456
|110>    H        2.56194       -14.40173       -10.17822
|111> *
|112>
|113>                          ****END OF INPUT****

CARTESIAN COORDINATES (ANGSTROEM)
---------------------------------
  C      4.543060    1.262380   -0.545900
  S      5.254290   -0.358950   -0.109170
  C      4.278630   -0.736980    1.323660
  C      4.412680   -0.024810    2.524680
  C      5.322190    1.015670    2.805120
  C      5.225610    1.488220    4.084600
  C      5.998500    2.542560    4.664880
  N      6.871250    3.182400    3.913880
  N      7.622240    4.165420    4.367010
  C      7.570040    4.597290    5.591750
  C      6.670180    4.007740    6.513650
  N      6.358640    4.193610    7.782900
  O      5.414880    3.301960    8.063080
  N      5.087760    2.531100    7.028500
  C      5.846240    2.932010    6.030250
  S      4.006340    0.663320    5.014390
  C      3.601800   -0.351930    3.650800
  C      2.668190   -1.377870    3.610580
  S      1.631300   -1.906740    4.934160
  C      1.281170   -0.414990    5.909050
  C      2.568740   -2.116140    2.414470
  C      1.705950   -3.197030    2.129350
  C      1.847940   -3.679420    0.856370
  C      1.145460   -4.717210    0.266400
  C      0.528060   -5.614030   -0.272070
  C     -0.182590   -6.630240   -0.885870
  C     -1.305090   -7.281370   -0.403900
  C     -1.794250   -8.244020   -1.277810
  C     -1.051150   -8.350960   -2.441960
  C     -1.278510   -9.204470   -3.499720
  C     -1.470090   -9.953340   -4.441530
  C     -1.728530  -10.808840   -5.492760
  C     -2.839580  -11.593370   -5.543170
  C     -3.141200  -12.467440   -6.605910
  S     -2.078120  -12.658930   -7.975200
  C     -3.143790  -13.812010   -8.727880
  C     -2.879130  -14.357410  -10.011320
  C     -1.671690  -14.632970  -10.567680
  C     -1.544510  -14.784960  -12.045230
  O     -2.434680  -14.882590  -12.850550
  C     -0.085800  -14.713560  -12.307440
  C      0.572830  -14.686570  -13.515650
  C      1.969760  -14.580420  -13.512060
  C      2.611030  -14.563680  -14.773760
  N      3.091330  -14.573350  -15.815630
  C      2.676310  -14.476790  -12.300820
  C      4.166280  -14.267160  -12.197100
  O      4.634140  -13.715710  -11.241160
  O      4.943950  -14.726130  -13.177240
  C      1.989560  -14.505560  -11.087120
  C      0.612810  -14.643160  -11.086670
  C     -0.346960  -14.750770   -9.989240
  C     -0.049890  -15.163860   -8.719700
  C     -1.028700  -15.520850   -7.766490
  N     -1.790370  -15.856890   -6.977000
  C      1.263410  -15.382740   -8.248610
  N      2.306820  -15.573930   -7.813520
  C     -4.273130  -14.021990   -7.948160
  C     -4.274180  -13.276200   -6.743840
  C     -5.352250  -13.342960   -5.763960
  O     -5.395430  -12.707770   -4.729150
  C     -6.440820  -14.270340   -6.157960
  C     -7.576660  -14.506450   -5.420530
  C     -7.960590  -13.908980   -4.101140
  F     -7.092680  -14.192010   -3.128090
  F     -8.096580  -12.580960   -4.155620
  F     -9.150890  -14.390750   -3.696330
  S     -8.642970  -15.627810   -6.168960
  C     -7.563510  -15.794540   -7.493000
  C     -7.925690  -16.705970   -8.626240
  F     -9.139270  -17.250710   -8.423300
  F     -7.994290  -16.063890   -9.795880
  F     -7.075450  -17.724050   -8.766370
  C     -6.433480  -15.022010   -7.364140
  C     -5.316620  -14.974230   -8.331950
  O     -5.277660  -15.658040   -9.331890
  S      0.286000   -7.227300   -2.450530
  S      3.069700   -2.814210   -0.063880
  C      3.379890   -1.783060    1.298420
  H      5.112840    1.619060   -1.397340
  H      4.637330    1.952980    0.285220
  H      3.501260    1.129290   -0.822240
  H      6.051210    1.394470    2.112390
  H      8.227800    5.407230    5.863120
  H      0.368340   -0.641330    6.452390
  H      1.117810    0.424370    5.242180
  H      2.085740   -0.209980    6.607930
  H      1.008850   -3.603430    2.839320
  H     -1.740970   -7.046970    0.550570
  H     -2.658280   -8.855760   -1.089880
  H     -1.004520  -10.828020   -6.300430
  H     -3.558950  -11.561860   -4.736720
  H     -3.747070  -14.532720  -10.641700
  H      0.027010  -14.745080  -14.445250
  H      4.481050  -15.113850  -13.934560
  H      2.561940  -14.401730  -10.178220

 Total Charge           Charge          ....    0
 Multiplicity           Mult            ....    1
 Number of Electrons    NEL             ....  598
 Basis Dimension        Dim             .... 1219

ORBITAL ENERGIES
----------------

  NO   OCC          E(Eh)            E(eV)
   0   2.0000     -89.018252     -2422.3098
   1   2.0000     -88.999649     -2421.8036
   2   2.0000     -88.975918     -2421.1578
   3   2.0000     -88.963613     -2420.8230
   4   2.0000     -88.958527     -2420.6846
   5   2.0000     -88.935275     -2420.0519
   6   2.0000     -88.927189     -2419.8318
   7   2.0000     -24.813524      -675.2103
   8   2.0000     -24.812569      -675.1843
   9   2.0000     -24.806061      -675.0072
  10   2.0000     -24.805562      -674.9936
  11   2.0000     -24.804725      -674.9709
  12   2.0000     -24.804546      -674.9660
  13   2.0000     -19.384105      -527.4683
  14   2.0000     -19.277118      -524.5571
  15   2.0000     -19.241536      -523.5888
  16   2.0000     -19.240832      -523.5697
  17   2.0000     -19.232720      -523.3489
  18   2.0000     -19.218137      -522.9521
  19   2.0000     -14.510071      -394.8391
  20   2.0000     -14.507489      -394.7689
  21   2.0000     -14.457809      -393.4170
  22   2.0000     -14.453957      -393.3122
  23   2.0000     -14.449719      -393.1968
  24   2.0000     -14.436241      -392.8301
  25   2.0000     -14.435148      -392.8003
  26   2.0000     -10.538832      -286.7762
  27   2.0000     -10.537888      -286.7505
  28   2.0000     -10.426553      -283.7209
  29   2.0000     -10.397808      -282.9387
  30   2.0000     -10.393182      -282.8129
  31   2.0000     -10.392572      -282.7962
  32   2.0000     -10.371622      -282.2262
  33   2.0000     -10.365485      -282.0592
  34   2.0000     -10.363976      -282.0181
  35   2.0000     -10.361399      -281.9480
  36   2.0000     -10.354747      -281.7670
  37   2.0000     -10.353410      -281.7306
  38   2.0000     -10.352654      -281.7100
  39   2.0000     -10.350815      -281.6600
  40   2.0000     -10.349611      -281.6272
  41   2.0000     -10.349223      -281.6167
  42   2.0000     -10.346501      -281.5426
  43   2.0000     -10.345626      -281.5188
  44   2.0000     -10.342439      -281.4321
  45   2.0000     -10.342235      -281.4265
  46   2.0000     -10.340730      -281.3856
  47   2.0000     -10.338558      -281.3265
  48   2.0000     -10.337027      -281.2848
  49   2.0000     -10.335475      -281.2426
  50   2.0000     -10.332630      -281.1651
  51   2.0000     -10.329271      -281.0738
  52   2.0000     -10.328963      -281.0654
  53   2.0000     -10.328345      -281.0486
  54   2.0000     -10.327818      -281.0342
  55   2.0000     -10.327647      -281.0296
  56   2.0000     -10.325711      -280.9769
  57   2.0000     -10.324609      -280.9469
  58   2.0000     -10.323816      -280.9253
  59   2.0000     -10.323197      -280.9085
  60   2.0000     -10.320373      -280.8316
  61   2.0000     -10.318744      -280.7873
  62   2.0000     -10.316532      -280.7271
  63   2.0000     -10.315692      -280.7042
  64   2.0000     -10.312600      -280.6201
  65   2.0000     -10.309004      -280.5223
  66   2.0000     -10.303893      -280.3832
  67   2.0000     -10.300283      -280.2850
  68   2.0000     -10.299744      -280.2703
  69   2.0000     -10.297371      -280.2057
  70   2.0000     -10.296512      -280.1823
  71   2.0000     -10.296297      -280.1765
  72   2.0000     -10.294443      -280.1260
  73   2.0000     -10.293481      -280.0999
  74   2.0000     -10.293315      -280.0953
  75   2.0000     -10.293229      -280.0930
  76   2.0000     -10.292171      -280.0642
  77   2.0000     -10.291525      -280.0466
  78   2.0000     -10.287315      -279.9321
  79   2.0000      -8.113106      -220.7688
  80   2.0000      -8.094561      -220.2642
  81   2.0000      -8.071323      -219.6319
  82   2.0000      -8.058510      -219.2832
  83   2.0000      -8.054019      -219.1610
  84   2.0000      -8.030635      -218.5247
  85   2.0000      -8.021993      -218.2895
  86   2.0000      -6.082205      -165.5052
  87   2.0000      -6.077715      -165.3830
  88   2.0000      -6.075879      -165.3331
  89   2.0000      -6.063727      -165.0024
  90   2.0000      -6.059665      -164.8919
  91   2.0000      -6.056839      -164.8150
  92   2.0000      -6.040687      -164.3755
  93   2.0000      -6.036427      -164.2595
  94   2.0000      -6.033359      -164.1761
  95   2.0000      -6.028230      -164.0365
  96   2.0000      -6.023924      -163.9193
  97   2.0000      -6.023788      -163.9156
  98   2.0000      -6.019810      -163.8074
  99   2.0000      -6.019519      -163.7994
 100   2.0000      -6.015132      -163.6801
 101   2.0000      -6.001181      -163.3004
 102   2.0000      -5.996871      -163.1832
 103   2.0000      -5.992622      -163.0675
 104   2.0000      -5.990269      -163.0035
 105   2.0000      -5.988625      -162.9588
 106   2.0000      -5.981327      -162.7602
 107   2.0000      -1.401365       -38.1331
 108   2.0000      -1.400204       -38.1015
 109   2.0000      -1.336941       -36.3800
 110   2.0000      -1.303332       -35.4655
 111   2.0000      -1.302115       -35.4324
 112   2.0000      -1.300996       -35.4019
 113   2.0000      -1.299730       -35.3675
 114   2.0000      -1.203426       -32.7469
 115   2.0000      -1.160138       -31.5690
 116   2.0000      -1.157851       -31.5067
 117   2.0000      -1.151864       -31.3438
 118   2.0000      -1.134948       -30.8835
 119   2.0000      -1.117511       -30.4090
 120   2.0000      -1.046832       -28.4857
 121   2.0000      -1.041494       -28.3405
 122   2.0000      -1.040034       -28.3008
 123   2.0000      -1.037363       -28.2281
 124   2.0000      -1.027460       -27.9586
 125   2.0000      -1.021924       -27.8080
 126   2.0000      -1.016523       -27.6610
 127   2.0000      -1.012526       -27.5522
 128   2.0000      -1.002193       -27.2711
 129   2.0000      -0.998319       -27.1657
 130   2.0000      -0.989272       -26.9195
 131   2.0000      -0.986324       -26.8392
 132   2.0000      -0.956902       -26.0386
 133   2.0000      -0.943653       -25.6781
 134   2.0000      -0.936142       -25.4737
 135   2.0000      -0.929552       -25.2944
 136   2.0000      -0.928212       -25.2579
 137   2.0000      -0.925046       -25.1718
 138   2.0000      -0.913729       -24.8638
 139   2.0000      -0.911273       -24.7970
 140   2.0000      -0.904409       -24.6102
 141   2.0000      -0.897238       -24.4151
 142   2.0000      -0.879549       -23.9337
 143   2.0000      -0.873707       -23.7748
 144   2.0000      -0.872667       -23.7465
 145   2.0000      -0.861171       -23.4337
 146   2.0000      -0.850414       -23.1409
 147   2.0000      -0.849162       -23.1069
 148   2.0000      -0.845446       -23.0057
 149   2.0000      -0.839641       -22.8478
 150   2.0000      -0.831512       -22.6266
 151   2.0000      -0.826599       -22.4929
 152   2.0000      -0.822078       -22.3699
 153   2.0000      -0.810049       -22.0426
 154   2.0000      -0.806636       -21.9497
 155   2.0000      -0.798760       -21.7354
 156   2.0000      -0.792364       -21.5613
 157   2.0000      -0.788733       -21.4625
 158   2.0000      -0.771506       -20.9937
 159   2.0000      -0.763947       -20.7881
 160   2.0000      -0.759969       -20.6798
 161   2.0000      -0.758240       -20.6328
 162   2.0000      -0.749704       -20.4005
 163   2.0000      -0.744359       -20.2550
 164   2.0000      -0.731650       -19.9092
 165   2.0000      -0.725523       -19.7425
 166   2.0000      -0.723662       -19.6918
 167   2.0000      -0.719362       -19.5748
 168   2.0000      -0.713211       -19.4074
 169   2.0000      -0.710480       -19.3331
 170   2.0000      -0.701355       -19.0849
 171   2.0000      -0.697670       -18.9846
 172   2.0000      -0.686204       -18.6726
 173   2.0000      -0.684366       -18.6225
 174   2.0000      -0.682906       -18.5828
 175   2.0000      -0.682163       -18.5626
 176   2.0000      -0.681622       -18.5479
 177   2.0000      -0.677002       -18.4222
 178   2.0000      -0.676090       -18.3973
 179   2.0000      -0.668770       -18.1982
 180   2.0000      -0.660466       -17.9722
 181   2.0000      -0.657946       -17.9036
 182   2.0000      -0.652048       -17.7431
 183   2.0000      -0.648460       -17.6455
 184   2.0000      -0.642099       -17.4724
 185   2.0000      -0.641058       -17.4441
 186   2.0000      -0.638284       -17.3686
 187   2.0000      -0.633593       -17.2410
 188   2.0000      -0.628621       -17.1057
 189   2.0000      -0.625578       -17.0228
 190   2.0000      -0.621941       -16.9239
 191   2.0000      -0.614499       -16.7214
 192   2.0000      -0.611865       -16.6497
 193   2.0000      -0.605411       -16.4741
 194   2.0000      -0.598941       -16.2980
 195   2.0000      -0.586394       -15.9566
 196   2.0000      -0.581470       -15.8226
 197   2.0000      -0.571993       -15.5647
 198   2.0000      -0.569043       -15.4844
 199   2.0000      -0.566570       -15.4172
 200   2.0000      -0.565902       -15.3990
 201   2.0000      -0.564896       -15.3716
 202   2.0000      -0.560062       -15.2401
 203   2.0000      -0.558913       -15.2088
 204   2.0000      -0.556820       -15.1518
 205   2.0000      -0.555124       -15.1057
 206   2.0000      -0.554895       -15.0995
 207   2.0000      -0.553429       -15.0596
 208   2.0000      -0.552622       -15.0376
 209   2.0000      -0.550636       -14.9836
 210   2.0000      -0.545732       -14.8501
 211   2.0000      -0.544564       -14.8183
 212   2.0000      -0.542639       -14.7660
 213   2.0000      -0.541437       -14.7333
 214   2.0000      -0.537620       -14.6294
 215   2.0000      -0.535704       -14.5773
 216   2.0000      -0.533432       -14.5154
 217   2.0000      -0.531044       -14.4504
 218   2.0000      -0.530945       -14.4477
 219   2.0000      -0.527484       -14.3536
 220   2.0000      -0.524559       -14.2740
 221   2.0000      -0.523654       -14.2494
 222   2.0000      -0.521589       -14.1932
 223   2.0000      -0.520620       -14.1668
 224   2.0000      -0.518868       -14.1191
 225   2.0000      -0.517243       -14.0749
 226   2.0000      -0.516696       -14.0600
 227   2.0000      -0.514956       -14.0127
 228   2.0000      -0.512203       -13.9378
 229   2.0000      -0.511453       -13.9174
 230   2.0000      -0.509925       -13.8758
 231   2.0000      -0.508556       -13.8385
 232   2.0000      -0.506900       -13.7935
 233   2.0000      -0.504406       -13.7256
 234   2.0000      -0.501304       -13.6412
 235   2.0000      -0.500239       -13.6122
 236   2.0000      -0.496891       -13.5211
 237   2.0000      -0.493895       -13.4396
 238   2.0000      -0.492549       -13.4029
 239   2.0000      -0.490877       -13.3574
 240   2.0000      -0.489642       -13.3238
 241   2.0000      -0.484652       -13.1881
 242   2.0000      -0.482599       -13.1322
 243   2.0000      -0.482370       -13.1260
 244   2.0000      -0.481687       -13.1074
 245   2.0000      -0.479859       -13.0576
 246   2.0000      -0.478762       -13.0278
 247   2.0000      -0.478006       -13.0072
 248   2.0000      -0.476627       -12.9697
 249   2.0000      -0.474783       -12.9195
 250   2.0000      -0.472379       -12.8541
 251   2.0000      -0.467910       -12.7325
 252   2.0000      -0.467171       -12.7124
 253   2.0000      -0.461910       -12.5692
 254   2.0000      -0.458953       -12.4888
 255   2.0000      -0.457295       -12.4436
 256   2.0000      -0.454408       -12.3651
 257   2.0000      -0.448401       -12.2016
 258   2.0000      -0.447242       -12.1701
 259   2.0000      -0.445207       -12.1147
 260   2.0000      -0.444322       -12.0906
 261   2.0000      -0.443477       -12.0676
 262   2.0000      -0.441495       -12.0137
 263   2.0000      -0.434698       -11.8287
 264   2.0000      -0.431531       -11.7426
 265   2.0000      -0.429193       -11.6789
 266   2.0000      -0.427852       -11.6424
 267   2.0000      -0.421338       -11.4652
 268   2.0000      -0.418101       -11.3771
 269   2.0000      -0.415909       -11.3175
 270   2.0000      -0.412395       -11.2218
 271   2.0000      -0.409954       -11.1554
 272   2.0000      -0.408169       -11.1068
 273   2.0000      -0.402774       -10.9600
 274   2.0000      -0.390031       -10.6133
 275   2.0000      -0.387423       -10.5423
 276   2.0000      -0.382996       -10.4219
 277   2.0000      -0.378318       -10.2946
 278   2.0000      -0.373632       -10.1671
 279   2.0000      -0.368677       -10.0322
 280   2.0000      -0.366508        -9.9732
 281   2.0000      -0.365745        -9.9524
 282   2.0000      -0.364436        -9.9168
 283   2.0000      -0.363930        -9.9030
 284   2.0000      -0.360128        -9.7996
 285   2.0000      -0.358310        -9.7501
 286   2.0000      -0.357684        -9.7331
 287   2.0000      -0.356428        -9.6989
 288   2.0000      -0.354333        -9.6419
 289   2.0000      -0.341504        -9.2928
 290   2.0000      -0.340936        -9.2773
 291   2.0000      -0.329984        -8.9793
 292   2.0000      -0.319453        -8.6928
 293   2.0000      -0.317465        -8.6387
 294   2.0000      -0.311041        -8.4639
 295   2.0000      -0.304997        -8.2994
 296   2.0000      -0.293101        -7.9757
 297   2.0000      -0.267119        -7.2687
 298   2.0000      -0.247951        -6.7471
 299   0.0000      -0.123467        -3.3597
 300   0.0000      -0.100522        -2.7353
 301   0.0000      -0.097763        -2.6603
 302   0.0000      -0.092785        -2.5248
 303   0.0000      -0.066625        -1.8130

MULLIKEN ATOMIC CHARGES
-----------------------
   0 C :   -0.073381
   1 S :   -0.024661
   2 C :   -0.152726
   3 C :    0.134632
   4 C :   -0.066658
   5 C :   -0.064548
   6 C :    0.032912
   7 N :   -0.049912
   8 N :   -0.033233
   9 C :   -0.010945
  10 C :   -0.005012
  11 N :    0.077290
  12 O :   -0.084909
  13 N :    0.058681
  14 C :   -0.060557
  15 S :    0.109942
  16 C :   -0.069796
  17 C :   -0.071419
  18 S :   -0.022093
  19 C :   -0.097951
  20 C :    0.053912
  21 C :   -0.005120
  22 C :   -0.126421
  23 C :    0.020116
  24 C :    0.024699
  25 C :   -0.154510
  26 C :    0.050376
  27 C :    0.061149
  28 C :   -0.164963
  29 C :    0.093875
  30 C :   -0.017101
  31 C :   -0.059559
  32 C :   -0.004828
  33 C :   -0.112232
  34 S :    0.175662
  35 C :   -0.221224
  36 C :    0.068534
  37 C :   -0.133563
  38 C :    0.150305
  39 O :   -0.111262
  40 C :    0.008507
  41 C :   -0.029235
  42 C :   -0.043688
  43 C :   -0.226935
  44 N :    0.136030
  45 C :   -0.000569
  46 C :    0.173994
  47 O :   -0.156528
  48 O :   -0.130575
  49 C :   -0.066389
  50 C :    0.050885
  51 C :    0.253739
  52 C :   -0.305534
  53 C :   -0.189927
  54 N :    0.182829
  55 C :   -0.185156
  56 N :    0.185420
  57 C :    0.106751
  58 C :    0.054239
  59 C :    0.127692
  60 O :   -0.146791
  61 C :    0.061623
  62 C :   -0.344416
  63 C :    0.569057
  64 F :   -0.142292
  65 F :   -0.145455
  66 F :   -0.166175
  67 S :    0.289819
  68 C :   -0.340764
  69 C :    0.570337
  70 F :   -0.164970
  71 F :   -0.145878
  72 F :   -0.139977
  73 C :    0.053741
  74 C :    0.129455
  75 O :   -0.132855
  76 S :    0.205689
  77 S :    0.173206
  78 C :   -0.070643
  79 H :    0.062334
  80 H :    0.059973
  81 H :    0.063095
  82 H :    0.015117
  83 H :    0.016894
  84 H :    0.067711
  85 H :    0.071280
  86 H :    0.088257
  87 H :    0.000203
  88 H :   -0.001139
  89 H :    0.004289
  90 H :    0.037364
  91 H :    0.044330
  92 H :    0.059842
  93 H :    0.020701
  94 H :    0.183710
  95 H :    0.034282
Sum of atomic charges:   -0.0000000

LOEWDIN ATOMIC CHARGES
----------------------
   0 C :   -0.146316
   1 S :    0.262370
   2 C :   -0.184242
   3 C :   -0.055219
   4 C :   -0.005318
   5 C :   -0.179532
   6 C :   -0.004906
   7 N :   -0.052495
   8 N :   -0.026598
   9 C :    0.010474
  10 C :   -0.074352
  11 N :   -0.002899
  12 O :    0.092408
  13 N :   -0.014702
  14 C :   -0.074016
  15 S :    0.438732
  16 C :   -0.172705
  17 C :   -0.169027
  18 S :    0.295094
  19 C :   -0.164959
  20 C :   -0.062259
  21 C :   -0.034284
  22 C :   -0.169984
  23 C :   -0.033382
  24 C :   -0.044933
  25 C :   -0.176191
  26 C :   -0.034850
  27 C :   -0.019344
  28 C :   -0.192142
  29 C :   -0.024728
  30 C :   -0.029526
  31 C :   -0.006501
  32 C :   -0.030289
  33 C :   -0.097936
  34 S :    0.490376
  35 C :   -0.148621
  36 C :    0.063716
  37 C :   -0.088778
  38 C :    0.084473
  39 O :   -0.113987
  40 C :   -0.034711
  41 C :    0.050170
  42 C :   -0.054461
  43 C :   -0.043240
  44 N :   -0.025271
  45 C :   -0.030436
  46 C :    0.081652
  47 O :   -0.135549
  48 O :   -0.006771
  49 C :    0.036084
  50 C :    0.005120
  51 C :    0.052502
  52 C :   -0.116300
  53 C :   -0.028802
  54 N :   -0.032270
  55 C :   -0.025734
  56 N :   -0.022430
  57 C :   -0.054523
  58 C :   -0.091432
  59 C :    0.081871
  60 O :   -0.129668
  61 C :   -0.062646
  62 C :   -0.204847
  63 C :    0.144352
  64 F :   -0.041671
  65 F :   -0.044798
  66 F :   -0.067566
  67 S :    0.567134
  68 C :   -0.203128
  69 C :    0.144209
  70 F :   -0.066037
  71 F :   -0.044721
  72 F :   -0.040297
  73 C :   -0.068430
  74 C :    0.083942
  75 O :   -0.115400
  76 S :    0.477947
  77 S :    0.429169
  78 C :   -0.163914
  79 H :    0.031994
  80 H :    0.023162
  81 H :    0.026536
  82 H :    0.039586
  83 H :    0.038209
  84 H :    0.035933
  85 H :    0.028856
  86 H :    0.020217
  87 H :    0.032317
  88 H :    0.038745
  89 H :    0.040655
  90 H :    0.038912
  91 H :    0.048754
  92 H :    0.059738
  93 H :    0.053882
  94 H :    0.089042
  95 H :    0.051742

  Mayer bond orders larger than 0.100000
B(  0-C ,  1-S ) :   0.9937 B(  0-C , 79-H ) :   0.9715 B(  0-C , 80-H ) :   0.9725
B(  0-C , 81-H ) :   0.9719 B(  1-S ,  2-C ) :   1.0544 B(  2-C ,  3-C ) :   1.3301
B(  2-C , 78-C ) :   1.4571 B(  3-C ,  4-C ) :   1.1489 B(  3-C , 16-C ) :   1.2977
B(  4-C ,  5-C ) :   1.5394 B(  4-C , 82-H ) :   1.0023 B(  5-C ,  6-C ) :   1.1365
B(  5-C , 15-S ) :   1.0779 B(  6-C ,  7-N ) :   1.7825 B(  6-C ,  9-C ) :   0.1018
B(  6-C , 14-C ) :   1.0447 B(  7-N ,  8-N ) :   1.1633 B(  8-N ,  9-C ) :   1.7641
B(  9-C , 10-C ) :   1.0870 B(  9-C , 83-H ) :   1.0176 B( 10-C , 11-N ) :   1.5963
B( 10-C , 14-C ) :   1.1835 B( 11-N , 12-O ) :   1.0848 B( 11-N , 13-N ) :   0.1869
B( 12-O , 13-N ) :   1.0725 B( 13-N , 14-C ) :   1.5945 B( 15-S , 16-C ) :   1.0289
B( 16-C , 17-C ) :   1.4200 B( 17-C , 18-S ) :   1.0381 B( 17-C , 20-C ) :   1.3631
B( 18-S , 19-C ) :   0.9970 B( 19-C , 84-H ) :   0.9678 B( 19-C , 85-H ) :   0.9708
B( 19-C , 86-H ) :   0.9609 B( 20-C , 21-C ) :   1.1894 B( 20-C , 78-C ) :   1.2953
B( 21-C , 22-C ) :   1.5646 B( 21-C , 87-H ) :   0.9951 B( 22-C , 23-C ) :   0.9773
B( 22-C , 77-S ) :   1.0431 B( 23-C , 24-C ) :   2.3529 B( 24-C , 25-C ) :   0.9797
B( 25-C , 26-C ) :   1.4774 B( 25-C , 28-C ) :   0.1065 B( 25-C , 76-S ) :   1.1260
B( 26-C , 27-C ) :   1.2897 B( 26-C , 88-H ) :   1.0017 B( 27-C , 28-C ) :   1.4690
B( 27-C , 89-H ) :   1.0009 B( 28-C , 29-C ) :   0.9963 B( 28-C , 76-S ) :   1.1025
B( 29-C , 30-C ) :   2.2288 B( 30-C , 31-C ) :   1.0575 B( 31-C , 32-C ) :   1.6079
B( 31-C , 90-H ) :   0.9438 B( 32-C , 33-C ) :   1.2078 B( 32-C , 91-H ) :   0.9564
B( 33-C , 34-S ) :   1.1346 B( 33-C , 58-C ) :   1.4286 B( 34-S , 35-C ) :   1.1307
B( 35-C , 36-C ) :   1.0963 B( 35-C , 57-C ) :   1.4774 B( 36-C , 37-C ) :   1.6714
B( 36-C , 92-H ) :   0.9297 B( 37-C , 38-C ) :   0.9346 B( 37-C , 51-C ) :   1.0270
B( 38-C , 39-O ) :   2.2987 B( 38-C , 40-C ) :   0.8980 B( 40-C , 41-C ) :   1.3780
B( 40-C , 50-C ) :   1.3289 B( 41-C , 42-C ) :   1.3589 B( 41-C , 93-H ) :   1.0125
B( 42-C , 43-C ) :   1.0596 B( 42-C , 45-C ) :   1.3493 B( 43-C , 44-N ) :   2.9947
B( 45-C , 46-C ) :   0.8596 B( 45-C , 49-C ) :   1.3793 B( 46-C , 47-O ) :   2.1766
B( 46-C , 48-O ) :   1.2750 B( 48-O , 94-H ) :   0.9382 B( 49-C , 50-C ) :   1.3290
B( 49-C , 95-H ) :   0.9914 B( 50-C , 51-C ) :   0.9919 B( 51-C , 52-C ) :   1.6851
B( 52-C , 53-C ) :   1.1592 B( 52-C , 55-C ) :   1.1277 B( 53-C , 54-N ) :   3.0094
B( 55-C , 56-N ) :   2.9994 B( 57-C , 58-C ) :   1.2138 B( 57-C , 74-C ) :   0.9641
B( 58-C , 59-C ) :   0.9852 B( 59-C , 60-O ) :   2.1570 B( 59-C , 61-C ) :   0.9469
B( 61-C , 62-C ) :   1.5834 B( 61-C , 73-C ) :   1.2270 B( 62-C , 63-C ) :   0.9285
B( 62-C , 67-S ) :   1.1902 B( 63-C , 64-F ) :   1.1888 B( 63-C , 65-F ) :   1.1852
B( 63-C , 66-F ) :   1.1500 B( 67-S , 68-C ) :   1.1965 B( 68-C , 69-C ) :   0.9278
B( 68-C , 73-C ) :   1.5760 B( 69-C , 70-F ) :   1.1503 B( 69-C , 71-F ) :   1.1840
B( 69-C , 72-F ) :   1.1898 B( 73-C , 74-C ) :   0.9464 B( 74-C , 75-O ) :   2.1809
B( 77-S , 78-C ) :   1.0662

-----------------------------------------------------------------------------
         ABSORPTION SPECTRUM VIA TRANSITION ELECTRIC DIPOLE MOMENTS
-----------------------------------------------------------------------------
State   Energy  Wavelength   fosc         T2         TX        TY        TZ
        (cm-1)    (nm)                  (au**2)     (au)      (au)      (au)
-----------------------------------------------------------------------------
   0   15486.5    645.7   0.946857782  20.12830  -0.30840  -3.12004  -3.20913
   1   18179.2    550.1   0.583488028  10.56653   1.58401   2.09067   1.92004
   2   20536.1    486.9   0.900441917  14.43489   2.35373   2.47925   1.65775
   3   20974.9    476.8   0.001683432   0.02642  -0.09348  -0.11596  -0.06509
   4   21865.8    457.3   0.134315376   2.02226   0.08104   1.13729   0.84986
   5   22695.0    440.6   0.037717187   0.54712  -0.41492  -0.10863   0.60263
   6   24244.0    412.5   0.388581317   5.27658  -1.58441  -1.58052  -0.51786
   7   25479.7    392.5   0.096317357   1.24447  -0.68653   0.69300   0.54119
   8   26299.3    380.2   0.041512823   0.51965   0.48717   0.01116   0.53122
   9   27454.3    364.2   0.013644237   0.16361  -0.32111   0.24488   0.02313
  10   27885.3    358.6   0.026028527   0.30729  -0.17828  -0.17739  -0.49400
  11   27974.1    357.5   0.005398324   0.06353   0.16139   0.16336   0.10391
  12   28304.0    353.3   0.104113587   1.21098  -0.07383   0.33367   1.04604
  13   28715.2    348.2   0.026450074   0.30324   0.40344   0.05946  -0.37006
  14   29076.8    343.9   0.034717395   0.39308  -0.08154   0.42798   0.45084
  15   29790.1    335.7   0.279277001   3.08631   0.54129   1.47095   0.79349
  16   29892.4    334.5   0.007196552   0.07926  -0.16460  -0.18739  -0.13058
  17   30010.4    333.2   0.257679867   2.82673  -0.85487  -0.90281  -1.13175
  18   30701.6    325.7   0.045114441   0.48376  -0.02017  -0.07846  -0.69079
  19   31054.0    322.0   0.038391968   0.40700  -0.27821  -0.02822  -0.57341
  20   31286.9    319.6   0.019502572   0.20521   0.06543   0.03168  -0.44713
  21   31735.8    315.1   0.014554511   0.15098  -0.25389  -0.27344  -0.10840
  22   32142.5    311.1   0.021496367   0.22017  -0.23206  -0.14511   0.38114
  23   32583.8    306.9   0.098381617   0.99400  -0.88189  -0.44852  -0.12291
  24   32643.9    306.3   0.185599793   1.87176   0.77291   0.09129  -1.12518
  25   32988.0    303.1   0.048902582   0.48804   0.08127  -0.12855  -0.68184
  26   33189.7    301.3   0.003075658   0.03051  -0.11258  -0.02526   0.13113
  27   33983.3    294.3   0.148042120   1.43415   0.95982   0.54066  -0.46967
  28   34114.8    293.1   0.070306662   0.67847  -0.36337  -0.16231   0.72117
  29   34275.9    291.7   0.008616436   0.08276   0.24292   0.10827  -0.10966
  30   34466.9    290.1   0.015456608   0.14763   0.32085   0.18846   0.09578
  31   34958.7    286.1   0.002318351   0.02183   0.07925   0.10093   0.07324
  32   35078.9    285.1   0.098636435   0.92569   0.82749   0.24297  -0.42653
  33   35188.3    284.2   0.005244888   0.04907   0.20440  -0.05399  -0.06614
  34   35463.4    282.0   0.030463085   0.28279   0.26435  -0.35923  -0.28960
  35   35751.5    279.7   0.115149663   1.06034   0.32338  -0.00453   0.97762
  36   35925.7    278.4   0.026381813   0.24175   0.35547   0.13819  -0.31033
  37   35950.2    278.2   0.112340012   1.02875  -0.44630  -0.20766   0.88681
  38   36467.0    274.2   0.369476842   3.33552   0.98775   0.03342  -1.53582
  39   36697.6    272.5   0.037427265   0.33576   0.43338   0.35049  -0.15840
  40   36995.9    270.3   0.038585744   0.34336   0.17718   0.00076  -0.55854
  41   37095.8    269.6   0.028281507   0.25099  -0.26375  -0.16945   0.39079
  42   37221.3    268.7   0.078061884   0.69044  -0.73834  -0.20067   0.32407
  43   37446.3    267.0   0.030724809   0.27012   0.49761   0.14995  -0.00393
  44   37987.8    263.2   0.019718466   0.17089  -0.09944   0.31475   0.24886
  45   38034.5    262.9   0.000315028   0.00273  -0.03680  -0.03399  -0.01475
  46   38141.7    262.2   0.010307737   0.08897   0.00250  -0.22890  -0.19123
  47   38523.6    259.6   0.059385810   0.50749  -0.24108  -0.08782   0.66458
  48   38735.3    258.2   0.068734390   0.58418   0.70607   0.08529  -0.27994
  49   38833.2    257.5   0.062056406   0.52609  -0.49156  -0.48154   0.22929
  50   38965.5    256.6   0.133770481   1.13020   0.62566   0.67139  -0.53664
  51   39169.1    255.3   0.038877756   0.32676  -0.54018  -0.03231   0.18420
  52   39299.1    254.5   0.006256426   0.05241  -0.01079   0.03941  -0.22526
  53   39395.9    253.8   0.087765884   0.73342  -0.15140  -0.10067  -0.83688
  54   39554.3    252.8   0.003069151   0.02554  -0.01475   0.05411   0.14966
  55   39703.7    251.9   0.038056786   0.31556   0.47108  -0.09013   0.29243
  56   39898.5    250.6   0.097886347   0.80768  -0.46961  -0.67515  -0.36238
  57   40167.3    249.0   0.095961862   0.78651   0.69491   0.50965  -0.20941
  58   40314.6    248.0   0.038513026   0.31450  -0.20964  -0.03802  -0.51875

FINAL SINGLE POINT ENERGY     -6245.611486582166

DIPOLE MOMENT
-------------
                                X             Y             Z
Electronic contribution:    -75.14865     -88.94798     -40.90221
Nuclear contribution   :     73.28860      91.10758      41.82114
                        -----------------------------------------
Total Dipole Moment    :     -1.86005       2.15960       0.91894
                        -----------------------------------------
Magnitude (a.u.)       :      2.99468
Magnitude (Debye)      :      7.61187

Rotational constants in cm-1:     0.000916     0.000145     0.000127
Rotational constants in MHz :    27.474347     4.351423     3.820482

                             ****ORCA TERMINATED NORMALLY****
TOTAL RUN TIME: 0 days 0 hours 10 minutes 7 seconds 959 msec
