                         Program Version 4.2.0 -  RELEASE  -
|  1> # ORCA input file
|  2> # SCF done       -207.446014078746          0.000442730716
|  3> ! CAM-B3LYP def2-SVP def2/J RIJCOSX Grid4 TightSCF
|  4> %maxcore 5000
|  5> %tddft
|  6>     Mode sTDDFT
|  7>     Ethresh 5.0
|  8>     maxcore 5000
|  9> end
| 10>
| 11> %pal
| 12>   nprocs 6
| 13>   end
| 14> * xyz 0 1
| 15>    C       -1.11587         4.70762        -2.32661
| 16>    C       -0.71520         3.49308        -1.83716
| 17>    C       -1.07424         2.25370        -2.40608
| 18>    N       -1.30410         1.21840        -2.84480
| 19>    C        0.02861         3.33491        -0.64769
| 20>    N        0.57413         3.14986         0.34500
| 21>    C       -2.16876         4.90464        -3.32203
| 22>    C       -2.66183         6.21806        -3.20291
| 23>    C       -3.72486         6.66311        -3.96012
| 24>    C       -4.30075         5.77882        -4.86993
| 25>    C       -3.79610         4.48204        -5.01360
| 26>    C       -2.73164         4.03270        -4.24094
| 27>    C       -4.47748         3.53280        -5.96188
| 28>    O       -5.50381         2.96458        -5.70499
| 29>    O       -3.75846         3.36544        -7.06603
| 30>    C       -4.33491         2.52765        -8.06111
| 31>    C       -5.43711         6.18457        -5.74007
| 32>    O       -5.69050         5.66219        -6.79738
| 33>    O       -6.13755         7.18956        -5.21503
| 34>    C       -7.26324         7.62655        -5.96436
| 35>    C       -1.86919         6.95741        -2.19251
| 36>    O       -2.01729         8.09855        -1.82883
| 37>    C       -0.80447         6.00766        -1.76698
| 38>    C        0.25839         6.45226        -1.04633
| 39>    C        1.50494         5.80672        -0.83345
| 40>    S        2.24800         4.80630        -2.04606
| 41>    C        2.30833         5.88589         0.29422
| 42>    C        1.88413         6.64989         1.48960
| 43>    O        0.85726         7.30376         1.53641
| 44>    C        2.82200         6.52257         2.58597
| 45>    C        2.78785         7.06835         3.85201
| 46>    N        3.84979         6.60372         4.54957
| 47>    C        4.20076         6.99170         5.89245
| 48>    C        5.16511         8.17601         5.88743
| 49>    C        4.57760         5.77155         3.76655
| 50>    C        3.97363         5.68896         2.53136
| 51>    C        4.38057         4.90785         1.37346
| 52>    O        5.32359         4.13885         1.40560
| 53>    C        3.50547         5.12491         0.19870
| 54>    C        3.63938         4.49967        -1.04061
| 55>    C        4.62711         3.64232        -1.60012
| 56>    C        5.93001         3.56559        -1.23886
| 57>    C        6.84888         2.56269        -1.67546
| 58>    C        6.57541         1.51602        -2.55083
| 59>    C        7.42964         0.43254        -2.74568
| 60>    C        8.63438         0.28681        -2.06547
| 61>    C        9.01349         1.38541        -1.24980
| 62>    C        8.13770         2.51583        -1.07187
| 63>    N        8.75734         3.36151        -0.27478
| 64>    O        9.92942         2.80746         0.02412
| 65>    N       10.10300         1.61469        -0.54798
| 66>    C        9.38365        -0.91643        -2.08853
| 67>    S       10.73942        -1.15577        -0.95756
| 68>    C       10.80915        -2.77586        -1.50557
| 69>    C        9.84713        -3.00000        -2.50762
| 70>    N        9.07627        -1.96859        -2.80599
| 71>    C        9.87517        -4.42414        -2.96548
| 72>    C       10.91922        -4.99696        -2.05213
| 73>    C       11.45247        -3.99825        -1.23022
| 74>    S       12.60475        -4.61115        -0.11444
| 75>    C       12.35445        -6.23500        -0.73208
| 76>    C       11.43562        -6.25398        -1.77335
| 77>    C       12.97786        -7.35969        -0.13941
| 78>    C       13.79836        -7.29875         0.93851
| 79>    C       14.34260        -8.41495         1.62061
| 80>    C       14.16058        -9.77012         1.40031
| 81>    C       14.80779       -10.57803         2.32930
| 82>    C       15.50277        -9.83557         3.27727
| 83>    S       15.35961        -8.14242         3.01858
| 84>    C       16.19144       -10.54652         4.29645
| 85>    C       16.11793       -11.92864         4.28646
| 86>   Ge       15.01185       -12.49094         2.75860
| 87>    C       13.30406       -13.35517         3.28523
| 88>    C       16.00138       -13.52302         1.38192
| 89>    C       16.83400       -12.49619         5.35320
| 90>    C       17.43037       -11.56090         6.14326
| 91>    S       17.13704        -9.94968         5.61078
| 92>    H       -4.09996         7.66825        -3.84955
| 93>    H       -2.36437         3.02696        -4.36813
| 94>    H       -3.57205         2.39134        -8.82284
| 95>    H       -5.21678         3.01404        -8.48105
| 96>    H       -4.62727         1.56974        -7.62686
| 97>    H       -7.79892         8.32523        -5.32698
| 98>    H       -7.89645         6.77592        -6.22395
| 99>    H       -6.93792         8.11790        -6.88364
|100>    H        0.15033         7.43573        -0.59754
|101>    H        2.07229         7.74141         4.28097
|102>    H        4.66286         6.13628         6.39210
|103>    H        3.28518         7.25616         6.42700
|104>    H        6.07971         7.91726         5.35955
|105>    H        5.41718         8.45364         6.90686
|106>    H        4.71125         9.03203         5.39399
|107>    H        5.46605         5.28649         4.11904
|108>    H        4.25848         3.01349        -2.40130
|109>    H        6.32906         4.24519        -0.50274
|110>    H        5.63411         1.50795        -3.07835
|111>    H        7.12944        -0.36844        -3.40307
|112>    H       10.15712        -4.50372        -4.01728
|113>    H        8.90508        -4.90858        -2.84357
|114>    H       11.15339        -7.16150        -2.27624
|115>    H       12.72659        -8.31591        -0.57686
|116>    H       14.04414        -6.32628         1.34649
|117>    H       13.56498       -10.15518         0.59145
|118>    H       12.79680       -12.75982         4.03763
|119>    H       13.49215       -14.34380         3.69199
|120>    H       12.65233       -13.45516         2.42281
|121>    H       16.92419       -13.01589         1.11915
|122>    H       15.39592       -13.63162         0.48742
|123>    H       16.24223       -14.51248         1.75776
|124>    H       16.90583       -13.55508         5.53152
|125>    H       18.03218       -11.71508         7.01762
|126> *
|127>
|128>                          ****END OF INPUT****

CARTESIAN COORDINATES (ANGSTROEM)
---------------------------------
  C     -1.115870    4.707620   -2.326610
  C     -0.715200    3.493080   -1.837160
  C     -1.074240    2.253700   -2.406080
  N     -1.304100    1.218400   -2.844800
  C      0.028610    3.334910   -0.647690
  N      0.574130    3.149860    0.345000
  C     -2.168760    4.904640   -3.322030
  C     -2.661830    6.218060   -3.202910
  C     -3.724860    6.663110   -3.960120
  C     -4.300750    5.778820   -4.869930
  C     -3.796100    4.482040   -5.013600
  C     -2.731640    4.032700   -4.240940
  C     -4.477480    3.532800   -5.961880
  O     -5.503810    2.964580   -5.704990
  O     -3.758460    3.365440   -7.066030
  C     -4.334910    2.527650   -8.061110
  C     -5.437110    6.184570   -5.740070
  O     -5.690500    5.662190   -6.797380
  O     -6.137550    7.189560   -5.215030
  C     -7.263240    7.626550   -5.964360
  C     -1.869190    6.957410   -2.192510
  O     -2.017290    8.098550   -1.828830
  C     -0.804470    6.007660   -1.766980
  C      0.258390    6.452260   -1.046330
  C      1.504940    5.806720   -0.833450
  S      2.248000    4.806300   -2.046060
  C      2.308330    5.885890    0.294220
  C      1.884130    6.649890    1.489600
  O      0.857260    7.303760    1.536410
  C      2.822000    6.522570    2.585970
  C      2.787850    7.068350    3.852010
  N      3.849790    6.603720    4.549570
  C      4.200760    6.991700    5.892450
  C      5.165110    8.176010    5.887430
  C      4.577600    5.771550    3.766550
  C      3.973630    5.688960    2.531360
  C      4.380570    4.907850    1.373460
  O      5.323590    4.138850    1.405600
  C      3.505470    5.124910    0.198700
  C      3.639380    4.499670   -1.040610
  C      4.627110    3.642320   -1.600120
  C      5.930010    3.565590   -1.238860
  C      6.848880    2.562690   -1.675460
  C      6.575410    1.516020   -2.550830
  C      7.429640    0.432540   -2.745680
  C      8.634380    0.286810   -2.065470
  C      9.013490    1.385410   -1.249800
  C      8.137700    2.515830   -1.071870
  N      8.757340    3.361510   -0.274780
  O      9.929420    2.807460    0.024120
  N     10.103000    1.614690   -0.547980
  C      9.383650   -0.916430   -2.088530
  S     10.739420   -1.155770   -0.957560
  C     10.809150   -2.775860   -1.505570
  C      9.847130   -3.000000   -2.507620
  N      9.076270   -1.968590   -2.805990
  C      9.875170   -4.424140   -2.965480
  C     10.919220   -4.996960   -2.052130
  C     11.452470   -3.998250   -1.230220
  S     12.604750   -4.611150   -0.114440
  C     12.354450   -6.235000   -0.732080
  C     11.435620   -6.253980   -1.773350
  C     12.977860   -7.359690   -0.139410
  C     13.798360   -7.298750    0.938510
  C     14.342600   -8.414950    1.620610
  C     14.160580   -9.770120    1.400310
  C     14.807790  -10.578030    2.329300
  C     15.502770   -9.835570    3.277270
  S     15.359610   -8.142420    3.018580
  C     16.191440  -10.546520    4.296450
  C     16.117930  -11.928640    4.286460
  Ge    15.011850  -12.490940    2.758600
  C     13.304060  -13.355170    3.285230
  C     16.001380  -13.523020    1.381920
  C     16.834000  -12.496190    5.353200
  C     17.430370  -11.560900    6.143260
  S     17.137040   -9.949680    5.610780
  H     -4.099960    7.668250   -3.849550
  H     -2.364370    3.026960   -4.368130
  H     -3.572050    2.391340   -8.822840
  H     -5.216780    3.014040   -8.481050
  H     -4.627270    1.569740   -7.626860
  H     -7.798920    8.325230   -5.326980
  H     -7.896450    6.775920   -6.223950
  H     -6.937920    8.117900   -6.883640
  H      0.150330    7.435730   -0.597540
  H      2.072290    7.741410    4.280970
  H      4.662860    6.136280    6.392100
  H      3.285180    7.256160    6.427000
  H      6.079710    7.917260    5.359550
  H      5.417180    8.453640    6.906860
  H      4.711250    9.032030    5.393990
  H      5.466050    5.286490    4.119040
  H      4.258480    3.013490   -2.401300
  H      6.329060    4.245190   -0.502740
  H      5.634110    1.507950   -3.078350
  H      7.129440   -0.368440   -3.403070
  H     10.157120   -4.503720   -4.017280
  H      8.905080   -4.908580   -2.843570
  H     11.153390   -7.161500   -2.276240
  H     12.726590   -8.315910   -0.576860
  H     14.044140   -6.326280    1.346490
  H     13.564980  -10.155180    0.591450
  H     12.796800  -12.759820    4.037630
  H     13.492150  -14.343800    3.691990
  H     12.652330  -13.455160    2.422810
  H     16.924190  -13.015890    1.119150
  H     15.395920  -13.631620    0.487420
  H     16.242230  -14.512480    1.757760
  H     16.905830  -13.555080    5.531520
  H     18.032180  -11.715080    7.017620

 Total Charge           Charge          ....    0
 Multiplicity           Mult            ....    1
 Number of Electrons    NEL             ....  594
 Basis Dimension        Dim             .... 1286

ORBITAL ENERGIES
----------------

  NO   OCC          E(Eh)            E(eV)
   0   2.0000    -398.765404    -10850.9583
   1   2.0000     -88.972240     -2421.0577
   2   2.0000     -88.963716     -2420.8258
   3   2.0000     -88.955943     -2420.6143
   4   2.0000     -88.950639     -2420.4699
   5   2.0000     -88.948995     -2420.4252
   6   2.0000     -49.824924     -1355.8051
   7   2.0000     -44.362111     -1207.1544
   8   2.0000     -44.361410     -1207.1353
   9   2.0000     -44.361115     -1207.1273
  10   2.0000     -19.348846      -526.5089
  11   2.0000     -19.269290      -524.3440
  12   2.0000     -19.254119      -523.9312
  13   2.0000     -19.214217      -522.8454
  14   2.0000     -19.213048      -522.8136
  15   2.0000     -19.201929      -522.5111
  16   2.0000     -19.196331      -522.3587
  17   2.0000     -19.194855      -522.3186
  18   2.0000     -14.485085      -394.1592
  19   2.0000     -14.474398      -393.8684
  20   2.0000     -14.473138      -393.8341
  21   2.0000     -14.416610      -392.2959
  22   2.0000     -14.412948      -392.1963
  23   2.0000     -14.411058      -392.1448
  24   2.0000     -10.408963      -283.2423
  25   2.0000     -10.397036      -282.9177
  26   2.0000     -10.365044      -282.0472
  27   2.0000     -10.359988      -281.9096
  28   2.0000     -10.356767      -281.8220
  29   2.0000     -10.346264      -281.5362
  30   2.0000     -10.342207      -281.4258
  31   2.0000     -10.331694      -281.1397
  32   2.0000     -10.330456      -281.1060
  33   2.0000     -10.326948      -281.0105
  34   2.0000     -10.326572      -281.0003
  35   2.0000     -10.319935      -280.8197
  36   2.0000     -10.319527      -280.8086
  37   2.0000     -10.318460      -280.7796
  38   2.0000     -10.317643      -280.7573
  39   2.0000     -10.314892      -280.6825
  40   2.0000     -10.314545      -280.6730
  41   2.0000     -10.313823      -280.6534
  42   2.0000     -10.313256      -280.6380
  43   2.0000     -10.310238      -280.5558
  44   2.0000     -10.309992      -280.5491
  45   2.0000     -10.307698      -280.4867
  46   2.0000     -10.307585      -280.4836
  47   2.0000     -10.305360      -280.4231
  48   2.0000     -10.302466      -280.3444
  49   2.0000     -10.301834      -280.3272
  50   2.0000     -10.301639      -280.3219
  51   2.0000     -10.301044      -280.3057
  52   2.0000     -10.299903      -280.2746
  53   2.0000     -10.299558      -280.2652
  54   2.0000     -10.298512      -280.2368
  55   2.0000     -10.296075      -280.1705
  56   2.0000     -10.295436      -280.1531
  57   2.0000     -10.295177      -280.1460
  58   2.0000     -10.295138      -280.1450
  59   2.0000     -10.292670      -280.0778
  60   2.0000     -10.292568      -280.0750
  61   2.0000     -10.291895      -280.0567
  62   2.0000     -10.288656      -279.9686
  63   2.0000     -10.288571      -279.9663
  64   2.0000     -10.286696      -279.9152
  65   2.0000     -10.284945      -279.8676
  66   2.0000     -10.284612      -279.8585
  67   2.0000     -10.282563      -279.8028
  68   2.0000     -10.279284      -279.7135
  69   2.0000     -10.278533      -279.6931
  70   2.0000     -10.277164      -279.6559
  71   2.0000     -10.276234      -279.6306
  72   2.0000     -10.273082      -279.5448
  73   2.0000     -10.267096      -279.3819
  74   2.0000     -10.265823      -279.3472
  75   2.0000     -10.265004      -279.3249
  76   2.0000     -10.264981      -279.3243
  77   2.0000     -10.256074      -279.0820
  78   2.0000     -10.255716      -279.0722
  79   2.0000     -10.253691      -279.0171
  80   2.0000     -10.251900      -278.9684
  81   2.0000      -8.067487      -219.5275
  82   2.0000      -8.058065      -219.2711
  83   2.0000      -8.051006      -219.0790
  84   2.0000      -8.046232      -218.9491
  85   2.0000      -8.044784      -218.9097
  86   2.0000      -6.284807      -171.0183
  87   2.0000      -6.036699      -164.2669
  88   2.0000      -6.032531      -164.1535
  89   2.0000      -6.029746      -164.0777
  90   2.0000      -6.027264      -164.0102
  91   2.0000      -6.023148      -163.8982
  92   2.0000      -6.020382      -163.8229
  93   2.0000      -6.020368      -163.8225
  94   2.0000      -6.016344      -163.7130
  95   2.0000      -6.015314      -163.6850
  96   2.0000      -6.014021      -163.6498
  97   2.0000      -6.012945      -163.6206
  98   2.0000      -6.011466      -163.5803
  99   2.0000      -6.009793      -163.5348
 100   2.0000      -6.008509      -163.4999
 101   2.0000      -6.007134      -163.4624
 102   2.0000      -4.460978      -121.3894
 103   2.0000      -4.459930      -121.3609
 104   2.0000      -4.459050      -121.3369
 105   2.0000      -1.301196       -35.4073
 106   2.0000      -1.285002       -34.9667
 107   2.0000      -1.283125       -34.9156
 108   2.0000      -1.282816       -34.9072
 109   2.0000      -1.281790       -34.8793
 110   2.0000      -1.281311       -34.8662
 111   2.0000      -1.202060       -32.7097
 112   2.0000      -1.186566       -32.2881
 113   2.0000      -1.129836       -30.7444
 114   2.0000      -1.119663       -30.4676
 115   2.0000      -1.113480       -30.2993
 116   2.0000      -1.107311       -30.1315
 117   2.0000      -1.104554       -30.0565
 118   2.0000      -1.092012       -29.7152
 119   2.0000      -1.065334       -28.9892
 120   2.0000      -1.020528       -27.7700
 121   2.0000      -1.006350       -27.3842
 122   2.0000      -1.001355       -27.2483
 123   2.0000      -0.999114       -27.1873
 124   2.0000      -0.996399       -27.1134
 125   2.0000      -0.991078       -26.9686
 126   2.0000      -0.989791       -26.9336
 127   2.0000      -0.984998       -26.8031
 128   2.0000      -0.960173       -26.1276
 129   2.0000      -0.958335       -26.0776
 130   2.0000      -0.935032       -25.4435
 131   2.0000      -0.927514       -25.2389
 132   2.0000      -0.920339       -25.0437
 133   2.0000      -0.908235       -24.7143
 134   2.0000      -0.904283       -24.6068
 135   2.0000      -0.897607       -24.4251
 136   2.0000      -0.891212       -24.2511
 137   2.0000      -0.885178       -24.0869
 138   2.0000      -0.879329       -23.9278
 139   2.0000      -0.878056       -23.8931
 140   2.0000      -0.860390       -23.4124
 141   2.0000      -0.846702       -23.0399
 142   2.0000      -0.838979       -22.8298
 143   2.0000      -0.836469       -22.7615
 144   2.0000      -0.834842       -22.7172
 145   2.0000      -0.829056       -22.5598
 146   2.0000      -0.827546       -22.5187
 147   2.0000      -0.824346       -22.4316
 148   2.0000      -0.810732       -22.0611
 149   2.0000      -0.809511       -22.0279
 150   2.0000      -0.794165       -21.6103
 151   2.0000      -0.786702       -21.4072
 152   2.0000      -0.783367       -21.3165
 153   2.0000      -0.779809       -21.2197
 154   2.0000      -0.767657       -20.8890
 155   2.0000      -0.766694       -20.8628
 156   2.0000      -0.763288       -20.7701
 157   2.0000      -0.761692       -20.7267
 158   2.0000      -0.753129       -20.4937
 159   2.0000      -0.748320       -20.3628
 160   2.0000      -0.737944       -20.0805
 161   2.0000      -0.728924       -19.8350
 162   2.0000      -0.720304       -19.6005
 163   2.0000      -0.712363       -19.3844
 164   2.0000      -0.702826       -19.1249
 165   2.0000      -0.696938       -18.9646
 166   2.0000      -0.685307       -18.6481
 167   2.0000      -0.680256       -18.5107
 168   2.0000      -0.672284       -18.2938
 169   2.0000      -0.663959       -18.0672
 170   2.0000      -0.659932       -17.9577
 171   2.0000      -0.653335       -17.7781
 172   2.0000      -0.647472       -17.6186
 173   2.0000      -0.645780       -17.5726
 174   2.0000      -0.641293       -17.4505
 175   2.0000      -0.639595       -17.4043
 176   2.0000      -0.637706       -17.3529
 177   2.0000      -0.632069       -17.1995
 178   2.0000      -0.619322       -16.8526
 179   2.0000      -0.617189       -16.7946
 180   2.0000      -0.615880       -16.7590
 181   2.0000      -0.613875       -16.7044
 182   2.0000      -0.603610       -16.4251
 183   2.0000      -0.603222       -16.4145
 184   2.0000      -0.602129       -16.3848
 185   2.0000      -0.601672       -16.3723
 186   2.0000      -0.600015       -16.3272
 187   2.0000      -0.593164       -16.1408
 188   2.0000      -0.584458       -15.9039
 189   2.0000      -0.579777       -15.7765
 190   2.0000      -0.576043       -15.6749
 191   2.0000      -0.571710       -15.5570
 192   2.0000      -0.569441       -15.4953
 193   2.0000      -0.568820       -15.4784
 194   2.0000      -0.567300       -15.4370
 195   2.0000      -0.566462       -15.4142
 196   2.0000      -0.561851       -15.2888
 197   2.0000      -0.551533       -15.0080
 198   2.0000      -0.548689       -14.9306
 199   2.0000      -0.547819       -14.9069
 200   2.0000      -0.546864       -14.8809
 201   2.0000      -0.544888       -14.8272
 202   2.0000      -0.543061       -14.7774
 203   2.0000      -0.542043       -14.7497
 204   2.0000      -0.537296       -14.6206
 205   2.0000      -0.535028       -14.5588
 206   2.0000      -0.532675       -14.4948
 207   2.0000      -0.529865       -14.4184
 208   2.0000      -0.527035       -14.3413
 209   2.0000      -0.524589       -14.2748
 210   2.0000      -0.520809       -14.1719
 211   2.0000      -0.517015       -14.0687
 212   2.0000      -0.515904       -14.0385
 213   2.0000      -0.515103       -14.0167
 214   2.0000      -0.510706       -13.8970
 215   2.0000      -0.507069       -13.7981
 216   2.0000      -0.501960       -13.6590
 217   2.0000      -0.500132       -13.6093
 218   2.0000      -0.499432       -13.5902
 219   2.0000      -0.498571       -13.5668
 220   2.0000      -0.497091       -13.5265
 221   2.0000      -0.494369       -13.4525
 222   2.0000      -0.490324       -13.3424
 223   2.0000      -0.490142       -13.3374
 224   2.0000      -0.487947       -13.2777
 225   2.0000      -0.485845       -13.2205
 226   2.0000      -0.483493       -13.1565
 227   2.0000      -0.481267       -13.0959
 228   2.0000      -0.478081       -13.0092
 229   2.0000      -0.476124       -12.9560
 230   2.0000      -0.472996       -12.8709
 231   2.0000      -0.472047       -12.8450
 232   2.0000      -0.471279       -12.8242
 233   2.0000      -0.470071       -12.7913
 234   2.0000      -0.469938       -12.7877
 235   2.0000      -0.468903       -12.7595
 236   2.0000      -0.466729       -12.7004
 237   2.0000      -0.466624       -12.6975
 238   2.0000      -0.463982       -12.6256
 239   2.0000      -0.463378       -12.6091
 240   2.0000      -0.457955       -12.4616
 241   2.0000      -0.457077       -12.4377
 242   2.0000      -0.454267       -12.3612
 243   2.0000      -0.453665       -12.3449
 244   2.0000      -0.451611       -12.2890
 245   2.0000      -0.449315       -12.2265
 246   2.0000      -0.449200       -12.2234
 247   2.0000      -0.448250       -12.1975
 248   2.0000      -0.446643       -12.1538
 249   2.0000      -0.446050       -12.1376
 250   2.0000      -0.441621       -12.0171
 251   2.0000      -0.439170       -11.9504
 252   2.0000      -0.438474       -11.9315
 253   2.0000      -0.434833       -11.8324
 254   2.0000      -0.432815       -11.7775
 255   2.0000      -0.427084       -11.6215
 256   2.0000      -0.426849       -11.6152
 257   2.0000      -0.426277       -11.5996
 258   2.0000      -0.424110       -11.5406
 259   2.0000      -0.424041       -11.5388
 260   2.0000      -0.420440       -11.4408
 261   2.0000      -0.417993       -11.3742
 262   2.0000      -0.411686       -11.2026
 263   2.0000      -0.407204       -11.0806
 264   2.0000      -0.406893       -11.0721
 265   2.0000      -0.399826       -10.8798
 266   2.0000      -0.398504       -10.8438
 267   2.0000      -0.387173       -10.5355
 268   2.0000      -0.383429       -10.4336
 269   2.0000      -0.382485       -10.4080
 270   2.0000      -0.377694       -10.2776
 271   2.0000      -0.368453       -10.0261
 272   2.0000      -0.366943        -9.9850
 273   2.0000      -0.366743        -9.9796
 274   2.0000      -0.365253        -9.9390
 275   2.0000      -0.360577        -9.8118
 276   2.0000      -0.357909        -9.7392
 277   2.0000      -0.356687        -9.7059
 278   2.0000      -0.353107        -9.6085
 279   2.0000      -0.349929        -9.5220
 280   2.0000      -0.340104        -9.2547
 281   2.0000      -0.339566        -9.2401
 282   2.0000      -0.337326        -9.1791
 283   2.0000      -0.335563        -9.1311
 284   2.0000      -0.328830        -8.9479
 285   2.0000      -0.326357        -8.8806
 286   2.0000      -0.322683        -8.7806
 287   2.0000      -0.322312        -8.7705
 288   2.0000      -0.319128        -8.6839
 289   2.0000      -0.315222        -8.5776
 290   2.0000      -0.312289        -8.4978
 291   2.0000      -0.311600        -8.4791
 292   2.0000      -0.300737        -8.1835
 293   2.0000      -0.299141        -8.1400
 294   2.0000      -0.273700        -7.4478
 295   2.0000      -0.248786        -6.7698
 296   2.0000      -0.214698        -5.8422
 297   0.0000      -0.098670        -2.6849
 298   0.0000      -0.081595        -2.2203
 299   0.0000      -0.062759        -1.7078
 300   0.0000      -0.044896        -1.2217
 301   0.0000      -0.034311        -0.9336

MULLIKEN ATOMIC CHARGES
-----------------------
   0 C :    0.261093
   1 C :   -0.326626
   2 C :   -0.175027
   3 N :    0.159238
   4 C :   -0.194730
   5 N :    0.179181
   6 C :    0.031527
   7 C :    0.007643
   8 C :   -0.049346
   9 C :    0.023993
  10 C :    0.032403
  11 C :   -0.038285
  12 C :    0.182286
  13 O :   -0.210049
  14 O :   -0.291997
  15 C :    0.187499
  16 C :    0.195552
  17 O :   -0.208006
  18 O :   -0.290272
  19 C :    0.185814
  20 C :    0.142403
  21 O :   -0.127963
  22 C :   -0.128879
  23 C :    0.073772
  24 C :   -0.243567
  25 S :    0.168858
  26 C :    0.085571
  27 C :    0.147583
  28 O :   -0.162287
  29 C :   -0.026339
  30 C :    0.013045
  31 N :   -0.134187
  32 C :    0.090645
  33 C :    0.003303
  34 C :    0.009256
  35 C :   -0.007382
  36 C :    0.129858
  37 O :   -0.161524
  38 C :    0.017475
  39 C :   -0.122030
  40 C :    0.029164
  41 C :    0.047013
  42 C :    0.043677
  43 C :   -0.017499
  44 C :   -0.029060
  45 C :    0.130517
  46 C :   -0.047115
  47 C :   -0.026571
  48 N :    0.054154
  49 O :   -0.097843
  50 N :    0.025978
  51 C :   -0.164612
  52 S :    0.166580
  53 C :   -0.042250
  54 C :   -0.224140
  55 N :   -0.007088
  56 C :    0.387410
  57 C :   -0.142934
  58 C :   -0.103177
  59 S :    0.133139
  60 C :   -0.038701
  61 C :   -0.034559
  62 C :    0.001652
  63 C :    0.045399
  64 C :   -0.077077
  65 C :   -0.035046
  66 C :   -0.092256
  67 C :   -0.086594
  68 S :    0.137760
  69 C :   -0.122954
  70 C :   -0.107615
  71 Ge:    0.447780
  72 C :   -0.193770
  73 C :   -0.193445
  74 C :    0.019023
  75 C :   -0.080753
  76 S :    0.130910
  77 H :    0.004980
  78 H :    0.006470
  79 H :    0.033040
  80 H :    0.039732
  81 H :    0.035618
  82 H :    0.040907
  83 H :    0.042815
  84 H :    0.034342
  85 H :    0.054576
  86 H :    0.008573
  87 H :    0.036096
  88 H :    0.032970
  89 H :    0.030734
  90 H :    0.030675
  91 H :    0.029308
  92 H :    0.009349
  93 H :   -0.010439
  94 H :    0.020550
  95 H :   -0.009664
  96 H :   -0.001236
  97 H :    0.035939
  98 H :    0.032598
  99 H :   -0.027807
 100 H :   -0.017460
 101 H :   -0.011992
 102 H :   -0.028392
 103 H :    0.056794
 104 H :    0.042138
 105 H :    0.042119
 106 H :    0.055560
 107 H :    0.041694
 108 H :    0.041811
 109 H :   -0.018486
 110 H :    0.021490
Sum of atomic charges:   -0.0000000

LOEWDIN ATOMIC CHARGES
----------------------
   0 C :    0.060247
   1 C :   -0.131336
   2 C :   -0.020079
   3 N :   -0.044472
   4 C :   -0.032156
   5 N :   -0.041008
   6 C :    0.002919
   7 C :   -0.045368
   8 C :    0.039890
   9 C :   -0.041600
  10 C :    0.002364
  11 C :    0.010142
  12 C :    0.077819
  13 O :   -0.163213
  14 O :   -0.078631
  15 C :    0.084405
  16 C :    0.092005
  17 O :   -0.160590
  18 O :   -0.079182
  19 C :    0.084701
  20 C :    0.083711
  21 O :   -0.128840
  22 C :   -0.095470
  23 C :    0.066435
  24 C :   -0.162625
  25 S :    0.482564
  26 C :   -0.046627
  27 C :    0.084196
  28 O :   -0.153532
  29 C :   -0.104212
  30 C :    0.033803
  31 N :    0.090985
  32 C :    0.044467
  33 C :   -0.056996
  34 C :    0.032063
  35 C :   -0.097827
  36 C :    0.082853
  37 O :   -0.153407
  38 C :   -0.089632
  39 C :   -0.103786
  40 C :   -0.056026
  41 C :    0.036096
  42 C :   -0.035274
  43 C :    0.005906
  44 C :    0.006153
  45 C :   -0.046045
  46 C :   -0.057931
  47 C :   -0.045331
  48 N :   -0.016649
  49 O :    0.075390
  50 N :   -0.041800
  51 C :   -0.135414
  52 S :    0.454414
  53 C :   -0.209177
  54 C :   -0.040890
  55 N :   -0.079523
  56 C :   -0.012910
  57 C :   -0.045813
  58 C :   -0.202014
  59 S :    0.431188
  60 C :   -0.155477
  61 C :   -0.060023
  62 C :   -0.045817
  63 C :   -0.047684
  64 C :   -0.175679
  65 C :   -0.054451
  66 C :   -0.169765
  67 C :   -0.192464
  68 S :    0.433501
  69 C :   -0.197565
  70 C :   -0.175717
  71 Ge:    0.513009
  72 C :   -0.202456
  73 C :   -0.202750
  74 C :   -0.064828
  75 C :   -0.190821
  76 S :    0.429474
  77 H :    0.044610
  78 H :    0.043123
  79 H :    0.025513
  80 H :    0.027815
  81 H :    0.023789
  82 H :    0.028726
  83 H :    0.027847
  84 H :    0.025099
  85 H :    0.056370
  86 H :    0.030207
  87 H :    0.034511
  88 H :    0.033893
  89 H :    0.030650
  90 H :    0.033179
  91 H :    0.030426
  92 H :    0.030448
  93 H :    0.025349
  94 H :    0.038767
  95 H :    0.034107
  96 H :    0.039670
  97 H :    0.056316
  98 H :    0.053854
  99 H :    0.029577
 100 H :    0.031912
 101 H :    0.020496
 102 H :    0.024668
 103 H :    0.040967
 104 H :    0.035028
 105 H :    0.034923
 106 H :    0.040558
 107 H :    0.034934
 108 H :    0.035130
 109 H :    0.027285
 110 H :    0.020440

  Mayer bond orders larger than 0.100000
B(  0-C ,  1-C ) :   1.6651 B(  0-C ,  6-C ) :   0.9997 B(  0-C , 22-C ) :   1.0268
B(  1-C ,  2-C ) :   1.1319 B(  1-C ,  4-C ) :   1.1589 B(  2-C ,  3-N ) :   2.9844
B(  4-C ,  5-N ) :   3.0117 B(  6-C ,  7-C ) :   1.3344 B(  6-C , 11-C ) :   1.3535
B(  7-C ,  8-C ) :   1.3497 B(  7-C , 20-C ) :   0.9119 B(  8-C ,  9-C ) :   1.3234
B(  8-C , 77-H ) :   1.0164 B(  9-C , 10-C ) :   1.4549 B(  9-C , 16-C ) :   0.9016
B( 10-C , 11-C ) :   1.4010 B( 10-C , 12-C ) :   0.8489 B( 11-C , 78-H ) :   0.9878
B( 12-C , 13-O ) :   2.1070 B( 12-C , 14-O ) :   1.2310 B( 14-O , 15-C ) :   0.9162
B( 15-C , 79-H ) :   0.9809 B( 15-C , 80-H ) :   0.9773 B( 15-C , 81-H ) :   0.9721
B( 16-C , 17-O ) :   2.0499 B( 16-C , 18-O ) :   1.2547 B( 18-O , 19-C ) :   0.9146
B( 19-C , 82-H ) :   0.9811 B( 19-C , 83-H ) :   0.9732 B( 19-C , 84-H ) :   0.9782
B( 20-C , 21-O ) :   2.2857 B( 20-C , 22-C ) :   0.9376 B( 22-C , 23-C ) :   1.6653
B( 23-C , 24-C ) :   1.0897 B( 23-C , 85-H ) :   0.9280 B( 24-C , 25-S ) :   1.1231
B( 24-C , 26-C ) :   1.4889 B( 25-S , 39-C ) :   1.1534 B( 26-C , 27-C ) :   0.9248
B( 26-C , 38-C ) :   1.2131 B( 27-C , 28-O ) :   2.1962 B( 27-C , 29-C ) :   1.0041
B( 29-C , 30-C ) :   1.4189 B( 29-C , 35-C ) :   1.2888 B( 30-C , 31-N ) :   1.2418
B( 30-C , 86-H ) :   0.9931 B( 31-N , 32-C ) :   0.9505 B( 31-N , 34-C ) :   1.2293
B( 32-C , 33-C ) :   1.1120 B( 32-C , 87-H ) :   0.9511 B( 32-C , 88-H ) :   0.9510
B( 33-C , 89-H ) :   0.9675 B( 33-C , 90-H ) :   0.9679 B( 33-C , 91-H ) :   0.9674
B( 34-C , 35-C ) :   1.4323 B( 34-C , 92-H ) :   0.9933 B( 35-C , 36-C ) :   0.9865
B( 36-C , 37-O ) :   2.2176 B( 36-C , 38-C ) :   0.9360 B( 38-C , 39-C ) :   1.4622
B( 39-C , 40-C ) :   1.1261 B( 40-C , 41-C ) :   1.6623 B( 40-C , 93-H ) :   0.9399
B( 41-C , 42-C ) :   1.1564 B( 41-C , 94-H ) :   0.9646 B( 42-C , 43-C ) :   1.4263
B( 42-C , 45-C ) :   0.1034 B( 42-C , 47-C ) :   1.1228 B( 43-C , 44-C ) :   1.2328
B( 43-C , 95-H ) :   0.9873 B( 44-C , 45-C ) :   1.4762 B( 44-C , 96-H ) :   0.9929
B( 45-C , 46-C ) :   1.1312 B( 45-C , 51-C ) :   1.0996 B( 46-C , 47-C ) :   1.1550
B( 46-C , 50-N ) :   1.5843 B( 47-C , 48-N ) :   1.6162 B( 48-N , 49-O ) :   1.0666
B( 48-N , 50-N ) :   0.1829 B( 49-O , 50-N ) :   1.0612 B( 51-C , 52-S ) :   1.0866
B( 51-C , 55-N ) :   1.6624 B( 52-S , 53-C ) :   1.0892 B( 53-C , 54-C ) :   1.4396
B( 53-C , 58-C ) :   1.2049 B( 54-C , 55-N ) :   1.4721 B( 54-C , 56-C ) :   1.0434
B( 56-C , 57-C ) :   0.9832 B( 56-C , 97-H ) :   0.8553 B( 56-C , 98-H ) :   0.8686
B( 57-C , 58-C ) :   1.5154 B( 57-C , 61-C ) :   1.2957 B( 58-C , 59-S ) :   1.0753
B( 59-S , 60-C ) :   1.0997 B( 60-C , 61-C ) :   1.4364 B( 60-C , 62-C ) :   1.1721
B( 61-C , 99-H ) :   1.0082 B( 62-C , 63-C ) :   1.6612 B( 62-C ,100-H ) :   0.9771
B( 63-C , 64-C ) :   1.1349 B( 63-C ,101-H ) :   0.9552 B( 64-C , 65-C ) :   1.4741
B( 64-C , 68-S ) :   1.1034 B( 65-C , 66-C ) :   1.2728 B( 65-C ,102-H ) :   0.9957
B( 66-C , 67-C ) :   1.5177 B( 66-C , 71-Ge) :   0.8823 B( 67-C , 68-S ) :   1.1147
B( 67-C , 69-C ) :   1.1523 B( 69-C , 70-C ) :   1.5427 B( 69-C , 76-S ) :   1.1179
B( 70-C , 71-Ge) :   0.8890 B( 70-C , 74-C ) :   1.2485 B( 71-Ge, 72-C ) :   1.0112
B( 71-Ge, 73-C ) :   1.0086 B( 72-C ,103-H ) :   0.9596 B( 72-C ,104-H ) :   0.9610
B( 72-C ,105-H ) :   0.9604 B( 73-C ,106-H ) :   0.9601 B( 73-C ,107-H ) :   0.9612
B( 73-C ,108-H ) :   0.9612 B( 74-C , 75-C ) :   1.5578 B( 74-C ,109-H ) :   0.9981
B( 75-C , 76-S ) :   1.1526 B( 75-C ,110-H ) :   0.9720

-----------------------------------------------------------------------------
         ABSORPTION SPECTRUM VIA TRANSITION ELECTRIC DIPOLE MOMENTS
-----------------------------------------------------------------------------
State   Energy  Wavelength   fosc         T2         TX        TY        TZ
        (cm-1)    (nm)                  (au**2)     (au)      (au)      (au)
-----------------------------------------------------------------------------
   0   13980.7    715.3   1.652401790  38.90997   4.33914  -4.37794   0.95678
   1   17965.7    556.6   0.275221961   5.04330  -0.00788   2.23386  -0.23041
   2   20740.5    482.1   0.233060773   3.69935  -1.86705   0.44667   0.11810
   3   23187.7    431.3   0.647959058   9.19952  -0.94048   0.92425  -2.73144
   4   23958.3    417.4   0.414914488   5.70135   1.15911  -1.99152   0.62585
   5   24578.5    406.9   0.039377355   0.52743  -0.52163   0.40382  -0.30376
   6   26093.7    383.2   0.049345142   0.62256  -0.65400  -0.43873  -0.04863
   7   26503.2    377.3   0.061073606   0.75863  -0.70186   0.49994  -0.12684
   8   27007.3    370.3   0.025519395   0.31107  -0.09274  -0.47642  -0.27477
   9   27970.6    357.5   0.007683015   0.09043  -0.22658  -0.19542  -0.03006
  10   28311.9    353.2   0.011768481   0.13684  -0.06510   0.17709  -0.31819
  11   28781.7    347.4   0.004869789   0.05570   0.23580   0.00746  -0.00662
  12   29266.1    341.7   0.107562700   1.20997  -0.84872   0.69950   0.01852
  13   29570.6    338.2   0.049293414   0.54879   0.18457   0.11439   0.70826
  14   30383.9    329.1   0.056497572   0.61216  -0.45072   0.22145  -0.59997
  15   30785.6    324.8   0.055202670   0.59032  -0.12571  -0.43606  -0.61997
  16   31359.4    318.9   0.017233852   0.18092   0.00186   0.42238   0.05016
  17   31598.2    316.5   0.110012868   1.14619   0.52608   0.25013   0.89826
  18   31637.1    316.1   0.048956163   0.50943   0.46936  -0.37046   0.38974
  19   31939.2    313.1   0.153346882   1.58062  -0.86471   0.25994  -0.87483
  20   32412.4    308.5   0.026031017   0.26440  -0.33174   0.05975  -0.38829
  21   32792.2    305.0   0.077338475   0.77643  -0.18625  -0.19515  -0.83884
  22   33418.5    299.2   0.016573487   0.16327  -0.07260  -0.07077  -0.39114
  23   33654.9    297.1   0.020427319   0.19982   0.14791  -0.14391  -0.39653
  24   34117.4    293.1   0.004757757   0.04591   0.04637  -0.18962   0.08833
  25   34283.9    291.7   0.031732872   0.30472  -0.44443   0.21633  -0.24576
  26   34848.9    287.0   0.059969536   0.56652   0.43697  -0.59154   0.16019
  27   35179.5    284.3   0.131489972   1.23049   0.63199  -0.77996   0.47194
  28   35453.6    282.1   0.012019258   0.11161   0.20247  -0.14430  -0.22314
  29   35596.4    280.9   0.229762066   2.12495   0.99650  -0.06477   1.06195
  30   35706.7    280.1   0.059233014   0.54612  -0.60707   0.05418  -0.41792
  31   35886.6    278.7   0.125044606   1.14712  -0.66513  -0.04336  -0.83836
  32   37093.4    269.6   0.215323920   1.91105  -0.72593   1.05444  -0.52175
  33   37557.5    266.3   0.017812284   0.15613  -0.00458   0.19372   0.34436
  34   37621.2    265.8   0.002059749   0.01802   0.00145  -0.11960  -0.06097
  35   37788.4    264.6   0.007369171   0.06420  -0.03183  -0.04249   0.24775
  36   38137.7    262.2   0.017165938   0.14818   0.26093   0.14786   0.24131
  37   38178.7    261.9   0.008713227   0.07513  -0.20546   0.16068  -0.08428
  38   38460.4    260.0   0.007952701   0.06807   0.04987  -0.20383  -0.15505
  39   38553.9    259.4   0.015155821   0.12942   0.34077  -0.01881   0.11373
  40   38973.2    256.6   0.041610035   0.35149   0.56427  -0.07967   0.16352
  41   39403.5    253.8   0.099181503   0.82865   0.67676   0.03436   0.60784
  42   39470.5    253.4   0.026066699   0.21741  -0.30762   0.17517  -0.30348
  43   39506.9    253.1   0.113688437   0.94737  -0.65826   0.40673  -0.59044
  44   40099.9    249.4   0.076926327   0.63155  -0.47927   0.18942  -0.60496
  45   40111.9    249.3   0.030810044   0.25287  -0.13423   0.41047   0.25761
  46   40319.6    248.0   0.025810748   0.21075  -0.27640  -0.23489  -0.28138

FINAL SINGLE POINT ENERGY     -7186.057907131340

DIPOLE MOMENT
-------------
                                X             Y             Z
Electronic contribution:     80.54990     -75.68558      18.94831
Nuclear contribution   :    -79.51753      75.11460     -18.54743
                        -----------------------------------------
Total Dipole Moment    :      1.03237      -0.57098       0.40087
                        -----------------------------------------
Magnitude (a.u.)       :      1.24599
Magnitude (Debye)      :      3.16706

Rotational constants in cm-1:     0.001085     0.000143     0.000134
Rotational constants in MHz :    32.538251     4.285573     4.006951

                             ****ORCA TERMINATED NORMALLY****
TOTAL RUN TIME: 0 days 0 hours 11 minutes 21 seconds 128 msec
