                         Program Version 4.2.0 -  RELEASE  -
|  1> # ORCA input file
|  2> # SCF done       -182.578311874322          0.000435275683
|  3> ! CAM-B3LYP def2-SVP def2/J RIJCOSX Grid4 TightSCF
|  4> %maxcore 5000
|  5> %tddft
|  6>     Mode sTDDFT
|  7>     Ethresh 5.0
|  8>     maxcore 5000
|  9> end
| 10>
| 11> %pal
| 12>   nprocs 6
| 13>   end
| 14> * xyz 0 1
| 15>    C       -0.58691        -3.31783         8.37028
| 16>    C       -0.72103        -2.10277         7.45956
| 17>    C        0.58093        -1.79205         6.70847
| 18>    C        0.46664        -0.48916         5.88097
| 19>    C       -0.53472        -0.51332         4.73369
| 20>    C        1.75869        -1.61208         7.64295
| 21>    C        1.90404        -0.73068         8.69255
| 22>    C        3.10320        -0.71453         9.39281
| 23>    C        4.14363        -1.56067         9.04040
| 24>    C        4.00803        -2.44707         7.98495
| 25>    C        2.81002        -2.47062         7.28880
| 26>    C        2.37143        -3.29822         6.18185
| 27>    C        3.01977        -4.31281         5.49440
| 28>    C        2.33777        -4.98216         4.49874
| 29>    C        1.00207        -4.68555         4.19489
| 30>    C        0.34228        -5.44624         3.16085
| 31>    C       -0.98161        -5.45715         2.90222
| 32>    C       -1.60281        -6.19680         1.85580
| 33>    C       -1.03318        -6.93508         0.83105
| 34>    C       -1.98406        -7.49211        -0.01484
| 35>    C       -3.29505        -7.18871         0.36309
| 36>    S       -3.35437        -6.20289         1.76492
| 37>    C       -4.19228        -7.78189        -0.55011
| 38>    S       -5.86857        -7.94007        -0.86281
| 39>    C       -5.42930        -8.90175        -2.29414
| 40>    C       -6.42858        -9.42476        -3.15626
| 41>    C       -6.12665       -10.11132        -4.32527
| 42>    C       -7.10795       -10.61697        -5.17593
| 43>    C       -8.47550       -10.50145        -4.94675
| 44>    C       -9.42482       -11.04715        -5.86215
| 45>    C      -10.76554       -11.01331        -5.67729
| 46>    C      -11.75498       -11.57616        -6.52812
| 47>    S      -13.32701       -11.78946        -5.81779
| 48>    C      -13.92503       -12.60344        -7.23533
| 49>    C      -15.23640       -13.12290        -7.30702
| 50>    C      -16.34221       -12.68440        -6.64085
| 51>    C      -17.50580       -13.58023        -6.43642
| 52>    O      -17.72182       -14.64219        -6.97238
| 53>    C      -18.31811       -12.91403        -5.38854
| 54>    C      -19.44382       -13.38258        -4.74385
| 55>    C      -20.00691       -12.56597        -3.77209
| 56>   Br      -21.55955       -13.15881        -2.85014
| 57>    C      -19.46462       -11.32869        -3.45158
| 58>    C      -18.33801       -10.86099        -4.11158
| 59>    C      -17.76179       -11.65668        -5.08953
| 60>    C      -16.61579       -11.43407        -5.96767
| 61>    C      -16.10224       -10.20789        -6.30487
| 62>    C      -15.20879       -10.01363        -7.37798
| 63>    N      -14.52983        -9.81077        -8.28203
| 64>    C      -16.49494        -9.00007        -5.69544
| 65>    N      -16.78218        -7.99369        -5.22383
| 66>    C      -12.93040       -12.69077        -8.20378
| 67>    C      -11.73283       -12.06172        -7.83446
| 68>    C      -10.60672       -11.84954        -8.81285
| 69>    N      -10.04134       -10.52062        -8.63497
| 70>    C      -11.11878       -12.09214       -10.24264
| 71>    C      -11.84982       -13.42158       -10.32703
| 72>    C      -13.16601       -13.34597        -9.53935
| 73>    N      -13.80470       -14.64136        -9.35225
| 74>    C       -8.82631        -9.80972        -3.75150
| 75>    N       -9.99091        -9.51495        -3.20895
| 76>    O       -9.72966        -8.84924        -2.08374
| 77>    N       -8.42542        -8.69444        -1.86564
| 78>    C       -7.81166        -9.27472        -2.87472
| 79>    N       -4.14262        -9.06342        -2.47329
| 80>    C       -3.44282        -8.46066        -1.52497
| 81>    C       -1.97633        -8.33546        -1.25615
| 82>    C        0.36102        -3.65195         4.89587
| 83>    C        1.04809        -2.95114         5.85688
| 84>    H       -1.52876        -3.51288         8.87825
| 85>    H        0.18247        -3.15223         9.12116
| 86>    H       -0.31701        -4.19982         7.79330
| 87>    H       -1.00198        -1.23098         8.05439
| 88>    H       -1.51765        -2.28626         6.73728
| 89>    H        1.45671        -0.26373         5.47535
| 90>    H        0.20223         0.31716         6.56904
| 91>    H       -0.24383        -1.23998         3.97993
| 92>    H       -0.56473         0.46714         4.26277
| 93>    H       -1.53627        -0.74752         5.08474
| 94>    H        1.10176        -0.06521         8.97672
| 95>    H        3.22739        -0.03336        10.22196
| 96>    H        5.06871        -1.52813         9.59735
| 97>    H        4.81858        -3.10658         7.71247
| 98>    H        4.03917        -4.57702         5.73355
| 99>    H        2.83293        -5.77242         3.95199
|100>    H        0.99306        -6.07060         2.56288
|101>    H       -1.66014        -4.88519         3.51963
|102>    H        0.02847        -7.04517         0.70803
|103>    H       -5.08515       -10.24517        -4.57176
|104>    H       -6.78784       -11.13058        -6.07082
|105>    H       -9.00881       -11.50772        -6.74243
|106>    H      -11.14238       -10.57095        -4.76416
|107>    H      -15.34972       -14.01053        -7.92245
|108>    H      -19.86325       -14.34523        -4.99202
|109>    H      -19.92501       -10.72767        -2.68243
|110>    H      -17.92344        -9.90126        -3.84842
|111>    H       -9.80427       -12.57490        -8.60545
|112>    H      -10.77237        -9.82067        -8.70097
|113>    H       -9.35955       -10.33204        -9.36155
|114>    H      -10.27228       -12.07559       -10.93343
|115>    H      -11.80152       -11.28370       -10.51765
|116>    H      -11.22071       -14.21171        -9.90516
|117>    H      -12.06326       -13.67830       -11.36697
|118>    H      -13.87746       -12.71990       -10.09587
|119>    H      -13.18241       -15.27493        -8.86136
|120>    H      -14.03285       -15.05480       -10.24869
|121>    H       -1.45253        -7.85089        -2.08205
|122>    H       -1.51156        -9.30961        -1.09330
|123>    H       -0.66633        -3.41248         4.67297
|124> *
|125>
|126>                          ****END OF INPUT****

CARTESIAN COORDINATES (ANGSTROEM)
---------------------------------
  C     -0.586910   -3.317830    8.370280
  C     -0.721030   -2.102770    7.459560
  C      0.580930   -1.792050    6.708470
  C      0.466640   -0.489160    5.880970
  C     -0.534720   -0.513320    4.733690
  C      1.758690   -1.612080    7.642950
  C      1.904040   -0.730680    8.692550
  C      3.103200   -0.714530    9.392810
  C      4.143630   -1.560670    9.040400
  C      4.008030   -2.447070    7.984950
  C      2.810020   -2.470620    7.288800
  C      2.371430   -3.298220    6.181850
  C      3.019770   -4.312810    5.494400
  C      2.337770   -4.982160    4.498740
  C      1.002070   -4.685550    4.194890
  C      0.342280   -5.446240    3.160850
  C     -0.981610   -5.457150    2.902220
  C     -1.602810   -6.196800    1.855800
  C     -1.033180   -6.935080    0.831050
  C     -1.984060   -7.492110   -0.014840
  C     -3.295050   -7.188710    0.363090
  S     -3.354370   -6.202890    1.764920
  C     -4.192280   -7.781890   -0.550110
  S     -5.868570   -7.940070   -0.862810
  C     -5.429300   -8.901750   -2.294140
  C     -6.428580   -9.424760   -3.156260
  C     -6.126650  -10.111320   -4.325270
  C     -7.107950  -10.616970   -5.175930
  C     -8.475500  -10.501450   -4.946750
  C     -9.424820  -11.047150   -5.862150
  C    -10.765540  -11.013310   -5.677290
  C    -11.754980  -11.576160   -6.528120
  S    -13.327010  -11.789460   -5.817790
  C    -13.925030  -12.603440   -7.235330
  C    -15.236400  -13.122900   -7.307020
  C    -16.342210  -12.684400   -6.640850
  C    -17.505800  -13.580230   -6.436420
  O    -17.721820  -14.642190   -6.972380
  C    -18.318110  -12.914030   -5.388540
  C    -19.443820  -13.382580   -4.743850
  C    -20.006910  -12.565970   -3.772090
  Br   -21.559550  -13.158810   -2.850140
  C    -19.464620  -11.328690   -3.451580
  C    -18.338010  -10.860990   -4.111580
  C    -17.761790  -11.656680   -5.089530
  C    -16.615790  -11.434070   -5.967670
  C    -16.102240  -10.207890   -6.304870
  C    -15.208790  -10.013630   -7.377980
  N    -14.529830   -9.810770   -8.282030
  C    -16.494940   -9.000070   -5.695440
  N    -16.782180   -7.993690   -5.223830
  C    -12.930400  -12.690770   -8.203780
  C    -11.732830  -12.061720   -7.834460
  C    -10.606720  -11.849540   -8.812850
  N    -10.041340  -10.520620   -8.634970
  C    -11.118780  -12.092140  -10.242640
  C    -11.849820  -13.421580  -10.327030
  C    -13.166010  -13.345970   -9.539350
  N    -13.804700  -14.641360   -9.352250
  C     -8.826310   -9.809720   -3.751500
  N     -9.990910   -9.514950   -3.208950
  O     -9.729660   -8.849240   -2.083740
  N     -8.425420   -8.694440   -1.865640
  C     -7.811660   -9.274720   -2.874720
  N     -4.142620   -9.063420   -2.473290
  C     -3.442820   -8.460660   -1.524970
  C     -1.976330   -8.335460   -1.256150
  C      0.361020   -3.651950    4.895870
  C      1.048090   -2.951140    5.856880
  H     -1.528760   -3.512880    8.878250
  H      0.182470   -3.152230    9.121160
  H     -0.317010   -4.199820    7.793300
  H     -1.001980   -1.230980    8.054390
  H     -1.517650   -2.286260    6.737280
  H      1.456710   -0.263730    5.475350
  H      0.202230    0.317160    6.569040
  H     -0.243830   -1.239980    3.979930
  H     -0.564730    0.467140    4.262770
  H     -1.536270   -0.747520    5.084740
  H      1.101760   -0.065210    8.976720
  H      3.227390   -0.033360   10.221960
  H      5.068710   -1.528130    9.597350
  H      4.818580   -3.106580    7.712470
  H      4.039170   -4.577020    5.733550
  H      2.832930   -5.772420    3.951990
  H      0.993060   -6.070600    2.562880
  H     -1.660140   -4.885190    3.519630
  H      0.028470   -7.045170    0.708030
  H     -5.085150  -10.245170   -4.571760
  H     -6.787840  -11.130580   -6.070820
  H     -9.008810  -11.507720   -6.742430
  H    -11.142380  -10.570950   -4.764160
  H    -15.349720  -14.010530   -7.922450
  H    -19.863250  -14.345230   -4.992020
  H    -19.925010  -10.727670   -2.682430
  H    -17.923440   -9.901260   -3.848420
  H     -9.804270  -12.574900   -8.605450
  H    -10.772370   -9.820670   -8.700970
  H     -9.359550  -10.332040   -9.361550
  H    -10.272280  -12.075590  -10.933430
  H    -11.801520  -11.283700  -10.517650
  H    -11.220710  -14.211710   -9.905160
  H    -12.063260  -13.678300  -11.366970
  H    -13.877460  -12.719900  -10.095870
  H    -13.182410  -15.274930   -8.861360
  H    -14.032850  -15.054800  -10.248690
  H     -1.452530   -7.850890   -2.082050
  H     -1.511560   -9.309610   -1.093300
  H     -0.666330   -3.412480    4.672970

 Total Charge           Charge          ....    0
 Multiplicity           Mult            ....    1
 Number of Electrons    NEL             ....  524
 Basis Dimension        Dim             .... 1196

ORBITAL ENERGIES
----------------

  NO   OCC          E(Eh)            E(eV)
   0   2.0000    -482.864793    -13139.4190
   1   2.0000     -88.964042     -2420.8347
   2   2.0000     -88.957922     -2420.6681
   3   2.0000     -88.956665     -2420.6339
   4   2.0000     -62.542527     -1701.8687
   5   2.0000     -56.376353     -1534.0786
   6   2.0000     -56.373843     -1534.0103
   7   2.0000     -56.373842     -1534.0102
   8   2.0000     -19.352414      -526.6059
   9   2.0000     -19.206315      -522.6304
  10   2.0000     -14.478965      -393.9927
  11   2.0000     -14.478408      -393.9775
  12   2.0000     -14.410908      -392.1408
  13   2.0000     -14.407171      -392.0390
  14   2.0000     -14.406573      -392.0228
  15   2.0000     -14.397429      -391.7740
  16   2.0000     -14.387440      -391.5021
  17   2.0000     -10.357721      -281.8479
  18   2.0000     -10.336438      -281.2688
  19   2.0000     -10.333428      -281.1869
  20   2.0000     -10.332315      -281.1566
  21   2.0000     -10.332291      -281.1559
  22   2.0000     -10.323589      -280.9191
  23   2.0000     -10.322995      -280.9030
  24   2.0000     -10.310338      -280.5586
  25   2.0000     -10.310285      -280.5571
  26   2.0000     -10.309479      -280.5352
  27   2.0000     -10.308273      -280.5024
  28   2.0000     -10.306972      -280.4670
  29   2.0000     -10.304707      -280.4053
  30   2.0000     -10.301542      -280.3192
  31   2.0000     -10.301374      -280.3146
  32   2.0000     -10.301321      -280.3132
  33   2.0000     -10.300998      -280.3044
  34   2.0000     -10.300588      -280.2932
  35   2.0000     -10.300347      -280.2867
  36   2.0000     -10.299795      -280.2717
  37   2.0000     -10.299387      -280.2606
  38   2.0000     -10.295950      -280.1670
  39   2.0000     -10.295715      -280.1607
  40   2.0000     -10.294341      -280.1233
  41   2.0000     -10.291675      -280.0507
  42   2.0000     -10.290206      -280.0107
  43   2.0000     -10.289544      -279.9927
  44   2.0000     -10.288766      -279.9715
  45   2.0000     -10.285021      -279.8697
  46   2.0000     -10.282703      -279.8066
  47   2.0000     -10.281518      -279.7743
  48   2.0000     -10.279321      -279.7146
  49   2.0000     -10.277765      -279.6722
  50   2.0000     -10.276727      -279.6440
  51   2.0000     -10.276463      -279.6368
  52   2.0000     -10.272830      -279.5379
  53   2.0000     -10.272614      -279.5320
  54   2.0000     -10.272593      -279.5315
  55   2.0000     -10.271456      -279.5005
  56   2.0000     -10.270527      -279.4752
  57   2.0000     -10.268261      -279.4136
  58   2.0000     -10.265357      -279.3346
  59   2.0000     -10.264497      -279.3112
  60   2.0000     -10.264307      -279.3060
  61   2.0000     -10.264015      -279.2981
  62   2.0000     -10.262941      -279.2688
  63   2.0000     -10.262927      -279.2684
  64   2.0000     -10.262006      -279.2434
  65   2.0000     -10.261857      -279.2393
  66   2.0000     -10.261394      -279.2267
  67   2.0000     -10.260639      -279.2062
  68   2.0000     -10.260084      -279.1911
  69   2.0000     -10.258890      -279.1586
  70   2.0000     -10.258293      -279.1423
  71   2.0000     -10.247485      -278.8483
  72   2.0000     -10.242073      -278.7010
  73   2.0000      -8.771813      -238.6932
  74   2.0000      -8.058321      -219.2781
  75   2.0000      -8.053050      -219.1346
  76   2.0000      -8.051881      -219.1028
  77   2.0000      -6.607621      -179.8025
  78   2.0000      -6.593914      -179.4295
  79   2.0000      -6.593542      -179.4194
  80   2.0000      -6.027536      -164.0176
  81   2.0000      -6.023410      -163.9053
  82   2.0000      -6.022355      -163.8766
  83   2.0000      -6.021055      -163.8412
  84   2.0000      -6.020617      -163.8293
  85   2.0000      -6.018319      -163.7668
  86   2.0000      -6.017008      -163.7311
  87   2.0000      -6.015162      -163.6809
  88   2.0000      -6.014108      -163.6522
  89   2.0000      -2.723546       -74.1114
  90   2.0000      -2.719808       -74.0097
  91   2.0000      -2.719523       -74.0020
  92   2.0000      -2.708636       -73.7057
  93   2.0000      -2.708614       -73.7051
  94   2.0000      -1.305240       -35.5174
  95   2.0000      -1.121276       -30.5115
  96   2.0000      -1.065402       -28.9911
  97   2.0000      -1.013717       -27.5846
  98   2.0000      -1.010537       -27.4981
  99   2.0000      -1.006633       -27.3919
 100   2.0000      -0.998578       -27.1727
 101   2.0000      -0.992363       -27.0036
 102   2.0000      -0.990699       -26.9583
 103   2.0000      -0.985516       -26.8172
 104   2.0000      -0.980789       -26.6886
 105   2.0000      -0.979909       -26.6647
 106   2.0000      -0.969072       -26.3698
 107   2.0000      -0.954310       -25.9681
 108   2.0000      -0.937793       -25.5186
 109   2.0000      -0.926173       -25.2024
 110   2.0000      -0.918131       -24.9836
 111   2.0000      -0.908075       -24.7100
 112   2.0000      -0.905093       -24.6288
 113   2.0000      -0.901864       -24.5410
 114   2.0000      -0.895234       -24.3606
 115   2.0000      -0.891676       -24.2637
 116   2.0000      -0.885470       -24.0949
 117   2.0000      -0.881379       -23.9835
 118   2.0000      -0.873502       -23.7692
 119   2.0000      -0.855458       -23.2782
 120   2.0000      -0.852482       -23.1972
 121   2.0000      -0.843463       -22.9518
 122   2.0000      -0.833145       -22.6710
 123   2.0000      -0.831633       -22.6299
 124   2.0000      -0.827842       -22.5267
 125   2.0000      -0.824280       -22.4298
 126   2.0000      -0.823759       -22.4156
 127   2.0000      -0.813625       -22.1399
 128   2.0000      -0.802908       -21.8482
 129   2.0000      -0.784605       -21.3502
 130   2.0000      -0.779477       -21.2106
 131   2.0000      -0.773971       -21.0608
 132   2.0000      -0.758151       -20.6303
 133   2.0000      -0.757252       -20.6059
 134   2.0000      -0.757164       -20.6035
 135   2.0000      -0.751821       -20.4581
 136   2.0000      -0.745562       -20.2878
 137   2.0000      -0.732935       -19.9442
 138   2.0000      -0.715975       -19.4827
 139   2.0000      -0.708533       -19.2802
 140   2.0000      -0.704215       -19.1627
 141   2.0000      -0.696717       -18.9586
 142   2.0000      -0.689733       -18.7686
 143   2.0000      -0.686406       -18.6781
 144   2.0000      -0.682765       -18.5790
 145   2.0000      -0.673662       -18.3313
 146   2.0000      -0.670689       -18.2504
 147   2.0000      -0.663682       -18.0597
 148   2.0000      -0.656808       -17.8727
 149   2.0000      -0.655034       -17.8244
 150   2.0000      -0.649474       -17.6731
 151   2.0000      -0.645397       -17.5621
 152   2.0000      -0.637330       -17.3426
 153   2.0000      -0.631238       -17.1769
 154   2.0000      -0.624529       -16.9943
 155   2.0000      -0.620273       -16.8785
 156   2.0000      -0.615335       -16.7441
 157   2.0000      -0.612029       -16.6542
 158   2.0000      -0.605485       -16.4761
 159   2.0000      -0.603979       -16.4351
 160   2.0000      -0.595605       -16.2072
 161   2.0000      -0.593030       -16.1372
 162   2.0000      -0.588358       -16.0100
 163   2.0000      -0.584696       -15.9104
 164   2.0000      -0.577321       -15.7097
 165   2.0000      -0.572549       -15.5798
 166   2.0000      -0.568956       -15.4821
 167   2.0000      -0.567066       -15.4307
 168   2.0000      -0.561567       -15.2810
 169   2.0000      -0.557063       -15.1585
 170   2.0000      -0.550794       -14.9879
 171   2.0000      -0.548300       -14.9200
 172   2.0000      -0.546122       -14.8607
 173   2.0000      -0.540570       -14.7097
 174   2.0000      -0.538392       -14.6504
 175   2.0000      -0.535093       -14.5606
 176   2.0000      -0.533001       -14.5037
 177   2.0000      -0.530127       -14.4255
 178   2.0000      -0.529749       -14.4152
 179   2.0000      -0.527719       -14.3600
 180   2.0000      -0.525978       -14.3126
 181   2.0000      -0.523269       -14.2389
 182   2.0000      -0.518269       -14.1028
 183   2.0000      -0.516893       -14.0654
 184   2.0000      -0.513727       -13.9792
 185   2.0000      -0.512133       -13.9358
 186   2.0000      -0.511055       -13.9065
 187   2.0000      -0.505900       -13.7662
 188   2.0000      -0.502450       -13.6724
 189   2.0000      -0.499098       -13.5812
 190   2.0000      -0.498251       -13.5581
 191   2.0000      -0.496644       -13.5144
 192   2.0000      -0.492415       -13.3993
 193   2.0000      -0.492078       -13.3901
 194   2.0000      -0.488869       -13.3028
 195   2.0000      -0.485233       -13.2038
 196   2.0000      -0.480330       -13.0704
 197   2.0000      -0.477053       -12.9813
 198   2.0000      -0.474696       -12.9171
 199   2.0000      -0.471824       -12.8390
 200   2.0000      -0.469847       -12.7852
 201   2.0000      -0.469293       -12.7701
 202   2.0000      -0.468786       -12.7563
 203   2.0000      -0.466692       -12.6993
 204   2.0000      -0.463903       -12.6234
 205   2.0000      -0.462184       -12.5767
 206   2.0000      -0.460662       -12.5353
 207   2.0000      -0.457661       -12.4536
 208   2.0000      -0.454478       -12.3670
 209   2.0000      -0.452786       -12.3209
 210   2.0000      -0.448622       -12.2076
 211   2.0000      -0.448103       -12.1935
 212   2.0000      -0.444391       -12.0925
 213   2.0000      -0.444302       -12.0901
 214   2.0000      -0.442127       -12.0309
 215   2.0000      -0.440728       -11.9928
 216   2.0000      -0.439981       -11.9725
 217   2.0000      -0.435184       -11.8420
 218   2.0000      -0.432547       -11.7702
 219   2.0000      -0.430665       -11.7190
 220   2.0000      -0.428012       -11.6468
 221   2.0000      -0.427162       -11.6237
 222   2.0000      -0.426182       -11.5970
 223   2.0000      -0.421249       -11.4628
 224   2.0000      -0.419035       -11.4025
 225   2.0000      -0.418941       -11.4000
 226   2.0000      -0.415532       -11.3072
 227   2.0000      -0.414084       -11.2678
 228   2.0000      -0.412415       -11.2224
 229   2.0000      -0.411587       -11.1998
 230   2.0000      -0.410156       -11.1609
 231   2.0000      -0.407371       -11.0851
 232   2.0000      -0.406147       -11.0518
 233   2.0000      -0.405812       -11.0427
 234   2.0000      -0.398424       -10.8417
 235   2.0000      -0.397007       -10.8031
 236   2.0000      -0.388180       -10.5629
 237   2.0000      -0.385192       -10.4816
 238   2.0000      -0.382834       -10.4174
 239   2.0000      -0.379746       -10.3334
 240   2.0000      -0.374659       -10.1950
 241   2.0000      -0.369735       -10.0610
 242   2.0000      -0.368293       -10.0218
 243   2.0000      -0.360017        -9.7965
 244   2.0000      -0.359347        -9.7783
 245   2.0000      -0.350333        -9.5330
 246   2.0000      -0.344562        -9.3760
 247   2.0000      -0.342270        -9.3136
 248   2.0000      -0.341807        -9.3010
 249   2.0000      -0.329252        -8.9594
 250   2.0000      -0.326209        -8.8766
 251   2.0000      -0.322991        -8.7890
 252   2.0000      -0.318961        -8.6794
 253   2.0000      -0.314229        -8.5506
 254   2.0000      -0.312655        -8.5078
 255   2.0000      -0.306937        -8.3522
 256   2.0000      -0.305870        -8.3232
 257   2.0000      -0.303414        -8.2563
 258   2.0000      -0.293976        -7.9995
 259   2.0000      -0.273758        -7.4493
 260   2.0000      -0.251278        -6.8376
 261   2.0000      -0.222427        -6.0525
 262   0.0000      -0.092453        -2.5158
 263   0.0000      -0.069670        -1.8958
 264   0.0000      -0.050473        -1.3735
 265   0.0000      -0.035576        -0.9681
 266   0.0000      -0.006223        -0.1693

MULLIKEN ATOMIC CHARGES
-----------------------
   0 C :    0.028566
   1 C :    0.051937
   2 C :   -0.141999
   3 C :    0.082031
   4 C :    0.030985
   5 C :    0.001604
   6 C :   -0.046007
   7 C :    0.025041
   8 C :    0.034596
   9 C :   -0.056255
  10 C :    0.104816
  11 C :    0.093218
  12 C :   -0.048216
  13 C :   -0.023951
  14 C :    0.128093
  15 C :   -0.019800
  16 C :    0.061218
  17 C :   -0.075498
  18 C :   -0.021348
  19 C :   -0.164039
  20 C :   -0.110406
  21 S :    0.147894
  22 C :   -0.036632
  23 S :    0.163387
  24 C :   -0.175264
  25 C :    0.139230
  26 C :   -0.038905
  27 C :   -0.025502
  28 C :    0.079028
  29 C :    0.029686
  30 C :    0.038793
  31 C :   -0.099528
  32 S :    0.159464
  33 C :   -0.201741
  34 C :    0.038305
  35 C :   -0.122858
  36 C :    0.141443
  37 O :   -0.140827
  38 C :   -0.012532
  39 C :   -0.012739
  40 C :   -0.004654
  41 Br:   -0.027620
  42 C :    0.044636
  43 C :   -0.021427
  44 C :    0.018746
  45 C :    0.249350
  46 C :   -0.326654
  47 C :   -0.181777
  48 N :    0.150344
  49 C :   -0.186214
  50 N :    0.155560
  51 C :    0.042349
  52 C :   -0.055189
  53 C :    0.058604
  54 N :   -0.178646
  55 C :    0.053018
  56 C :    0.069029
  57 C :    0.064627
  58 N :   -0.172089
  59 C :   -0.012599
  60 N :    0.038566
  61 O :   -0.089676
  62 N :    0.029567
  63 C :   -0.047970
  64 N :   -0.002872
  65 C :   -0.230063
  66 C :    0.393614
  67 C :   -0.095357
  68 C :    0.025305
  69 H :    0.006292
  70 H :    0.021287
  71 H :    0.018953
  72 H :   -0.003159
  73 H :    0.003082
  74 H :    0.003550
  75 H :   -0.005800
  76 H :    0.022531
  77 H :    0.010745
  78 H :    0.001316
  79 H :   -0.036229
  80 H :   -0.020327
  81 H :   -0.021685
  82 H :   -0.038248
  83 H :   -0.037555
  84 H :   -0.032796
  85 H :   -0.025656
  86 H :   -0.021555
  87 H :   -0.026404
  88 H :   -0.004481
  89 H :   -0.014551
  90 H :   -0.043207
  91 H :    0.002400
  92 H :    0.030689
  93 H :    0.001109
  94 H :    0.004502
  95 H :    0.009196
  96 H :    0.005045
  97 H :    0.106398
  98 H :    0.091159
  99 H :   -0.006884
 100 H :    0.008749
 101 H :   -0.014570
 102 H :   -0.003400
 103 H :    0.020950
 104 H :    0.097362
 105 H :    0.101655
 106 H :    0.033562
 107 H :    0.032457
 108 H :   -0.042276
Sum of atomic charges:   -0.0000000

LOEWDIN ATOMIC CHARGES
----------------------
   0 C :   -0.056375
   1 C :   -0.016183
   2 C :   -0.035211
   3 C :   -0.009049
   4 C :   -0.059719
   5 C :    0.003780
   6 C :   -0.028806
   7 C :   -0.023918
   8 C :   -0.027324
   9 C :   -0.021795
  10 C :   -0.020370
  11 C :   -0.014709
  12 C :   -0.021368
  13 C :   -0.020023
  14 C :   -0.027146
  15 C :   -0.013703
  16 C :   -0.048390
  17 C :   -0.160566
  18 C :   -0.058056
  19 C :   -0.044390
  20 C :   -0.207182
  21 S :    0.436830
  22 C :   -0.210796
  23 S :    0.453601
  24 C :   -0.135890
  25 C :   -0.052561
  26 C :    0.006569
  27 C :   -0.004872
  28 C :   -0.027186
  29 C :    0.007802
  30 C :   -0.044541
  31 C :   -0.132036
  32 S :    0.476395
  33 C :   -0.187861
  34 C :    0.060341
  35 C :   -0.112176
  36 C :    0.082687
  37 O :   -0.140969
  38 C :   -0.038515
  39 C :   -0.001812
  40 C :   -0.100297
  41 Br:    0.109254
  42 C :   -0.015188
  43 C :    0.005690
  44 C :   -0.013027
  45 C :    0.063316
  46 C :   -0.145522
  47 C :   -0.022597
  48 N :   -0.065064
  49 C :   -0.021000
  50 N :   -0.054993
  51 C :   -0.019789
  52 C :   -0.065389
  53 C :    0.015721
  54 N :   -0.086677
  55 C :   -0.039830
  56 C :   -0.041271
  57 C :    0.019334
  58 N :   -0.076737
  59 C :   -0.041107
  60 N :   -0.021144
  61 O :    0.075828
  62 N :   -0.037698
  63 C :   -0.054547
  64 N :   -0.082053
  65 C :   -0.043045
  66 C :   -0.013278
  67 C :   -0.018857
  68 C :    0.004281
  69 H :    0.022756
  70 H :    0.025501
  71 H :    0.025167
  72 H :    0.019871
  73 H :    0.018495
  74 H :    0.026470
  75 H :    0.019394
  76 H :    0.024774
  77 H :    0.027108
  78 H :    0.019011
  79 H :    0.024059
  80 H :    0.026017
  81 H :    0.026152
  82 H :    0.024503
  83 H :    0.026027
  84 H :    0.024429
  85 H :    0.025359
  86 H :    0.024274
  87 H :    0.028984
  88 H :    0.038882
  89 H :    0.034132
  90 H :    0.027837
  91 H :    0.028237
  92 H :    0.043726
  93 H :    0.043090
  94 H :    0.039376
  95 H :    0.042392
  96 H :    0.021119
  97 H :    0.061239
  98 H :    0.053066
  99 H :    0.020831
 100 H :    0.025965
 101 H :    0.017220
 102 H :    0.023002
 103 H :    0.036936
 104 H :    0.056283
 105 H :    0.059127
 106 H :    0.054537
 107 H :    0.054549
 108 H :    0.021279

  Mayer bond orders larger than 0.100000
B(  0-C ,  1-C ) :   1.1057 B(  0-C , 69-H ) :   0.9646 B(  0-C , 70-H ) :   0.9632
B(  0-C , 71-H ) :   0.9642 B(  1-C ,  2-C ) :   1.0333 B(  1-C , 72-H ) :   0.9390
B(  1-C , 73-H ) :   0.9378 B(  2-C ,  3-C ) :   1.0147 B(  2-C ,  5-C ) :   0.9311
B(  2-C , 68-C ) :   0.9217 B(  3-C ,  4-C ) :   1.1141 B(  3-C , 74-H ) :   0.9384
B(  3-C , 75-H ) :   0.9370 B(  4-C , 76-H ) :   0.9604 B(  4-C , 77-H ) :   0.9591
B(  4-C , 78-H ) :   0.9628 B(  5-C ,  6-C ) :   1.4022 B(  5-C , 10-C ) :   1.3837
B(  6-C ,  7-C ) :   1.3572 B(  6-C , 79-H ) :   1.0002 B(  7-C ,  8-C ) :   1.3913
B(  7-C , 80-H ) :   0.9859 B(  8-C ,  9-C ) :   1.3749 B(  8-C , 81-H ) :   0.9848
B(  9-C , 10-C ) :   1.3591 B(  9-C , 82-H ) :   0.9900 B( 10-C , 11-C ) :   0.9923
B( 11-C , 12-C ) :   1.3514 B( 11-C , 68-C ) :   1.3719 B( 12-C , 13-C ) :   1.3702
B( 12-C , 83-H ) :   0.9898 B( 13-C , 14-C ) :   1.3352 B( 13-C , 84-H ) :   0.9946
B( 14-C , 15-C ) :   1.0708 B( 14-C , 67-C ) :   1.2945 B( 15-C , 16-C ) :   1.7117
B( 15-C , 85-H ) :   0.9806 B( 16-C , 17-C ) :   1.1059 B( 16-C , 86-H ) :   0.9536
B( 17-C , 18-C ) :   1.4740 B( 17-C , 21-S ) :   1.1120 B( 18-C , 19-C ) :   1.3102
B( 18-C , 87-H ) :   0.9978 B( 19-C , 20-C ) :   1.5199 B( 19-C , 66-C ) :   0.9828
B( 20-C , 21-S ) :   1.0798 B( 20-C , 22-C ) :   1.1923 B( 22-C , 23-S ) :   1.0813
B( 22-C , 65-C ) :   1.4565 B( 23-S , 24-C ) :   1.0895 B( 24-C , 25-C ) :   1.0896
B( 24-C , 64-N ) :   1.6757 B( 25-C , 26-C ) :   1.4849 B( 25-C , 28-C ) :   0.1063
B( 25-C , 63-C ) :   1.1282 B( 26-C , 27-C ) :   1.1934 B( 26-C , 88-H ) :   0.9978
B( 27-C , 28-C ) :   1.4301 B( 27-C , 89-H ) :   0.9981 B( 28-C , 29-C ) :   1.1680
B( 28-C , 59-C ) :   1.0947 B( 29-C , 30-C ) :   1.6531 B( 29-C , 90-H ) :   0.9554
B( 30-C , 31-C ) :   1.1254 B( 30-C , 91-H ) :   0.9248 B( 31-C , 32-S ) :   1.1580
B( 31-C , 52-C ) :   1.4501 B( 32-S , 33-C ) :   1.1082 B( 33-C , 34-C ) :   1.1554
B( 33-C , 51-C ) :   1.4347 B( 34-C , 35-C ) :   1.5823 B( 34-C , 92-H ) :   0.9173
B( 35-C , 36-C ) :   0.9555 B( 35-C , 45-C ) :   1.0518 B( 36-C , 37-O ) :   2.2680
B( 36-C , 38-C ) :   0.9148 B( 38-C , 39-C ) :   1.3858 B( 38-C , 44-C ) :   1.3331
B( 39-C , 40-C ) :   1.3412 B( 39-C , 93-H ) :   1.0061 B( 40-C , 41-Br) :   0.9881
B( 40-C , 42-C ) :   1.3920 B( 42-C , 43-C ) :   1.3780 B( 42-C , 94-H ) :   0.9857
B( 43-C , 44-C ) :   1.3729 B( 43-C , 95-H ) :   0.9864 B( 44-C , 45-C ) :   1.0027
B( 45-C , 46-C ) :   1.6507 B( 46-C , 47-C ) :   1.1609 B( 46-C , 49-C ) :   1.1350
B( 47-C , 48-N ) :   3.0017 B( 49-C , 50-N ) :   2.9970 B( 51-C , 52-C ) :   1.3670
B( 51-C , 57-C ) :   0.9919 B( 52-C , 53-C ) :   0.9930 B( 53-C , 54-N ) :   1.1102
B( 53-C , 55-C ) :   1.0681 B( 53-C , 96-H ) :   0.8702 B( 54-N , 97-H ) :   0.9607
B( 54-N , 98-H ) :   0.9704 B( 55-C , 56-C ) :   1.0569 B( 55-C , 99-H ) :   0.9240
B( 55-C ,100-H ) :   0.9296 B( 56-C , 57-C ) :   1.0668 B( 56-C ,101-H ) :   0.9235
B( 56-C ,102-H ) :   0.9244 B( 57-C , 58-N ) :   1.0855 B( 57-C ,103-H ) :   0.8775
B( 58-N , 92-H ) :   0.1190 B( 58-N ,104-H ) :   0.9649 B( 58-N ,105-H ) :   0.9676
B( 59-C , 60-N ) :   1.5925 B( 59-C , 63-C ) :   1.1538 B( 60-N , 61-O ) :   1.0597
B( 60-N , 62-N ) :   0.1794 B( 61-O , 62-N ) :   1.0665 B( 62-N , 63-C ) :   1.5929
B( 64-N , 65-C ) :   1.4635 B( 65-C , 66-C ) :   1.0431 B( 66-C ,106-H ) :   0.8611
B( 66-C ,107-H ) :   0.8587 B( 67-C , 68-C ) :   1.4169 B( 67-C ,108-H ) :   0.9903

-----------------------------------------------------------------------------
         ABSORPTION SPECTRUM VIA TRANSITION ELECTRIC DIPOLE MOMENTS
-----------------------------------------------------------------------------
State   Energy  Wavelength   fosc         T2         TX        TY        TZ
        (cm-1)    (nm)                  (au**2)     (au)      (au)      (au)
-----------------------------------------------------------------------------
   0   15044.3    664.7   1.847755140  40.43403  -5.27511  -1.95692  -2.96272
   1   19835.4    504.2   0.323008496   5.36105   0.26977  -1.41978  -1.80901
   2   22204.2    450.4   0.067383897   0.99907   0.89810   0.27299   0.34345
   3   25516.7    391.9   0.051396014   0.66310  -0.09314   0.02579   0.80856
   4   26147.4    382.4   0.872378974  10.98379  -2.18281  -1.39224  -2.06900
   5   26593.0    376.0   0.273625686   3.38739   0.78154   1.28410   1.06192
   6   27740.7    360.5   0.056031857   0.66496  -0.42770   0.01447   0.69413
   7   28737.7    348.0   0.016613334   0.19032   0.08684  -0.17448  -0.39030
   8   29308.4    341.2   0.119528016   1.34262   0.97541   0.15854  -0.60503
   9   29602.0    337.8   0.024660480   0.27426  -0.08507  -0.47069  -0.21324
  10   30949.2    323.1   0.100417289   1.06816  -0.82910  -0.26085   0.55920
  11   31778.4    314.7   0.075964977   0.78697   0.60155   0.65168   0.02047
  12   32052.8    312.0   0.016414089   0.16859  -0.24959   0.19350   0.26239
  13   32277.7    309.8   0.056796025   0.57928   0.46568   0.56665  -0.20332
  14   33001.5    303.0   0.012681558   0.12651   0.17692   0.11883   0.28476
  15   33361.6    299.7   0.176932872   1.74597   0.85397  -0.09978  -1.00337
  16   33865.1    295.3   0.060303887   0.58623  -0.18955  -0.67512  -0.30744
  17   34760.1    287.7   0.106773797   1.01125  -0.65018  -0.42791  -0.63672
  18   35011.2    285.6   0.380179502   3.57484   1.42587   1.19337  -0.34295
  19   35439.9    282.2   0.076493032   0.71057   0.14769   0.23143  -0.79699
  20   35454.6    282.1   0.024235352   0.22504   0.35714   0.04888  -0.30838
  21   36672.9    272.7   0.029154759   0.26172   0.39444  -0.16596   0.28035
  22   37082.0    269.7   0.006709419   0.05957   0.23542   0.06258  -0.01505
  23   37367.0    267.6   0.073402887   0.64670  -0.34442  -0.14038   0.71299
  24   37827.1    264.4   0.151238078   1.31624  -0.78617  -0.83218   0.07524
  25   38024.4    263.0   0.033243982   0.28782  -0.07640  -0.50006  -0.17868
  26   38135.8    262.2   0.022707291   0.19602   0.42242   0.09418   0.09333
  27   38701.0    258.4   0.011968811   0.10181  -0.16705  -0.25608  -0.09128
  28   39221.0    255.0   0.022450684   0.18845  -0.12750  -0.41413  -0.02624
  29   39594.5    252.6   0.044226162   0.36772  -0.03194   0.38171   0.47010
  30   39777.7    251.4   0.029028218   0.24025  -0.28874   0.36693   0.14911
  31   40101.1    249.4   0.021773583   0.17875  -0.31465   0.25290  -0.12563
  32   40211.1    248.7   0.006624885   0.05424  -0.21841  -0.03349   0.07359
  33   40241.6    248.5   0.065662093   0.53717   0.31303   0.46986   0.46736

FINAL SINGLE POINT ENERGY     -6456.383196677604

DIPOLE MOMENT
-------------
                                X             Y             Z
Electronic contribution:   -244.40567     -98.99328     -58.61174
Nuclear contribution   :    247.53089      97.99228      57.72893
                        -----------------------------------------
Total Dipole Moment    :      3.12522      -1.00100      -0.88281
                        -----------------------------------------
Magnitude (a.u.)       :      3.39829
Magnitude (Debye)      :      8.63776

Rotational constants in cm-1:     0.001595     0.000170     0.000157
Rotational constants in MHz :    47.809979     5.088557     4.704324

                             ****ORCA TERMINATED NORMALLY****
TOTAL RUN TIME: 0 days 0 hours 9 minutes 51 seconds 647 msec
