                         Program Version 4.2.0 -  RELEASE  -
|  1> # ORCA input file
|  2> # SCF done       -209.479245585908          0.000521923873
|  3> ! CAM-B3LYP def2-SVP def2/J RIJCOSX Grid4 TightSCF
|  4> %maxcore 5000
|  5> %tddft
|  6>     Mode sTDDFT
|  7>     Ethresh 5.0
|  8>     maxcore 5000
|  9> end
| 10>
| 11> %pal
| 12>   nprocs 6
| 13>   end
| 14> * xyz 0 1
| 15>    C       -1.49183        -0.19202         2.96400
| 16>    C       -0.88900         0.94568         3.47554
| 17>    C       -0.21512         1.79477         2.59540
| 18>    C        0.41150         2.96124         3.10042
| 19>    N        0.91543         3.90116         3.51644
| 20>    C       -0.14374         1.51471         1.21715
| 21>    C        0.54581         2.39804         0.35201
| 22>    N        1.09998         3.10169        -0.36138
| 23>    C       -0.74973         0.36620         0.70645
| 24>    C       -1.40909        -0.46424         1.58729
| 25>    C       -2.11113        -1.73196         1.28442
| 26>    O       -2.20531        -2.23025         0.18423
| 27>    C       -2.61935        -2.22576         2.58198
| 28>    C       -2.26042        -1.25969         3.60682
| 29>    C       -2.58597        -1.28632         4.93804
| 30>    C       -2.19466        -0.29890         5.86939
| 31>    N       -1.90929         0.46206         6.67932
| 32>    C       -3.36013        -2.26805         5.59435
| 33>    N       -3.98409        -3.00918         6.21128
| 34>    C       -3.26544        -3.40823         2.84600
| 35>    C       -3.70146        -4.44596         2.00734
| 36>    C       -3.71034        -4.61784         0.62406
| 37>    C       -4.24524        -5.83847         0.25201
| 38>    C       -4.65963        -6.62997         1.35527
| 39>    S       -4.39777        -5.85116         2.84032
| 40>    C       -5.15404        -7.86019         0.87616
| 41>    C       -5.05432        -7.85635        -0.53320
| 42>    C       -4.49725        -6.58519        -0.96996
| 43>    C       -4.27474        -6.18818        -2.25463
| 44>    C       -4.56663        -7.02551        -3.35392
| 45>    N       -4.79950        -7.70036        -4.25093
| 46>    C       -3.75509        -4.91911        -2.59356
| 47>    N       -3.34624        -3.89411        -2.90210
| 48>    C       -5.49318        -9.04052        -1.10412
| 49>    C       -5.92920        -9.94913        -0.14460
| 50>    S       -5.80585        -9.32455         1.48773
| 51>    C       -6.41132       -11.26180        -0.37727
| 52>    C       -6.83799       -12.07595         0.69934
| 53>    C       -7.30051       -13.41446         0.50792
| 54>    N       -7.69504       -14.13956         1.56843
| 55>    C       -7.64577       -13.60712         2.75813
| 56>    C       -7.18464       -12.28830         2.94775
| 57>    N       -6.79644       -11.55830         1.93902
| 58>    C       -7.34987       -14.02195        -0.76990
| 59>    C       -6.94266       -13.20970        -1.85143
| 60>    C       -6.48475       -11.85136        -1.65878
| 61>    N       -6.15158       -11.28159        -2.81931
| 62>    S       -6.38542       -12.32082        -4.01360
| 63>    N       -6.91897       -13.55230        -3.14171
| 64>    C       -7.76762       -15.36851        -0.91460
| 65>    C       -7.80365       -16.10635        -2.09353
| 66>    C       -8.24317       -17.40274        -1.87783
| 67>    C       -8.55410       -17.65854        -0.52275
| 68>    S       -8.28705       -16.29446         0.48034
| 69>    C       -8.97761       -19.00156        -0.41343
| 70>    C       -8.93329       -19.59645        -1.69668
| 71>    C       -8.45841       -18.61260        -2.65296
| 72>    C       -8.22142       -18.81264        -3.98130
| 73>    C       -8.44021       -20.07325        -4.57632
| 74>    N       -8.62613       -21.10869        -5.03278
| 75>    C       -7.74138       -17.78893        -4.82529
| 76>    N       -7.35599       -16.95743        -5.51358
| 77>    C       -9.30027       -20.93070        -1.68906
| 78>    C       -9.62700       -21.38081        -0.41361
| 79>    S       -9.50170       -20.09229         0.78240
| 80>    C      -10.06317       -22.65868        -0.01926
| 81>    C       -9.96132       -23.83975        -0.69948
| 82>    C      -10.86620       -24.95876        -0.32597
| 83>    O      -11.56442       -25.03332         0.65680
| 84>    C      -10.76501       -25.92675        -1.44318
| 85>    C      -11.49282       -27.07830        -1.65455
| 86>    C      -11.24187       -27.81074        -2.81654
| 87>    C      -10.27590       -27.36647        -3.73983
| 88>    C       -9.53696       -26.20385        -3.51096
| 89>    C       -9.78110       -25.48931        -2.35144
| 90>    C       -9.16336       -24.26929        -1.82627
| 91>    C       -7.92037       -23.81670        -2.18406
| 92>    C       -7.23343       -22.78819        -1.50896
| 93>    N       -6.62728       -21.97530        -0.97107
| 94>    C       -7.13537       -24.39387        -3.20572
| 95>    N       -6.45710       -24.83178        -4.02020
| 96>    C      -10.05221       -28.11239        -4.92402
| 97>    N       -9.86920       -28.70928        -5.88344
| 98>    C      -11.96753       -28.99946        -3.07169
| 99>    N      -12.56574       -29.95722        -3.26083
|100>    H       -0.91812         1.19696         4.52343
|101>    H       -0.70554         0.13123        -0.34621
|102>    H       -3.47363        -3.60354         3.89123
|103>    H       -3.32808        -3.87271        -0.05087
|104>    H       -5.50667        -9.27300        -2.15297
|105>    H       -7.97293       -14.22180         3.58409
|106>    H       -7.13635       -11.83556         3.92745
|107>    H       -7.51311       -15.68458        -3.03818
|108>    H       -9.37810       -21.54862        -2.56489
|109>    H      -10.61632       -22.71640         0.91315
|110>    H      -12.23666       -27.40331        -0.94311
|111>    H       -8.81093       -25.88534        -4.24230
|112> *
|113>
|114>                          ****END OF INPUT****

CARTESIAN COORDINATES (ANGSTROEM)
---------------------------------
  C     -1.491830   -0.192020    2.964000
  C     -0.889000    0.945680    3.475540
  C     -0.215120    1.794770    2.595400
  C      0.411500    2.961240    3.100420
  N      0.915430    3.901160    3.516440
  C     -0.143740    1.514710    1.217150
  C      0.545810    2.398040    0.352010
  N      1.099980    3.101690   -0.361380
  C     -0.749730    0.366200    0.706450
  C     -1.409090   -0.464240    1.587290
  C     -2.111130   -1.731960    1.284420
  O     -2.205310   -2.230250    0.184230
  C     -2.619350   -2.225760    2.581980
  C     -2.260420   -1.259690    3.606820
  C     -2.585970   -1.286320    4.938040
  C     -2.194660   -0.298900    5.869390
  N     -1.909290    0.462060    6.679320
  C     -3.360130   -2.268050    5.594350
  N     -3.984090   -3.009180    6.211280
  C     -3.265440   -3.408230    2.846000
  C     -3.701460   -4.445960    2.007340
  C     -3.710340   -4.617840    0.624060
  C     -4.245240   -5.838470    0.252010
  C     -4.659630   -6.629970    1.355270
  S     -4.397770   -5.851160    2.840320
  C     -5.154040   -7.860190    0.876160
  C     -5.054320   -7.856350   -0.533200
  C     -4.497250   -6.585190   -0.969960
  C     -4.274740   -6.188180   -2.254630
  C     -4.566630   -7.025510   -3.353920
  N     -4.799500   -7.700360   -4.250930
  C     -3.755090   -4.919110   -2.593560
  N     -3.346240   -3.894110   -2.902100
  C     -5.493180   -9.040520   -1.104120
  C     -5.929200   -9.949130   -0.144600
  S     -5.805850   -9.324550    1.487730
  C     -6.411320  -11.261800   -0.377270
  C     -6.837990  -12.075950    0.699340
  C     -7.300510  -13.414460    0.507920
  N     -7.695040  -14.139560    1.568430
  C     -7.645770  -13.607120    2.758130
  C     -7.184640  -12.288300    2.947750
  N     -6.796440  -11.558300    1.939020
  C     -7.349870  -14.021950   -0.769900
  C     -6.942660  -13.209700   -1.851430
  C     -6.484750  -11.851360   -1.658780
  N     -6.151580  -11.281590   -2.819310
  S     -6.385420  -12.320820   -4.013600
  N     -6.918970  -13.552300   -3.141710
  C     -7.767620  -15.368510   -0.914600
  C     -7.803650  -16.106350   -2.093530
  C     -8.243170  -17.402740   -1.877830
  C     -8.554100  -17.658540   -0.522750
  S     -8.287050  -16.294460    0.480340
  C     -8.977610  -19.001560   -0.413430
  C     -8.933290  -19.596450   -1.696680
  C     -8.458410  -18.612600   -2.652960
  C     -8.221420  -18.812640   -3.981300
  C     -8.440210  -20.073250   -4.576320
  N     -8.626130  -21.108690   -5.032780
  C     -7.741380  -17.788930   -4.825290
  N     -7.355990  -16.957430   -5.513580
  C     -9.300270  -20.930700   -1.689060
  C     -9.627000  -21.380810   -0.413610
  S     -9.501700  -20.092290    0.782400
  C    -10.063170  -22.658680   -0.019260
  C     -9.961320  -23.839750   -0.699480
  C    -10.866200  -24.958760   -0.325970
  O    -11.564420  -25.033320    0.656800
  C    -10.765010  -25.926750   -1.443180
  C    -11.492820  -27.078300   -1.654550
  C    -11.241870  -27.810740   -2.816540
  C    -10.275900  -27.366470   -3.739830
  C     -9.536960  -26.203850   -3.510960
  C     -9.781100  -25.489310   -2.351440
  C     -9.163360  -24.269290   -1.826270
  C     -7.920370  -23.816700   -2.184060
  C     -7.233430  -22.788190   -1.508960
  N     -6.627280  -21.975300   -0.971070
  C     -7.135370  -24.393870   -3.205720
  N     -6.457100  -24.831780   -4.020200
  C    -10.052210  -28.112390   -4.924020
  N     -9.869200  -28.709280   -5.883440
  C    -11.967530  -28.999460   -3.071690
  N    -12.565740  -29.957220   -3.260830
  H     -0.918120    1.196960    4.523430
  H     -0.705540    0.131230   -0.346210
  H     -3.473630   -3.603540    3.891230
  H     -3.328080   -3.872710   -0.050870
  H     -5.506670   -9.273000   -2.152970
  H     -7.972930  -14.221800    3.584090
  H     -7.136350  -11.835560    3.927450
  H     -7.513110  -15.684580   -3.038180
  H     -9.378100  -21.548620   -2.564890
  H    -10.616320  -22.716400    0.913150
  H    -12.236660  -27.403310   -0.943110
  H     -8.810930  -25.885340   -4.242300

 Total Charge           Charge          ....    0
 Multiplicity           Mult            ....    1
 Number of Electrons    NEL             ....  592
 Basis Dimension        Dim             .... 1270

ORBITAL ENERGIES
----------------

  NO   OCC          E(Eh)            E(eV)
   0   2.0000     -89.064712     -2423.5740
   1   2.0000     -89.011683     -2422.1310
   2   2.0000     -89.009031     -2422.0589
   3   2.0000     -89.002059     -2421.8692
   4   2.0000     -89.001405     -2421.8514
   5   2.0000     -19.241674      -523.5926
   6   2.0000     -19.240039      -523.5481
   7   2.0000     -14.474899      -393.8820
   8   2.0000     -14.474542      -393.8723
   9   2.0000     -14.472071      -393.8051
  10   2.0000     -14.471537      -393.7905
  11   2.0000     -14.445346      -393.0779
  12   2.0000     -14.442351      -392.9964
  13   2.0000     -14.441102      -392.9624
  14   2.0000     -14.438429      -392.8896
  15   2.0000     -14.438143      -392.8818
  16   2.0000     -14.437748      -392.8711
  17   2.0000     -14.432527      -392.7290
  18   2.0000     -14.432289      -392.7226
  19   2.0000     -14.429908      -392.6578
  20   2.0000     -14.428748      -392.6262
  21   2.0000     -14.428581      -392.6216
  22   2.0000     -14.427524      -392.5929
  23   2.0000     -10.392577      -282.7964
  24   2.0000     -10.391433      -282.7653
  25   2.0000     -10.379374      -282.4371
  26   2.0000     -10.377999      -282.3997
  27   2.0000     -10.368272      -282.1350
  28   2.0000     -10.367832      -282.1230
  29   2.0000     -10.367815      -282.1226
  30   2.0000     -10.366279      -282.0808
  31   2.0000     -10.365366      -282.0559
  32   2.0000     -10.365217      -282.0519
  33   2.0000     -10.364283      -282.0265
  34   2.0000     -10.363679      -282.0100
  35   2.0000     -10.363671      -282.0098
  36   2.0000     -10.363408      -282.0027
  37   2.0000     -10.363258      -281.9986
  38   2.0000     -10.362888      -281.9885
  39   2.0000     -10.362174      -281.9691
  40   2.0000     -10.361195      -281.9425
  41   2.0000     -10.360779      -281.9311
  42   2.0000     -10.360214      -281.9157
  43   2.0000     -10.359790      -281.9042
  44   2.0000     -10.359517      -281.8968
  45   2.0000     -10.346202      -281.5345
  46   2.0000     -10.345741      -281.5219
  47   2.0000     -10.345591      -281.5178
  48   2.0000     -10.344708      -281.4938
  49   2.0000     -10.344538      -281.4892
  50   2.0000     -10.344043      -281.4757
  51   2.0000     -10.343534      -281.4619
  52   2.0000     -10.342705      -281.4393
  53   2.0000     -10.342203      -281.4257
  54   2.0000     -10.341098      -281.3956
  55   2.0000     -10.340939      -281.3913
  56   2.0000     -10.340501      -281.3793
  57   2.0000     -10.340221      -281.3717
  58   2.0000     -10.339817      -281.3607
  59   2.0000     -10.339402      -281.3494
  60   2.0000     -10.338462      -281.3238
  61   2.0000     -10.338019      -281.3118
  62   2.0000     -10.337353      -281.2937
  63   2.0000     -10.336553      -281.2719
  64   2.0000     -10.335748      -281.2500
  65   2.0000     -10.334471      -281.2153
  66   2.0000     -10.334282      -281.2101
  67   2.0000     -10.333830      -281.1978
  68   2.0000     -10.333794      -281.1968
  69   2.0000     -10.330071      -281.0955
  70   2.0000     -10.327927      -281.0372
  71   2.0000     -10.326471      -280.9976
  72   2.0000     -10.325088      -280.9599
  73   2.0000     -10.325027      -280.9583
  74   2.0000     -10.324947      -280.9561
  75   2.0000     -10.323868      -280.9267
  76   2.0000     -10.323541      -280.9178
  77   2.0000     -10.322572      -280.8915
  78   2.0000     -10.321586      -280.8646
  79   2.0000     -10.320373      -280.8316
  80   2.0000     -10.320022      -280.8221
  81   2.0000     -10.319897      -280.8187
  82   2.0000     -10.319459      -280.8067
  83   2.0000     -10.313290      -280.6389
  84   2.0000     -10.311985      -280.6034
  85   2.0000      -8.155647      -221.9264
  86   2.0000      -8.106440      -220.5874
  87   2.0000      -8.103866      -220.5174
  88   2.0000      -8.094314      -220.2575
  89   2.0000      -8.093649      -220.2394
  90   2.0000      -6.126689      -166.7157
  91   2.0000      -6.118733      -166.4992
  92   2.0000      -6.118674      -166.4976
  93   2.0000      -6.075564      -165.3245
  94   2.0000      -6.072924      -165.2527
  95   2.0000      -6.071432      -165.2121
  96   2.0000      -6.068941      -165.1443
  97   2.0000      -6.068837      -165.1415
  98   2.0000      -6.066409      -165.0754
  99   2.0000      -6.063904      -165.0072
 100   2.0000      -6.063284      -164.9903
 101   2.0000      -6.059042      -164.8749
 102   2.0000      -6.058373      -164.8567
 103   2.0000      -6.056800      -164.8139
 104   2.0000      -6.056103      -164.7950
 105   2.0000      -1.161791       -31.6140
 106   2.0000      -1.157514       -31.4976
 107   2.0000      -1.155800       -31.4509
 108   2.0000      -1.131845       -30.7991
 109   2.0000      -1.064064       -28.9546
 110   2.0000      -1.061234       -28.8777
 111   2.0000      -1.056534       -28.7497
 112   2.0000      -1.046115       -28.4662
 113   2.0000      -1.044674       -28.4270
 114   2.0000      -1.035983       -28.1905
 115   2.0000      -1.032523       -28.0964
 116   2.0000      -1.031551       -28.0699
 117   2.0000      -1.031180       -28.0598
 118   2.0000      -1.021738       -27.8029
 119   2.0000      -1.019811       -27.7505
 120   2.0000      -1.019026       -27.7291
 121   2.0000      -1.016289       -27.6546
 122   2.0000      -1.014848       -27.6154
 123   2.0000      -1.014181       -27.5973
 124   2.0000      -1.012290       -27.5458
 125   2.0000      -1.011560       -27.5259
 126   2.0000      -1.008583       -27.4449
 127   2.0000      -1.007923       -27.4270
 128   2.0000      -1.007294       -27.4099
 129   2.0000      -0.994794       -27.0697
 130   2.0000      -0.982373       -26.7317
 131   2.0000      -0.980699       -26.6862
 132   2.0000      -0.973637       -26.4940
 133   2.0000      -0.968709       -26.3599
 134   2.0000      -0.939246       -25.5582
 135   2.0000      -0.934867       -25.4390
 136   2.0000      -0.929718       -25.2989
 137   2.0000      -0.928315       -25.2607
 138   2.0000      -0.917233       -24.9592
 139   2.0000      -0.910369       -24.7724
 140   2.0000      -0.908111       -24.7110
 141   2.0000      -0.905979       -24.6529
 142   2.0000      -0.903917       -24.5968
 143   2.0000      -0.896720       -24.4010
 144   2.0000      -0.885436       -24.0939
 145   2.0000      -0.880159       -23.9503
 146   2.0000      -0.871887       -23.7253
 147   2.0000      -0.870437       -23.6858
 148   2.0000      -0.855274       -23.2732
 149   2.0000      -0.848185       -23.0803
 150   2.0000      -0.832976       -22.6664
 151   2.0000      -0.815716       -22.1968
 152   2.0000      -0.812129       -22.0991
 153   2.0000      -0.811127       -22.0719
 154   2.0000      -0.800560       -21.7843
 155   2.0000      -0.794546       -21.6207
 156   2.0000      -0.792704       -21.5706
 157   2.0000      -0.781181       -21.2570
 158   2.0000      -0.770212       -20.9585
 159   2.0000      -0.757839       -20.6218
 160   2.0000      -0.753813       -20.5123
 161   2.0000      -0.746137       -20.3034
 162   2.0000      -0.743063       -20.2198
 163   2.0000      -0.730911       -19.8891
 164   2.0000      -0.720191       -19.5974
 165   2.0000      -0.715941       -19.4817
 166   2.0000      -0.714930       -19.4542
 167   2.0000      -0.710361       -19.3299
 168   2.0000      -0.703071       -19.1315
 169   2.0000      -0.701026       -19.0759
 170   2.0000      -0.697667       -18.9845
 171   2.0000      -0.691626       -18.8201
 172   2.0000      -0.688241       -18.7280
 173   2.0000      -0.680697       -18.5227
 174   2.0000      -0.677526       -18.4364
 175   2.0000      -0.668076       -18.1793
 176   2.0000      -0.663431       -18.0529
 177   2.0000      -0.661693       -18.0056
 178   2.0000      -0.659450       -17.9446
 179   2.0000      -0.654960       -17.8224
 180   2.0000      -0.648408       -17.6441
 181   2.0000      -0.643908       -17.5216
 182   2.0000      -0.640810       -17.4373
 183   2.0000      -0.633142       -17.2287
 184   2.0000      -0.629426       -17.1276
 185   2.0000      -0.621725       -16.9180
 186   2.0000      -0.618173       -16.8214
 187   2.0000      -0.613758       -16.7012
 188   2.0000      -0.607648       -16.5349
 189   2.0000      -0.603443       -16.4205
 190   2.0000      -0.600169       -16.3314
 191   2.0000      -0.594617       -16.1804
 192   2.0000      -0.592477       -16.1221
 193   2.0000      -0.591194       -16.0872
 194   2.0000      -0.588097       -16.0029
 195   2.0000      -0.577485       -15.7142
 196   2.0000      -0.571177       -15.5425
 197   2.0000      -0.569961       -15.5094
 198   2.0000      -0.566536       -15.4162
 199   2.0000      -0.565846       -15.3975
 200   2.0000      -0.564810       -15.3693
 201   2.0000      -0.563583       -15.3359
 202   2.0000      -0.562710       -15.3121
 203   2.0000      -0.560853       -15.2616
 204   2.0000      -0.560131       -15.2419
 205   2.0000      -0.555696       -15.1213
 206   2.0000      -0.551349       -15.0030
 207   2.0000      -0.541872       -14.7451
 208   2.0000      -0.537351       -14.6221
 209   2.0000      -0.537148       -14.6165
 210   2.0000      -0.532026       -14.4772
 211   2.0000      -0.528010       -14.3679
 212   2.0000      -0.527431       -14.3521
 213   2.0000      -0.526762       -14.3339
 214   2.0000      -0.523646       -14.2491
 215   2.0000      -0.522249       -14.2111
 216   2.0000      -0.520386       -14.1604
 217   2.0000      -0.519633       -14.1399
 218   2.0000      -0.517425       -14.0798
 219   2.0000      -0.515259       -14.0209
 220   2.0000      -0.513432       -13.9712
 221   2.0000      -0.509024       -13.8512
 222   2.0000      -0.507933       -13.8216
 223   2.0000      -0.506754       -13.7895
 224   2.0000      -0.503397       -13.6981
 225   2.0000      -0.503096       -13.6899
 226   2.0000      -0.499037       -13.5795
 227   2.0000      -0.493247       -13.4219
 228   2.0000      -0.491757       -13.3814
 229   2.0000      -0.489098       -13.3090
 230   2.0000      -0.485666       -13.2157
 231   2.0000      -0.479537       -13.0489
 232   2.0000      -0.478462       -13.0196
 233   2.0000      -0.474945       -12.9239
 234   2.0000      -0.472490       -12.8571
 235   2.0000      -0.472207       -12.8494
 236   2.0000      -0.471088       -12.8190
 237   2.0000      -0.469535       -12.7767
 238   2.0000      -0.467791       -12.7292
 239   2.0000      -0.467680       -12.7262
 240   2.0000      -0.465975       -12.6798
 241   2.0000      -0.464310       -12.6345
 242   2.0000      -0.462373       -12.5818
 243   2.0000      -0.461783       -12.5658
 244   2.0000      -0.460969       -12.5436
 245   2.0000      -0.459274       -12.4975
 246   2.0000      -0.459045       -12.4912
 247   2.0000      -0.455431       -12.3929
 248   2.0000      -0.454852       -12.3772
 249   2.0000      -0.454438       -12.3659
 250   2.0000      -0.453965       -12.3530
 251   2.0000      -0.453489       -12.3401
 252   2.0000      -0.452850       -12.3227
 253   2.0000      -0.452119       -12.3028
 254   2.0000      -0.451837       -12.2951
 255   2.0000      -0.450005       -12.2453
 256   2.0000      -0.449170       -12.2225
 257   2.0000      -0.448957       -12.2167
 258   2.0000      -0.446351       -12.1458
 259   2.0000      -0.445659       -12.1270
 260   2.0000      -0.444983       -12.1086
 261   2.0000      -0.444517       -12.0959
 262   2.0000      -0.441123       -12.0036
 263   2.0000      -0.437483       -11.9045
 264   2.0000      -0.436550       -11.8791
 265   2.0000      -0.435729       -11.8568
 266   2.0000      -0.434545       -11.8246
 267   2.0000      -0.434148       -11.8138
 268   2.0000      -0.429068       -11.6755
 269   2.0000      -0.428945       -11.6722
 270   2.0000      -0.427934       -11.6447
 271   2.0000      -0.427004       -11.6194
 272   2.0000      -0.425559       -11.5801
 273   2.0000      -0.420461       -11.4413
 274   2.0000      -0.419982       -11.4283
 275   2.0000      -0.401438       -10.9237
 276   2.0000      -0.401302       -10.9200
 277   2.0000      -0.397698       -10.8219
 278   2.0000      -0.396992       -10.8027
 279   2.0000      -0.376646       -10.2491
 280   2.0000      -0.373045       -10.1511
 281   2.0000      -0.371338       -10.1046
 282   2.0000      -0.369453       -10.0533
 283   2.0000      -0.364520        -9.9191
 284   2.0000      -0.363745        -9.8980
 285   2.0000      -0.363442        -9.8898
 286   2.0000      -0.362222        -9.8566
 287   2.0000      -0.358603        -9.7581
 288   2.0000      -0.358064        -9.7434
 289   2.0000      -0.342885        -9.3304
 290   2.0000      -0.339048        -9.2260
 291   2.0000      -0.336201        -9.1485
 292   2.0000      -0.334773        -9.1096
 293   2.0000      -0.319225        -8.6866
 294   2.0000      -0.292464        -7.9583
 295   2.0000      -0.258633        -7.0378
 296   0.0000      -0.150101        -4.0845
 297   0.0000      -0.122949        -3.3456
 298   0.0000      -0.113131        -3.0785
 299   0.0000      -0.109041        -2.9672
 300   0.0000      -0.108595        -2.9550

MULLIKEN ATOMIC CHARGES
-----------------------
   0 C :    0.043719
   1 C :   -0.041027
   2 C :   -0.065314
   3 C :   -0.176831
   4 N :    0.205918
   5 C :   -0.063570
   6 C :   -0.173744
   7 N :    0.199123
   8 C :   -0.034686
   9 C :   -0.000283
  10 C :    0.159033
  11 O :   -0.135923
  12 C :   -0.092327
  13 C :    0.322612
  14 C :   -0.350722
  15 C :   -0.187578
  16 N :    0.164355
  17 C :   -0.181395
  18 N :    0.156822
  19 C :    0.041469
  20 C :   -0.114170
  21 C :   -0.010322
  22 C :   -0.003926
  23 C :   -0.081020
  24 S :    0.206842
  25 C :   -0.071379
  26 C :    0.051563
  27 C :    0.314544
  28 C :   -0.299579
  29 C :   -0.188472
  30 N :    0.173699
  31 C :   -0.194529
  32 N :    0.199373
  33 C :   -0.073906
  34 C :   -0.162327
  35 S :    0.209829
  36 C :    0.174358
  37 C :   -0.048929
  38 C :   -0.047665
  39 N :   -0.079749
  40 C :    0.048996
  41 C :    0.050249
  42 N :   -0.080713
  43 C :    0.179836
  44 C :   -0.009153
  45 C :   -0.002266
  46 N :   -0.287925
  47 S :    0.592743
  48 N :   -0.286595
  49 C :   -0.167886
  50 C :   -0.067175
  51 C :    0.048812
  52 C :   -0.070040
  53 S :    0.209851
  54 C :   -0.073226
  55 C :   -0.004941
  56 C :    0.309599
  57 C :   -0.290720
  58 C :   -0.181434
  59 N :    0.167646
  60 C :   -0.184008
  61 N :    0.178929
  62 C :   -0.003585
  63 C :   -0.114227
  64 S :    0.220395
  65 C :    0.090963
  66 C :   -0.149560
  67 C :    0.140672
  68 O :   -0.128328
  69 C :    0.014418
  70 C :   -0.036440
  71 C :   -0.069886
  72 C :   -0.061205
  73 C :   -0.033129
  74 C :    0.025228
  75 C :    0.270798
  76 C :   -0.322344
  77 C :   -0.198195
  78 N :    0.179151
  79 C :   -0.173580
  80 N :    0.178762
  81 C :   -0.173473
  82 N :    0.201886
  83 C :   -0.173320
  84 N :    0.198308
  85 H :    0.021265
  86 H :    0.020757
  87 H :    0.003128
  88 H :    0.041760
  89 H :    0.024836
  90 H :    0.028041
  91 H :    0.028855
  92 H :    0.023541
  93 H :    0.026850
  94 H :    0.025798
  95 H :    0.017825
  96 H :    0.029572
Sum of atomic charges:   -0.0000000

LOEWDIN ATOMIC CHARGES
----------------------
   0 C :    0.001153
   1 C :    0.033680
   2 C :   -0.024444
   3 C :   -0.031750
   4 N :   -0.011302
   5 C :   -0.027838
   6 C :   -0.031808
   7 N :   -0.012875
   8 C :    0.049242
   9 C :   -0.028097
  10 C :    0.086093
  11 O :   -0.124440
  12 C :   -0.107489
  13 C :    0.071266
  14 C :   -0.130759
  15 C :   -0.021869
  16 N :   -0.037852
  17 C :   -0.022578
  18 N :   -0.042643
  19 C :    0.047671
  20 C :   -0.177521
  21 C :    0.021412
  22 C :   -0.071447
  23 C :   -0.149802
  24 S :    0.496846
  25 C :   -0.198509
  26 C :   -0.053809
  27 C :    0.072813
  28 C :   -0.091697
  29 C :   -0.015390
  30 N :   -0.027662
  31 C :   -0.024061
  32 N :   -0.013338
  33 C :   -0.014833
  34 C :   -0.150139
  35 S :    0.512860
  36 C :   -0.042887
  37 C :   -0.013490
  38 C :   -0.015592
  39 N :   -0.045075
  40 C :    0.025662
  41 C :    0.027535
  42 N :   -0.045999
  43 C :   -0.037085
  44 C :   -0.038153
  45 C :   -0.036699
  46 N :   -0.274784
  47 S :    0.711969
  48 N :   -0.274258
  49 C :   -0.155122
  50 C :   -0.009566
  51 C :   -0.059380
  52 C :   -0.190051
  53 S :    0.514931
  54 C :   -0.150937
  55 C :   -0.062577
  56 C :    0.080087
  57 C :   -0.096000
  58 C :   -0.011728
  59 N :   -0.033373
  60 C :   -0.017308
  61 N :   -0.024976
  62 C :    0.012721
  63 C :   -0.184020
  64 S :    0.501837
  65 C :    0.051601
  66 C :   -0.101094
  67 C :    0.082485
  68 O :   -0.130675
  69 C :   -0.031931
  70 C :    0.048636
  71 C :   -0.029330
  72 C :   -0.021938
  73 C :    0.034334
  74 C :    0.005857
  75 C :    0.058232
  76 C :   -0.123467
  77 C :   -0.014870
  78 N :   -0.035172
  79 C :   -0.023379
  80 N :   -0.029518
  81 C :   -0.031265
  82 N :   -0.009492
  83 C :   -0.032148
  84 N :   -0.013688
  85 H :    0.052305
  86 H :    0.055660
  87 H :    0.042858
  88 H :    0.043768
  89 H :    0.039221
  90 H :    0.034090
  91 H :    0.034478
  92 H :    0.039496
  93 H :    0.042858
  94 H :    0.048297
  95 H :    0.054493
  96 H :    0.054524

  Mayer bond orders larger than 0.100000
B(  0-C ,  1-C ) :   1.3575 B(  0-C ,  9-C ) :   1.3375 B(  0-C , 13-C ) :   0.9515
B(  1-C ,  2-C ) :   1.3925 B(  1-C , 85-H ) :   0.9855 B(  2-C ,  3-C ) :   1.0890
B(  2-C ,  5-C ) :   1.4044 B(  3-C ,  4-N ) :   3.0454 B(  5-C ,  6-C ) :   1.0857
B(  5-C ,  8-C ) :   1.3569 B(  6-C ,  7-N ) :   3.0445 B(  8-C ,  9-C ) :   1.3642
B(  8-C , 86-H ) :   1.0162 B(  9-C , 10-C ) :   0.9339 B( 10-C , 11-O ) :   2.1753
B( 10-C , 12-C ) :   0.9468 B( 12-C , 13-C ) :   1.1010 B( 12-C , 19-C ) :   1.5500
B( 13-C , 14-C ) :   1.6262 B( 14-C , 15-C ) :   1.1517 B( 14-C , 17-C ) :   1.1415
B( 15-C , 16-N ) :   2.9569 B( 17-C , 18-N ) :   2.9581 B( 19-C , 20-C ) :   1.2616
B( 19-C , 87-H ) :   0.9042 B( 20-C , 21-C ) :   1.3625 B( 20-C , 24-S ) :   1.0678
B( 21-C , 22-C ) :   1.3331 B( 21-C , 88-H ) :   0.9697 B( 22-C , 23-C ) :   1.3510
B( 22-C , 27-C ) :   0.9915 B( 23-C , 24-S ) :   1.1698 B( 23-C , 25-C ) :   1.2258
B( 25-C , 26-C ) :   1.3937 B( 25-C , 35-S ) :   1.0584 B( 26-C , 27-C ) :   0.9896
B( 26-C , 33-C ) :   1.2804 B( 27-C , 28-C ) :   1.7159 B( 28-C , 29-C ) :   1.1418
B( 28-C , 31-C ) :   1.1349 B( 29-C , 30-N ) :   2.9818 B( 31-C , 32-N ) :   2.9989
B( 33-C , 34-C ) :   1.4061 B( 33-C , 89-H ) :   0.9836 B( 34-C , 35-S ) :   1.1067
B( 34-C , 36-C ) :   1.1955 B( 36-C , 37-C ) :   1.2704 B( 36-C , 43-C ) :   0.1351
B( 36-C , 45-C ) :   1.2074 B( 37-C , 38-C ) :   1.1383 B( 37-C , 42-N ) :   1.3977
B( 38-C , 39-N ) :   1.3980 B( 38-C , 43-C ) :   1.2697 B( 39-N , 40-C ) :   1.6545
B( 40-C , 41-C ) :   1.2021 B( 40-C , 90-H ) :   0.9740 B( 41-C , 42-N ) :   1.6536
B( 41-C , 91-H ) :   0.9745 B( 43-C , 44-C ) :   1.2071 B( 43-C , 49-C ) :   1.1994
B( 44-C , 45-C ) :   1.0995 B( 44-C , 48-N ) :   1.5023 B( 45-C , 46-N ) :   1.5016
B( 46-N , 47-S ) :   1.2906 B( 46-N , 48-N ) :   0.1505 B( 47-S , 48-N ) :   1.2917
B( 49-C , 50-C ) :   1.4081 B( 49-C , 53-S ) :   1.1010 B( 50-C , 51-C ) :   1.2837
B( 50-C , 92-H ) :   0.9825 B( 51-C , 52-C ) :   1.3953 B( 51-C , 56-C ) :   0.9895
B( 52-C , 53-S ) :   1.0682 B( 52-C , 54-C ) :   1.2176 B( 54-C , 55-C ) :   1.3862
B( 54-C , 64-S ) :   1.1564 B( 55-C , 56-C ) :   0.9956 B( 55-C , 62-C ) :   1.3806
B( 56-C , 57-C ) :   1.7186 B( 57-C , 58-C ) :   1.1313 B( 57-C , 60-C ) :   1.1384
B( 58-C , 59-N ) :   2.9793 B( 60-C , 61-N ) :   2.9857 B( 62-C , 63-C ) :   1.3643
B( 62-C , 93-H ) :   0.9784 B( 63-C , 64-S ) :   1.0832 B( 63-C , 65-C ) :   1.1681
B( 65-C , 66-C ) :   1.6276 B( 65-C , 94-H ) :   0.9305 B( 66-C , 67-C ) :   0.9572
B( 66-C , 75-C ) :   1.0512 B( 67-C , 68-O ) :   2.2778 B( 67-C , 69-C ) :   0.8981
B( 69-C , 70-C ) :   1.3701 B( 69-C , 74-C ) :   1.3361 B( 70-C , 71-C ) :   1.3640
B( 70-C , 95-H ) :   1.0149 B( 71-C , 72-C ) :   1.4045 B( 71-C , 83-C ) :   1.0872
B( 72-C , 73-C ) :   1.3863 B( 72-C , 81-C ) :   1.0856 B( 73-C , 74-C ) :   1.3667
B( 73-C , 96-H ) :   0.9895 B( 74-C , 75-C ) :   0.9723 B( 75-C , 76-C ) :   1.6597
B( 76-C , 77-C ) :   1.1735 B( 76-C , 79-C ) :   1.1291 B( 77-C , 78-N ) :   2.9963
B( 79-C , 80-N ) :   2.9888 B( 81-C , 82-N ) :   3.0435 B( 83-C , 84-N ) :   3.0454

-----------------------------------------------------------------------------
         ABSORPTION SPECTRUM VIA TRANSITION ELECTRIC DIPOLE MOMENTS
-----------------------------------------------------------------------------
State   Energy  Wavelength   fosc         T2         TX        TY        TZ
        (cm-1)    (nm)                  (au**2)     (au)      (au)      (au)
-----------------------------------------------------------------------------
   0    9134.7   1094.7   1.293306457  46.61033  -2.04579  -6.40547  -1.18114
   1   13718.2    729.0   0.017346303   0.41628  -0.38483  -0.21398  -0.47159
   2   15074.0    663.4   0.001575218   0.03440   0.02449  -0.11021   0.14716
   3   17669.0    566.0   0.019391075   0.36130  -0.37399   0.35783  -0.30559
   4   18495.9    540.7   0.358451820   6.38016  -0.07143  -2.49420  -0.39244
   5   19734.4    506.7   0.649582106  10.83643  -1.15750  -2.63325  -1.60081
   6   22530.4    443.8   0.029992164   0.43824  -0.37259  -0.21326   0.50392
   7   23203.2    431.0   0.257993182   3.66046   0.82114   1.72415   0.11614
   8   23383.8    427.6   0.305140389   4.29596   0.62135   1.97729   0.01369
   9   23603.5    423.7   0.001190572   0.01661  -0.12195  -0.03859  -0.01569
  10   24888.0    401.8   0.031810115   0.42078  -0.11842  -0.52076  -0.36818
  11   24949.8    400.8   0.038827605   0.51233   0.06428   0.35547  -0.61793
  12   25649.6    389.9   0.032405167   0.41592   0.35286   0.06806  -0.53551
  13   25928.7    385.7   0.009280196   0.11783  -0.04438  -0.30044  -0.15998
  14   27423.1    364.7   0.022843284   0.27423  -0.47228   0.10688   0.19941
  15   27760.9    360.2   0.034477717   0.40887  -0.22091   0.13010  -0.58578
  16   28004.7    357.1   0.079132199   0.93025  -0.28279  -0.46419  -0.79675
  17   28209.6    354.5   0.021806303   0.25448  -0.21107   0.04575   0.45590
  18   28833.0    346.8   0.017442380   0.19916   0.24829   0.37080  -0.00414
  19   29316.5    341.1   0.047987601   0.53888   0.25970   0.37205  -0.57707
  20   30010.0    333.2   0.071956040   0.78936  -0.06079  -0.28994   0.83762
  21   30308.7    329.9   0.013293822   0.14440   0.32571   0.14499  -0.13148
  22   30330.4    329.7   0.078825573   0.85559  -0.40809  -0.12032   0.82132
  23   30803.7    324.6   0.057736494   0.61705   0.01514   0.31463  -0.71961
  24   30954.0    323.1   0.044679571   0.47519  -0.00190  -0.68706  -0.05597
  25   31099.9    321.5   0.173952843   1.84140   0.07458   0.66558   1.18018
  26   31231.3    320.2   0.043634497   0.45995  -0.07873  -0.51748  -0.43125
  27   31242.8    320.1   0.016381890   0.17262  -0.06674   0.03690   0.40842
  28   31470.4    317.8   0.061897865   0.64751   0.43576   0.53218  -0.41763
  29   31496.8    317.5   0.037781249   0.39490   0.40178   0.43865   0.20263
  30   31913.9    313.3   0.369166609   3.80818   0.73292   1.79708  -0.20375
  31   32067.5    311.8   0.078572500   0.80664  -0.21386  -0.60144  -0.63181
  32   32514.8    307.6   0.307152368   3.10991  -0.61355  -1.64864  -0.12431
  33   32541.9    307.3   0.054024450   0.54654   0.29725   0.22316  -0.63905
  34   33074.0    302.4   0.515940743   5.13557   1.05454   1.99907   0.16496
  35   33255.5    300.7   0.001247368   0.01235  -0.02937  -0.01734   0.10576
  36   33446.7    299.0   0.208389284   2.05115  -0.20591  -0.23418   1.39782
  37   33711.3    296.6   0.015751498   0.15382  -0.10026   0.33952  -0.16880
  38   34126.5    293.0   0.421812645   4.06915  -0.58834  -0.27887   1.90925
  39   34291.1    291.6   0.077304721   0.74216   0.18564   0.27017   0.79669
  40   34852.8    286.9   0.252433827   2.38443   0.45437   0.47005  -1.39894
  41   35177.8    284.3   0.138182077   1.29318   0.84532   0.67388  -0.35285
  42   35294.3    283.3   0.171404000   1.59879  -0.92526  -0.68590   0.52175
  43   35294.7    283.3   0.031759382   0.29624  -0.34563   0.00420   0.42043
  44   35518.2    281.5   0.097019459   0.89926  -0.62749  -0.56068  -0.43721
  45   35600.9    280.9   0.043811643   0.40514   0.31309   0.55232  -0.04539
  46   35729.3    279.9   0.141255886   1.30154  -0.38463  -0.29985   1.03136
  47   35891.1    278.6   0.009150756   0.08394   0.05287   0.25524   0.12646
  48   35912.6    278.5   0.114254269   1.04737  -0.54422  -0.79608   0.34270
  49   36282.8    275.6   0.185897063   1.68674   0.82656   1.00170   0.01164
  50   36321.4    275.3   0.050937565   0.46169   0.01994  -0.04105  -0.67794
  51   36582.8    273.4   0.291581601   2.62397   0.64369   0.98480  -1.11346
  52   36756.4    272.1   0.147512120   1.32121  -0.09853  -0.02000  -1.14503
  53   36956.3    270.6   0.073794700   0.65737   0.57662   0.18142  -0.54035
  54   37080.7    269.7   0.192657099   1.71046   0.39545   0.70579   1.02759
  55   37334.5    267.8   0.130548321   1.15116   0.19107   0.29316  -1.01425
  56   37490.4    266.7   0.160580163   1.41009  -0.00490  -0.08814  -1.18419
  57   37607.3    265.9   0.073727253   0.64540  -0.06183  -0.49267  -0.63155
  58   37756.5    264.9   0.028809556   0.25120  -0.08978  -0.10516   0.48175
  59   38008.7    263.1   0.121654307   1.05371   0.42724   0.09524  -0.92849
  60   38065.5    262.7   0.010762003   0.09308  -0.15791  -0.25908   0.03193
  61   38364.2    260.7   0.020221755   0.17353  -0.06634   0.10300   0.39814
  62   38562.2    259.3   0.031080959   0.26534   0.12351   0.01780  -0.49977
  63   38675.3    258.6   0.063135357   0.53742   0.11360   0.26290  -0.67483
  64   38859.7    257.3   0.012567076   0.10647   0.14307  -0.06499  -0.28596
  65   39200.2    255.1   0.115004041   0.96583   0.38785   0.86306   0.26558
  66   39601.4    252.5   0.095277454   0.79206   0.47243   0.75215  -0.05603
  67   39662.4    252.1   0.071497206   0.59345   0.24279   0.58239   0.44196
  68   39761.1    251.5   0.022702621   0.18797  -0.00831   0.32275   0.28937
  69   39945.5    250.3   0.009461095   0.07797   0.15693  -0.01038  -0.23074
  70   39982.7    250.1   0.037818352   0.31139  -0.17558   0.13415   0.51241
  71   40218.5    248.6   0.001913633   0.01566   0.08675   0.08999  -0.00642

FINAL SINGLE POINT ENERGY     -5382.062897892002

DIPOLE MOMENT
-------------
                                X             Y             Z
Electronic contribution:      0.12179       0.57672      -3.98828
Nuclear contribution   :     -2.84104      -1.45841       7.22729
                        -----------------------------------------
Total Dipole Moment    :     -2.71925      -0.88169       3.23902
                        -----------------------------------------
Magnitude (a.u.)       :      4.32006
Magnitude (Debye)      :     10.98072

Rotational constants in cm-1:     0.002560     0.000140     0.000134
Rotational constants in MHz :    76.732641     4.185506     4.026982

                             ****ORCA TERMINATED NORMALLY****
TOTAL RUN TIME: 0 days 0 hours 12 minutes 10 seconds 610 msec
