                         Program Version 4.2.0 -  RELEASE  -
|  1> # ORCA input file
|  2> # SCF done       -192.794286680203          0.000932020383
|  3> ! CAM-B3LYP def2-SVP def2/J RIJCOSX Grid4 TightSCF
|  4> %maxcore 5000
|  5> %tddft
|  6>     Mode sTDDFT
|  7>     Ethresh 5.0
|  8>     maxcore 5000
|  9> end
| 10>
| 11> %pal
| 12>   nprocs 6
| 13>   end
| 14> * xyz 0 1
| 15>    S        1.00816         0.71743         4.36378
| 16>    C        2.01379         0.34307         2.84400
| 17>    C        1.10753         0.66715         1.65503
| 18>    C        3.25044         1.23550         2.89474
| 19>    C        2.34469        -1.13058         2.94353
| 20>    C        1.72123        -1.77697         3.98505
| 21>    C        0.93178        -0.94516         4.85464
| 22>    C        0.20982        -1.33485         5.95305
| 23>    C        0.09983        -2.65290         6.43409
| 24>    N       -0.04358        -3.69448         6.89287
| 25>    C       -0.50262        -0.37713         6.70480
| 26>    N       -1.07973         0.40866         7.30899
| 27>    C        1.77776        -3.16766         4.20530
| 28>    N        1.80217        -4.30510         4.35228
| 29>    C        3.24420        -1.74235         2.02628
| 30>    C        3.71385        -1.23592         0.81940
| 31>    C        4.60576        -2.09327         0.19101
| 32>    C        4.84791        -3.27117         0.92968
| 33>    S        3.95581        -3.32386         2.37674
| 34>    C        5.76190        -4.07672         0.21137
| 35>    C        6.09023        -3.40943        -0.98975
| 36>    C        5.38179        -2.14106        -1.03666
| 37>    C        5.43623        -1.19225        -2.01547
| 38>    C        6.23000        -1.34496        -3.17205
| 39>    N        6.87419        -1.46399        -4.11265
| 40>    C        4.69787         0.00539        -1.91463
| 41>    N        4.09040         0.97198        -1.80623
| 42>    C        6.97581        -4.12702        -1.77897
| 43>    C        7.33687        -5.33302        -1.18650
| 44>    S        6.56859        -5.57537         0.37380
| 45>    C        8.21421        -6.31075        -1.72107
| 46>    C        8.55417        -7.46616        -0.98128
| 47>    C        9.43985        -8.47629        -1.49582
| 48>    N        9.73238        -9.54240        -0.74418
| 49>    C        9.21339        -9.66443         0.45377
| 50>    C        8.33006        -8.65958         0.96559
| 51>    N        8.03219        -7.60777         0.24214
| 52>    C        7.77558        -8.78869         2.26377
| 53>    N        7.34798        -8.91932         3.31765
| 54>    C        9.54505       -10.80159         1.23174
| 55>    N        9.80512       -11.71319         1.87387
| 56>    C       10.01969        -8.39238        -2.78261
| 57>    C        9.68324        -7.23682        -3.52612
| 58>    C        8.80319        -6.21481        -3.00403
| 59>    N        8.63578        -5.22412        -3.88148
| 60>    S        9.48090        -5.53078        -5.20699
| 61>    N       10.10796        -6.93219        -4.75315
| 62>    C       10.87133        -9.41668        -3.26661
| 63>    C       11.46914        -9.47996        -4.52160
| 64>    C       12.23680       -10.62426        -4.67251
| 65>    C       12.23247       -11.43974        -3.51953
| 66>    S       11.27094       -10.79726        -2.25832
| 67>    C       13.03632       -12.57092        -3.78094
| 68>    C       13.54635       -12.48236        -5.09251
| 69>    C       13.07208       -11.24418        -5.69024
| 70>    C       13.36194       -10.75517        -6.92851
| 71>    C       14.24438       -11.41341        -7.81355
| 72>    N       14.98361       -11.92545        -8.52359
| 73>    C       12.82194        -9.53624        -7.39358
| 74>    N       12.38223        -8.54799        -7.77296
| 75>    C       14.32364       -13.57824        -5.44825
| 76>    C       14.43165       -14.50616        -4.42123
| 77>    S       13.55018       -13.98443        -2.98511
| 78>    C       15.15249       -15.73435        -4.46411
| 79>    C       15.42262       -16.41234        -5.62699
| 80>    C       16.27145       -17.56630        -5.48549
| 81>    C       16.69494       -18.41061        -6.47794
| 82>    C       16.37022       -18.28121        -7.84174
| 83>    N       16.15508       -18.24160        -8.96767
| 84>    C       17.52921       -19.50532        -6.17009
| 85>    N       18.20364       -20.39502        -5.90817
| 86>    S       16.75582       -17.78427        -3.83103
| 87>    C       15.70073       -16.38320        -3.21782
| 88>    C       14.60154       -17.00396        -2.35497
| 89>    C       16.58669       -15.43951        -2.41104
| 90>    C       14.83998       -16.08693        -6.86956
| 91>    N       14.29853       -15.82862        -7.84641
| 92>    H        0.74951         1.69017         1.74523
| 93>    H        0.24719         0.00105         1.64169
| 94>    H        1.62965         0.57547         0.70815
| 95>    H        2.94413         2.27689         2.96093
| 96>    H        3.86444         1.11393         2.00720
| 97>    H        3.85319         0.99742         3.76906
| 98>    H        3.40671        -0.29838         0.39871
| 99>    H        7.35913        -3.82551        -2.73642
|100>    H       11.32403        -8.71235        -5.25919
|101>    H       14.81463       -13.69082        -6.39708
|102>    H       13.95701       -17.64186        -2.95664
|103>    H       13.99418       -16.23575        -1.88328
|104>    H       15.05452       -17.60920        -1.57312
|105>    H       17.36679       -15.01586        -3.04058
|106>    H       17.05743       -15.98531        -1.59704
|107>    H       15.99779       -14.62950        -1.98668
|108> *
|109>
|110>                          ****END OF INPUT****

CARTESIAN COORDINATES (ANGSTROEM)
---------------------------------
  S      1.008160    0.717430    4.363780
  C      2.013790    0.343070    2.844000
  C      1.107530    0.667150    1.655030
  C      3.250440    1.235500    2.894740
  C      2.344690   -1.130580    2.943530
  C      1.721230   -1.776970    3.985050
  C      0.931780   -0.945160    4.854640
  C      0.209820   -1.334850    5.953050
  C      0.099830   -2.652900    6.434090
  N     -0.043580   -3.694480    6.892870
  C     -0.502620   -0.377130    6.704800
  N     -1.079730    0.408660    7.308990
  C      1.777760   -3.167660    4.205300
  N      1.802170   -4.305100    4.352280
  C      3.244200   -1.742350    2.026280
  C      3.713850   -1.235920    0.819400
  C      4.605760   -2.093270    0.191010
  C      4.847910   -3.271170    0.929680
  S      3.955810   -3.323860    2.376740
  C      5.761900   -4.076720    0.211370
  C      6.090230   -3.409430   -0.989750
  C      5.381790   -2.141060   -1.036660
  C      5.436230   -1.192250   -2.015470
  C      6.230000   -1.344960   -3.172050
  N      6.874190   -1.463990   -4.112650
  C      4.697870    0.005390   -1.914630
  N      4.090400    0.971980   -1.806230
  C      6.975810   -4.127020   -1.778970
  C      7.336870   -5.333020   -1.186500
  S      6.568590   -5.575370    0.373800
  C      8.214210   -6.310750   -1.721070
  C      8.554170   -7.466160   -0.981280
  C      9.439850   -8.476290   -1.495820
  N      9.732380   -9.542400   -0.744180
  C      9.213390   -9.664430    0.453770
  C      8.330060   -8.659580    0.965590
  N      8.032190   -7.607770    0.242140
  C      7.775580   -8.788690    2.263770
  N      7.347980   -8.919320    3.317650
  C      9.545050  -10.801590    1.231740
  N      9.805120  -11.713190    1.873870
  C     10.019690   -8.392380   -2.782610
  C      9.683240   -7.236820   -3.526120
  C      8.803190   -6.214810   -3.004030
  N      8.635780   -5.224120   -3.881480
  S      9.480900   -5.530780   -5.206990
  N     10.107960   -6.932190   -4.753150
  C     10.871330   -9.416680   -3.266610
  C     11.469140   -9.479960   -4.521600
  C     12.236800  -10.624260   -4.672510
  C     12.232470  -11.439740   -3.519530
  S     11.270940  -10.797260   -2.258320
  C     13.036320  -12.570920   -3.780940
  C     13.546350  -12.482360   -5.092510
  C     13.072080  -11.244180   -5.690240
  C     13.361940  -10.755170   -6.928510
  C     14.244380  -11.413410   -7.813550
  N     14.983610  -11.925450   -8.523590
  C     12.821940   -9.536240   -7.393580
  N     12.382230   -8.547990   -7.772960
  C     14.323640  -13.578240   -5.448250
  C     14.431650  -14.506160   -4.421230
  S     13.550180  -13.984430   -2.985110
  C     15.152490  -15.734350   -4.464110
  C     15.422620  -16.412340   -5.626990
  C     16.271450  -17.566300   -5.485490
  C     16.694940  -18.410610   -6.477940
  C     16.370220  -18.281210   -7.841740
  N     16.155080  -18.241600   -8.967670
  C     17.529210  -19.505320   -6.170090
  N     18.203640  -20.395020   -5.908170
  S     16.755820  -17.784270   -3.831030
  C     15.700730  -16.383200   -3.217820
  C     14.601540  -17.003960   -2.354970
  C     16.586690  -15.439510   -2.411040
  C     14.839980  -16.086930   -6.869560
  N     14.298530  -15.828620   -7.846410
  H      0.749510    1.690170    1.745230
  H      0.247190    0.001050    1.641690
  H      1.629650    0.575470    0.708150
  H      2.944130    2.276890    2.960930
  H      3.864440    1.113930    2.007200
  H      3.853190    0.997420    3.769060
  H      3.406710   -0.298380    0.398710
  H      7.359130   -3.825510   -2.736420
  H     11.324030   -8.712350   -5.259190
  H     14.814630  -13.690820   -6.397080
  H     13.957010  -17.641860   -2.956640
  H     13.994180  -16.235750   -1.883280
  H     15.054520  -17.609200   -1.573120
  H     17.366790  -15.015860   -3.040580
  H     17.057430  -15.985310   -1.597040
  H     15.997790  -14.629500   -1.986680

 Total Charge           Charge          ....    0
 Multiplicity           Mult            ....    1
 Number of Electrons    NEL             ....  564
 Basis Dimension        Dim             .... 1186

ORBITAL ENERGIES
----------------

  NO   OCC          E(Eh)            E(eV)
   0   2.0000     -89.075753     -2423.8745
   1   2.0000     -89.020110     -2422.3603
   2   2.0000     -89.015655     -2422.2391
   3   2.0000     -89.009866     -2422.0816
   4   2.0000     -89.009302     -2422.0662
   5   2.0000     -88.974287     -2421.1134
   6   2.0000     -88.973000     -2421.0784
   7   2.0000     -14.500346      -394.5745
   8   2.0000     -14.499720      -394.5575
   9   2.0000     -14.483251      -394.1093
  10   2.0000     -14.482950      -394.1011
  11   2.0000     -14.459344      -393.4588
  12   2.0000     -14.457838      -393.4178
  13   2.0000     -14.453544      -393.3009
  14   2.0000     -14.449867      -393.2009
  15   2.0000     -14.447028      -393.1236
  16   2.0000     -14.443469      -393.0268
  17   2.0000     -14.433032      -392.7428
  18   2.0000     -14.427016      -392.5791
  19   2.0000     -14.413116      -392.2008
  20   2.0000     -14.412232      -392.1768
  21   2.0000     -14.406571      -392.0227
  22   2.0000     -14.406338      -392.0164
  23   2.0000     -10.417841      -283.4839
  24   2.0000     -10.417450      -283.4732
  25   2.0000     -10.386640      -282.6348
  26   2.0000     -10.384507      -282.5768
  27   2.0000     -10.381354      -282.4910
  28   2.0000     -10.381083      -282.4836
  29   2.0000     -10.376069      -282.3472
  30   2.0000     -10.375741      -282.3383
  31   2.0000     -10.374653      -282.3087
  32   2.0000     -10.371125      -282.2127
  33   2.0000     -10.370779      -282.2032
  34   2.0000     -10.370066      -282.1838
  35   2.0000     -10.363304      -281.9998
  36   2.0000     -10.362863      -281.9878
  37   2.0000     -10.362491      -281.9777
  38   2.0000     -10.362107      -281.9673
  39   2.0000     -10.361863      -281.9606
  40   2.0000     -10.361533      -281.9517
  41   2.0000     -10.355843      -281.7968
  42   2.0000     -10.354923      -281.7718
  43   2.0000     -10.354554      -281.7617
  44   2.0000     -10.353956      -281.7455
  45   2.0000     -10.353492      -281.7328
  46   2.0000     -10.352272      -281.6996
  47   2.0000     -10.352270      -281.6996
  48   2.0000     -10.352232      -281.6986
  49   2.0000     -10.351433      -281.6768
  50   2.0000     -10.350944      -281.6635
  51   2.0000     -10.350233      -281.6442
  52   2.0000     -10.349824      -281.6330
  53   2.0000     -10.349765      -281.6314
  54   2.0000     -10.349263      -281.6178
  55   2.0000     -10.346609      -281.5455
  56   2.0000     -10.345741      -281.5219
  57   2.0000     -10.344488      -281.4878
  58   2.0000     -10.342014      -281.4205
  59   2.0000     -10.336324      -281.2657
  60   2.0000     -10.332043      -281.1492
  61   2.0000     -10.330020      -281.0941
  62   2.0000     -10.330001      -281.0936
  63   2.0000     -10.329918      -281.0914
  64   2.0000     -10.326467      -280.9975
  65   2.0000     -10.325356      -280.9672
  66   2.0000     -10.325165      -280.9620
  67   2.0000     -10.322242      -280.8825
  68   2.0000     -10.321918      -280.8737
  69   2.0000     -10.314283      -280.6659
  70   2.0000     -10.313545      -280.6458
  71   2.0000     -10.309076      -280.5242
  72   2.0000     -10.308856      -280.5182
  73   2.0000     -10.305311      -280.4218
  74   2.0000     -10.302595      -280.3479
  75   2.0000     -10.301046      -280.3057
  76   2.0000     -10.300541      -280.2920
  77   2.0000      -8.166592      -222.2243
  78   2.0000      -8.114108      -220.7961
  79   2.0000      -8.109563      -220.6724
  80   2.0000      -8.102407      -220.4777
  81   2.0000      -8.101824      -220.4618
  82   2.0000      -8.069974      -219.5952
  83   2.0000      -8.068752      -219.5619
  84   2.0000      -6.137631      -167.0134
  85   2.0000      -6.129670      -166.7968
  86   2.0000      -6.129633      -166.7958
  87   2.0000      -6.083387      -165.5374
  88   2.0000      -6.079094      -165.4206
  89   2.0000      -6.078763      -165.4116
  90   2.0000      -6.076566      -165.3518
  91   2.0000      -6.074328      -165.2909
  92   2.0000      -6.072143      -165.2314
  93   2.0000      -6.071918      -165.2253
  94   2.0000      -6.071414      -165.2116
  95   2.0000      -6.067123      -165.0948
  96   2.0000      -6.066565      -165.0796
  97   2.0000      -6.064905      -165.0344
  98   2.0000      -6.064235      -165.0162
  99   2.0000      -6.039940      -164.3551
 100   2.0000      -6.038718      -164.3219
 101   2.0000      -6.036068      -164.2498
 102   2.0000      -6.034790      -164.2150
 103   2.0000      -6.030139      -164.0884
 104   2.0000      -6.028941      -164.0558
 105   2.0000      -1.173315       -31.9275
 106   2.0000      -1.159061       -31.5397
 107   2.0000      -1.088024       -29.6066
 108   2.0000      -1.069465       -29.1016
 109   2.0000      -1.068454       -29.0741
 110   2.0000      -1.046331       -28.4721
 111   2.0000      -1.045491       -28.4493
 112   2.0000      -1.043910       -28.4062
 113   2.0000      -1.041545       -28.3419
 114   2.0000      -1.037401       -28.2291
 115   2.0000      -1.033965       -28.1356
 116   2.0000      -1.029299       -28.0087
 117   2.0000      -1.028713       -27.9927
 118   2.0000      -1.024858       -27.8878
 119   2.0000      -1.021866       -27.8064
 120   2.0000      -1.016301       -27.6550
 121   2.0000      -1.011002       -27.5108
 122   2.0000      -1.007843       -27.4248
 123   2.0000      -1.006797       -27.3963
 124   2.0000      -1.001741       -27.2588
 125   2.0000      -0.999420       -27.1956
 126   2.0000      -0.986693       -26.8493
 127   2.0000      -0.986391       -26.8411
 128   2.0000      -0.980828       -26.6897
 129   2.0000      -0.976363       -26.5682
 130   2.0000      -0.948930       -25.8217
 131   2.0000      -0.947257       -25.7762
 132   2.0000      -0.942046       -25.6344
 133   2.0000      -0.941068       -25.6078
 134   2.0000      -0.933321       -25.3970
 135   2.0000      -0.921747       -25.0820
 136   2.0000      -0.912223       -24.8229
 137   2.0000      -0.905564       -24.6416
 138   2.0000      -0.894406       -24.3380
 139   2.0000      -0.888521       -24.1779
 140   2.0000      -0.879382       -23.9292
 141   2.0000      -0.878323       -23.9004
 142   2.0000      -0.871127       -23.7046
 143   2.0000      -0.866158       -23.5694
 144   2.0000      -0.864467       -23.5234
 145   2.0000      -0.841232       -22.8911
 146   2.0000      -0.840024       -22.8582
 147   2.0000      -0.822439       -22.3797
 148   2.0000      -0.819465       -22.2988
 149   2.0000      -0.817095       -22.2343
 150   2.0000      -0.813073       -22.1249
 151   2.0000      -0.800693       -21.7880
 152   2.0000      -0.797419       -21.6989
 153   2.0000      -0.782693       -21.2982
 154   2.0000      -0.772703       -21.0263
 155   2.0000      -0.758943       -20.6519
 156   2.0000      -0.740784       -20.1578
 157   2.0000      -0.735473       -20.0132
 158   2.0000      -0.734029       -19.9739
 159   2.0000      -0.729816       -19.8593
 160   2.0000      -0.728636       -19.8272
 161   2.0000      -0.722045       -19.6478
 162   2.0000      -0.718670       -19.5560
 163   2.0000      -0.708090       -19.2681
 164   2.0000      -0.702736       -19.1224
 165   2.0000      -0.699513       -19.0347
 166   2.0000      -0.693219       -18.8634
 167   2.0000      -0.688146       -18.7254
 168   2.0000      -0.683558       -18.6006
 169   2.0000      -0.677504       -18.4358
 170   2.0000      -0.665449       -18.1078
 171   2.0000      -0.663331       -18.0501
 172   2.0000      -0.660170       -17.9642
 173   2.0000      -0.656545       -17.8655
 174   2.0000      -0.651873       -17.7384
 175   2.0000      -0.649203       -17.6657
 176   2.0000      -0.642169       -17.4743
 177   2.0000      -0.640547       -17.4302
 178   2.0000      -0.631080       -17.1726
 179   2.0000      -0.626730       -17.0542
 180   2.0000      -0.615605       -16.7515
 181   2.0000      -0.614841       -16.7307
 182   2.0000      -0.603334       -16.4175
 183   2.0000      -0.593308       -16.1447
 184   2.0000      -0.588909       -16.0250
 185   2.0000      -0.585545       -15.9335
 186   2.0000      -0.577784       -15.7223
 187   2.0000      -0.575846       -15.6696
 188   2.0000      -0.572198       -15.5703
 189   2.0000      -0.569747       -15.5036
 190   2.0000      -0.565497       -15.3880
 191   2.0000      -0.564189       -15.3524
 192   2.0000      -0.563416       -15.3313
 193   2.0000      -0.561195       -15.2709
 194   2.0000      -0.558428       -15.1956
 195   2.0000      -0.556885       -15.1536
 196   2.0000      -0.549363       -14.9489
 197   2.0000      -0.548164       -14.9163
 198   2.0000      -0.532746       -14.4968
 199   2.0000      -0.527255       -14.3473
 200   2.0000      -0.526484       -14.3264
 201   2.0000      -0.524227       -14.2650
 202   2.0000      -0.522737       -14.2244
 203   2.0000      -0.521827       -14.1996
 204   2.0000      -0.520750       -14.1703
 205   2.0000      -0.518390       -14.1061
 206   2.0000      -0.517005       -14.0684
 207   2.0000      -0.516111       -14.0441
 208   2.0000      -0.515632       -14.0310
 209   2.0000      -0.512404       -13.9432
 210   2.0000      -0.510712       -13.8972
 211   2.0000      -0.508542       -13.8381
 212   2.0000      -0.503200       -13.6928
 213   2.0000      -0.501327       -13.6418
 214   2.0000      -0.497074       -13.5261
 215   2.0000      -0.494677       -13.4608
 216   2.0000      -0.491469       -13.3736
 217   2.0000      -0.489505       -13.3201
 218   2.0000      -0.488256       -13.2861
 219   2.0000      -0.483024       -13.1437
 220   2.0000      -0.482436       -13.1278
 221   2.0000      -0.481285       -13.0964
 222   2.0000      -0.480123       -13.0648
 223   2.0000      -0.479268       -13.0415
 224   2.0000      -0.478228       -13.0132
 225   2.0000      -0.477209       -12.9855
 226   2.0000      -0.475402       -12.9363
 227   2.0000      -0.474399       -12.9091
 228   2.0000      -0.472834       -12.8665
 229   2.0000      -0.471751       -12.8370
 230   2.0000      -0.471109       -12.8195
 231   2.0000      -0.468391       -12.7456
 232   2.0000      -0.467789       -12.7292
 233   2.0000      -0.465939       -12.6788
 234   2.0000      -0.465335       -12.6624
 235   2.0000      -0.461594       -12.5606
 236   2.0000      -0.460422       -12.5287
 237   2.0000      -0.456162       -12.4128
 238   2.0000      -0.454938       -12.3795
 239   2.0000      -0.454586       -12.3699
 240   2.0000      -0.454122       -12.3573
 241   2.0000      -0.451808       -12.2943
 242   2.0000      -0.450205       -12.2507
 243   2.0000      -0.449853       -12.2411
 244   2.0000      -0.448306       -12.1990
 245   2.0000      -0.447898       -12.1879
 246   2.0000      -0.445880       -12.1330
 247   2.0000      -0.442827       -12.0499
 248   2.0000      -0.441141       -12.0041
 249   2.0000      -0.439848       -11.9689
 250   2.0000      -0.438723       -11.9383
 251   2.0000      -0.434628       -11.8268
 252   2.0000      -0.433941       -11.8081
 253   2.0000      -0.432526       -11.7696
 254   2.0000      -0.430961       -11.7270
 255   2.0000      -0.429582       -11.6895
 256   2.0000      -0.428490       -11.6598
 257   2.0000      -0.422914       -11.5081
 258   2.0000      -0.422368       -11.4932
 259   2.0000      -0.418932       -11.3997
 260   2.0000      -0.418875       -11.3982
 261   2.0000      -0.417919       -11.3722
 262   2.0000      -0.417195       -11.3525
 263   2.0000      -0.415670       -11.3110
 264   2.0000      -0.409776       -11.1506
 265   2.0000      -0.408318       -11.1109
 266   2.0000      -0.406260       -11.0549
 267   2.0000      -0.397010       -10.8032
 268   2.0000      -0.396411       -10.7869
 269   2.0000      -0.382887       -10.4189
 270   2.0000      -0.380640       -10.3577
 271   2.0000      -0.379183       -10.3181
 272   2.0000      -0.370841       -10.0911
 273   2.0000      -0.370268       -10.0755
 274   2.0000      -0.362223        -9.8566
 275   2.0000      -0.344671        -9.3790
 276   2.0000      -0.341761        -9.2998
 277   2.0000      -0.335734        -9.1358
 278   2.0000      -0.316891        -8.6230
 279   2.0000      -0.306181        -8.3316
 280   2.0000      -0.294754        -8.0207
 281   2.0000      -0.266596        -7.2545
 282   0.0000      -0.162543        -4.4230
 283   0.0000      -0.127761        -3.4766
 284   0.0000      -0.122059        -3.3214
 285   0.0000      -0.097368        -2.6495
 286   0.0000      -0.094110        -2.5609

MULLIKEN ATOMIC CHARGES
-----------------------
   0 S :    0.124776
   1 C :   -0.430305
   2 C :    0.144224
   3 C :    0.126360
   4 C :    0.205514
   5 C :   -0.093960
   6 C :    0.097976
   7 C :   -0.314362
   8 C :   -0.190762
   9 N :    0.201886
  10 C :   -0.219419
  11 N :    0.157764
  12 C :   -0.283751
  13 N :    0.210523
  14 C :   -0.156457
  15 C :   -0.018799
  16 C :    0.013068
  17 C :   -0.082721
  18 S :    0.241445
  19 C :   -0.064387
  20 C :    0.041762
  21 C :    0.309752
  22 C :   -0.292055
  23 C :   -0.183128
  24 N :    0.178337
  25 C :   -0.186134
  26 N :    0.165235
  27 C :   -0.060282
  28 C :   -0.176276
  29 S :    0.223931
  30 C :    0.187637
  31 C :   -0.054826
  32 C :   -0.060255
  33 N :   -0.003940
  34 C :   -0.096557
  35 C :   -0.095537
  36 N :   -0.003054
  37 C :   -0.244622
  38 N :    0.269879
  39 C :   -0.244221
  40 N :    0.259881
  41 C :    0.194912
  42 C :   -0.007313
  43 C :   -0.011092
  44 N :   -0.282714
  45 S :    0.601676
  46 N :   -0.282649
  47 C :   -0.174699
  48 C :   -0.064888
  49 C :    0.045902
  50 C :   -0.060603
  51 S :    0.212566
  52 C :   -0.086478
  53 C :    0.014468
  54 C :    0.304862
  55 C :   -0.285910
  56 C :   -0.191636
  57 N :    0.195820
  58 C :   -0.187512
  59 N :    0.181486
  60 C :   -0.010372
  61 C :   -0.134065
  62 S :    0.186628
  63 C :    0.174612
  64 C :   -0.099388
  65 C :    0.092297
  66 C :   -0.307945
  67 C :   -0.189027
  68 N :    0.203059
  69 C :   -0.214910
  70 N :    0.154415
  71 S :    0.126958
  72 C :   -0.442116
  73 C :    0.127832
  74 C :    0.127113
  75 C :   -0.251951
  76 N :    0.215023
  77 H :    0.038529
  78 H :    0.035089
  79 H :    0.030462
  80 H :    0.037907
  81 H :    0.026437
  82 H :    0.036064
  83 H :    0.009735
  84 H :    0.024461
  85 H :    0.026233
  86 H :    0.039982
  87 H :    0.040068
  88 H :    0.035316
  89 H :    0.040906
  90 H :    0.038094
  91 H :    0.037094
  92 H :    0.025124
Sum of atomic charges:   -0.0000000

LOEWDIN ATOMIC CHARGES
----------------------
   0 S :    0.395090
   1 C :   -0.117277
   2 C :   -0.043514
   3 C :   -0.046371
   4 C :    0.029193
   5 C :   -0.109608
   6 C :   -0.072977
   7 C :   -0.167963
   8 C :   -0.037831
   9 N :   -0.031952
  10 C :   -0.036847
  11 N :   -0.040686
  12 C :   -0.063021
  13 N :   -0.011108
  14 C :   -0.176573
  15 C :   -0.006377
  16 C :   -0.070399
  17 C :   -0.161513
  18 S :    0.544395
  19 C :   -0.181955
  20 C :   -0.064431
  21 C :    0.079644
  22 C :   -0.100125
  23 C :   -0.017824
  24 N :   -0.025541
  25 C :   -0.013503
  26 N :   -0.034738
  27 C :   -0.006579
  28 C :   -0.160560
  29 S :    0.523664
  30 C :   -0.036942
  31 C :   -0.012264
  32 C :   -0.013867
  33 N :   -0.015989
  34 C :   -0.017645
  35 C :   -0.015187
  36 N :   -0.016799
  37 C :   -0.042271
  38 N :    0.014959
  39 C :   -0.040127
  40 N :    0.007971
  41 C :   -0.033083
  42 C :   -0.036268
  43 C :   -0.035426
  44 N :   -0.271111
  45 S :    0.718764
  46 N :   -0.268864
  47 C :   -0.161757
  48 C :   -0.004539
  49 C :   -0.062178
  50 C :   -0.182756
  51 S :    0.513622
  52 C :   -0.165094
  53 C :   -0.062132
  54 C :    0.072738
  55 C :   -0.086613
  56 C :   -0.022597
  57 N :   -0.008294
  58 C :   -0.015121
  59 N :   -0.024859
  60 C :    0.013354
  61 C :   -0.176971
  62 S :    0.503382
  63 C :    0.026268
  64 C :   -0.094868
  65 C :   -0.072865
  66 C :   -0.164261
  67 C :   -0.037770
  68 N :   -0.027783
  69 C :   -0.036206
  70 N :   -0.039353
  71 S :    0.390965
  72 C :   -0.127003
  73 C :   -0.049918
  74 C :   -0.049312
  75 C :   -0.041585
  76 N :   -0.011125
  77 H :    0.035527
  78 H :    0.035325
  79 H :    0.029355
  80 H :    0.035104
  81 H :    0.030468
  82 H :    0.034418
  83 H :    0.036688
  84 H :    0.039565
  85 H :    0.039945
  86 H :    0.051045
  87 H :    0.036131
  88 H :    0.016162
  89 H :    0.036560
  90 H :    0.034943
  91 H :    0.034505
  92 H :    0.020324

  Mayer bond orders larger than 0.100000
B(  0-S ,  1-C ) :   1.0027 B(  0-S ,  6-C ) :   1.0964 B(  1-C ,  2-C ) :   0.9839
B(  1-C ,  3-C ) :   1.0055 B(  1-C ,  4-C ) :   0.9075 B(  2-C , 77-H ) :   0.9575
B(  2-C , 78-H ) :   0.9573 B(  2-C , 79-H ) :   0.9621 B(  3-C , 80-H ) :   0.9600
B(  3-C , 81-H ) :   0.9580 B(  3-C , 82-H ) :   0.9607 B(  4-C ,  5-C ) :   1.6373
B(  4-C , 14-C ) :   1.1932 B(  5-C ,  6-C ) :   1.1137 B(  5-C , 12-C ) :   1.1135
B(  6-C ,  7-C ) :   1.6364 B(  7-C ,  8-C ) :   1.1581 B(  7-C , 10-C ) :   1.1401
B(  8-C ,  9-N ) :   3.0278 B( 10-C , 11-N ) :   3.0373 B( 12-C , 13-N ) :   2.9830
B( 14-C , 15-C ) :   1.4017 B( 14-C , 18-S ) :   1.0962 B( 15-C , 16-C ) :   1.3521
B( 15-C , 83-H ) :   0.9734 B( 16-C , 17-C ) :   1.3817 B( 16-C , 21-C ) :   0.9893
B( 17-C , 18-S ) :   1.1651 B( 17-C , 19-C ) :   1.2026 B( 19-C , 20-C ) :   1.3931
B( 19-C , 29-S ) :   1.0904 B( 20-C , 21-C ) :   0.9908 B( 20-C , 27-C ) :   1.2838
B( 21-C , 22-C ) :   1.7141 B( 22-C , 23-C ) :   1.1366 B( 22-C , 25-C ) :   1.1331
B( 23-C , 24-N ) :   2.9858 B( 25-C , 26-N ) :   2.9877 B( 27-C , 28-C ) :   1.4077
B( 27-C , 84-H ) :   0.9827 B( 28-C , 29-S ) :   1.0969 B( 28-C , 30-C ) :   1.2047
B( 30-C , 31-C ) :   1.2554 B( 30-C , 41-C ) :   0.1254 B( 30-C , 43-C ) :   1.2018
B( 31-C , 32-C ) :   1.1132 B( 31-C , 36-N ) :   1.3992 B( 32-C , 33-N ) :   1.4030
B( 32-C , 41-C ) :   1.2509 B( 33-N , 34-C ) :   1.6916 B( 34-C , 35-C ) :   1.2187
B( 34-C , 39-C ) :   1.1683 B( 35-C , 36-N ) :   1.6979 B( 35-C , 37-C ) :   1.1689
B( 37-C , 38-N ) :   3.0401 B( 39-C , 40-N ) :   3.0408 B( 41-C , 42-C ) :   1.1981
B( 41-C , 47-C ) :   1.2101 B( 42-C , 43-C ) :   1.0981 B( 42-C , 46-N ) :   1.5118
B( 43-C , 44-N ) :   1.5139 B( 44-N , 45-S ) :   1.2884 B( 44-N , 46-N ) :   0.1464
B( 45-S , 46-N ) :   1.2919 B( 47-C , 48-C ) :   1.4046 B( 47-C , 51-S ) :   1.0917
B( 48-C , 49-C ) :   1.2857 B( 48-C , 85-H ) :   0.9818 B( 49-C , 50-C ) :   1.3946
B( 49-C , 54-C ) :   0.9886 B( 50-C , 51-S ) :   1.0806 B( 50-C , 52-C ) :   1.2107
B( 52-C , 53-C ) :   1.3983 B( 52-C , 62-S ) :   1.1385 B( 53-C , 54-C ) :   0.9828
B( 53-C , 60-C ) :   1.3314 B( 54-C , 55-C ) :   1.7243 B( 55-C , 56-C ) :   1.1304
B( 55-C , 58-C ) :   1.1428 B( 56-C , 57-N ) :   2.9901 B( 58-C , 59-N ) :   2.9839
B( 60-C , 61-C ) :   1.4324 B( 60-C , 86-H ) :   0.9780 B( 61-C , 62-S ) :   1.0796
B( 61-C , 63-C ) :   1.1535 B( 63-C , 64-C ) :   1.6879 B( 63-C , 72-C ) :   0.9046
B( 64-C , 65-C ) :   1.0984 B( 64-C , 75-C ) :   1.1278 B( 65-C , 66-C ) :   1.6428
B( 65-C , 71-S ) :   1.0945 B( 66-C , 67-C ) :   1.1546 B( 66-C , 69-C ) :   1.1381
B( 67-C , 68-N ) :   3.0274 B( 69-C , 70-N ) :   3.0355 B( 71-S , 72-C ) :   0.9997
B( 72-C , 73-C ) :   0.9873 B( 72-C , 74-C ) :   1.0088 B( 73-C , 87-H ) :   0.9612
B( 73-C , 88-H ) :   0.9528 B( 73-C , 89-H ) :   0.9576 B( 74-C , 90-H ) :   0.9623
B( 74-C , 91-H ) :   0.9609 B( 74-C , 92-H ) :   0.9508 B( 75-C , 76-N ) :   2.9899

-----------------------------------------------------------------------------
         ABSORPTION SPECTRUM VIA TRANSITION ELECTRIC DIPOLE MOMENTS
-----------------------------------------------------------------------------
State   Energy  Wavelength   fosc         T2         TX        TY        TZ
        (cm-1)    (nm)                  (au**2)     (au)      (au)      (au)
-----------------------------------------------------------------------------
   0    7783.8   1284.7   0.719199410  30.41816  -3.38822   3.72920   2.24302
   1   13944.3    717.1   0.009560973   0.22573   0.32661   0.10267  -0.32941
   2   14749.5    678.0   0.064219621   1.43340  -0.67359   0.86418   0.48256
   3   16419.1    609.0   0.006140817   0.12313  -0.13422  -0.30632   0.10621
   4   20580.8    485.9   0.099544610   1.59233   0.72735  -0.56858  -0.86023
   5   22091.6    452.7   0.246894120   3.67925   1.16174  -1.26444  -0.85487
   6   22286.2    448.7   1.012037285  14.94983  -2.54726   2.12383   1.98762
   7   22749.6    439.6   0.363193651   5.25581  -1.07320   1.82429   0.88092
   8   23303.5    429.1   0.019837333   0.28024  -0.29959   0.43129   0.06695
   9   23677.0    422.4   0.070539468   0.98080  -0.54591   0.06414   0.82381
  10   23999.7    416.7   0.098523466   1.35148   0.70436  -0.88572  -0.26619
  11   24832.6    402.7   0.194887260   2.58367  -0.40595  -0.99528   1.19511
  12   24927.9    401.2   0.023661177   0.31248  -0.29403   0.20978   0.42664
  13   25235.6    396.3   0.015719976   0.20508  -0.22541  -0.28807   0.26699
  14   25318.5    395.0   0.089729258   1.16673   0.22808  -1.05555   0.02293
  15   25816.9    387.3   0.138681852   1.76844  -0.76045   0.88111   0.64327
  16   27609.4    362.2   0.011570841   0.13797  -0.11392   0.19256  -0.29650
  17   28246.9    354.0   0.028980315   0.33776  -0.25258   0.19266   0.48667
  18   29266.9    341.7   0.023793438   0.26764   0.27498   0.26892  -0.34599
  19   29483.6    339.2   0.093563280   1.04472  -0.07863   0.76861  -0.66916
  20   29682.0    336.9   0.159903218   1.77353  -0.07850  -0.80440   1.05845
  21   29983.1    333.5   0.093826424   1.03021  -0.34784   0.23738   0.92351
  22   30437.4    328.5   0.101581548   1.09871  -0.31384  -0.66066   0.75083
  23   30544.0    327.4   0.191336506   2.06228   0.45971   0.97809  -0.94566
  24   31051.2    322.0   0.374917030   3.97495  -0.18275  -1.13431   1.62939
  25   31470.8    317.8   0.187404088   1.96041   0.84524  -0.71873  -0.85405
  26   31642.6    316.0   0.211046073   2.19574   0.74307  -1.18688  -0.48467
  27   31872.7    313.7   0.205584782   2.12348   0.76951  -1.23555  -0.06889
  28   32114.7    311.4   0.003997782   0.04098   0.01402  -0.07387  -0.18796
  29   32248.9    310.1   0.686403976   7.00714  -0.39704  -1.23519   2.30734
  30   32475.9    307.9   0.452404680   4.58608   0.53808   0.54820  -1.99901
  31   33043.6    302.6   0.094447991   0.94098  -0.14767   0.83388  -0.47310
  32   33450.8    298.9   0.011380409   0.11200  -0.01940   0.19110  -0.27405
  33   34278.8    291.7   0.093801041   0.90086  -0.03694   0.78250  -0.53590
  34   34579.0    289.2   0.026585407   0.25311  -0.32939   0.32650   0.19496
  35   34742.3    287.8   0.296695201   2.81143  -1.09134   1.01301   0.77086
  36   34761.9    287.7   0.090816739   0.86008  -0.49592  -0.03239   0.78300
  37   35080.3    285.1   0.015455356   0.14504   0.02622  -0.28716   0.24878
  38   35431.5    282.2   0.067046648   0.62296  -0.39355   0.68414  -0.00655
  39   35633.0    280.6   0.009774696   0.09031  -0.19999   0.19720  -0.10689
  40   36604.8    273.2   0.110444150   0.99330   0.13757   0.54640  -0.82208
  41   36969.1    270.5   0.106539614   0.94874   0.11369   0.45084  -0.85590
  42   37108.5    269.5   0.078490534   0.69634  -0.11444  -0.36846   0.73992
  43   37613.6    265.9   0.030950592   0.27089  -0.02309   0.33103  -0.40097
  44   37774.9    264.7   0.024720953   0.21545   0.31168  -0.32894  -0.10050
  45   38297.8    261.1   0.028106878   0.24161  -0.27440   0.40638  -0.03420
  46   38431.4    260.2   0.040792897   0.34944   0.05263   0.37003  -0.45798
  47   38499.4    259.7   0.098152016   0.83931   0.19630   0.32225  -0.83482
  48   38957.6    256.7   0.024132169   0.20393   0.15551  -0.36483   0.21597
  49   39092.4    255.8   0.002793091   0.02352  -0.06184  -0.04965  -0.13127
  50   39341.1    254.2   0.002407292   0.02014  -0.12713  -0.05670   0.02768
  51   39415.1    253.7   0.014993745   0.12523   0.04242   0.30797  -0.16908
  52   39922.8    250.5   0.036034520   0.29715   0.05476  -0.19123   0.50752
  53   40104.5    249.3   0.028695398   0.23556   0.11958  -0.01497  -0.47014

FINAL SINGLE POINT ENERGY     -5725.848027429423

DIPOLE MOMENT
-------------
                                X             Y             Z
Electronic contribution:      0.10382      -7.44727      -9.39769
Nuclear contribution   :      1.01801      10.72642       9.73365
                        -----------------------------------------
Total Dipole Moment    :      1.12184       3.27915       0.33596
                        -----------------------------------------
Magnitude (a.u.)       :      3.48198
Magnitude (Debye)      :      8.85050

Rotational constants in cm-1:     0.002030     0.000206     0.000189
Rotational constants in MHz :    60.848091     6.177931     5.667615

                             ****ORCA TERMINATED NORMALLY****
TOTAL RUN TIME: 0 days 0 hours 9 minutes 58 seconds 201 msec
