                         Program Version 4.2.0 -  RELEASE  -
|  1> # ORCA input file
|  2> # SCF done       -196.316051782182          0.000539132694
|  3> ! CAM-B3LYP def2-SVP def2/J RIJCOSX Grid4 TightSCF
|  4> %maxcore 5000
|  5> %tddft
|  6>     Mode sTDDFT
|  7>     Ethresh 5.0
|  8>     maxcore 5000
|  9> end
| 10>
| 11> %pal
| 12>   nprocs 6
| 13>   end
| 14> * xyz 0 1
| 15>    C       21.55861         3.13559         2.59358
| 16>    C       21.77348         2.89781         3.91922
| 17>    S       20.79028         1.63821         4.57401
| 18>    C       20.04658         1.42345         3.04738
| 19>    C       20.56229         2.28541         2.08534
| 20>    C       19.90550         2.01892         0.79944
| 21>    O       20.11368         2.51337        -0.28199
| 22>    C       18.84341         1.00933         1.12655
| 23>    C       19.07708         0.52606         2.48032
| 24>    C       18.68958        -0.66775         3.03252
| 25>    C       19.08978        -1.03037         4.33545
| 26>    N       19.40736        -1.32483         5.39755
| 27>    C       17.96937        -1.66113         2.34235
| 28>    N       17.42036        -2.50762         1.79451
| 29>    C       17.83974         0.78215         0.24376
| 30>    C       16.55589         0.22303         0.47132
| 31>    C       15.73344        -0.34908        -0.48581
| 32>    C       14.50817        -0.74343         0.04119
| 33>    C       14.37483        -0.42619         1.40991
| 34>    S       15.76423         0.32559         2.04247
| 35>    C       13.09676        -0.83048         1.85439
| 36>    C       12.41849        -1.41914         0.76464
| 37>    C       13.28329        -1.38480        -0.40546
| 38>    C       12.99825        -1.85155        -1.65437
| 39>    C       13.91515        -1.74741        -2.72234
| 40>    N       14.65260        -1.65675        -3.59522
| 41>    C       11.76316        -2.46026        -1.96504
| 42>    N       10.76025        -2.95068        -2.22599
| 43>    C       11.14200        -1.84615         1.09493
| 44>    C       10.83521        -1.58495         2.42734
| 45>    S       12.15596        -0.80462         3.28209
| 46>    C        9.61461        -1.86936         3.08918
| 47>    C        9.42583        -1.52590         4.44741
| 48>    C        8.18973        -1.77365         5.14215
| 49>    N        8.07387        -1.42131         6.42663
| 50>    C        9.08017        -0.85309         7.04592
| 51>    C       10.30851        -0.60175         6.35311
| 52>    N       10.44005        -0.94181         5.09371
| 53>    C       11.39391         0.02221         7.01676
| 54>    N       12.25413         0.53201         7.57491
| 55>    C        8.93884        -0.48744         8.40768
| 56>    N        8.85576        -0.17963         9.50753
| 57>    C        7.07619        -2.37756         4.51370
| 58>    C        7.26650        -2.73872         3.15823
| 59>    C        8.50871        -2.48959         2.46069
| 60>    N        8.44952        -2.91039         1.19669
| 61>    S        7.00832        -3.54753         0.90908
| 62>    N        6.37269        -3.32728         2.36254
| 63>    C        5.86205        -2.58380         5.21556
| 64>    C        4.69821        -3.15930         4.71408
| 65>    C        3.68817        -3.19343         5.66263
| 66>    C        4.08020        -2.63933         6.90221
| 67>    S        5.69664        -2.08273         6.89153
| 68>    C        2.98738        -2.71204         7.79518
| 69>    C        1.89909        -3.31609         7.11765
| 70>    C        2.30690        -3.63603         5.75877
| 71>    C        1.55889        -4.21931         4.77918
| 72>    C        2.07578        -4.47114         3.49027
| 73>    N        2.48947        -4.67690         2.44091
| 74>    C        0.21778        -4.60695         4.98656
| 75>    N       -0.87209        -4.92299         5.14868
| 76>    C        0.77922        -3.42262         7.92006
| 77>    C        0.98950        -2.90489         9.20350
| 78>    S        2.62311        -2.27817         9.40227
| 79>    C       -0.02699        -2.91014        10.17775
| 80>    C       -0.02452        -2.44200        11.46098
| 81>    C       -1.15543        -2.49719        12.38174
| 82>    C       -2.40772        -3.02135        12.19211
| 83>    C       -3.36912        -2.96979        13.22465
| 84>    N       -4.15206        -2.93037        14.06214
| 85>    C       -2.87731        -3.64352        11.01950
| 86>    N       -3.31812        -4.16164        10.09450
| 87>    C       -0.70497        -1.87239        13.59580
| 88>    C        0.61278        -1.44669        13.48663
| 89>    C        1.08971        -0.82976        14.65489
| 90>    C        0.12472        -0.80288        15.61834
| 91>    S       -1.37006        -1.51947        15.13389
| 92>    C        1.10768        -1.78314        12.15033
| 93>    O        2.21524        -1.56891        11.69360
| 94>    H       22.08460         3.87228         2.01539
| 95>    H       22.47276         3.39035         4.56640
| 96>    H       18.01770         1.14707        -0.76388
| 97>    H       16.04477        -0.49002        -1.50517
| 98>    H       10.44157        -2.32244         0.43380
| 99>    H        4.63172        -3.51995         3.70416
|100>    H       -0.16238        -3.84811         7.62047
|101>    H       -0.94808        -3.35893         9.82378
|102>    H        2.08042        -0.43234        14.77451
|103>    H        0.20084        -0.39651        16.60800
|104> *
|105>
|106>                          ****END OF INPUT****

CARTESIAN COORDINATES (ANGSTROEM)
---------------------------------
  C     21.558610    3.135590    2.593580
  C     21.773480    2.897810    3.919220
  S     20.790280    1.638210    4.574010
  C     20.046580    1.423450    3.047380
  C     20.562290    2.285410    2.085340
  C     19.905500    2.018920    0.799440
  O     20.113680    2.513370   -0.281990
  C     18.843410    1.009330    1.126550
  C     19.077080    0.526060    2.480320
  C     18.689580   -0.667750    3.032520
  C     19.089780   -1.030370    4.335450
  N     19.407360   -1.324830    5.397550
  C     17.969370   -1.661130    2.342350
  N     17.420360   -2.507620    1.794510
  C     17.839740    0.782150    0.243760
  C     16.555890    0.223030    0.471320
  C     15.733440   -0.349080   -0.485810
  C     14.508170   -0.743430    0.041190
  C     14.374830   -0.426190    1.409910
  S     15.764230    0.325590    2.042470
  C     13.096760   -0.830480    1.854390
  C     12.418490   -1.419140    0.764640
  C     13.283290   -1.384800   -0.405460
  C     12.998250   -1.851550   -1.654370
  C     13.915150   -1.747410   -2.722340
  N     14.652600   -1.656750   -3.595220
  C     11.763160   -2.460260   -1.965040
  N     10.760250   -2.950680   -2.225990
  C     11.142000   -1.846150    1.094930
  C     10.835210   -1.584950    2.427340
  S     12.155960   -0.804620    3.282090
  C      9.614610   -1.869360    3.089180
  C      9.425830   -1.525900    4.447410
  C      8.189730   -1.773650    5.142150
  N      8.073870   -1.421310    6.426630
  C      9.080170   -0.853090    7.045920
  C     10.308510   -0.601750    6.353110
  N     10.440050   -0.941810    5.093710
  C     11.393910    0.022210    7.016760
  N     12.254130    0.532010    7.574910
  C      8.938840   -0.487440    8.407680
  N      8.855760   -0.179630    9.507530
  C      7.076190   -2.377560    4.513700
  C      7.266500   -2.738720    3.158230
  C      8.508710   -2.489590    2.460690
  N      8.449520   -2.910390    1.196690
  S      7.008320   -3.547530    0.909080
  N      6.372690   -3.327280    2.362540
  C      5.862050   -2.583800    5.215560
  C      4.698210   -3.159300    4.714080
  C      3.688170   -3.193430    5.662630
  C      4.080200   -2.639330    6.902210
  S      5.696640   -2.082730    6.891530
  C      2.987380   -2.712040    7.795180
  C      1.899090   -3.316090    7.117650
  C      2.306900   -3.636030    5.758770
  C      1.558890   -4.219310    4.779180
  C      2.075780   -4.471140    3.490270
  N      2.489470   -4.676900    2.440910
  C      0.217780   -4.606950    4.986560
  N     -0.872090   -4.922990    5.148680
  C      0.779220   -3.422620    7.920060
  C      0.989500   -2.904890    9.203500
  S      2.623110   -2.278170    9.402270
  C     -0.026990   -2.910140   10.177750
  C     -0.024520   -2.442000   11.460980
  C     -1.155430   -2.497190   12.381740
  C     -2.407720   -3.021350   12.192110
  C     -3.369120   -2.969790   13.224650
  N     -4.152060   -2.930370   14.062140
  C     -2.877310   -3.643520   11.019500
  N     -3.318120   -4.161640   10.094500
  C     -0.704970   -1.872390   13.595800
  C      0.612780   -1.446690   13.486630
  C      1.089710   -0.829760   14.654890
  C      0.124720   -0.802880   15.618340
  S     -1.370060   -1.519470   15.133890
  C      1.107680   -1.783140   12.150330
  O      2.215240   -1.568910   11.693600
  H     22.084600    3.872280    2.015390
  H     22.472760    3.390350    4.566400
  H     18.017700    1.147070   -0.763880
  H     16.044770   -0.490020   -1.505170
  H     10.441570   -2.322440    0.433800
  H      4.631720   -3.519950    3.704160
  H     -0.162380   -3.848110    7.620470
  H     -0.948080   -3.358930    9.823780
  H      2.080420   -0.432340   14.774510
  H      0.200840   -0.396510   16.608000

 Total Charge           Charge          ....    0
 Multiplicity           Mult            ....    1
 Number of Electrons    NEL             ....  572
 Basis Dimension        Dim             .... 1184

ORBITAL ENERGIES
----------------

  NO   OCC          E(Eh)            E(eV)
   0   2.0000     -89.063404     -2423.5384
   1   2.0000     -89.001183     -2421.8453
   2   2.0000     -88.996491     -2421.7176
   3   2.0000     -88.995963     -2421.7033
   4   2.0000     -88.995080     -2421.6792
   5   2.0000     -88.995037     -2421.6781
   6   2.0000     -88.994439     -2421.6618
   7   2.0000     -19.234693      -523.4026
   8   2.0000     -19.226173      -523.1708
   9   2.0000     -14.488290      -394.2464
  10   2.0000     -14.487931      -394.2366
  11   2.0000     -14.471246      -393.7826
  12   2.0000     -14.471057      -393.7775
  13   2.0000     -14.448419      -393.1615
  14   2.0000     -14.448219      -393.1560
  15   2.0000     -14.436166      -392.8280
  16   2.0000     -14.435838      -392.8191
  17   2.0000     -14.434517      -392.7832
  18   2.0000     -14.433311      -392.7504
  19   2.0000     -14.425380      -392.5345
  20   2.0000     -14.424827      -392.5195
  21   2.0000     -14.424300      -392.5052
  22   2.0000     -14.422489      -392.4559
  23   2.0000     -10.405706      -283.1537
  24   2.0000     -10.405469      -283.1472
  25   2.0000     -10.386338      -282.6266
  26   2.0000     -10.381000      -282.4814
  27   2.0000     -10.371782      -282.2305
  28   2.0000     -10.369271      -282.1622
  29   2.0000     -10.369002      -282.1549
  30   2.0000     -10.368733      -282.1476
  31   2.0000     -10.363823      -282.0139
  32   2.0000     -10.363578      -282.0073
  33   2.0000     -10.359679      -281.9012
  34   2.0000     -10.359116      -281.8859
  35   2.0000     -10.357445      -281.8404
  36   2.0000     -10.356522      -281.8153
  37   2.0000     -10.355474      -281.7868
  38   2.0000     -10.353224      -281.7256
  39   2.0000     -10.347170      -281.5608
  40   2.0000     -10.341450      -281.4051
  41   2.0000     -10.341437      -281.4048
  42   2.0000     -10.341133      -281.3965
  43   2.0000     -10.340996      -281.3928
  44   2.0000     -10.337757      -281.3047
  45   2.0000     -10.337593      -281.3002
  46   2.0000     -10.337210      -281.2898
  47   2.0000     -10.336703      -281.2760
  48   2.0000     -10.336278      -281.2644
  49   2.0000     -10.336172      -281.2615
  50   2.0000     -10.336024      -281.2575
  51   2.0000     -10.335767      -281.2505
  52   2.0000     -10.334775      -281.2235
  53   2.0000     -10.334467      -281.2151
  54   2.0000     -10.334448      -281.2146
  55   2.0000     -10.333197      -281.1806
  56   2.0000     -10.333097      -281.1779
  57   2.0000     -10.332737      -281.1681
  58   2.0000     -10.330997      -281.1207
  59   2.0000     -10.328378      -281.0494
  60   2.0000     -10.327327      -281.0209
  61   2.0000     -10.326915      -281.0096
  62   2.0000     -10.326436      -280.9966
  63   2.0000     -10.325691      -280.9763
  64   2.0000     -10.323518      -280.9172
  65   2.0000     -10.317711      -280.7592
  66   2.0000     -10.317064      -280.7416
  67   2.0000     -10.315112      -280.6885
  68   2.0000     -10.311946      -280.6023
  69   2.0000     -10.311731      -280.5965
  70   2.0000     -10.311359      -280.5863
  71   2.0000     -10.311308      -280.5850
  72   2.0000     -10.310620      -280.5662
  73   2.0000     -10.309348      -280.5316
  74   2.0000     -10.308263      -280.5021
  75   2.0000     -10.307204      -280.4733
  76   2.0000     -10.306674      -280.4589
  77   2.0000     -10.306301      -280.4487
  78   2.0000     -10.305576      -280.4290
  79   2.0000      -8.154303      -221.8899
  80   2.0000      -8.095384      -220.2866
  81   2.0000      -8.090755      -220.1606
  82   2.0000      -8.089519      -220.1270
  83   2.0000      -8.089007      -220.1131
  84   2.0000      -8.087683      -220.0770
  85   2.0000      -8.086840      -220.0541
  86   2.0000      -6.125335      -166.6788
  87   2.0000      -6.117419      -166.4634
  88   2.0000      -6.117312      -166.4605
  89   2.0000      -6.064623      -165.0268
  90   2.0000      -6.060376      -164.9112
  91   2.0000      -6.060074      -164.9030
  92   2.0000      -6.058846      -164.8696
  93   2.0000      -6.058581      -164.8624
  94   2.0000      -6.057838      -164.8422
  95   2.0000      -6.057200      -164.8248
  96   2.0000      -6.056214      -164.7980
  97   2.0000      -6.055438      -164.7768
  98   2.0000      -6.054174      -164.7425
  99   2.0000      -6.053733      -164.7305
 100   2.0000      -6.053298      -164.7186
 101   2.0000      -6.052409      -164.6944
 102   2.0000      -6.052173      -164.6880
 103   2.0000      -6.051491      -164.6694
 104   2.0000      -6.051454      -164.6684
 105   2.0000      -6.050151      -164.6330
 106   2.0000      -6.049453      -164.6140
 107   2.0000      -1.161108       -31.5953
 108   2.0000      -1.150785       -31.3145
 109   2.0000      -1.147054       -31.2129
 110   2.0000      -1.142158       -31.0797
 111   2.0000      -1.075929       -29.2775
 112   2.0000      -1.053922       -28.6787
 113   2.0000      -1.050427       -28.5836
 114   2.0000      -1.038512       -28.2594
 115   2.0000      -1.037229       -28.2244
 116   2.0000      -1.033796       -28.1310
 117   2.0000      -1.028178       -27.9782
 118   2.0000      -1.026068       -27.9207
 119   2.0000      -1.023490       -27.8506
 120   2.0000      -1.017680       -27.6925
 121   2.0000      -1.016083       -27.6490
 122   2.0000      -1.015703       -27.6387
 123   2.0000      -1.013632       -27.5823
 124   2.0000      -1.012246       -27.5446
 125   2.0000      -1.010944       -27.5092
 126   2.0000      -1.004150       -27.3243
 127   2.0000      -1.002087       -27.2682
 128   2.0000      -1.000956       -27.2374
 129   2.0000      -0.992491       -27.0070
 130   2.0000      -0.973873       -26.5004
 131   2.0000      -0.971686       -26.4409
 132   2.0000      -0.964848       -26.2549
 133   2.0000      -0.961541       -26.1649
 134   2.0000      -0.932478       -25.3740
 135   2.0000      -0.930629       -25.3237
 136   2.0000      -0.924764       -25.1641
 137   2.0000      -0.916274       -24.9331
 138   2.0000      -0.912556       -24.8319
 139   2.0000      -0.904895       -24.6234
 140   2.0000      -0.888117       -24.1669
 141   2.0000      -0.885135       -24.0857
 142   2.0000      -0.875199       -23.8154
 143   2.0000      -0.869366       -23.6566
 144   2.0000      -0.864566       -23.5260
 145   2.0000      -0.862632       -23.4734
 146   2.0000      -0.862042       -23.4574
 147   2.0000      -0.860917       -23.4267
 148   2.0000      -0.855611       -23.2824
 149   2.0000      -0.828520       -22.5452
 150   2.0000      -0.825895       -22.4738
 151   2.0000      -0.803690       -21.8695
 152   2.0000      -0.793372       -21.5888
 153   2.0000      -0.785819       -21.3832
 154   2.0000      -0.783204       -21.3121
 155   2.0000      -0.776720       -21.1356
 156   2.0000      -0.772672       -21.0255
 157   2.0000      -0.757361       -20.6089
 158   2.0000      -0.756876       -20.5956
 159   2.0000      -0.739379       -20.1195
 160   2.0000      -0.727424       -19.7942
 161   2.0000      -0.719205       -19.5706
 162   2.0000      -0.714418       -19.4403
 163   2.0000      -0.708439       -19.2776
 164   2.0000      -0.706669       -19.2294
 165   2.0000      -0.703518       -19.1437
 166   2.0000      -0.695675       -18.9303
 167   2.0000      -0.691291       -18.8110
 168   2.0000      -0.689262       -18.7558
 169   2.0000      -0.681647       -18.5486
 170   2.0000      -0.677979       -18.4487
 171   2.0000      -0.676030       -18.3957
 172   2.0000      -0.675063       -18.3694
 173   2.0000      -0.667694       -18.1689
 174   2.0000      -0.649172       -17.6649
 175   2.0000      -0.647010       -17.6060
 176   2.0000      -0.643892       -17.5212
 177   2.0000      -0.639081       -17.3903
 178   2.0000      -0.638154       -17.3650
 179   2.0000      -0.633698       -17.2438
 180   2.0000      -0.629258       -17.1230
 181   2.0000      -0.625894       -17.0315
 182   2.0000      -0.623511       -16.9666
 183   2.0000      -0.619331       -16.8529
 184   2.0000      -0.615880       -16.7590
 185   2.0000      -0.606349       -16.4996
 186   2.0000      -0.603551       -16.4235
 187   2.0000      -0.601000       -16.3540
 188   2.0000      -0.588694       -16.0192
 189   2.0000      -0.580159       -15.7869
 190   2.0000      -0.577014       -15.7013
 191   2.0000      -0.573627       -15.6092
 192   2.0000      -0.564295       -15.3552
 193   2.0000      -0.558685       -15.2026
 194   2.0000      -0.556899       -15.1540
 195   2.0000      -0.554509       -15.0890
 196   2.0000      -0.554258       -15.0821
 197   2.0000      -0.551339       -15.0027
 198   2.0000      -0.550853       -14.9895
 199   2.0000      -0.549131       -14.9426
 200   2.0000      -0.546504       -14.8711
 201   2.0000      -0.536522       -14.5995
 202   2.0000      -0.532352       -14.4860
 203   2.0000      -0.530597       -14.4383
 204   2.0000      -0.522475       -14.2173
 205   2.0000      -0.521217       -14.1830
 206   2.0000      -0.519910       -14.1475
 207   2.0000      -0.516603       -14.0575
 208   2.0000      -0.512399       -13.9431
 209   2.0000      -0.511716       -13.9245
 210   2.0000      -0.508955       -13.8494
 211   2.0000      -0.507733       -13.8161
 212   2.0000      -0.505315       -13.7503
 213   2.0000      -0.504685       -13.7332
 214   2.0000      -0.504384       -13.7250
 215   2.0000      -0.501511       -13.6468
 216   2.0000      -0.500685       -13.6243
 217   2.0000      -0.498634       -13.5685
 218   2.0000      -0.494328       -13.4513
 219   2.0000      -0.492784       -13.4093
 220   2.0000      -0.488822       -13.3015
 221   2.0000      -0.487867       -13.2755
 222   2.0000      -0.485894       -13.2218
 223   2.0000      -0.485594       -13.2137
 224   2.0000      -0.482317       -13.1245
 225   2.0000      -0.479634       -13.0515
 226   2.0000      -0.479032       -13.0351
 227   2.0000      -0.477562       -12.9951
 228   2.0000      -0.474434       -12.9100
 229   2.0000      -0.470929       -12.8146
 230   2.0000      -0.467968       -12.7341
 231   2.0000      -0.466932       -12.7059
 232   2.0000      -0.464989       -12.6530
 233   2.0000      -0.464959       -12.6522
 234   2.0000      -0.463730       -12.6187
 235   2.0000      -0.462954       -12.5976
 236   2.0000      -0.461889       -12.5686
 237   2.0000      -0.461365       -12.5544
 238   2.0000      -0.459256       -12.4970
 239   2.0000      -0.457155       -12.4398
 240   2.0000      -0.455743       -12.4014
 241   2.0000      -0.454010       -12.3542
 242   2.0000      -0.450175       -12.2499
 243   2.0000      -0.450038       -12.2461
 244   2.0000      -0.446046       -12.1375
 245   2.0000      -0.445711       -12.1284
 246   2.0000      -0.445159       -12.1134
 247   2.0000      -0.444649       -12.0995
 248   2.0000      -0.444046       -12.0831
 249   2.0000      -0.443193       -12.0599
 250   2.0000      -0.442729       -12.0473
 251   2.0000      -0.437732       -11.9113
 252   2.0000      -0.437290       -11.8993
 253   2.0000      -0.435264       -11.8441
 254   2.0000      -0.433845       -11.8055
 255   2.0000      -0.433705       -11.8017
 256   2.0000      -0.432289       -11.7632
 257   2.0000      -0.430922       -11.7260
 258   2.0000      -0.427848       -11.6423
 259   2.0000      -0.426333       -11.6011
 260   2.0000      -0.424662       -11.5556
 261   2.0000      -0.419997       -11.4287
 262   2.0000      -0.417420       -11.3586
 263   2.0000      -0.415311       -11.3012
 264   2.0000      -0.409411       -11.1406
 265   2.0000      -0.404818       -11.0156
 266   2.0000      -0.396092       -10.7782
 267   2.0000      -0.395694       -10.7674
 268   2.0000      -0.392427       -10.6785
 269   2.0000      -0.370577       -10.0839
 270   2.0000      -0.369100       -10.0437
 271   2.0000      -0.368803       -10.0356
 272   2.0000      -0.356784        -9.7086
 273   2.0000      -0.355750        -9.6804
 274   2.0000      -0.354267        -9.6401
 275   2.0000      -0.352357        -9.5881
 276   2.0000      -0.351661        -9.5692
 277   2.0000      -0.350220        -9.5300
 278   2.0000      -0.346616        -9.4319
 279   2.0000      -0.329990        -8.9795
 280   2.0000      -0.327374        -8.9083
 281   2.0000      -0.319565        -8.6958
 282   2.0000      -0.315496        -8.5851
 283   2.0000      -0.311591        -8.4788
 284   2.0000      -0.285773        -7.7763
 285   2.0000      -0.252189        -6.8624
 286   0.0000      -0.150028        -4.0825
 287   0.0000      -0.114161        -3.1065
 288   0.0000      -0.108388        -2.9494
 289   0.0000      -0.093251        -2.5375
 290   0.0000      -0.091614        -2.4930

MULLIKEN ATOMIC CHARGES
-----------------------
   0 C :    0.020280
   1 C :   -0.054591
   2 S :    0.224058
   3 C :   -0.170229
   4 C :    0.021926
   5 C :    0.148611
   6 O :   -0.130026
   7 C :   -0.139729
   8 C :    0.219906
   9 C :   -0.320379
  10 C :   -0.196162
  11 N :    0.171622
  12 C :   -0.204095
  13 N :    0.179353
  14 C :    0.038151
  15 C :   -0.098312
  16 C :    0.009858
  17 C :    0.028961
  18 C :   -0.091648
  19 S :    0.212224
  20 C :   -0.057674
  21 C :    0.043956
  22 C :    0.304014
  23 C :   -0.298617
  24 C :   -0.189970
  25 N :    0.180055
  26 C :   -0.187166
  27 N :    0.176327
  28 C :   -0.067141
  29 C :   -0.171811
  30 S :    0.212837
  31 C :    0.192108
  32 C :   -0.061021
  33 C :   -0.060995
  34 N :   -0.000530
  35 C :   -0.100903
  36 C :   -0.099165
  37 N :   -0.003615
  38 C :   -0.243341
  39 N :    0.259082
  40 C :   -0.240514
  41 N :    0.258180
  42 C :    0.187558
  43 C :   -0.012373
  44 C :   -0.007964
  45 N :   -0.285222
  46 S :    0.595795
  47 N :   -0.281526
  48 C :   -0.173371
  49 C :   -0.062359
  50 C :    0.040988
  51 C :   -0.061545
  52 S :    0.212293
  53 C :   -0.079288
  54 C :    0.048210
  55 C :    0.311017
  56 C :   -0.305143
  57 C :   -0.184610
  58 N :    0.172572
  59 C :   -0.196002
  60 N :    0.186790
  61 C :   -0.063233
  62 C :   -0.051016
  63 S :    0.245766
  64 C :   -0.039712
  65 C :   -0.097789
  66 C :    0.255382
  67 C :   -0.335746
  68 C :   -0.207139
  69 N :    0.169456
  70 C :   -0.182813
  71 N :    0.161066
  72 C :   -0.158107
  73 C :    0.019567
  74 C :    0.018952
  75 C :   -0.050667
  76 S :    0.226216
  77 C :    0.182043
  78 O :   -0.173661
  79 H :    0.010931
  80 H :    0.047403
  81 H :    0.037765
  82 H :    0.017970
  83 H :    0.025467
  84 H :    0.023591
  85 H :    0.026693
  86 H :    0.018576
  87 H :    0.008002
  88 H :    0.045346
Sum of atomic charges:   -0.0000000

LOEWDIN ATOMIC CHARGES
----------------------
   0 C :   -0.034317
   1 C :   -0.150774
   2 S :    0.511793
   3 C :   -0.174310
   4 C :   -0.069855
   5 C :    0.082772
   6 O :   -0.131432
   7 C :   -0.090389
   8 C :    0.046108
   9 C :   -0.144258
  10 C :   -0.035725
  11 N :   -0.038695
  12 C :   -0.037742
  13 N :   -0.044074
  14 C :    0.042523
  15 C :   -0.174131
  16 C :    0.008203
  17 C :   -0.062881
  18 C :   -0.158645
  19 S :    0.512522
  20 C :   -0.177988
  21 C :   -0.064691
  22 C :    0.079447
  23 C :   -0.097055
  24 C :   -0.017544
  25 N :   -0.027402
  26 C :   -0.015881
  27 N :   -0.030020
  28 C :   -0.005407
  29 C :   -0.163291
  30 S :    0.515442
  31 C :   -0.035552
  32 C :   -0.014303
  33 C :   -0.013796
  34 N :   -0.015636
  35 C :   -0.019362
  36 C :   -0.019465
  37 N :   -0.016108
  38 C :   -0.040097
  39 N :    0.005802
  40 C :   -0.039951
  41 N :    0.006241
  42 C :   -0.036957
  43 C :   -0.036067
  44 C :   -0.036330
  45 N :   -0.270208
  46 S :    0.713272
  47 N :   -0.269699
  48 C :   -0.162227
  49 C :   -0.007471
  50 C :   -0.064588
  51 C :   -0.178876
  52 S :    0.515078
  53 C :   -0.171394
  54 C :   -0.071742
  55 C :    0.077575
  56 C :   -0.100975
  57 C :   -0.016014
  58 N :   -0.032519
  59 C :   -0.020466
  60 N :   -0.024740
  61 C :    0.006990
  62 C :   -0.181376
  63 S :    0.549985
  64 C :    0.047804
  65 C :   -0.102580
  66 C :    0.061508
  67 C :   -0.138418
  68 C :   -0.034436
  69 N :   -0.041323
  70 C :   -0.024859
  71 N :   -0.040707
  72 C :   -0.175270
  73 C :   -0.070584
  74 C :   -0.033989
  75 C :   -0.151781
  76 S :    0.515756
  77 C :    0.085575
  78 O :   -0.162563
  79 H :    0.044122
  80 H :    0.031976
  81 H :    0.055905
  82 H :    0.047255
  83 H :    0.039396
  84 H :    0.038949
  85 H :    0.047644
  86 H :    0.054175
  87 H :    0.043492
  88 H :    0.031626

  Mayer bond orders larger than 0.100000
B(  0-C ,  1-C ) :   1.5485 B(  0-C ,  4-C ) :   1.2749 B(  0-C , 79-H ) :   1.0069
B(  1-C ,  2-S ) :   1.1670 B(  1-C , 80-H ) :   0.9684 B(  2-S ,  3-C ) :   1.1565
B(  3-C ,  4-C ) :   1.4374 B(  3-C ,  8-C ) :   1.0941 B(  4-C ,  5-C ) :   0.9430
B(  5-C ,  6-O ) :   2.2722 B(  5-C ,  7-C ) :   0.9236 B(  7-C ,  8-C ) :   1.0250
B(  7-C , 14-C ) :   1.6991 B(  8-C ,  9-C ) :   1.6555 B(  9-C , 10-C ) :   1.1320
B(  9-C , 12-C ) :   1.1561 B( 10-C , 11-N ) :   3.0145 B( 12-C , 13-N ) :   3.0203
B( 14-C , 15-C ) :   1.1106 B( 14-C , 81-H ) :   0.9447 B( 15-C , 16-C ) :   1.4111
B( 15-C , 19-S ) :   1.0982 B( 16-C , 17-C ) :   1.3020 B( 16-C , 82-H ) :   1.0009
B( 17-C , 18-C ) :   1.3981 B( 17-C , 22-C ) :   0.9905 B( 18-C , 19-S ) :   1.1476
B( 18-C , 20-C ) :   1.2192 B( 20-C , 21-C ) :   1.3923 B( 20-C , 30-S ) :   1.0854
B( 21-C , 22-C ) :   0.9908 B( 21-C , 28-C ) :   1.2883 B( 22-C , 23-C ) :   1.7170
B( 23-C , 24-C ) :   1.1314 B( 23-C , 26-C ) :   1.1420 B( 24-C , 25-N ) :   2.9953
B( 26-C , 27-N ) :   2.9848 B( 28-C , 29-C ) :   1.4031 B( 28-C , 83-H ) :   0.9812
B( 29-C , 30-S ) :   1.0910 B( 29-C , 31-C ) :   1.2132 B( 31-C , 32-C ) :   1.2519
B( 31-C , 42-C ) :   0.1216 B( 31-C , 44-C ) :   1.1969 B( 32-C , 33-C ) :   1.1070
B( 32-C , 37-N ) :   1.4058 B( 33-C , 34-N ) :   1.4059 B( 33-C , 42-C ) :   1.2526
B( 34-N , 35-C ) :   1.6967 B( 35-C , 36-C ) :   1.2186 B( 35-C , 40-C ) :   1.1670
B( 36-C , 37-N ) :   1.6925 B( 36-C , 38-C ) :   1.1692 B( 38-C , 39-N ) :   3.0404
B( 40-C , 41-N ) :   3.0397 B( 42-C , 43-C ) :   1.1976 B( 42-C , 48-C ) :   1.2137
B( 43-C , 44-C ) :   1.0967 B( 43-C , 47-N ) :   1.5175 B( 44-C , 45-N ) :   1.5140
B( 45-N , 46-S ) :   1.2877 B( 45-N , 47-N ) :   0.1462 B( 46-S , 47-N ) :   1.2873
B( 48-C , 49-C ) :   1.4033 B( 48-C , 52-S ) :   1.0915 B( 49-C , 50-C ) :   1.2837
B( 49-C , 84-H ) :   0.9810 B( 50-C , 51-C ) :   1.3921 B( 50-C , 55-C ) :   0.9927
B( 51-C , 52-S ) :   1.0875 B( 51-C , 53-C ) :   1.2127 B( 53-C , 54-C ) :   1.3560
B( 53-C , 63-S ) :   1.1180 B( 54-C , 55-C ) :   0.9849 B( 54-C , 61-C ) :   1.3245
B( 55-C , 56-C ) :   1.7141 B( 56-C , 57-C ) :   1.1393 B( 56-C , 59-C ) :   1.1359
B( 57-C , 58-N ) :   2.9837 B( 59-C , 60-N ) :   2.9962 B( 61-C , 62-C ) :   1.3408
B( 61-C , 85-H ) :   1.0086 B( 62-C , 63-S ) :   1.0824 B( 62-C , 64-C ) :   1.2374
B( 64-C , 65-C ) :   1.5555 B( 64-C , 86-H ) :   0.9425 B( 65-C , 66-C ) :   1.0747
B( 65-C , 77-C ) :   0.9575 B( 66-C , 67-C ) :   1.6383 B( 66-C , 72-C ) :   1.0921
B( 67-C , 68-C ) :   1.1443 B( 67-C , 70-C ) :   1.1445 B( 68-C , 69-N ) :   3.0052
B( 70-C , 71-N ) :   2.9655 B( 72-C , 73-C ) :   1.4389 B( 72-C , 76-S ) :   1.1493
B( 73-C , 74-C ) :   1.2713 B( 73-C , 77-C ) :   0.9844 B( 74-C , 75-C ) :   1.5427
B( 74-C , 87-H ) :   1.0073 B( 75-C , 76-S ) :   1.1690 B( 75-C , 88-H ) :   0.9676
B( 77-C , 78-O ) :   2.1264

-----------------------------------------------------------------------------
         ABSORPTION SPECTRUM VIA TRANSITION ELECTRIC DIPOLE MOMENTS
-----------------------------------------------------------------------------
State   Energy  Wavelength   fosc         T2         TX        TY        TZ
        (cm-1)    (nm)                  (au**2)     (au)      (au)      (au)
-----------------------------------------------------------------------------
   0    7286.5   1372.4   0.663778676  29.99018   4.73965   0.84140  -2.61111
   1   13751.7    727.2   0.013464768   0.32234   0.40610   0.18720   0.34983
   2   14648.2    682.7   0.075495773   1.69674   1.03367   0.04392  -0.79142
   3   16083.1    621.8   0.007758286   0.15881   0.03285   0.12352   0.37745
   4   20316.2    492.2   0.425920932   6.90180   2.60500   0.28986  -0.17814
   5   21332.7    468.8   0.614052748   9.47623   2.25515   0.13260  -2.09116
   6   21907.7    456.5   0.048884746   0.73460   0.77908  -0.02077  -0.35667
   7   22945.7    435.8   0.092626105   1.32895  -0.34854   0.01235   1.09878
   8   23190.9    431.2   0.028227225   0.40071   0.54967   0.30584   0.07094
   9   23380.6    427.7   0.039105710   0.55063   0.07610  -0.11722  -0.72876
  10   23950.5    417.5   0.289829723   3.98385   1.55227   0.35282  -1.20408
  11   24665.7    405.4   0.013868890   0.18511   0.17535   0.38976   0.04947
  12   24885.0    401.8   0.005496293   0.07271   0.06943   0.04382  -0.25685
  13   25071.3    398.9   0.001794559   0.02356   0.03041  -0.14905  -0.02062
  14   25362.1    394.3   0.021480558   0.27883   0.29934   0.18709  -0.39271
  15   25966.0    385.1   0.283929273   3.59982  -1.13215   0.15026   1.51509
  16   26305.4    380.1   0.031462549   0.39375  -0.19029   0.12433   0.58488
  17   27032.1    369.9   0.207087575   2.52202  -1.49579  -0.52421  -0.09923
  18   28875.1    346.3   0.028134919   0.32077   0.01967  -0.24999  -0.50783
  19   29022.1    344.6   0.016029218   0.18183   0.40480   0.05964  -0.12004
  20   29110.1    343.5   0.069822319   0.78964  -0.68054  -0.19589   0.53677
  21   29338.9    340.8   0.059678305   0.66965   0.55419  -0.27144   0.53744
  22   29791.3    335.7   0.177400004   1.96038  -0.30921  -0.43989  -1.29277
  23   30203.3    331.1   0.518008234   5.64622   1.31305   1.28967   1.50296
  24   30372.1    329.2   0.065037992   0.70497  -0.24320   0.24037   0.76684
  25   30533.0    327.5   0.013922361   0.15011   0.00728   0.04063  -0.38524
  26   30545.6    327.4   0.000960821   0.01036  -0.05143  -0.00969   0.08727
  27   30956.4    323.0   0.267160308   2.84117   0.86188   0.57933   1.32767
  28   31107.1    321.5   0.021827455   0.23100   0.31208   0.35994  -0.06369
  29   31249.2    320.0   0.270066454   2.84517  -1.18994  -0.41031   1.12288
  30   31391.0    318.6   0.133584170   1.40096  -0.92559  -0.46323   0.57417
  31   31729.5    315.2   0.002516383   0.02611  -0.02064  -0.01285   0.15974
  32   31824.8    314.2   0.221451613   2.29081   0.57701  -0.30409  -1.36580
  33   31940.0    313.1   0.183842969   1.89491   0.08957   0.16180   1.36408
  34   32143.7    311.1   0.112743140   1.15470  -0.87036  -0.60955  -0.16007
  35   32490.4    307.8   1.026093270  10.39699   1.84628   1.71869   2.00857
  36   32848.1    304.4   0.155330484   1.55676  -0.32747  -0.93893   0.75361
  37   33108.9    302.0   0.235903559   2.34566   1.09815   0.62579   0.86493
  38   33467.8    298.8   0.006995957   0.06882   0.20940  -0.08331  -0.13426
  39   33545.2    298.1   0.000225836   0.00222  -0.02960  -0.00871  -0.03555
  40   33770.1    296.1   0.261850256   2.55268  -1.12863  -0.67616  -0.90646
  41   34042.0    293.8   0.042616313   0.41213   0.34216  -0.40529  -0.36165
  42   34073.0    293.5   0.019395366   0.18740   0.04323   0.24994   0.35080
  43   34203.8    292.4   0.153943501   1.48171  -0.87695  -0.63874  -0.55197
  44   34497.5    289.9   0.132294520   1.26250   0.49827   0.53495   0.85326
  45   34854.9    286.9   0.442235315   4.17700  -0.94644   0.24815   1.79434
  46   34915.8    286.4   0.496557949   4.68192   1.53359   1.20876   0.93216
  47   35191.5    284.2   0.059635856   0.55789   0.41437   0.53549  -0.31534
  48   35410.5    282.4   0.028297369   0.26308   0.10177  -0.39532   0.31056
  49   35492.0    281.8   0.050183037   0.46548   0.15368   0.29971   0.59333
  50   36015.7    277.7   0.001473981   0.01347   0.04372   0.09922  -0.04143
  51   36181.0    276.4   0.102759718   0.93501  -0.73700  -0.42059   0.46363
  52   36344.9    275.1   0.052740416   0.47772  -0.58508  -0.30184  -0.21046
  53   36739.2    272.2   0.029529193   0.26460  -0.28937  -0.24974  -0.34424
  54   36881.1    271.1   0.009365143   0.08360  -0.07878   0.10731  -0.25666
  55   37370.4    267.6   0.069467760   0.61197   0.04044   0.21427   0.75128
  56   37482.7    266.8   0.021789712   0.19138   0.42651   0.08334  -0.05023
  57   37735.5    265.0   0.000343510   0.00300   0.01668  -0.04850  -0.01914
  58   37761.8    264.8   0.026380052   0.22998   0.25708  -0.15205   0.37520
  59   38271.6    261.3   0.003330632   0.02865  -0.07494   0.03548   0.14756
  60   38421.4    260.3   0.006528570   0.05594   0.10790   0.11716   0.17485
  61   38534.9    259.5   0.000744550   0.00636  -0.04285   0.04017   0.05395
  62   38624.9    258.9   0.073869539   0.62961   0.04316  -0.16875  -0.77413
  63   38691.4    258.5   0.029476339   0.25080   0.05838  -0.06433  -0.49321
  64   38874.7    257.2   0.058549692   0.49583  -0.11696  -0.55962   0.41106
  65   39028.9    256.2   0.076843090   0.64818   0.44658   0.14951  -0.65299
  66   39196.7    255.1   0.008074984   0.06782  -0.08947  -0.06700  -0.23522
  67   39568.1    252.7   0.085231557   0.70914   0.33662   0.35834   0.68368
  68   39601.4    252.5   0.097260626   0.80854  -0.77890  -0.42642  -0.14153
  69   39618.3    252.4   0.022474044   0.18675   0.41491  -0.07739   0.09278
  70   39781.4    251.4   0.142170500   1.17653   0.16834   0.21289   1.05018
  71   39940.2    250.4   0.003247401   0.02677  -0.02363  -0.16189   0.00009
  72   40088.7    249.4   0.065056608   0.53425   0.51657   0.39543   0.33323

FINAL SINGLE POINT ENERGY     -5839.287633672767

DIPOLE MOMENT
-------------
                                X             Y             Z
Electronic contribution:     -5.15728      -5.96689      -2.53908
Nuclear contribution   :      7.21601       8.59942       3.83471
                        -----------------------------------------
Total Dipole Moment    :      2.05874       2.63253       1.29563
                        -----------------------------------------
Magnitude (a.u.)       :      3.58431
Magnitude (Debye)      :      9.11059

Rotational constants in cm-1:     0.001440     0.000213     0.000188
Rotational constants in MHz :    43.166987     6.376883     5.622647

                             ****ORCA TERMINATED NORMALLY****
TOTAL RUN TIME: 0 days 0 hours 10 minutes 41 seconds 526 msec
