                         Program Version 4.2.0 -  RELEASE  -
|  1> # ORCA input file
|  2> # SCF done       -167.990263912965          0.000622720382
|  3> ! CAM-B3LYP def2-SVP def2/J RIJCOSX Grid4 TightSCF
|  4> %maxcore 5000
|  5> %tddft
|  6>     Mode sTDDFT
|  7>     Ethresh 5.0
|  8>     maxcore 5000
|  9> end
| 10>
| 11> %pal
| 12>   nprocs 6
| 13>   end
| 14> * xyz 0 1
| 15>    C       -1.96289         0.44720         3.92815
| 16>    C       -1.81100         0.63725         5.24702
| 17>    C       -2.17511         1.90396         5.83117
| 18>    C       -2.05204         2.16167         7.18198
| 19>    C       -2.41350         3.40366         7.73034
| 20>    N       -2.71289         4.42320         8.16671
| 21>    C       -1.56420         1.19758         8.07964
| 22>    N       -1.16693         0.40439         8.80921
| 23>    C       -2.67778         2.87205         4.91215
| 24>    C       -2.79960         2.58261         3.58578
| 25>    O       -2.44453         1.37148         3.07749
| 26>    C       -3.31326         3.49310         2.60567
| 27>    C       -3.50033         3.23606         1.26015
| 28>    C       -4.04089         4.33443         0.59485
| 29>    C       -4.26074         5.43614         1.44569
| 30>    S       -3.80369         5.11582         3.05744
| 31>    C       -4.82246         6.49592         0.69391
| 32>    C       -4.96213         6.05776        -0.63909
| 33>    C       -4.47170         4.69234        -0.74614
| 34>    C       -4.42691         3.91452        -1.86565
| 35>    C       -4.87965         4.37345        -3.12103
| 36>    N       -5.24378         4.73550        -4.14622
| 37>    C       -3.92315         2.59681        -1.84036
| 38>    N       -3.51265         1.52625        -1.81998
| 39>    C       -5.52483         7.02116        -1.46439
| 40>    C       -5.81137         8.19200        -0.77205
| 41>    S       -5.37302         8.10339         0.92286
| 42>    C       -6.40185         9.36771        -1.29983
| 43>    C       -6.61415        10.50130        -0.47795
| 44>    C       -7.21296        11.71578        -0.94748
| 45>    N       -7.36859        12.74092        -0.08721
| 46>    C       -6.97372        12.60516         1.14763
| 47>    C       -6.38754        11.40966         1.61004
| 48>    N       -6.22144        10.39886         0.80462
| 49>    C       -7.64280        11.84644        -2.29524
| 50>    C       -7.43065        10.71641        -3.11281
| 51>    C       -6.82133         9.49847        -2.63968
| 52>    N       -6.73718         8.58636        -3.61115
| 53>    S       -7.34993         9.18392        -4.96303
| 54>    N       -7.76020        10.63196        -4.40389
| 55>    C       -8.25316        13.01266        -2.83108
| 56>    C       -8.52353        14.21372        -2.18561
| 57>    C       -9.13237        15.13250        -3.02843
| 58>    C       -9.33339        14.63316        -4.33162
| 59>    S       -8.76545        13.03189        -4.51311
| 60>    C       -9.95720        15.64488        -5.10027
| 61>    C      -10.15010        16.78120        -4.28927
| 62>    C       -9.63614        16.49575        -2.96056
| 63>    C       -9.62379        17.32748        -1.87951
| 64>    C      -10.14155        18.63869        -1.93908
| 65>    N      -10.56237        19.70415        -1.98858
| 66>    C       -9.09182        16.93530        -0.63260
| 67>    N       -8.66251        16.62784         0.38514
| 68>    C      -10.76249        17.83263        -4.96875
| 69>    C      -11.03478        17.50404        -6.28346
| 70>    S      -10.52894        15.87410        -6.69084
| 71>    C      -11.65549        18.34546        -7.26361
| 72>    C      -11.89929        17.97195        -8.55146
| 73>    C      -12.52025        18.86894        -9.47051
| 74>    C      -12.77922        18.52156       -10.78132
| 75>    C      -13.39007        19.41356       -11.67827
| 76>    N      -13.88936        20.14759       -12.40707
| 77>    C      -12.44340        17.25453       -11.28715
| 78>    N      -12.16368        16.21499       -11.68788
| 79>    C      -12.85587        20.16273        -8.93025
| 80>    C      -12.57688        20.43846        -7.64780
| 81>    O      -11.98982        19.57859        -6.79573
| 82>    H       -1.71379        -0.47035         3.41680
| 83>    H       -1.42080        -0.14594         5.87545
| 84>    H       -2.97093         3.84471         5.27635
| 85>    H       -3.25415         2.29167         0.81008
| 86>    H       -5.73282         6.91433        -2.51315
| 87>    H       -7.11972        13.45743         1.79616
| 88>    H       -6.05750        11.28494         2.63119
| 89>    H       -8.27297        14.36863        -1.15288
| 90>    H      -11.00485        18.79140        -4.54799
| 91>    H      -11.61916        16.98426        -8.88411
| 92>    H      -13.32785        20.89685        -9.56179
| 93>    H      -12.79643        21.38152        -7.17046
| 94> *
| 95>
| 96>                          ****END OF INPUT****

CARTESIAN COORDINATES (ANGSTROEM)
---------------------------------
  C     -1.962890    0.447200    3.928150
  C     -1.811000    0.637250    5.247020
  C     -2.175110    1.903960    5.831170
  C     -2.052040    2.161670    7.181980
  C     -2.413500    3.403660    7.730340
  N     -2.712890    4.423200    8.166710
  C     -1.564200    1.197580    8.079640
  N     -1.166930    0.404390    8.809210
  C     -2.677780    2.872050    4.912150
  C     -2.799600    2.582610    3.585780
  O     -2.444530    1.371480    3.077490
  C     -3.313260    3.493100    2.605670
  C     -3.500330    3.236060    1.260150
  C     -4.040890    4.334430    0.594850
  C     -4.260740    5.436140    1.445690
  S     -3.803690    5.115820    3.057440
  C     -4.822460    6.495920    0.693910
  C     -4.962130    6.057760   -0.639090
  C     -4.471700    4.692340   -0.746140
  C     -4.426910    3.914520   -1.865650
  C     -4.879650    4.373450   -3.121030
  N     -5.243780    4.735500   -4.146220
  C     -3.923150    2.596810   -1.840360
  N     -3.512650    1.526250   -1.819980
  C     -5.524830    7.021160   -1.464390
  C     -5.811370    8.192000   -0.772050
  S     -5.373020    8.103390    0.922860
  C     -6.401850    9.367710   -1.299830
  C     -6.614150   10.501300   -0.477950
  C     -7.212960   11.715780   -0.947480
  N     -7.368590   12.740920   -0.087210
  C     -6.973720   12.605160    1.147630
  C     -6.387540   11.409660    1.610040
  N     -6.221440   10.398860    0.804620
  C     -7.642800   11.846440   -2.295240
  C     -7.430650   10.716410   -3.112810
  C     -6.821330    9.498470   -2.639680
  N     -6.737180    8.586360   -3.611150
  S     -7.349930    9.183920   -4.963030
  N     -7.760200   10.631960   -4.403890
  C     -8.253160   13.012660   -2.831080
  C     -8.523530   14.213720   -2.185610
  C     -9.132370   15.132500   -3.028430
  C     -9.333390   14.633160   -4.331620
  S     -8.765450   13.031890   -4.513110
  C     -9.957200   15.644880   -5.100270
  C    -10.150100   16.781200   -4.289270
  C     -9.636140   16.495750   -2.960560
  C     -9.623790   17.327480   -1.879510
  C    -10.141550   18.638690   -1.939080
  N    -10.562370   19.704150   -1.988580
  C     -9.091820   16.935300   -0.632600
  N     -8.662510   16.627840    0.385140
  C    -10.762490   17.832630   -4.968750
  C    -11.034780   17.504040   -6.283460
  S    -10.528940   15.874100   -6.690840
  C    -11.655490   18.345460   -7.263610
  C    -11.899290   17.971950   -8.551460
  C    -12.520250   18.868940   -9.470510
  C    -12.779220   18.521560  -10.781320
  C    -13.390070   19.413560  -11.678270
  N    -13.889360   20.147590  -12.407070
  C    -12.443400   17.254530  -11.287150
  N    -12.163680   16.214990  -11.687880
  C    -12.855870   20.162730   -8.930250
  C    -12.576880   20.438460   -7.647800
  O    -11.989820   19.578590   -6.795730
  H     -1.713790   -0.470350    3.416800
  H     -1.420800   -0.145940    5.875450
  H     -2.970930    3.844710    5.276350
  H     -3.254150    2.291670    0.810080
  H     -5.732820    6.914330   -2.513150
  H     -7.119720   13.457430    1.796160
  H     -6.057500   11.284940    2.631190
  H     -8.272970   14.368630   -1.152880
  H    -11.004850   18.791400   -4.547990
  H    -11.619160   16.984260   -8.884110
  H    -13.327850   20.896850   -9.561790
  H    -12.796430   21.381520   -7.170460

 Total Charge           Charge          ....    0
 Multiplicity           Mult            ....    1
 Number of Electrons    NEL             ....  480
 Basis Dimension        Dim             .... 1018

ORBITAL ENERGIES
----------------

  NO   OCC          E(Eh)            E(eV)
   0   2.0000     -89.061801     -2423.4948
   1   2.0000     -89.008630     -2422.0480
   2   2.0000     -89.007864     -2422.0271
   3   2.0000     -88.995121     -2421.6804
   4   2.0000     -88.993765     -2421.6435
   5   2.0000     -19.331782      -526.0445
   6   2.0000     -19.331497      -526.0368
   7   2.0000     -14.469381      -393.7319
   8   2.0000     -14.469182      -393.7265
   9   2.0000     -14.463097      -393.5609
  10   2.0000     -14.456383      -393.3782
  11   2.0000     -14.440242      -392.9390
  12   2.0000     -14.440086      -392.9347
  13   2.0000     -14.439194      -392.9104
  14   2.0000     -14.437889      -392.8749
  15   2.0000     -14.401172      -391.8758
  16   2.0000     -14.401122      -391.8744
  17   2.0000     -14.399502      -391.8304
  18   2.0000     -14.399459      -391.8292
  19   2.0000     -10.397762      -282.9375
  20   2.0000     -10.397537      -282.9314
  21   2.0000     -10.381515      -282.4954
  22   2.0000     -10.381395      -282.4921
  23   2.0000     -10.374695      -282.3098
  24   2.0000     -10.373520      -282.2778
  25   2.0000     -10.362197      -281.9697
  26   2.0000     -10.360813      -281.9321
  27   2.0000     -10.357069      -281.8302
  28   2.0000     -10.356244      -281.8077
  29   2.0000     -10.355779      -281.7951
  30   2.0000     -10.355053      -281.7753
  31   2.0000     -10.352812      -281.7143
  32   2.0000     -10.351970      -281.6914
  33   2.0000     -10.351590      -281.6811
  34   2.0000     -10.350408      -281.6489
  35   2.0000     -10.342651      -281.4378
  36   2.0000     -10.342599      -281.4364
  37   2.0000     -10.341054      -281.3944
  38   2.0000     -10.340554      -281.3808
  39   2.0000     -10.340447      -281.3779
  40   2.0000     -10.340391      -281.3763
  41   2.0000     -10.339400      -281.3494
  42   2.0000     -10.337991      -281.3110
  43   2.0000     -10.335824      -281.2521
  44   2.0000     -10.335665      -281.2478
  45   2.0000     -10.333670      -281.1935
  46   2.0000     -10.331700      -281.1399
  47   2.0000     -10.331553      -281.1358
  48   2.0000     -10.330694      -281.1125
  49   2.0000     -10.322095      -280.8785
  50   2.0000     -10.322018      -280.8764
  51   2.0000     -10.321869      -280.8723
  52   2.0000     -10.321187      -280.8538
  53   2.0000     -10.317666      -280.7580
  54   2.0000     -10.316799      -280.7344
  55   2.0000     -10.312410      -280.6149
  56   2.0000     -10.312211      -280.6095
  57   2.0000     -10.311124      -280.5799
  58   2.0000     -10.311117      -280.5798
  59   2.0000     -10.310950      -280.5752
  60   2.0000     -10.310079      -280.5515
  61   2.0000     -10.305615      -280.4300
  62   2.0000     -10.304832      -280.4087
  63   2.0000     -10.304730      -280.4060
  64   2.0000     -10.303335      -280.3680
  65   2.0000     -10.303256      -280.3658
  66   2.0000     -10.303250      -280.3657
  67   2.0000      -8.152524      -221.8414
  68   2.0000      -8.102906      -220.4913
  69   2.0000      -8.102101      -220.4694
  70   2.0000      -8.088209      -220.0914
  71   2.0000      -8.085685      -220.0227
  72   2.0000      -6.123574      -166.6309
  73   2.0000      -6.115791      -166.4191
  74   2.0000      -6.115452      -166.4099
  75   2.0000      -6.072190      -165.2327
  76   2.0000      -6.071375      -165.2105
  77   2.0000      -6.067978      -165.1181
  78   2.0000      -6.067162      -165.0959
  79   2.0000      -6.065262      -165.0442
  80   2.0000      -6.064504      -165.0235
  81   2.0000      -6.057619      -164.8362
  82   2.0000      -6.055332      -164.7740
  83   2.0000      -6.053020      -164.7111
  84   2.0000      -6.050674      -164.6472
  85   2.0000      -6.050382      -164.6393
  86   2.0000      -6.048209      -164.5801
  87   2.0000      -1.241594       -33.7855
  88   2.0000      -1.241348       -33.7788
  89   2.0000      -1.158046       -31.5120
  90   2.0000      -1.117738       -30.4152
  91   2.0000      -1.056634       -28.7525
  92   2.0000      -1.055140       -28.7118
  93   2.0000      -1.043195       -28.3868
  94   2.0000      -1.032181       -28.0871
  95   2.0000      -1.030555       -28.0428
  96   2.0000      -1.018493       -27.7146
  97   2.0000      -1.017082       -27.6762
  98   2.0000      -1.016031       -27.6476
  99   2.0000      -1.011910       -27.5355
 100   2.0000      -1.004303       -27.3285
 101   2.0000      -1.001379       -27.2489
 102   2.0000      -1.001181       -27.2435
 103   2.0000      -0.988307       -26.8932
 104   2.0000      -0.979567       -26.6554
 105   2.0000      -0.979559       -26.6552
 106   2.0000      -0.970895       -26.4194
 107   2.0000      -0.965268       -26.2663
 108   2.0000      -0.962762       -26.1981
 109   2.0000      -0.962076       -26.1794
 110   2.0000      -0.940186       -25.5838
 111   2.0000      -0.938721       -25.5439
 112   2.0000      -0.917946       -24.9786
 113   2.0000      -0.907938       -24.7062
 114   2.0000      -0.900999       -24.5174
 115   2.0000      -0.892342       -24.2818
 116   2.0000      -0.882769       -24.0214
 117   2.0000      -0.880062       -23.9477
 118   2.0000      -0.878647       -23.9092
 119   2.0000      -0.874556       -23.7979
 120   2.0000      -0.863414       -23.4947
 121   2.0000      -0.862039       -23.4573
 122   2.0000      -0.835611       -22.7381
 123   2.0000      -0.815481       -22.1904
 124   2.0000      -0.813860       -22.1463
 125   2.0000      -0.796386       -21.6708
 126   2.0000      -0.794359       -21.6156
 127   2.0000      -0.793694       -21.5975
 128   2.0000      -0.782786       -21.3007
 129   2.0000      -0.775550       -21.1038
 130   2.0000      -0.771195       -20.9853
 131   2.0000      -0.759717       -20.6729
 132   2.0000      -0.744128       -20.2488
 133   2.0000      -0.729530       -19.8515
 134   2.0000      -0.718962       -19.5640
 135   2.0000      -0.713728       -19.4215
 136   2.0000      -0.713274       -19.4092
 137   2.0000      -0.696273       -18.9466
 138   2.0000      -0.694350       -18.8942
 139   2.0000      -0.687533       -18.7087
 140   2.0000      -0.684351       -18.6221
 141   2.0000      -0.681487       -18.5442
 142   2.0000      -0.679067       -18.4783
 143   2.0000      -0.664654       -18.0862
 144   2.0000      -0.658615       -17.9218
 145   2.0000      -0.657266       -17.8851
 146   2.0000      -0.648541       -17.6477
 147   2.0000      -0.647027       -17.6065
 148   2.0000      -0.634771       -17.2730
 149   2.0000      -0.629069       -17.1179
 150   2.0000      -0.624247       -16.9866
 151   2.0000      -0.623856       -16.9760
 152   2.0000      -0.620983       -16.8978
 153   2.0000      -0.603182       -16.4134
 154   2.0000      -0.601773       -16.3751
 155   2.0000      -0.600231       -16.3331
 156   2.0000      -0.597159       -16.2495
 157   2.0000      -0.592210       -16.1148
 158   2.0000      -0.591933       -16.1073
 159   2.0000      -0.588249       -16.0071
 160   2.0000      -0.587501       -15.9867
 161   2.0000      -0.587045       -15.9743
 162   2.0000      -0.582306       -15.8453
 163   2.0000      -0.577408       -15.7121
 164   2.0000      -0.569074       -15.4853
 165   2.0000      -0.567165       -15.4334
 166   2.0000      -0.557223       -15.1628
 167   2.0000      -0.557032       -15.1576
 168   2.0000      -0.556997       -15.1567
 169   2.0000      -0.553697       -15.0669
 170   2.0000      -0.550151       -14.9704
 171   2.0000      -0.538293       -14.6477
 172   2.0000      -0.533398       -14.5145
 173   2.0000      -0.518208       -14.1012
 174   2.0000      -0.515632       -14.0311
 175   2.0000      -0.513674       -13.9778
 176   2.0000      -0.511496       -13.9185
 177   2.0000      -0.509643       -13.8681
 178   2.0000      -0.507191       -13.8014
 179   2.0000      -0.505544       -13.7566
 180   2.0000      -0.504462       -13.7271
 181   2.0000      -0.498355       -13.5609
 182   2.0000      -0.498297       -13.5594
 183   2.0000      -0.497992       -13.5510
 184   2.0000      -0.494952       -13.4683
 185   2.0000      -0.490577       -13.3493
 186   2.0000      -0.488710       -13.2985
 187   2.0000      -0.486599       -13.2410
 188   2.0000      -0.486034       -13.2256
 189   2.0000      -0.477457       -12.9923
 190   2.0000      -0.477047       -12.9811
 191   2.0000      -0.473497       -12.8845
 192   2.0000      -0.471414       -12.8278
 193   2.0000      -0.469556       -12.7773
 194   2.0000      -0.468429       -12.7466
 195   2.0000      -0.467842       -12.7306
 196   2.0000      -0.466060       -12.6821
 197   2.0000      -0.462766       -12.5925
 198   2.0000      -0.458537       -12.4774
 199   2.0000      -0.458318       -12.4715
 200   2.0000      -0.457391       -12.4463
 201   2.0000      -0.450233       -12.2515
 202   2.0000      -0.448658       -12.2086
 203   2.0000      -0.448577       -12.2064
 204   2.0000      -0.447163       -12.1679
 205   2.0000      -0.439748       -11.9661
 206   2.0000      -0.437336       -11.9005
 207   2.0000      -0.435682       -11.8555
 208   2.0000      -0.435411       -11.8481
 209   2.0000      -0.435359       -11.8467
 210   2.0000      -0.431044       -11.7293
 211   2.0000      -0.431024       -11.7287
 212   2.0000      -0.426224       -11.5981
 213   2.0000      -0.424708       -11.5569
 214   2.0000      -0.420682       -11.4473
 215   2.0000      -0.419042       -11.4027
 216   2.0000      -0.418965       -11.4006
 217   2.0000      -0.417897       -11.3716
 218   2.0000      -0.417893       -11.3715
 219   2.0000      -0.414795       -11.2871
 220   2.0000      -0.414743       -11.2857
 221   2.0000      -0.408062       -11.1039
 222   2.0000      -0.406773       -11.0689
 223   2.0000      -0.402119       -10.9422
 224   2.0000      -0.402111       -10.9420
 225   2.0000      -0.397678       -10.8214
 226   2.0000      -0.387104       -10.5336
 227   2.0000      -0.379467       -10.3258
 228   2.0000      -0.366921        -9.9844
 229   2.0000      -0.365354        -9.9418
 230   2.0000      -0.359725        -9.7886
 231   2.0000      -0.358171        -9.7463
 232   2.0000      -0.348241        -9.4761
 233   2.0000      -0.332975        -9.0607
 234   2.0000      -0.331166        -9.0115
 235   2.0000      -0.328934        -8.9507
 236   2.0000      -0.304449        -8.2845
 237   2.0000      -0.288318        -7.8455
 238   2.0000      -0.278745        -7.5850
 239   2.0000      -0.250677        -6.8213
 240   0.0000      -0.138215        -3.7610
 241   0.0000      -0.113798        -3.0966
 242   0.0000      -0.106766        -2.9053
 243   0.0000      -0.070466        -1.9175
 244   0.0000      -0.069874        -1.9014

MULLIKEN ATOMIC CHARGES
-----------------------
   0 C :    0.193309
   1 C :   -0.069512
   2 C :    0.243847
   3 C :   -0.335385
   4 C :   -0.172361
   5 N :    0.125159
   6 C :   -0.182553
   7 N :    0.130392
   8 C :   -0.165849
   9 C :    0.240149
  10 O :   -0.209238
  11 C :   -0.092443
  12 C :   -0.033127
  13 C :    0.016403
  14 C :   -0.091580
  15 S :    0.207158
  16 C :   -0.066521
  17 C :    0.040095
  18 C :    0.304545
  19 C :   -0.301663
  20 C :   -0.183948
  21 N :    0.177649
  22 C :   -0.193864
  23 N :    0.176406
  24 C :   -0.067504
  25 C :   -0.165544
  26 S :    0.209874
  27 C :    0.168985
  28 C :   -0.044912
  29 C :   -0.071055
  30 N :   -0.018026
  31 C :    0.037245
  32 C :    0.056582
  33 N :   -0.094061
  34 C :    0.199284
  35 C :   -0.022461
  36 C :   -0.004635
  37 N :   -0.277964
  38 S :    0.579351
  39 N :   -0.343859
  40 C :   -0.180962
  41 C :   -0.066638
  42 C :    0.049585
  43 C :   -0.072827
  44 S :    0.216093
  45 C :   -0.087835
  46 C :    0.015094
  47 C :    0.308093
  48 C :   -0.304477
  49 C :   -0.194310
  50 N :    0.176997
  51 C :   -0.180958
  52 N :    0.173755
  53 C :   -0.033297
  54 C :   -0.092564
  55 S :    0.209377
  56 C :    0.241530
  57 C :   -0.166897
  58 C :    0.245352
  59 C :   -0.335825
  60 C :   -0.183015
  61 N :    0.131502
  62 C :   -0.172695
  63 N :    0.126578
  64 C :   -0.071200
  65 C :    0.192588
  66 O :   -0.208504
  67 H :    0.042919
  68 H :    0.039504
  69 H :    0.030117
  70 H :    0.018179
  71 H :    0.020619
  72 H :    0.037449
  73 H :    0.026186
  74 H :    0.021122
  75 H :    0.018286
  76 H :    0.030350
  77 H :    0.039611
  78 H :    0.042750
Sum of atomic charges:   -0.0000000

LOEWDIN ATOMIC CHARGES
----------------------
   0 C :    0.104004
   1 C :   -0.051589
   2 C :    0.056527
   3 C :   -0.177774
   4 C :   -0.028727
   5 N :   -0.071313
   6 C :   -0.031101
   7 N :   -0.067481
   8 C :   -0.064179
   9 C :    0.076464
  10 O :    0.004257
  11 C :   -0.194870
  12 C :   -0.002520
  13 C :   -0.071571
  14 C :   -0.159770
  15 S :    0.499542
  16 C :   -0.192819
  17 C :   -0.067748
  18 C :    0.079981
  19 C :   -0.100472
  20 C :   -0.016576
  21 N :   -0.029841
  22 C :   -0.017397
  23 N :   -0.031624
  24 C :   -0.012544
  25 C :   -0.159691
  26 S :    0.514784
  27 C :   -0.039897
  28 C :   -0.014845
  29 C :   -0.005416
  30 N :   -0.017356
  31 C :    0.024574
  32 C :    0.027764
  33 N :   -0.050549
  34 C :   -0.044458
  35 C :   -0.047293
  36 C :   -0.039680
  37 N :   -0.270755
  38 S :    0.697450
  39 N :   -0.307901
  40 C :   -0.156569
  41 C :   -0.013012
  42 C :   -0.067335
  43 C :   -0.191969
  44 S :    0.517829
  45 C :   -0.158915
  46 C :   -0.072430
  47 C :    0.080942
  48 C :   -0.101071
  49 C :   -0.017594
  50 N :   -0.031215
  51 C :   -0.013893
  52 N :   -0.033928
  53 C :   -0.002349
  54 C :   -0.194841
  55 S :    0.500845
  56 C :    0.076288
  57 C :   -0.064009
  58 C :    0.056469
  59 C :   -0.177415
  60 C :   -0.031089
  61 N :   -0.067278
  62 C :   -0.028871
  63 N :   -0.070527
  64 C :   -0.051522
  65 C :    0.103786
  66 O :    0.004327
  67 H :    0.042207
  68 H :    0.053750
  69 H :    0.039775
  70 H :    0.045283
  71 H :    0.038339
  72 H :    0.037039
  73 H :    0.033504
  74 H :    0.036677
  75 H :    0.045362
  76 H :    0.039928
  77 H :    0.053739
  78 H :    0.042152

  Mayer bond orders larger than 0.100000
B(  0-C ,  1-C ) :   1.6863 B(  0-C , 10-O ) :   1.1054 B(  0-C , 67-H ) :   0.9752
B(  1-C ,  2-C ) :   1.1250 B(  1-C , 68-H ) :   0.9608 B(  2-C ,  3-C ) :   1.5716
B(  2-C ,  8-C ) :   1.1530 B(  3-C ,  4-C ) :   1.1319 B(  3-C ,  6-C ) :   1.1291
B(  4-C ,  5-N ) :   3.0059 B(  6-C ,  7-N ) :   3.0149 B(  8-C ,  9-C ) :   1.5386
B(  8-C , 69-H ) :   0.9581 B(  9-C , 10-O ) :   1.1555 B(  9-C , 11-C ) :   1.1111
B( 11-C , 12-C ) :   1.4331 B( 11-C , 15-S ) :   1.1023 B( 12-C , 13-C ) :   1.2764
B( 12-C , 70-H ) :   1.0064 B( 13-C , 14-C ) :   1.4184 B( 13-C , 18-C ) :   0.9905
B( 14-C , 15-S ) :   1.1416 B( 14-C , 16-C ) :   1.2044 B( 16-C , 17-C ) :   1.4083
B( 16-C , 26-S ) :   1.0673 B( 17-C , 18-C ) :   0.9909 B( 17-C , 24-C ) :   1.2775
B( 18-C , 19-C ) :   1.7151 B( 19-C , 20-C ) :   1.1393 B( 19-C , 22-C ) :   1.1322
B( 20-C , 21-N ) :   2.9875 B( 22-C , 23-N ) :   2.9952 B( 24-C , 25-C ) :   1.4162
B( 24-C , 71-H ) :   0.9836 B( 25-C , 26-S ) :   1.0972 B( 25-C , 27-C ) :   1.1980
B( 27-C , 28-C ) :   1.2706 B( 27-C , 34-C ) :   0.1344 B( 27-C , 36-C ) :   1.2130
B( 28-C , 29-C ) :   1.1275 B( 28-C , 33-N ) :   1.3875 B( 29-C , 30-N ) :   1.4694
B( 29-C , 34-C ) :   1.2737 B( 30-N , 31-C ) :   1.6702 B( 31-C , 32-C ) :   1.1913
B( 31-C , 72-H ) :   0.9753 B( 32-C , 33-N ) :   1.6527 B( 32-C , 73-H ) :   0.9733
B( 34-C , 35-C ) :   1.2004 B( 34-C , 40-C ) :   1.1871 B( 35-C , 36-C ) :   1.1091
B( 35-C , 39-N ) :   1.4568 B( 36-C , 37-N ) :   1.5045 B( 37-N , 38-S ) :   1.2951
B( 37-N , 39-N ) :   0.1539 B( 38-S , 39-N ) :   1.2751 B( 40-C , 41-C ) :   1.4113
B( 40-C , 44-S ) :   1.1074 B( 41-C , 42-C ) :   1.2608 B( 41-C , 74-H ) :   0.9806
B( 42-C , 43-C ) :   1.4016 B( 42-C , 47-C ) :   0.9954 B( 43-C , 44-S ) :   1.0949
B( 43-C , 45-C ) :   1.2001 B( 45-C , 46-C ) :   1.4181 B( 45-C , 55-S ) :   1.1431
B( 46-C , 47-C ) :   0.9920 B( 46-C , 53-C ) :   1.2740 B( 47-C , 48-C ) :   1.7131
B( 48-C , 49-C ) :   1.1326 B( 48-C , 51-C ) :   1.1402 B( 49-C , 50-N ) :   2.9956
B( 51-C , 52-N ) :   2.9884 B( 53-C , 54-C ) :   1.4361 B( 53-C , 75-H ) :   1.0067
B( 54-C , 55-S ) :   1.1019 B( 54-C , 56-C ) :   1.1105 B( 56-C , 57-C ) :   1.5393
B( 56-C , 66-O ) :   1.1551 B( 57-C , 58-C ) :   1.1510 B( 57-C , 76-H ) :   0.9587
B( 58-C , 59-C ) :   1.5730 B( 58-C , 64-C ) :   1.1252 B( 59-C , 60-C ) :   1.1282
B( 59-C , 62-C ) :   1.1327 B( 60-C , 61-N ) :   3.0158 B( 62-C , 63-N ) :   3.0063
B( 64-C , 65-C ) :   1.6860 B( 64-C , 77-H ) :   0.9610 B( 65-C , 66-O ) :   1.1069
B( 65-C , 78-H ) :   0.9755

-----------------------------------------------------------------------------
         ABSORPTION SPECTRUM VIA TRANSITION ELECTRIC DIPOLE MOMENTS
-----------------------------------------------------------------------------
State   Energy  Wavelength   fosc         T2         TX        TY        TZ
        (cm-1)    (nm)                  (au**2)     (au)      (au)      (au)
-----------------------------------------------------------------------------
   0    9629.3   1038.5   0.906181030  30.98093  -2.34113   4.31332  -2.62589
   1   13144.6    760.8   0.000354934   0.00889   0.06100   0.03674   0.06180
   2   14234.9    702.5   0.015265635   0.35305   0.23587  -0.54401   0.03831
   3   18108.8    552.2   0.000667199   0.01213  -0.04620  -0.09992   0.00335
   4   21131.7    473.2   0.027631256   0.43047   0.00524  -0.32403  -0.57048
   5   22947.3    435.8   0.004131114   0.05927   0.08929  -0.10523   0.20055
   6   23392.8    427.5   0.004175118   0.05876   0.20860  -0.09935   0.07328
   7   23624.5    423.3   0.586681283   8.17551  -1.14855   1.73019  -1.96540
   8   24371.1    410.3   0.008194572   0.11069  -0.04018   0.26558  -0.19633
   9   25395.4    393.8   1.323337616  17.15505   1.58654  -2.07203   3.21631
  10   25931.5    385.6   0.010675795   0.13553  -0.28484   0.19148  -0.13317
  11   26307.3    380.1   0.094680304   1.18484  -0.36100   0.49782  -0.89816
  12   26459.2    377.9   0.077931658   0.96964  -0.27050   0.94681   0.00599
  13   26785.0    373.3   0.069628786   0.85580  -0.40961   0.77545  -0.29444
  14   27683.4    361.2   0.000948636   0.01128   0.00082  -0.09484  -0.04781
  15   27820.7    359.4   0.003086180   0.03652  -0.00818   0.00289  -0.19090
  16   29123.3    343.4   0.045280335   0.51185   0.13496  -0.58399  -0.39063
  17   30410.5    328.8   0.184185832   1.99393   0.16895   0.57572   1.27825
  18   31014.4    322.4   0.056735069   0.60223  -0.10396   0.62008   0.45488
  19   31338.8    319.1   0.012361939   0.12986  -0.01924  -0.24431  -0.26420
  20   31473.9    317.7   0.272422564   2.84950  -0.35632   1.42272   0.83570
  21   31602.2    316.4   1.124801871  11.71749  -0.08520   1.98573   2.78695
  22   31966.0    312.8   0.039851568   0.41042   0.02755  -0.12658   0.62741
  23   32311.2    309.5   0.010754693   0.10958   0.13781  -0.30091  -0.00599
  24   32410.8    308.5   0.149641350   1.51998   0.47336  -0.94394   0.63630
  25   32622.6    306.5   0.103163020   1.04107   0.47358  -0.78529   0.44734
  26   32766.5    305.2   0.309572306   3.11034   0.68454  -0.88769   1.36152
  27   33632.4    297.3   0.124350944   1.21721   0.39049  -0.19817   1.01265
  28   33745.1    296.3   0.006274158   0.06121  -0.14411   0.00279   0.20109
  29   34137.0    292.9   0.001354365   0.01306  -0.03356  -0.10294   0.03659
  30   34836.4    287.1   0.090727611   0.85740  -0.11904   0.69862   0.59594
  31   34932.5    286.3   0.118975483   1.12125  -0.30550   0.24950  -0.98269
  32   35111.4    284.8   0.002657652   0.02492  -0.09150  -0.05983  -0.11387
  33   35514.4    281.6   0.189095817   1.75288   0.21100   0.37866   1.25099
  34   35576.2    281.1   0.000632695   0.00585  -0.01454  -0.07339  -0.01602
  35   35708.8    280.0   0.223759248   2.06291   0.53974  -0.66543   1.15273
  36   36352.8    275.1   0.276055460   2.49997  -0.22334  -0.48712  -1.48755
  37   36770.9    272.0   0.121947497   1.09180  -0.05920   0.72483   0.75028
  38   36924.1    270.8   0.153797866   1.37125   0.01694   0.67031   0.96002
  39   37182.3    268.9   0.002249545   0.01992   0.08490  -0.11155  -0.01630
  40   37510.2    266.6   0.255571621   2.24305   0.62947  -1.03737   0.87789
  41   37944.0    263.5   0.000238560   0.00207   0.00238  -0.04117  -0.01920
  42   38232.3    261.6   0.079299580   0.68284  -0.12788  -0.21030  -0.78883
  43   38498.5    259.8   0.014302982   0.12231  -0.02664  -0.16592  -0.30671
  44   39303.5    254.4   0.011133983   0.09326   0.04599   0.17123   0.24865
  45   39557.5    252.8   0.022692842   0.18886  -0.05564   0.13894   0.40799
  46   39715.6    251.8   0.001016314   0.00842  -0.03334  -0.04041  -0.07536
  47   39815.1    251.2   0.331838856   2.74382   0.10820   0.65333   1.51831
  48   39925.9    250.5   0.029586909   0.24396  -0.06331  -0.16614  -0.46082
  49   40094.3    249.4   0.098982431   0.81274   0.05003   0.32317   0.84012

FINAL SINGLE POINT ENERGY     -4630.585551987484

DIPOLE MOMENT
-------------
                                X             Y             Z
Electronic contribution:     -0.20142      -2.85423      -7.35595
Nuclear contribution   :      0.47655       3.26074       7.69026
                        -----------------------------------------
Total Dipole Moment    :      0.27513       0.40651       0.33431
                        -----------------------------------------
Magnitude (a.u.)       :      0.59390
Magnitude (Debye)      :      1.50956

Rotational constants in cm-1:     0.002686     0.000259     0.000237
Rotational constants in MHz :    80.534037     7.779049     7.100497

                             ****ORCA TERMINATED NORMALLY****
TOTAL RUN TIME: 0 days 0 hours 7 minutes 24 seconds 241 msec
