                         Program Version 4.2.0 -  RELEASE  -
|  1> # ORCA input file
|  2> # SCF done       -182.802321321270          0.000535431260
|  3> ! CAM-B3LYP def2-SVP def2/J RIJCOSX Grid4 TightSCF
|  4> %maxcore 5000
|  5> %tddft
|  6>     Mode sTDDFT
|  7>     Ethresh 5.0
|  8>     maxcore 5000
|  9> end
| 10>
| 11> %pal
| 12>   nprocs 6
| 13>   end
| 14> * xyz 0 1
| 15>    C      -16.83470        -3.59133         0.72202
| 16>    C      -16.27125        -3.41832         1.94333
| 17>    C      -16.69346        -2.99254         3.29263
| 18>    O      -17.77625        -2.67140         3.70756
| 19>    N      -15.52954        -3.03697         4.05085
| 20>    C      -15.49083        -2.68478         5.44888
| 21>    C      -14.40297        -3.45420         3.34901
| 22>    O      -13.30202        -3.56648         3.82984
| 23>    C      -14.87837        -3.70192         1.98167
| 24>    C      -14.36571        -4.09687         0.76746
| 25>    S      -15.65646        -4.11057        -0.42491
| 26>    C      -13.03790        -4.45239         0.41243
| 27>    C      -11.94654        -4.57828         1.25622
| 28>    C      -10.79521        -4.93279         0.55674
| 29>    C      -11.01312        -5.06706        -0.83094
| 30>    S      -12.63457        -4.77590        -1.26762
| 31>    C       -9.79111        -5.39138        -1.46170
| 32>    C       -8.79215        -5.47250        -0.46836
| 33>    C       -9.39115        -5.19491         0.82984
| 34>    C       -8.75441        -5.18850         2.03470
| 35>    C       -9.40586        -4.93345         3.26185
| 36>    N       -9.89673        -4.74641         4.28035
| 37>    C       -7.37111        -5.45074         2.14668
| 38>    N       -6.24775        -5.65645         2.24889
| 39>    C       -7.54184        -5.76979        -0.98910
| 40>    C       -7.57327        -5.90465        -2.37351
| 41>    S       -9.18359        -5.67209        -3.03579
| 42>    C       -6.47067        -6.15347        -3.22828
| 43>    C       -6.62928        -6.18004        -4.63241
| 44>    C       -5.51431        -6.32664        -5.53206
| 45>    N       -5.72735        -6.32345        -6.85202
| 46>    C       -6.94539        -6.19419        -7.32040
| 47>    C       -8.05445        -6.04826        -6.42558
| 48>    N       -7.86323        -6.04338        -5.12812
| 49>    C       -9.37122        -5.91074        -6.92949
| 50>    N      -10.42583        -5.80304        -7.36297
| 51>    C       -7.15552        -6.20806        -8.72144
| 52>    N       -7.36079        -6.21832        -9.84808
| 53>    C       -4.18550        -6.46994        -5.07214
| 54>    C       -4.03088        -6.51412        -3.66576
| 55>    C       -5.14898        -6.35304        -2.76284
| 56>    N       -4.75862        -6.41160        -1.48945
| 57>    S       -3.17471        -6.64428        -1.42323
| 58>    N       -2.88781        -6.67937        -2.99950
| 59>    C       -3.09864        -6.52381        -5.98049
| 60>    C       -1.75514        -6.70013        -5.66635
| 61>    C       -0.94797        -6.63343        -6.79217
| 62>    C       -1.67797        -6.39578        -7.97685
| 63>    S       -3.36115        -6.29188        -7.70302
| 64>    C       -0.76401        -6.30100        -9.05400
| 65>    C        0.54190        -6.48656        -8.55181
| 66>    C        0.46745        -6.70975        -7.11802
| 67>    C        1.50232        -6.93743        -6.25902
| 68>    C        1.30379        -7.13645        -4.87622
| 69>    N        1.15295        -7.29924        -3.75131
| 70>    C        2.84151        -6.98901        -6.69995
| 71>    N        3.92979        -7.02989        -7.05904
| 72>    C        1.51381        -6.37955        -9.54067
| 73>    C        0.95658        -6.10549       -10.77951
| 74>    S       -0.79646        -5.98683       -10.73035
| 75>    C        1.65476        -5.90786       -11.99700
| 76>    C        1.16288        -5.56758       -13.23316
| 77>    C       -0.14015        -5.27868       -13.82887
| 78>    O       -1.24050        -5.28471       -13.32683
| 79>    N        0.13212        -4.98013       -15.15814
| 80>    C       -0.89306        -4.62841       -16.10957
| 81>    C        1.48250        -5.05329       -15.49430
| 82>    O        1.92879        -4.84229       -16.59093
| 83>    C        2.15889        -5.43260       -14.23682
| 84>    C        3.41576        -5.66985       -13.78527
| 85>    S        3.40206        -6.06581       -12.10336
| 86>    H      -17.85241        -3.44952         0.41816
| 87>    H      -16.34885        -3.12539         5.95546
| 88>    H      -15.52680        -1.60044         5.56965
| 89>    H      -14.56137        -3.06748         5.86695
| 90>    H      -12.01068        -4.40643         2.31692
| 91>    H       -6.63187        -5.88240        -0.42917
| 92>    H       -1.42298        -6.85779        -4.65677
| 93>    H        2.57384        -6.48277        -9.39080
| 94>    H       -1.85863        -4.85567       -15.66127
| 95>    H       -0.75325        -5.20322       -17.02469
| 96>    H       -0.84038        -3.56495       -16.34942
| 97>    H        4.34562        -5.63995       -14.31695
| 98> *
| 99>
|100>                          ****END OF INPUT****

CARTESIAN COORDINATES (ANGSTROEM)
---------------------------------
  C    -16.834700   -3.591330    0.722020
  C    -16.271250   -3.418320    1.943330
  C    -16.693460   -2.992540    3.292630
  O    -17.776250   -2.671400    3.707560
  N    -15.529540   -3.036970    4.050850
  C    -15.490830   -2.684780    5.448880
  C    -14.402970   -3.454200    3.349010
  O    -13.302020   -3.566480    3.829840
  C    -14.878370   -3.701920    1.981670
  C    -14.365710   -4.096870    0.767460
  S    -15.656460   -4.110570   -0.424910
  C    -13.037900   -4.452390    0.412430
  C    -11.946540   -4.578280    1.256220
  C    -10.795210   -4.932790    0.556740
  C    -11.013120   -5.067060   -0.830940
  S    -12.634570   -4.775900   -1.267620
  C     -9.791110   -5.391380   -1.461700
  C     -8.792150   -5.472500   -0.468360
  C     -9.391150   -5.194910    0.829840
  C     -8.754410   -5.188500    2.034700
  C     -9.405860   -4.933450    3.261850
  N     -9.896730   -4.746410    4.280350
  C     -7.371110   -5.450740    2.146680
  N     -6.247750   -5.656450    2.248890
  C     -7.541840   -5.769790   -0.989100
  C     -7.573270   -5.904650   -2.373510
  S     -9.183590   -5.672090   -3.035790
  C     -6.470670   -6.153470   -3.228280
  C     -6.629280   -6.180040   -4.632410
  C     -5.514310   -6.326640   -5.532060
  N     -5.727350   -6.323450   -6.852020
  C     -6.945390   -6.194190   -7.320400
  C     -8.054450   -6.048260   -6.425580
  N     -7.863230   -6.043380   -5.128120
  C     -9.371220   -5.910740   -6.929490
  N    -10.425830   -5.803040   -7.362970
  C     -7.155520   -6.208060   -8.721440
  N     -7.360790   -6.218320   -9.848080
  C     -4.185500   -6.469940   -5.072140
  C     -4.030880   -6.514120   -3.665760
  C     -5.148980   -6.353040   -2.762840
  N     -4.758620   -6.411600   -1.489450
  S     -3.174710   -6.644280   -1.423230
  N     -2.887810   -6.679370   -2.999500
  C     -3.098640   -6.523810   -5.980490
  C     -1.755140   -6.700130   -5.666350
  C     -0.947970   -6.633430   -6.792170
  C     -1.677970   -6.395780   -7.976850
  S     -3.361150   -6.291880   -7.703020
  C     -0.764010   -6.301000   -9.054000
  C      0.541900   -6.486560   -8.551810
  C      0.467450   -6.709750   -7.118020
  C      1.502320   -6.937430   -6.259020
  C      1.303790   -7.136450   -4.876220
  N      1.152950   -7.299240   -3.751310
  C      2.841510   -6.989010   -6.699950
  N      3.929790   -7.029890   -7.059040
  C      1.513810   -6.379550   -9.540670
  C      0.956580   -6.105490  -10.779510
  S     -0.796460   -5.986830  -10.730350
  C      1.654760   -5.907860  -11.997000
  C      1.162880   -5.567580  -13.233160
  C     -0.140150   -5.278680  -13.828870
  O     -1.240500   -5.284710  -13.326830
  N      0.132120   -4.980130  -15.158140
  C     -0.893060   -4.628410  -16.109570
  C      1.482500   -5.053290  -15.494300
  O      1.928790   -4.842290  -16.590930
  C      2.158890   -5.432600  -14.236820
  C      3.415760   -5.669850  -13.785270
  S      3.402060   -6.065810  -12.103360
  H    -17.852410   -3.449520    0.418160
  H    -16.348850   -3.125390    5.955460
  H    -15.526800   -1.600440    5.569650
  H    -14.561370   -3.067480    5.866950
  H    -12.010680   -4.406430    2.316920
  H     -6.631870   -5.882400   -0.429170
  H     -1.422980   -6.857790   -4.656770
  H      2.573840   -6.482770   -9.390800
  H     -1.858630   -4.855670  -15.661270
  H     -0.753250   -5.203220  -17.024690
  H     -0.840380   -3.564950  -16.349420
  H      4.345620   -5.639950  -14.316950

 Total Charge           Charge          ....    0
 Multiplicity           Mult            ....    1
 Number of Electrons    NEL             ....  528
 Basis Dimension        Dim             .... 1082

ORBITAL ENERGIES
----------------

  NO   OCC          E(Eh)            E(eV)
   0   2.0000     -89.056317     -2423.3456
   1   2.0000     -88.995723     -2421.6967
   2   2.0000     -88.991072     -2421.5702
   3   2.0000     -88.989042     -2421.5149
   4   2.0000     -88.988879     -2421.5105
   5   2.0000     -88.987414     -2421.4706
   6   2.0000     -88.986565     -2421.4475
   7   2.0000     -19.219554      -522.9907
   8   2.0000     -19.215774      -522.8878
   9   2.0000     -19.214032      -522.8404
  10   2.0000     -19.210995      -522.7577
  11   2.0000     -14.481452      -394.0604
  12   2.0000     -14.481160      -394.0524
  13   2.0000     -14.464734      -393.6054
  14   2.0000     -14.464657      -393.6033
  15   2.0000     -14.462552      -393.5460
  16   2.0000     -14.459076      -393.4515
  17   2.0000     -14.443249      -393.0208
  18   2.0000     -14.442313      -392.9953
  19   2.0000     -14.432332      -392.7237
  20   2.0000     -14.431283      -392.6952
  21   2.0000     -14.430096      -392.6629
  22   2.0000     -14.425976      -392.5508
  23   2.0000     -10.402352      -283.0624
  24   2.0000     -10.399052      -282.9726
  25   2.0000     -10.398674      -282.9623
  26   2.0000     -10.398367      -282.9539
  27   2.0000     -10.398347      -282.9534
  28   2.0000     -10.395135      -282.8660
  29   2.0000     -10.365692      -282.0648
  30   2.0000     -10.365139      -282.0498
  31   2.0000     -10.361629      -281.9543
  32   2.0000     -10.361369      -281.9472
  33   2.0000     -10.356932      -281.8264
  34   2.0000     -10.356691      -281.8199
  35   2.0000     -10.353888      -281.7436
  36   2.0000     -10.351497      -281.6786
  37   2.0000     -10.345681      -281.5203
  38   2.0000     -10.345032      -281.5026
  39   2.0000     -10.337363      -281.2940
  40   2.0000     -10.336618      -281.2737
  41   2.0000     -10.335502      -281.2433
  42   2.0000     -10.334415      -281.2137
  43   2.0000     -10.333911      -281.2000
  44   2.0000     -10.333722      -281.1949
  45   2.0000     -10.333460      -281.1877
  46   2.0000     -10.332830      -281.1706
  47   2.0000     -10.332136      -281.1517
  48   2.0000     -10.331683      -281.1394
  49   2.0000     -10.330304      -281.1019
  50   2.0000     -10.330151      -281.0977
  51   2.0000     -10.329591      -281.0824
  52   2.0000     -10.329443      -281.0784
  53   2.0000     -10.329277      -281.0739
  54   2.0000     -10.329101      -281.0691
  55   2.0000     -10.327714      -281.0314
  56   2.0000     -10.324969      -280.9567
  57   2.0000     -10.309330      -280.5311
  58   2.0000     -10.307847      -280.4908
  59   2.0000     -10.307744      -280.4880
  60   2.0000     -10.307495      -280.4812
  61   2.0000     -10.303568      -280.3743
  62   2.0000     -10.303463      -280.3715
  63   2.0000     -10.303394      -280.3696
  64   2.0000     -10.302456      -280.3441
  65   2.0000     -10.301928      -280.3297
  66   2.0000     -10.301805      -280.3264
  67   2.0000     -10.300742      -280.2974
  68   2.0000     -10.299212      -280.2558
  69   2.0000     -10.299001      -280.2501
  70   2.0000     -10.298965      -280.2491
  71   2.0000      -8.147340      -221.7004
  72   2.0000      -8.090440      -220.1521
  73   2.0000      -8.084594      -219.9930
  74   2.0000      -8.082617      -219.9392
  75   2.0000      -8.082244      -219.9290
  76   2.0000      -8.081737      -219.9153
  77   2.0000      -8.081505      -219.9089
  78   2.0000      -6.118404      -166.4902
  79   2.0000      -6.110480      -166.2746
  80   2.0000      -6.110269      -166.2689
  81   2.0000      -6.059687      -164.8925
  82   2.0000      -6.055488      -164.7782
  83   2.0000      -6.053893      -164.7348
  84   2.0000      -6.052817      -164.7055
  85   2.0000      -6.052149      -164.6873
  86   2.0000      -6.051733      -164.6760
  87   2.0000      -6.051247      -164.6628
  88   2.0000      -6.051087      -164.6584
  89   2.0000      -6.049418      -164.6130
  90   2.0000      -6.047538      -164.5619
  91   2.0000      -6.047128      -164.5507
  92   2.0000      -6.047010      -164.5475
  93   2.0000      -6.046487      -164.5333
  94   2.0000      -6.046268      -164.5273
  95   2.0000      -6.044700      -164.4847
  96   2.0000      -6.044351      -164.4751
  97   2.0000      -6.044208      -164.4713
  98   2.0000      -6.043912      -164.4632
  99   2.0000      -1.163997       -31.6740
 100   2.0000      -1.160795       -31.5868
 101   2.0000      -1.154417       -31.4133
 102   2.0000      -1.140290       -31.0289
 103   2.0000      -1.140143       -31.0249
 104   2.0000      -1.136939       -30.9377
 105   2.0000      -1.069005       -29.0891
 106   2.0000      -1.055650       -28.7257
 107   2.0000      -1.052331       -28.6354
 108   2.0000      -1.046454       -28.4754
 109   2.0000      -1.045935       -28.4614
 110   2.0000      -1.028203       -27.9788
 111   2.0000      -1.023847       -27.8603
 112   2.0000      -1.021272       -27.7902
 113   2.0000      -1.018441       -27.7132
 114   2.0000      -1.013960       -27.5913
 115   2.0000      -1.013424       -27.5767
 116   2.0000      -1.009215       -27.4621
 117   2.0000      -1.008102       -27.4318
 118   2.0000      -1.004740       -27.3404
 119   2.0000      -1.001109       -27.2416
 120   2.0000      -0.991518       -26.9806
 121   2.0000      -0.983217       -26.7547
 122   2.0000      -0.960230       -26.1292
 123   2.0000      -0.956219       -26.0200
 124   2.0000      -0.924989       -25.1702
 125   2.0000      -0.923829       -25.1387
 126   2.0000      -0.914934       -24.8966
 127   2.0000      -0.900233       -24.4966
 128   2.0000      -0.896480       -24.3945
 129   2.0000      -0.892462       -24.2851
 130   2.0000      -0.876116       -23.8403
 131   2.0000      -0.874487       -23.7960
 132   2.0000      -0.864630       -23.5278
 133   2.0000      -0.857251       -23.3270
 134   2.0000      -0.856020       -23.2935
 135   2.0000      -0.855150       -23.2698
 136   2.0000      -0.847983       -23.0748
 137   2.0000      -0.820282       -22.3210
 138   2.0000      -0.814032       -22.1509
 139   2.0000      -0.803796       -21.8724
 140   2.0000      -0.801674       -21.8146
 141   2.0000      -0.785428       -21.3726
 142   2.0000      -0.782169       -21.2839
 143   2.0000      -0.779422       -21.2091
 144   2.0000      -0.767075       -20.8732
 145   2.0000      -0.751909       -20.4605
 146   2.0000      -0.750785       -20.4299
 147   2.0000      -0.740859       -20.1598
 148   2.0000      -0.724796       -19.7227
 149   2.0000      -0.718876       -19.5616
 150   2.0000      -0.717585       -19.5265
 151   2.0000      -0.704096       -19.1594
 152   2.0000      -0.701182       -19.0801
 153   2.0000      -0.695085       -18.9142
 154   2.0000      -0.691869       -18.8267
 155   2.0000      -0.687056       -18.6957
 156   2.0000      -0.684987       -18.6395
 157   2.0000      -0.677150       -18.4262
 158   2.0000      -0.676349       -18.4044
 159   2.0000      -0.670908       -18.2563
 160   2.0000      -0.665806       -18.1175
 161   2.0000      -0.661026       -17.9874
 162   2.0000      -0.640270       -17.4226
 163   2.0000      -0.637989       -17.3606
 164   2.0000      -0.630023       -17.1438
 165   2.0000      -0.628013       -17.0891
 166   2.0000      -0.623024       -16.9533
 167   2.0000      -0.619303       -16.8521
 168   2.0000      -0.612566       -16.6688
 169   2.0000      -0.611480       -16.6392
 170   2.0000      -0.597743       -16.2654
 171   2.0000      -0.596720       -16.2376
 172   2.0000      -0.584170       -15.8961
 173   2.0000      -0.582629       -15.8541
 174   2.0000      -0.580844       -15.8056
 175   2.0000      -0.572511       -15.5788
 176   2.0000      -0.570708       -15.5298
 177   2.0000      -0.568171       -15.4607
 178   2.0000      -0.566146       -15.4056
 179   2.0000      -0.562231       -15.2991
 180   2.0000      -0.554997       -15.1022
 181   2.0000      -0.552456       -15.0331
 182   2.0000      -0.549659       -14.9570
 183   2.0000      -0.548440       -14.9238
 184   2.0000      -0.543463       -14.7884
 185   2.0000      -0.542078       -14.7507
 186   2.0000      -0.536366       -14.5953
 187   2.0000      -0.530661       -14.4400
 188   2.0000      -0.523727       -14.2513
 189   2.0000      -0.523125       -14.2349
 190   2.0000      -0.520825       -14.1724
 191   2.0000      -0.518015       -14.0959
 192   2.0000      -0.517188       -14.0734
 193   2.0000      -0.515848       -14.0369
 194   2.0000      -0.512910       -13.9570
 195   2.0000      -0.506780       -13.7902
 196   2.0000      -0.504114       -13.7176
 197   2.0000      -0.502678       -13.6786
 198   2.0000      -0.499797       -13.6002
 199   2.0000      -0.499175       -13.5832
 200   2.0000      -0.497835       -13.5468
 201   2.0000      -0.494130       -13.4460
 202   2.0000      -0.492090       -13.3904
 203   2.0000      -0.489656       -13.3242
 204   2.0000      -0.488220       -13.2851
 205   2.0000      -0.487095       -13.2545
 206   2.0000      -0.485726       -13.2173
 207   2.0000      -0.484234       -13.1767
 208   2.0000      -0.482079       -13.1180
 209   2.0000      -0.480646       -13.0790
 210   2.0000      -0.479263       -13.0414
 211   2.0000      -0.479101       -13.0370
 212   2.0000      -0.475438       -12.9373
 213   2.0000      -0.473765       -12.8918
 214   2.0000      -0.470434       -12.8012
 215   2.0000      -0.469932       -12.7875
 216   2.0000      -0.466953       -12.7064
 217   2.0000      -0.465900       -12.6778
 218   2.0000      -0.463995       -12.6259
 219   2.0000      -0.463320       -12.6076
 220   2.0000      -0.462680       -12.5902
 221   2.0000      -0.460603       -12.5336
 222   2.0000      -0.459769       -12.5110
 223   2.0000      -0.456946       -12.4341
 224   2.0000      -0.454924       -12.3791
 225   2.0000      -0.450860       -12.2685
 226   2.0000      -0.450581       -12.2609
 227   2.0000      -0.442080       -12.0296
 228   2.0000      -0.441017       -12.0007
 229   2.0000      -0.440293       -11.9810
 230   2.0000      -0.439368       -11.9558
 231   2.0000      -0.437613       -11.9081
 232   2.0000      -0.437086       -11.8937
 233   2.0000      -0.436407       -11.8752
 234   2.0000      -0.434085       -11.8120
 235   2.0000      -0.430305       -11.7092
 236   2.0000      -0.428213       -11.6523
 237   2.0000      -0.424583       -11.5535
 238   2.0000      -0.419822       -11.4239
 239   2.0000      -0.413140       -11.2421
 240   2.0000      -0.411311       -11.1923
 241   2.0000      -0.399058       -10.8589
 242   2.0000      -0.390860       -10.6358
 243   2.0000      -0.390031       -10.6133
 244   2.0000      -0.387630       -10.5480
 245   2.0000      -0.368523       -10.0280
 246   2.0000      -0.366844        -9.9823
 247   2.0000      -0.364336        -9.9141
 248   2.0000      -0.362392        -9.8612
 249   2.0000      -0.360324        -9.8049
 250   2.0000      -0.359631        -9.7861
 251   2.0000      -0.357452        -9.7268
 252   2.0000      -0.350674        -9.5423
 253   2.0000      -0.350215        -9.5298
 254   2.0000      -0.349121        -9.5001
 255   2.0000      -0.348269        -9.4769
 256   2.0000      -0.339937        -9.2501
 257   2.0000      -0.338071        -9.1994
 258   2.0000      -0.336703        -9.1622
 259   2.0000      -0.323587        -8.8052
 260   2.0000      -0.322212        -8.7678
 261   2.0000      -0.305796        -8.3211
 262   2.0000      -0.275627        -7.5002
 263   2.0000      -0.242368        -6.5952
 264   0.0000      -0.141435        -3.8486
 265   0.0000      -0.105704        -2.8764
 266   0.0000      -0.101491        -2.7617
 267   0.0000      -0.067366        -1.8331
 268   0.0000      -0.059466        -1.6182

MULLIKEN ATOMIC CHARGES
-----------------------
   0 C :   -0.128114
   1 C :    0.024495
   2 C :    0.187161
   3 O :   -0.150064
   4 N :   -0.311928
   5 C :    0.134991
   6 C :    0.208304
   7 O :   -0.162130
   8 C :   -0.016588
   9 C :   -0.116002
  10 S :    0.147296
  11 C :   -0.073320
  12 C :   -0.055960
  13 C :    0.016864
  14 C :   -0.102759
  15 S :    0.194572
  16 C :   -0.059333
  17 C :    0.035773
  18 C :    0.313505
  19 C :   -0.303281
  20 C :   -0.199819
  21 N :    0.199947
  22 C :   -0.189434
  23 N :    0.170221
  24 C :   -0.065197
  25 C :   -0.174959
  26 S :    0.202250
  27 C :    0.190562
  28 C :   -0.061466
  29 C :   -0.066807
  30 N :    0.001218
  31 C :   -0.098332
  32 C :   -0.100307
  33 N :   -0.003302
  34 C :   -0.240495
  35 N :    0.249572
  36 C :   -0.240070
  37 N :    0.250075
  38 C :    0.191048
  39 C :   -0.011786
  40 C :   -0.015518
  41 N :   -0.280304
  42 S :    0.586815
  43 N :   -0.281893
  44 C :   -0.178678
  45 C :   -0.060505
  46 C :    0.034644
  47 C :   -0.060945
  48 S :    0.208752
  49 C :   -0.095591
  50 C :    0.028007
  51 C :    0.304441
  52 C :   -0.300637
  53 C :   -0.184922
  54 N :    0.170918
  55 C :   -0.191392
  56 N :    0.171220
  57 C :   -0.075608
  58 C :   -0.075597
  59 S :    0.248999
  60 C :   -0.103306
  61 C :   -0.040744
  62 C :    0.200287
  63 O :   -0.180132
  64 N :   -0.314575
  65 C :    0.138680
  66 C :    0.190736
  67 O :   -0.147758
  68 C :    0.030085
  69 C :   -0.128508
  70 S :    0.161876
  71 H :    0.045289
  72 H :    0.043169
  73 H :    0.040522
  74 H :    0.055976
  75 H :    0.029479
  76 H :    0.022281
  77 H :    0.022123
  78 H :    0.014240
  79 H :    0.052435
  80 H :    0.042817
  81 H :    0.040610
  82 H :    0.045810
Sum of atomic charges:   -0.0000000

LOEWDIN ATOMIC CHARGES
----------------------
   0 C :   -0.139540
   1 C :   -0.090645
   2 C :    0.085787
   3 O :   -0.155252
   4 N :   -0.038193
   5 C :    0.037303
   6 C :    0.092370
   7 O :   -0.154625
   8 C :   -0.099487
   9 C :   -0.150251
  10 S :    0.450572
  11 C :   -0.186611
  12 C :   -0.007189
  13 C :   -0.062693
  14 C :   -0.176031
  15 S :    0.474079
  16 C :   -0.177742
  17 C :   -0.071125
  18 C :    0.076438
  19 C :   -0.095205
  20 C :   -0.025361
  21 N :   -0.014296
  22 C :   -0.014510
  23 N :   -0.033714
  24 C :   -0.006642
  25 C :   -0.167339
  26 S :    0.507058
  27 C :   -0.038225
  28 C :   -0.015878
  29 C :   -0.015929
  30 N :   -0.015912
  31 C :   -0.022619
  32 C :   -0.022516
  33 N :   -0.016637
  34 C :   -0.039334
  35 N :    0.000626
  36 C :   -0.039824
  37 N :    0.002663
  38 C :   -0.037933
  39 C :   -0.037127
  40 C :   -0.037068
  41 N :   -0.269925
  42 S :    0.705724
  43 N :   -0.271107
  44 C :   -0.168225
  45 C :   -0.006160
  46 C :   -0.074150
  47 C :   -0.173231
  48 S :    0.512473
  49 C :   -0.181596
  50 C :   -0.065745
  51 C :    0.081175
  52 C :   -0.104595
  53 C :   -0.016708
  54 N :   -0.033451
  55 C :   -0.016805
  56 N :   -0.035127
  57 C :   -0.027245
  58 C :   -0.184897
  59 S :    0.540491
  60 C :   -0.147491
  61 C :   -0.111197
  62 C :    0.083889
  63 O :   -0.177076
  64 N :   -0.039084
  65 C :    0.037710
  66 C :    0.087947
  67 O :   -0.152665
  68 C :   -0.091892
  69 C :   -0.135927
  70 S :    0.468276
  71 H :    0.037754
  72 H :    0.035115
  73 H :    0.031946
  74 H :    0.039224
  75 H :    0.043465
  76 H :    0.038437
  77 H :    0.038524
  78 H :    0.037295
  79 H :    0.037947
  80 H :    0.035068
  81 H :    0.032387
  82 H :    0.038009

  Mayer bond orders larger than 0.100000
B(  0-C ,  1-C ) :   1.5900 B(  0-C , 10-S ) :   1.1494 B(  0-C , 71-H ) :   0.9700
B(  1-C ,  2-C ) :   0.8789 B(  1-C ,  8-C ) :   1.2427 B(  2-C ,  3-O ) :   2.2497
B(  2-C ,  4-N ) :   1.0609 B(  4-N ,  5-C ) :   0.9395 B(  4-N ,  6-C ) :   1.0818
B(  5-C , 72-H ) :   0.9699 B(  5-C , 73-H ) :   0.9801 B(  5-C , 74-H ) :   0.9624
B(  6-C ,  7-O ) :   2.1174 B(  6-C ,  8-C ) :   0.9077 B(  8-C ,  9-C ) :   1.5623
B(  9-C , 10-S ) :   1.1410 B(  9-C , 11-C ) :   1.1461 B( 11-C , 12-C ) :   1.4751
B( 11-C , 15-S ) :   1.0879 B( 12-C , 13-C ) :   1.2808 B( 12-C , 75-H ) :   0.9743
B( 13-C , 14-C ) :   1.4142 B( 13-C , 18-C ) :   0.9908 B( 14-C , 15-S ) :   1.1300
B( 14-C , 16-C ) :   1.2079 B( 16-C , 17-C ) :   1.4002 B( 16-C , 26-S ) :   1.0847
B( 17-C , 18-C ) :   0.9876 B( 17-C , 24-C ) :   1.2853 B( 18-C , 19-C ) :   1.7143
B( 19-C , 20-C ) :   1.1342 B( 19-C , 22-C ) :   1.1408 B( 20-C , 21-N ) :   3.0059
B( 22-C , 23-N ) :   2.9831 B( 24-C , 25-C ) :   1.4005 B( 24-C , 76-H ) :   0.9828
B( 25-C , 26-S ) :   1.0843 B( 25-C , 27-C ) :   1.2165 B( 27-C , 28-C ) :   1.2536
B( 27-C , 38-C ) :   0.1188 B( 27-C , 40-C ) :   1.1912 B( 28-C , 29-C ) :   1.1061
B( 28-C , 33-N ) :   1.4044 B( 29-C , 30-N ) :   1.4083 B( 29-C , 38-C ) :   1.2512
B( 30-N , 31-C ) :   1.6919 B( 31-C , 32-C ) :   1.2199 B( 31-C , 36-C ) :   1.1653
B( 32-C , 33-N ) :   1.6910 B( 32-C , 34-C ) :   1.1643 B( 34-C , 35-N ) :   3.0400
B( 36-C , 37-N ) :   3.0385 B( 38-C , 39-C ) :   1.1975 B( 38-C , 44-C ) :   1.2137
B( 39-C , 40-C ) :   1.0991 B( 39-C , 43-N ) :   1.5182 B( 40-C , 41-N ) :   1.5198
B( 41-N , 42-S ) :   1.2851 B( 41-N , 43-N ) :   0.1458 B( 42-S , 43-N ) :   1.2840
B( 44-C , 45-C ) :   1.4051 B( 44-C , 48-S ) :   1.0837 B( 45-C , 46-C ) :   1.2835
B( 45-C , 77-H ) :   0.9829 B( 46-C , 47-C ) :   1.3963 B( 46-C , 51-C ) :   0.9920
B( 47-C , 48-S ) :   1.0970 B( 47-C , 49-C ) :   1.2008 B( 49-C , 50-C ) :   1.4013
B( 49-C , 59-S ) :   1.1119 B( 50-C , 51-C ) :   0.9934 B( 50-C , 57-C ) :   1.3179
B( 51-C , 52-C ) :   1.7108 B( 52-C , 53-C ) :   1.1371 B( 52-C , 55-C ) :   1.1328
B( 53-C , 54-N ) :   2.9862 B( 55-C , 56-N ) :   2.9927 B( 57-C , 58-C ) :   1.4217
B( 57-C , 78-H ) :   0.9932 B( 58-C , 59-S ) :   1.1236 B( 58-C , 60-C ) :   1.1812
B( 60-C , 61-C ) :   1.5177 B( 60-C , 70-S ) :   1.1495 B( 61-C , 62-C ) :   0.9152
B( 61-C , 68-C ) :   1.2374 B( 62-C , 63-O ) :   2.1378 B( 62-C , 64-N ) :   1.0870
B( 64-N , 65-C ) :   0.9389 B( 64-N , 66-C ) :   1.0537 B( 65-C , 79-H ) :   0.9622
B( 65-C , 80-H ) :   0.9710 B( 65-C , 81-H ) :   0.9793 B( 66-C , 67-O ) :   2.2505
B( 66-C , 68-C ) :   0.8813 B( 68-C , 69-C ) :   1.5890 B( 69-C , 70-S ) :   1.1537
B( 69-C , 82-H ) :   0.9702

-----------------------------------------------------------------------------
         ABSORPTION SPECTRUM VIA TRANSITION ELECTRIC DIPOLE MOMENTS
-----------------------------------------------------------------------------
State   Energy  Wavelength   fosc         T2         TX        TY        TZ
        (cm-1)    (nm)                  (au**2)     (au)      (au)      (au)
-----------------------------------------------------------------------------
   0    6905.3   1448.2   0.552787037  26.35418   3.93747  -0.50503  -3.25507
   1   13058.4    765.8   0.005629604   0.14193  -0.03950   0.32532  -0.18583
   2   13615.7    734.4   0.034619675   0.83707  -0.70915   0.13546   0.56197
   3   15753.4    634.8   0.008357784   0.17466   0.01432  -0.40539   0.10057
   4   21556.6    463.9   0.192801553   2.94446   1.32323  -0.13825  -1.08370
   5   22001.0    454.5   0.032488550   0.48614  -0.55585  -0.20650  -0.36678
   6   22851.9    437.6   0.630199955   9.07886   2.20796  -0.29374  -2.02916
   7   23492.3    425.7   0.138432580   1.93994  -1.10589   0.08018   0.84293
   8   23568.8    424.3   0.011052968   0.15439  -0.08901  -0.02008  -0.38218
   9   24326.8    411.1   0.019720942   0.26688  -0.31159   0.06789  -0.40643
  10   24618.3    406.2   0.026871578   0.35934   0.41267   0.03066  -0.43371
  11   25363.1    394.3   0.004854612   0.06301  -0.18311   0.10488   0.13596
  12   26475.6    377.7   1.046538534  13.01322  -2.52578   0.18194   2.56916
  13   27470.2    364.0   0.189262285   2.26819  -1.18690   0.75674  -0.53553
  14   29026.4    344.5   0.071633041   0.81245   0.77224  -0.23137   0.40319
  15   29649.0    337.3   0.173603476   1.92763   1.35241  -0.29584   0.10530
  16   29697.9    336.7   0.220301742   2.44213  -0.29963   0.31288  -1.50149
  17   30647.0    326.3   0.012804224   0.13754  -0.10247   0.04892   0.35306
  18   30735.1    325.4   0.174344195   1.86745   0.87587  -0.13051   1.04080
  19   30965.6    322.9   0.023498581   0.24983  -0.33224   0.05972  -0.36861
  20   31482.2    317.6   0.093055140   0.97309  -0.97310   0.13943  -0.08198
  21   31524.3    317.2   0.164539470   1.71830   0.52383  -0.16951  -1.18961
  22   31892.9    313.5   0.111772742   1.15376  -0.79977   0.34177   0.63034
  23   32352.6    309.1   0.210015124   2.13706  -1.08351   0.15457  -0.96911
  24   32556.8    307.2   0.092277303   0.93310  -0.49016   0.02663  -0.83195
  25   32632.9    306.4   0.958280672   9.66747   1.87837  -0.19321   2.47020
  26   32811.1    304.8   0.075722309   0.75976  -0.63193  -0.06888  -0.59639
  27   33167.3    301.5   0.011005694   0.10924   0.26746   0.05789   0.18535
  28   33348.2    299.9   0.196608395   1.94091  -0.82133   0.27125  -1.09213
  29   33551.5    298.0   0.045076962   0.44230  -0.23157  -0.03083  -0.62268
  30   33969.0    294.4   0.004118787   0.03992  -0.14897  -0.03157   0.12934
  31   34149.0    292.8   0.009657270   0.09310  -0.10188  -0.07871   0.27663
  32   34239.3    292.1   0.048976920   0.47091  -0.30361   0.33312  -0.51746
  33   34502.2    289.8   0.057117399   0.54500   0.10615   0.14215  -0.71661
  34   34582.3    289.2   0.328383304   3.12610   1.35981  -0.13988  -1.12137
  35   35018.0    285.6   0.055429262   0.52110  -0.69521  -0.02463  -0.19282
  36   35856.2    278.9   0.088981248   0.81698  -0.37016   0.25912  -0.78282
  37   36644.1    272.9   0.062867204   0.56480  -0.73732   0.09294   0.11189
  38   36774.9    271.9   0.036848218   0.32987  -0.06698  -0.04988   0.56824
  39   36831.9    271.5   0.004616226   0.04126  -0.07019  -0.01877  -0.18969
  40   36930.2    270.8   0.108969254   0.97140   0.86610  -0.16828   0.43926
  41   37100.1    269.5   0.100497242   0.89177  -0.55456   0.04500   0.76303
  42   37726.2    265.1   0.009216406   0.08043  -0.11380   0.05917  -0.25293
  43   37754.9    264.9   0.049411680   0.43086  -0.33807  -0.00003  -0.56264
  44   37960.0    263.4   0.014058433   0.12192  -0.08247  -0.07835   0.33012
  45   38139.7    262.2   0.002534292   0.02188   0.14114  -0.03819  -0.02225
  46   38268.6    261.3   0.010128585   0.08713   0.29295  -0.03553  -0.00727
  47   38281.0    261.2   0.009881231   0.08498  -0.28564   0.01183  -0.05697
  48   38731.4    258.2   0.010150112   0.08627   0.25062  -0.01035   0.15283
  49   39004.7    256.4   0.427628115   3.60932  -1.17834   0.13865  -1.48378
  50   39407.6    253.8   0.002452689   0.02049   0.10166  -0.09878   0.01997
  51   39685.9    252.0   0.005328934   0.04421   0.06294   0.08695   0.18079
  52   39757.4    251.5   0.006568204   0.05439  -0.08555   0.21199   0.04613
  53   39821.3    251.1   0.002378946   0.01967  -0.03403  -0.07333  -0.11460
  54   39877.7    250.8   0.017995879   0.14857  -0.22660  -0.02543   0.31076
  55   40078.8    249.5   0.002478690   0.02036  -0.02508  -0.00418   0.14041

FINAL SINGLE POINT ENERGY     -5577.171761219543

DIPOLE MOMENT
-------------
                                X             Y             Z
Electronic contribution:      9.45111     -11.23915      -0.11792
Nuclear contribution   :     -9.67327      11.31036      -0.96618
                        -----------------------------------------
Total Dipole Moment    :     -0.22216       0.07121      -1.08410
                        -----------------------------------------
Magnitude (a.u.)       :      1.10892
Magnitude (Debye)      :      2.81864

Rotational constants in cm-1:     0.002107     0.000248     0.000225
Rotational constants in MHz :    63.176604     7.447677     6.750972

                             ****ORCA TERMINATED NORMALLY****
TOTAL RUN TIME: 0 days 0 hours 8 minutes 28 seconds 246 msec
