                         Program Version 4.2.0 -  RELEASE  -
|  1> # ORCA input file
|  2> # SCF done       -178.734534129143          0.000919500238
|  3> ! CAM-B3LYP def2-SVP def2/J RIJCOSX Grid4 TightSCF
|  4> %maxcore 5000
|  5> %tddft
|  6>     Mode sTDDFT
|  7>     Ethresh 5.0
|  8>     maxcore 5000
|  9> end
| 10>
| 11> %pal
| 12>   nprocs 6
| 13>   end
| 14> * xyz 0 1
| 15>    C        4.76655        -3.91532         8.31793
| 16>    C        3.67873        -3.95837         9.14537
| 17>    F        3.59118        -4.92884        10.07379
| 18>    C        2.63798        -3.02340         9.06857
| 19>    C        2.71008        -2.03010         8.13168
| 20>    C        3.80877        -1.93883         7.25336
| 21>    C        4.85670        -2.89987         7.34661
| 22>    C        5.96704        -2.83335         6.47090
| 23>    C        6.02615        -1.83707         5.53536
| 24>    C        4.98193        -0.87090         5.45888
| 25>    C        3.89735        -0.91338         6.28528
| 26>    C        5.30731         0.10855         4.40642
| 27>    O        4.64571         1.05460         4.03819
| 28>    C        6.65747        -0.27094         3.91729
| 29>    C        7.01218        -1.53881         4.49376
| 30>    C        7.96547        -2.42178         4.04201
| 31>    C        8.72038        -2.25297         2.86507
| 32>    N        9.33406        -2.19593         1.89542
| 33>    C        8.23195        -3.66607         4.64670
| 34>    N        8.50936        -4.68007         5.10951
| 35>    C        7.34123         0.63312         3.13644
| 36>    C        8.70045         0.70195         2.84647
| 37>    C        9.23421         1.65769         2.00238
| 38>    C       10.59258         1.82495         1.65374
| 39>    C       10.82317         2.85959         0.79191
| 40>    C        9.65462         3.55397         0.42027
| 41>    S        8.25302         2.85221         1.18749
| 42>    C        9.53077         4.65425        -0.41790
| 43>    C       10.53186         5.34697        -1.12458
| 44>    C       10.05839         6.40706        -1.84504
| 45>    C        8.66069         6.59812        -1.75559
| 46>    S        7.96934         5.37595        -0.70919
| 47>    C        7.98008         7.67915        -2.28735
| 48>    C        6.61870         7.97886        -2.25622
| 49>    S        6.17089         9.66372        -2.33458
| 50>    C        4.49141         9.34156        -2.02836
| 51>    C        4.26869         7.94638        -1.96392
| 52>    C        5.45559         7.17650        -2.12689
| 53>    C        5.35871         5.78428        -2.26421
| 54>    C        4.13412         5.18374        -2.14162
| 55>    F        4.03181         3.85633        -2.28376
| 56>    C        2.97275         5.94108        -1.89172
| 57>    F        1.79661         5.31450        -1.76528
| 58>    C        3.02780         7.30673        -1.81808
| 59>    C        3.54842        10.36126        -1.87080
| 60>    C        3.80999        11.69407        -2.04033
| 61>    C        2.87016        12.71753        -1.83948
| 62>    S        1.29123        12.36771        -1.19301
| 63>    C        0.88620        14.04858        -1.25469
| 64>    N       -0.38386        14.44513        -0.81389
| 65>    O       -0.65055        15.63241        -0.85986
| 66>    O       -1.12822        13.56587        -0.41629
| 67>    C        1.89139        14.83616        -1.74838
| 68>    C        3.03942        14.09979        -2.09506
| 69>    C        4.22419        14.65057        -2.67009
| 70>    C        4.41070        15.95050        -2.99920
| 71>    C        5.59782        16.44093        -3.60479
| 72>    S        6.91227        15.35915        -3.96336
| 73>    C        7.81127        16.66706        -4.64302
| 74>    N        9.08746        16.39861        -5.15543
| 75>    O        9.71000        17.32507        -5.63994
| 76>    O        9.48036        15.24650        -5.07821
| 77>    C        7.14546        17.86433        -4.59898
| 78>    C        5.87517        17.75621        -4.00647
| 79>    C        4.96261        18.86766        -3.82629
| 80>    C        5.13865        20.08902        -4.32156
| 81>    H        5.54760        -4.65448         8.40424
| 82>    H        1.80464        -3.10760         9.74784
| 83>    H        1.92066        -1.29798         8.05187
| 84>    H        6.74646        -3.57161         6.57177
| 85>    H        3.11553        -0.17344         6.20162
| 86>    H        6.72211         1.44770         2.76760
| 87>    H        9.39430         0.01306         3.30430
| 88>    H       11.35466         1.17394         2.04321
| 89>    H       11.79451         3.13558         0.42307
| 90>    H       11.56596         5.05700        -1.08404
| 91>    H       10.67470         7.05622        -2.44130
| 92>    H        8.61517         8.46071        -2.68900
| 93>    H        6.21609         5.17808        -2.49875
| 94>    H        2.11874         7.86609        -1.67176
| 95>    H        2.54678        10.06094        -1.59463
| 96>    H        4.80516        11.98009        -2.35181
| 97>    H        1.77981        15.90027        -1.84487
| 98>    H        5.02986        13.95957        -2.87534
| 99>    H        3.62807        16.67081        -2.81805
|100>    H        7.57887        18.77161        -4.97692
|101>    H        4.07793        18.66430        -3.24054
|102>    H        5.99040        20.35821        -4.92096
|103>    H        4.41873        20.86826        -4.14325
|104> *
|105>
|106>                          ****END OF INPUT****

CARTESIAN COORDINATES (ANGSTROEM)
---------------------------------
  C      4.766550   -3.915320    8.317930
  C      3.678730   -3.958370    9.145370
  F      3.591180   -4.928840   10.073790
  C      2.637980   -3.023400    9.068570
  C      2.710080   -2.030100    8.131680
  C      3.808770   -1.938830    7.253360
  C      4.856700   -2.899870    7.346610
  C      5.967040   -2.833350    6.470900
  C      6.026150   -1.837070    5.535360
  C      4.981930   -0.870900    5.458880
  C      3.897350   -0.913380    6.285280
  C      5.307310    0.108550    4.406420
  O      4.645710    1.054600    4.038190
  C      6.657470   -0.270940    3.917290
  C      7.012180   -1.538810    4.493760
  C      7.965470   -2.421780    4.042010
  C      8.720380   -2.252970    2.865070
  N      9.334060   -2.195930    1.895420
  C      8.231950   -3.666070    4.646700
  N      8.509360   -4.680070    5.109510
  C      7.341230    0.633120    3.136440
  C      8.700450    0.701950    2.846470
  C      9.234210    1.657690    2.002380
  C     10.592580    1.824950    1.653740
  C     10.823170    2.859590    0.791910
  C      9.654620    3.553970    0.420270
  S      8.253020    2.852210    1.187490
  C      9.530770    4.654250   -0.417900
  C     10.531860    5.346970   -1.124580
  C     10.058390    6.407060   -1.845040
  C      8.660690    6.598120   -1.755590
  S      7.969340    5.375950   -0.709190
  C      7.980080    7.679150   -2.287350
  C      6.618700    7.978860   -2.256220
  S      6.170890    9.663720   -2.334580
  C      4.491410    9.341560   -2.028360
  C      4.268690    7.946380   -1.963920
  C      5.455590    7.176500   -2.126890
  C      5.358710    5.784280   -2.264210
  C      4.134120    5.183740   -2.141620
  F      4.031810    3.856330   -2.283760
  C      2.972750    5.941080   -1.891720
  F      1.796610    5.314500   -1.765280
  C      3.027800    7.306730   -1.818080
  C      3.548420   10.361260   -1.870800
  C      3.809990   11.694070   -2.040330
  C      2.870160   12.717530   -1.839480
  S      1.291230   12.367710   -1.193010
  C      0.886200   14.048580   -1.254690
  N     -0.383860   14.445130   -0.813890
  O     -0.650550   15.632410   -0.859860
  O     -1.128220   13.565870   -0.416290
  C      1.891390   14.836160   -1.748380
  C      3.039420   14.099790   -2.095060
  C      4.224190   14.650570   -2.670090
  C      4.410700   15.950500   -2.999200
  C      5.597820   16.440930   -3.604790
  S      6.912270   15.359150   -3.963360
  C      7.811270   16.667060   -4.643020
  N      9.087460   16.398610   -5.155430
  O      9.710000   17.325070   -5.639940
  O      9.480360   15.246500   -5.078210
  C      7.145460   17.864330   -4.598980
  C      5.875170   17.756210   -4.006470
  C      4.962610   18.867660   -3.826290
  C      5.138650   20.089020   -4.321560
  H      5.547600   -4.654480    8.404240
  H      1.804640   -3.107600    9.747840
  H      1.920660   -1.297980    8.051870
  H      6.746460   -3.571610    6.571770
  H      3.115530   -0.173440    6.201620
  H      6.722110    1.447700    2.767600
  H      9.394300    0.013060    3.304300
  H     11.354660    1.173940    2.043210
  H     11.794510    3.135580    0.423070
  H     11.565960    5.057000   -1.084040
  H     10.674700    7.056220   -2.441300
  H      8.615170    8.460710   -2.689000
  H      6.216090    5.178080   -2.498750
  H      2.118740    7.866090   -1.671760
  H      2.546780   10.060940   -1.594630
  H      4.805160   11.980090   -2.351810
  H      1.779810   15.900270   -1.844870
  H      5.029860   13.959570   -2.875340
  H      3.628070   16.670810   -2.818050
  H      7.578870   18.771610   -4.976920
  H      4.077930   18.664300   -3.240540
  H      5.990400   20.358210   -4.920960
  H      4.418730   20.868260   -4.143250

 Total Charge           Charge          ....    0
 Multiplicity           Mult            ....    1
 Number of Electrons    NEL             ....  492
 Basis Dimension        Dim             .... 1059

ORBITAL ENERGIES
----------------

  NO   OCC          E(Eh)            E(eV)
   0   2.0000     -88.990743     -2421.5612
   1   2.0000     -88.988599     -2421.5029
   2   2.0000     -88.984675     -2421.3961
   3   2.0000     -88.973490     -2421.0918
   4   2.0000     -88.966532     -2420.9024
   5   2.0000     -24.801555      -674.8846
   6   2.0000     -24.799539      -674.8298
   7   2.0000     -24.778187      -674.2487
   8   2.0000     -19.246592      -523.7264
   9   2.0000     -19.245762      -523.7038
  10   2.0000     -19.244351      -523.6654
  11   2.0000     -19.244145      -523.6598
  12   2.0000     -19.200582      -522.4744
  13   2.0000     -14.657266      -398.8445
  14   2.0000     -14.655326      -398.7917
  15   2.0000     -14.404217      -391.9587
  16   2.0000     -14.403437      -391.9374
  17   2.0000     -10.385953      -282.6161
  18   2.0000     -10.383908      -282.5605
  19   2.0000     -10.361148      -281.9412
  20   2.0000     -10.355308      -281.7823
  21   2.0000     -10.351317      -281.6737
  22   2.0000     -10.351004      -281.6651
  23   2.0000     -10.340733      -281.3856
  24   2.0000     -10.340453      -281.3780
  25   2.0000     -10.338799      -281.3330
  26   2.0000     -10.336563      -281.2722
  27   2.0000     -10.334690      -281.2212
  28   2.0000     -10.333630      -281.1924
  29   2.0000     -10.333257      -281.1822
  30   2.0000     -10.331375      -281.1310
  31   2.0000     -10.330026      -281.0943
  32   2.0000     -10.329281      -281.0740
  33   2.0000     -10.320003      -280.8216
  34   2.0000     -10.318743      -280.7873
  35   2.0000     -10.317608      -280.7564
  36   2.0000     -10.317038      -280.7409
  37   2.0000     -10.316864      -280.7361
  38   2.0000     -10.315230      -280.6917
  39   2.0000     -10.312335      -280.6129
  40   2.0000     -10.312116      -280.6069
  41   2.0000     -10.311057      -280.5781
  42   2.0000     -10.310826      -280.5718
  43   2.0000     -10.310737      -280.5694
  44   2.0000     -10.310348      -280.5588
  45   2.0000     -10.308773      -280.5160
  46   2.0000     -10.307857      -280.4910
  47   2.0000     -10.307803      -280.4896
  48   2.0000     -10.307665      -280.4858
  49   2.0000     -10.306706      -280.4597
  50   2.0000     -10.304830      -280.4087
  51   2.0000     -10.303680      -280.3774
  52   2.0000     -10.300079      -280.2794
  53   2.0000     -10.296759      -280.1891
  54   2.0000     -10.295542      -280.1559
  55   2.0000     -10.294784      -280.1353
  56   2.0000     -10.291729      -280.0522
  57   2.0000     -10.289556      -279.9931
  58   2.0000     -10.289535      -279.9925
  59   2.0000     -10.288582      -279.9666
  60   2.0000     -10.287594      -279.9397
  61   2.0000     -10.286378      -279.9066
  62   2.0000     -10.282903      -279.8120
  63   2.0000     -10.282578      -279.8032
  64   2.0000     -10.280849      -279.7561
  65   2.0000     -10.278839      -279.7014
  66   2.0000      -8.085936      -220.0295
  67   2.0000      -8.083957      -219.9756
  68   2.0000      -8.079978      -219.8674
  69   2.0000      -8.069610      -219.5852
  70   2.0000      -8.062873      -219.4019
  71   2.0000      -6.054923      -164.7628
  72   2.0000      -6.053357      -164.7202
  73   2.0000      -6.051041      -164.6572
  74   2.0000      -6.049374      -164.6118
  75   2.0000      -6.049168      -164.6062
  76   2.0000      -6.048446      -164.5866
  77   2.0000      -6.045758      -164.5134
  78   2.0000      -6.045151      -164.4969
  79   2.0000      -6.041875      -164.4078
  80   2.0000      -6.039283      -164.3373
  81   2.0000      -6.035115      -164.2238
  82   2.0000      -6.032452      -164.1514
  83   2.0000      -6.030678      -164.1031
  84   2.0000      -6.028442      -164.0422
  85   2.0000      -6.024011      -163.9217
  86   2.0000      -1.326778       -36.1035
  87   2.0000      -1.324913       -36.0527
  88   2.0000      -1.323926       -36.0259
  89   2.0000      -1.308865       -35.6160
  90   2.0000      -1.292976       -35.1837
  91   2.0000      -1.145948       -31.1828
  92   2.0000      -1.143791       -31.1241
  93   2.0000      -1.115558       -30.3559
  94   2.0000      -1.028766       -27.9941
  95   2.0000      -1.024043       -27.8656
  96   2.0000      -1.019559       -27.7436
  97   2.0000      -1.018800       -27.7230
  98   2.0000      -1.007028       -27.4026
  99   2.0000      -0.997383       -27.1402
 100   2.0000      -0.990087       -26.9416
 101   2.0000      -0.982589       -26.7376
 102   2.0000      -0.965851       -26.2821
 103   2.0000      -0.964828       -26.2543
 104   2.0000      -0.944999       -25.7147
 105   2.0000      -0.939461       -25.5640
 106   2.0000      -0.924861       -25.1667
 107   2.0000      -0.920115       -25.0376
 108   2.0000      -0.914144       -24.8751
 109   2.0000      -0.907393       -24.6914
 110   2.0000      -0.894197       -24.3323
 111   2.0000      -0.888025       -24.1644
 112   2.0000      -0.881117       -23.9764
 113   2.0000      -0.874617       -23.7995
 114   2.0000      -0.873182       -23.7605
 115   2.0000      -0.868926       -23.6447
 116   2.0000      -0.858513       -23.3613
 117   2.0000      -0.853726       -23.2311
 118   2.0000      -0.848980       -23.1019
 119   2.0000      -0.844557       -22.9816
 120   2.0000      -0.835223       -22.7276
 121   2.0000      -0.830290       -22.5933
 122   2.0000      -0.824803       -22.4440
 123   2.0000      -0.814111       -22.1531
 124   2.0000      -0.798466       -21.7274
 125   2.0000      -0.787477       -21.4283
 126   2.0000      -0.769977       -20.9521
 127   2.0000      -0.754873       -20.5411
 128   2.0000      -0.754454       -20.5297
 129   2.0000      -0.746243       -20.3063
 130   2.0000      -0.734894       -19.9975
 131   2.0000      -0.719791       -19.5865
 132   2.0000      -0.709526       -19.3072
 133   2.0000      -0.706279       -19.2188
 134   2.0000      -0.700132       -19.0516
 135   2.0000      -0.695292       -18.9198
 136   2.0000      -0.682540       -18.5729
 137   2.0000      -0.679714       -18.4960
 138   2.0000      -0.676685       -18.4135
 139   2.0000      -0.669743       -18.2246
 140   2.0000      -0.667325       -18.1588
 141   2.0000      -0.660205       -17.9651
 142   2.0000      -0.657424       -17.8894
 143   2.0000      -0.646718       -17.5981
 144   2.0000      -0.645972       -17.5778
 145   2.0000      -0.638408       -17.3720
 146   2.0000      -0.636846       -17.3295
 147   2.0000      -0.636448       -17.3186
 148   2.0000      -0.635613       -17.2959
 149   2.0000      -0.632935       -17.2230
 150   2.0000      -0.631912       -17.1952
 151   2.0000      -0.630469       -17.1559
 152   2.0000      -0.627487       -17.0748
 153   2.0000      -0.624160       -16.9842
 154   2.0000      -0.622414       -16.9368
 155   2.0000      -0.621016       -16.8987
 156   2.0000      -0.612053       -16.6548
 157   2.0000      -0.608577       -16.5602
 158   2.0000      -0.591644       -16.0994
 159   2.0000      -0.588651       -16.0180
 160   2.0000      -0.587165       -15.9776
 161   2.0000      -0.586647       -15.9635
 162   2.0000      -0.581535       -15.8244
 163   2.0000      -0.580830       -15.8052
 164   2.0000      -0.571822       -15.5601
 165   2.0000      -0.563875       -15.3438
 166   2.0000      -0.559430       -15.2229
 167   2.0000      -0.557429       -15.1684
 168   2.0000      -0.555737       -15.1224
 169   2.0000      -0.553266       -15.0551
 170   2.0000      -0.550621       -14.9832
 171   2.0000      -0.549708       -14.9583
 172   2.0000      -0.548285       -14.9196
 173   2.0000      -0.545258       -14.8372
 174   2.0000      -0.538948       -14.6655
 175   2.0000      -0.534301       -14.5391
 176   2.0000      -0.532462       -14.4890
 177   2.0000      -0.527388       -14.3509
 178   2.0000      -0.526635       -14.3305
 179   2.0000      -0.524105       -14.2616
 180   2.0000      -0.522635       -14.2216
 181   2.0000      -0.518947       -14.1213
 182   2.0000      -0.515230       -14.0201
 183   2.0000      -0.515009       -14.0141
 184   2.0000      -0.514191       -13.9919
 185   2.0000      -0.510812       -13.8999
 186   2.0000      -0.508295       -13.8314
 187   2.0000      -0.504086       -13.7169
 188   2.0000      -0.502716       -13.6796
 189   2.0000      -0.498542       -13.5660
 190   2.0000      -0.494908       -13.4671
 191   2.0000      -0.490876       -13.3574
 192   2.0000      -0.489896       -13.3307
 193   2.0000      -0.487872       -13.2757
 194   2.0000      -0.485863       -13.2210
 195   2.0000      -0.483993       -13.1701
 196   2.0000      -0.482353       -13.1255
 197   2.0000      -0.481271       -13.0960
 198   2.0000      -0.476664       -12.9707
 199   2.0000      -0.474454       -12.9106
 200   2.0000      -0.470737       -12.8094
 201   2.0000      -0.461973       -12.5709
 202   2.0000      -0.460766       -12.5381
 203   2.0000      -0.458849       -12.4859
 204   2.0000      -0.456012       -12.4087
 205   2.0000      -0.450165       -12.2496
 206   2.0000      -0.449589       -12.2339
 207   2.0000      -0.447130       -12.1670
 208   2.0000      -0.440655       -11.9908
 209   2.0000      -0.439839       -11.9686
 210   2.0000      -0.439226       -11.9519
 211   2.0000      -0.435949       -11.8628
 212   2.0000      -0.433397       -11.7933
 213   2.0000      -0.431871       -11.7518
 214   2.0000      -0.429734       -11.6937
 215   2.0000      -0.422923       -11.5083
 216   2.0000      -0.421791       -11.4775
 217   2.0000      -0.418038       -11.3754
 218   2.0000      -0.417668       -11.3653
 219   2.0000      -0.413144       -11.2422
 220   2.0000      -0.407591       -11.0911
 221   2.0000      -0.401633       -10.9290
 222   2.0000      -0.397571       -10.8184
 223   2.0000      -0.393174       -10.6988
 224   2.0000      -0.391491       -10.6530
 225   2.0000      -0.391117       -10.6428
 226   2.0000      -0.385661       -10.4944
 227   2.0000      -0.383194       -10.4272
 228   2.0000      -0.380583       -10.3562
 229   2.0000      -0.373619       -10.1667
 230   2.0000      -0.371557       -10.1106
 231   2.0000      -0.371297       -10.1035
 232   2.0000      -0.361247        -9.8300
 233   2.0000      -0.360222        -9.8021
 234   2.0000      -0.358249        -9.7484
 235   2.0000      -0.342919        -9.3313
 236   2.0000      -0.335929        -9.1411
 237   2.0000      -0.332186        -9.0392
 238   2.0000      -0.326589        -8.8869
 239   2.0000      -0.324384        -8.8269
 240   2.0000      -0.316246        -8.6055
 241   2.0000      -0.303349        -8.2546
 242   2.0000      -0.290936        -7.9168
 243   2.0000      -0.286627        -7.7995
 244   2.0000      -0.264523        -7.1980
 245   2.0000      -0.224992        -6.1223
 246   0.0000      -0.128666        -3.5012
 247   0.0000      -0.092004        -2.5035
 248   0.0000      -0.076693        -2.0869
 249   0.0000      -0.062407        -1.6982
 250   0.0000      -0.050114        -1.3637

MULLIKEN ATOMIC CHARGES
-----------------------
   0 C :   -0.099971
   1 C :    0.300588
   2 F :   -0.193534
   3 C :   -0.032032
   4 C :   -0.011520
   5 C :    0.101954
   6 C :    0.102719
   7 C :   -0.091144
   8 C :    0.040809
   9 C :    0.003358
  10 C :   -0.084206
  11 C :    0.140569
  12 O :   -0.154121
  13 C :   -0.128480
  14 C :    0.301144
  15 C :   -0.347740
  16 C :   -0.218211
  17 N :    0.155542
  18 C :   -0.176562
  19 N :    0.139767
  20 C :    0.012702
  21 C :    0.008520
  22 C :   -0.022432
  23 C :    0.040082
  24 C :    0.039963
  25 C :   -0.051842
  26 S :    0.107344
  27 C :   -0.036483
  28 C :    0.031274
  29 C :    0.040687
  30 C :   -0.044681
  31 S :    0.102692
  32 C :    0.015919
  33 C :   -0.123901
  34 S :    0.152563
  35 C :   -0.091163
  36 C :    0.126245
  37 C :    0.124340
  38 C :   -0.107451
  39 C :    0.218708
  40 F :   -0.168528
  41 C :    0.232269
  42 F :   -0.167808
  43 C :   -0.115260
  44 C :    0.002276
  45 C :   -0.030681
  46 C :   -0.071623
  47 S :    0.168504
  48 C :    0.007751
  49 N :    0.274407
  50 O :   -0.246068
  51 O :   -0.255177
  52 C :   -0.005043
  53 C :    0.127159
  54 C :   -0.030350
  55 C :    0.010706
  56 C :   -0.082126
  57 S :    0.151128
  58 C :    0.007413
  59 N :    0.272594
  60 O :   -0.243829
  61 O :   -0.261642
  62 C :    0.006067
  63 C :    0.098797
  64 C :   -0.023619
  65 C :   -0.006484
  66 H :   -0.003005
  67 H :    0.001142
  68 H :   -0.010095
  69 H :   -0.006207
  70 H :   -0.014549
  71 H :    0.018384
  72 H :    0.010324
  73 H :    0.005579
  74 H :   -0.003105
  75 H :   -0.003032
  76 H :    0.001436
  77 H :    0.004668
  78 H :    0.006832
  79 H :   -0.004744
  80 H :    0.008033
  81 H :    0.001565
  82 H :    0.009875
  83 H :   -0.005168
  84 H :   -0.010872
  85 H :    0.007240
  86 H :   -0.010409
  87 H :    0.021060
  88 H :    0.032197
Sum of atomic charges:   -0.0000000

LOEWDIN ATOMIC CHARGES
----------------------
   0 C :   -0.043060
   1 C :    0.091117
   2 F :   -0.067375
   3 C :   -0.040144
   4 C :    0.002907
   5 C :   -0.019972
   6 C :    0.002430
   7 C :    0.007107
   8 C :   -0.015113
   9 C :   -0.057448
  10 C :    0.030009
  11 C :    0.077836
  12 O :   -0.155582
  13 C :   -0.100568
  14 C :    0.067879
  15 C :   -0.149073
  16 C :   -0.023393
  17 N :   -0.061411
  18 C :   -0.019067
  19 N :   -0.061952
  20 C :    0.047582
  21 C :   -0.060301
  22 C :   -0.103292
  23 C :   -0.030435
  24 C :   -0.009838
  25 C :   -0.184955
  26 S :    0.407926
  27 C :   -0.157387
  28 C :   -0.035169
  29 C :   -0.016656
  30 C :   -0.155428
  31 S :    0.421033
  32 C :   -0.063478
  33 C :   -0.164872
  34 S :    0.478619
  35 C :   -0.171551
  36 C :   -0.033331
  37 C :   -0.048407
  38 C :   -0.044382
  39 C :    0.066667
  40 F :   -0.046465
  41 C :    0.069445
  42 F :   -0.046358
  43 C :   -0.038600
  44 C :   -0.024884
  45 C :   -0.055841
  46 C :   -0.136947
  47 S :    0.473660
  48 C :   -0.191921
  49 N :    0.272865
  50 O :   -0.212915
  51 O :   -0.221271
  52 C :   -0.004973
  53 C :   -0.064060
  54 C :   -0.011334
  55 C :   -0.038421
  56 C :   -0.143146
  57 S :    0.469749
  58 C :   -0.194718
  59 N :    0.273405
  60 O :   -0.210711
  61 O :   -0.227886
  62 C :   -0.002533
  63 C :   -0.058029
  64 C :   -0.025707
  65 C :   -0.027044
  66 H :    0.042588
  67 H :    0.040650
  68 H :    0.034863
  69 H :    0.038440
  70 H :    0.038328
  71 H :    0.033727
  72 H :    0.038863
  73 H :    0.041695
  74 H :    0.036504
  75 H :    0.036420
  76 H :    0.038547
  77 H :    0.040550
  78 H :    0.031943
  79 H :    0.042373
  80 H :    0.030469
  81 H :    0.026982
  82 H :    0.042467
  83 H :    0.021509
  84 H :    0.032659
  85 H :    0.043338
  86 H :    0.029696
  87 H :    0.023634
  88 H :    0.030920

  Mayer bond orders larger than 0.100000
B(  0-C ,  1-C ) :   1.4400 B(  0-C ,  6-C ) :   1.2052 B(  0-C , 66-H ) :   1.0061
B(  1-C ,  2-F ) :   1.0851 B(  1-C ,  3-C ) :   1.2581 B(  3-C ,  4-C ) :   1.4573
B(  3-C , 67-H ) :   0.9924 B(  4-C ,  5-C ) :   1.2383 B(  4-C , 68-H ) :   0.9965
B(  5-C ,  6-C ) :   1.2585 B(  5-C , 10-C ) :   1.1844 B(  6-C ,  7-C ) :   1.1991
B(  7-C ,  8-C ) :   1.4679 B(  7-C , 69-H ) :   0.9922 B(  8-C ,  9-C ) :   1.2163
B(  8-C , 14-C ) :   0.9896 B(  9-C , 10-C ) :   1.4804 B(  9-C , 11-C ) :   0.9228
B( 10-C , 70-H ) :   1.0150 B( 11-C , 12-O ) :   2.2417 B( 11-C , 13-C ) :   0.9589
B( 13-C , 14-C ) :   1.0794 B( 13-C , 20-C ) :   1.5415 B( 14-C , 15-C ) :   1.6026
B( 15-C , 16-C ) :   1.1704 B( 15-C , 18-C ) :   1.1355 B( 16-C , 17-N ) :   3.0027
B( 18-C , 19-N ) :   2.9710 B( 20-C , 21-C ) :   1.2150 B( 20-C , 71-H ) :   0.9313
B( 21-C , 22-C ) :   1.5007 B( 21-C , 72-H ) :   0.9638 B( 22-C , 23-C ) :   1.1819
B( 22-C , 26-S ) :   1.0796 B( 23-C , 24-C ) :   1.5420 B( 23-C , 73-H ) :   1.0004
B( 24-C , 25-C ) :   1.2217 B( 24-C , 74-H ) :   0.9958 B( 25-C , 26-S ) :   1.0544
B( 25-C , 27-C ) :   1.4485 B( 27-C , 28-C ) :   1.2125 B( 27-C , 31-S ) :   1.0702
B( 28-C , 29-C ) :   1.5559 B( 28-C , 75-H ) :   0.9946 B( 29-C , 30-C ) :   1.1744
B( 29-C , 76-H ) :   0.9991 B( 30-C , 31-S ) :   1.0413 B( 30-C , 32-C ) :   1.5389
B( 32-C , 33-C ) :   1.2325 B( 32-C , 77-H ) :   0.9432 B( 33-C , 34-S ) :   1.1400
B( 33-C , 37-C ) :   1.2778 B( 34-S , 35-C ) :   1.1322 B( 35-C , 36-C ) :   1.2752
B( 35-C , 44-C ) :   1.2530 B( 36-C , 37-C ) :   1.2365 B( 36-C , 43-C ) :   1.1857
B( 37-C , 38-C ) :   1.1814 B( 38-C , 39-C ) :   1.4998 B( 38-C , 43-C ) :   0.1076
B( 38-C , 78-H ) :   0.9782 B( 39-C , 40-F ) :   1.1351 B( 39-C , 41-C ) :   1.1704
B( 41-C , 42-F ) :   1.1402 B( 41-C , 43-C ) :   1.4858 B( 43-C , 79-H ) :   0.9980
B( 44-C , 45-C ) :   1.5632 B( 44-C , 80-H ) :   0.9626 B( 45-C , 46-C ) :   1.2338
B( 45-C , 81-H ) :   0.9686 B( 46-C , 47-S ) :   1.1153 B( 46-C , 53-C ) :   1.3511
B( 47-S , 48-C ) :   1.1078 B( 48-C , 49-N ) :   0.9591 B( 48-C , 52-C ) :   1.5039
B( 49-N , 50-O ) :   1.5304 B( 49-N , 51-O ) :   1.5165 B( 50-O , 51-O ) :   0.2659
B( 52-C , 53-C ) :   1.2148 B( 52-C , 82-H ) :   0.9962 B( 53-C , 54-C ) :   1.1275
B( 54-C , 55-C ) :   1.6727 B( 54-C , 83-H ) :   0.9678 B( 55-C , 56-C ) :   1.1656
B( 55-C , 84-H ) :   0.9714 B( 56-C , 57-S ) :   1.1170 B( 56-C , 63-C ) :   1.4150
B( 57-S , 58-C ) :   1.1168 B( 58-C , 59-N ) :   0.9584 B( 58-C , 62-C ) :   1.5013
B( 59-N , 60-O ) :   1.5373 B( 59-N , 61-O ) :   1.5153 B( 60-O , 61-O ) :   0.2649
B( 62-C , 63-C ) :   1.2229 B( 62-C , 85-H ) :   0.9971 B( 63-C , 64-C ) :   1.0842
B( 64-C , 65-C ) :   1.9577 B( 64-C , 86-H ) :   0.9623 B( 65-C , 87-H ) :   0.9533
B( 65-C , 88-H ) :   0.9466

-----------------------------------------------------------------------------
         ABSORPTION SPECTRUM VIA TRANSITION ELECTRIC DIPOLE MOMENTS
-----------------------------------------------------------------------------
State   Energy  Wavelength   fosc         T2         TX        TY        TZ
        (cm-1)    (nm)                  (au**2)     (au)      (au)      (au)
-----------------------------------------------------------------------------
   0    8419.4   1187.7   1.410048519  55.13519  -1.76493   6.47367  -3.17991
   1   15341.6    651.8   0.031026311   0.66579  -0.52380   0.10332   0.61705
   2   17262.0    579.3   0.282920714   5.39573  -1.68234   0.76037   1.40972
   3   20557.2    486.4   0.187424071   3.00149  -1.45613  -0.71068   0.61328
   4   22038.2    453.8   0.169994447   2.53942   1.39128   0.03927  -0.77603
   5   22467.5    445.1   0.548592886   8.03842  -1.98602  -1.90587   0.67956
   6   23104.1    432.8   0.041764428   0.59510   0.31646  -0.55459  -0.43288
   7   24454.5    408.9   0.107653151   1.44925  -0.76319  -0.68479   0.63075
   8   25122.7    398.0   0.127579492   1.67182   0.97340  -0.12442  -0.84192
   9   25534.2    391.6   0.189578990   2.44424   1.18520   0.92300  -0.43314
  10   26059.9    383.7   0.024849461   0.31392  -0.27397   0.48864  -0.00967
  11   26815.5    372.9   0.034179133   0.41961   0.28738   0.15311  -0.55998
  12   27726.9    360.7   0.402232822   4.77587   1.85042   0.51612  -1.04184
  13   28131.6    355.5   0.044629249   0.52228   0.67576   0.22724   0.11826
  14   28663.8    348.9   0.123955947   1.42367  -0.00722  -1.19158  -0.06122
  15   29782.2    335.8   0.071106932   0.78602  -0.73322  -0.18724   0.46189
  16   29841.3    335.1   0.084686220   0.93427   0.83289  -0.30584  -0.38344
  17   30428.8    328.6   0.036974568   0.40003  -0.32894  -0.54021  -0.00053
  18   31025.2    322.3   0.234679058   2.49020  -0.90919  -0.99946   0.81526
  19   31279.0    319.7   0.053832636   0.56659  -0.39906  -0.47978   0.42089
  20   31491.3    317.5   0.092013901   0.96192   0.39606   0.60036  -0.66680
  21   31736.6    315.1   0.141325953   1.46601   0.95709  -0.53215  -0.51654
  22   32207.7    310.5   0.022703539   0.23206  -0.01496  -0.46285  -0.13270
  23   32928.1    303.7   0.069042531   0.69028   0.82724  -0.03948  -0.06624
  24   33011.7    302.9   0.050159312   0.50022   0.25832   0.59084  -0.29052
  25   33520.8    298.3   0.025452146   0.24997  -0.44334   0.22756   0.04046
  26   33577.0    297.8   0.071541606   0.70144  -0.67332   0.12820   0.48129
  27   33966.1    294.4   0.003142934   0.03046  -0.11556  -0.06462   0.11372
  28   34113.4    293.1   0.076765437   0.74083  -0.53142  -0.49408   0.46294
  29   35112.8    284.8   0.010389835   0.09741   0.27787   0.09361  -0.10695
  30   35551.1    281.3   0.005360434   0.04964   0.07443   0.17090   0.12203
  31   35978.5    277.9   0.012943759   0.11844  -0.18492   0.22927   0.17798
  32   36119.9    276.9   0.230227385   2.09839   0.96699  -0.11031  -1.07292
  33   36528.1    273.8   0.347512127   3.13197   1.50872  -0.41282  -0.82784
  34   36755.0    272.1   0.130160951   1.16584  -0.67517  -0.39183   0.74596
  35   36899.6    271.0   0.034594786   0.30865   0.04872  -0.53150  -0.15423
  36   37225.6    268.6   0.009844848   0.08706  -0.24623  -0.14578  -0.07200
  37   37526.7    266.5   0.019350719   0.16976  -0.36926  -0.05156   0.17536
  38   37897.9    263.9   0.006477246   0.05627  -0.02144   0.21941  -0.08755
  39   38009.0    263.1   0.063758501   0.55224  -0.41356  -0.56256   0.25444
  40   38382.0    260.5   0.004214816   0.03615   0.04953  -0.18074   0.03209
  41   38756.1    258.0   0.191288623   1.62489  -0.08200   1.27088  -0.05496
  42   38958.5    256.7   0.039731405   0.33574   0.54118   0.08234  -0.18996
  43   39416.7    253.7   0.040969396   0.34218   0.25543   0.46765  -0.24132
  44   39705.3    251.9   0.265377852   2.20035  -0.99977   1.08803   0.13035
  45   40250.6    248.4   0.026738720   0.21870  -0.42982   0.17292   0.06365

FINAL SINGLE POINT ENERGY     -4762.329176524796

DIPOLE MOMENT
-------------
                                X             Y             Z
Electronic contribution:    -12.46433     -30.82329       2.72385
Nuclear contribution   :     13.32201      34.02061      -3.45897
                        -----------------------------------------
Total Dipole Moment    :      0.85769       3.19732      -0.73512
                        -----------------------------------------
Magnitude (a.u.)       :      3.39100
Magnitude (Debye)      :      8.61925

Rotational constants in cm-1:     0.001527     0.000259     0.000232
Rotational constants in MHz :    45.770984     7.760977     6.957542

                             ****ORCA TERMINATED NORMALLY****
TOTAL RUN TIME: 0 days 0 hours 7 minutes 59 seconds 209 msec
