                         Program Version 4.2.0 -  RELEASE  -
|  1> # ORCA input file
|  2> # SCF done       -207.672475125193          0.000692706250
|  3> ! CAM-B3LYP def2-SVP def2/J RIJCOSX Grid4 TightSCF
|  4> %maxcore 5000
|  5> %tddft
|  6>     Mode sTDDFT
|  7>     Ethresh 5.0
|  8>     maxcore 5000
|  9> end
| 10>
| 11> %pal
| 12>   nprocs 6
| 13>   end
| 14> * xyz 0 1
| 15>    C       -5.74919        -2.71436         2.04737
| 16>    C       -6.55619        -3.81521         1.92100
| 17>    C       -6.15928        -5.12645         2.25330
| 18>    N       -5.88532        -6.21012         2.51530
| 19>    C       -7.86430        -3.78371         1.39248
| 20>    N       -8.91686        -3.83954         0.93776
| 21>    C       -4.35122        -2.71393         2.45753
| 22>    C       -3.83142        -1.40665         2.29039
| 23>    C       -2.53196        -1.08474         2.59780
| 24>    C       -1.70542        -2.10087         3.08934
| 25>    C       -2.23474        -3.40312         3.25348
| 26>    C       -3.54972        -3.72909         2.94472
| 27>    S       -1.04574        -4.50179         3.88418
| 28>    C        0.13032        -3.21507         3.91830
| 29>    C       -0.34031        -2.02359         3.47931
| 30>   Br        1.86807        -3.56514         4.53042
| 31>    C       -4.89492        -0.50862         1.79500
| 32>    O       -4.80309         0.69018         1.63510
| 33>    C       -6.10673        -1.35880         1.68617
| 34>    C       -7.37245        -0.87883         1.51372
| 35>    C       -7.69855         0.39792         0.98448
| 36>    C       -8.83738         1.09680         1.45129
| 37>    C       -9.14940         2.42452         1.00588
| 38>    N      -10.18998         3.07652         1.52797
| 39>    C      -10.93051         2.48372         2.44178
| 40>    C      -10.63063         1.15465         2.87155
| 41>    N       -9.60262         0.50417         2.38472
| 42>    C      -11.45058         0.52828         3.84593
| 43>    N      -12.13345         0.06509         4.63971
| 44>    C      -12.03050         3.18632         2.99008
| 45>    N      -12.92463         3.73781         3.44776
| 46>    C       -8.36629         3.09954         0.00798
| 47>    C       -7.30691         2.33505        -0.54321
| 48>    C       -6.97475         1.01747        -0.05726
| 49>    N       -5.97567         0.47431        -0.74811
| 50>    S       -5.46676         1.51309        -1.85413
| 51>    N       -6.51074         2.70301        -1.54049
| 52>    C       -8.69468         4.41983        -0.30407
| 53>    C       -8.18342         5.30799        -1.23266
| 54>    C       -8.65235         6.64216        -1.32460
| 55>    C       -8.06731         7.38423        -2.30648
| 56>    C       -7.11987         6.65571        -3.05263
| 57>    S       -6.96676         5.01808        -2.44578
| 58>    C       -6.38660         7.10756        -4.13857
| 59>    C       -6.36028         8.41055        -4.68276
| 60>    C       -5.55095         8.54770        -5.76868
| 61>    C       -4.89798         7.34928        -6.15211
| 62>    S       -5.34684         6.04365        -5.05151
| 63>    C       -4.06122         7.18797        -7.21903
| 64>    N       -3.47608         6.00671        -7.53768
| 65>    C       -2.71877         5.71108        -8.62659
| 66>    S       -1.65639         4.33848        -8.52526
| 67>    C       -1.06669         4.69432       -10.11893
| 68>    N       -0.09666         3.82355       -10.63990
| 69>    O        0.36638         4.07311       -11.73273
| 70>    O        0.21078         2.88168        -9.92890
| 71>    C       -1.64738         5.79236       -10.68477
| 72>    C       -2.61489         6.39406        -9.84891
| 73>    C       -3.45206         7.48334       -10.26430
| 74>    C       -3.13359         8.36332       -11.24151
| 75>    C       -4.02640         9.38891       -11.64288
| 76>    C       -3.91490        10.24353       -12.69467
| 77>    C       -3.02357        10.28870       -13.83627
| 78>    C       -2.41073         9.22461       -14.44478
| 79>    C       -1.62385         9.33668       -15.61135
| 80>    N       -0.96591         9.37722       -16.55024
| 81>    C       -2.56553         7.88023       -14.04891
| 82>    N       -2.68340         6.76898       -13.78615
| 83>    C       -3.07901        11.64557       -14.37162
| 84>    C       -4.13094        12.34940       -13.73044
| 85>    C       -4.74561        11.48086       -12.71069
| 86>    O       -5.68723        11.72307       -11.99073
| 87>    C       -4.45435        13.64592       -14.05088
| 88>    C       -3.69938        14.28160       -15.04191
| 89>    C       -2.64185        13.57543       -15.66583
| 90>    C       -2.31879        12.26211       -15.34734
| 91>    S       -1.83236        14.55277       -16.85099
| 92>    C       -2.91147        15.87753       -16.50215
| 93>    C       -3.83093        15.60419       -15.54545
| 94>   Br       -2.72033        17.49534       -17.43007
| 95>    H       -2.16324        -0.07973         2.46446
| 96>    H       -3.91144        -4.73264         3.09536
| 97>    H        0.24876        -1.12582         3.43444
| 98>    H       -8.21703        -1.46588         1.85354
| 99>    H       -9.50434         4.81554         0.29914
|100>    H       -9.40936         7.01194        -0.65587
|101>    H       -8.30670         8.41193        -2.51155
|102>    H       -6.93442         9.21164        -4.25483
|103>    H       -5.40671         9.46439        -6.31136
|104>    H       -3.82101         8.03679        -7.83974
|105>    H       -3.56688         5.26999        -6.84498
|106>    H       -1.43647         6.10498       -11.69213
|107>    H       -4.42881         7.55420        -9.80342
|108>    H       -2.15895         8.32057       -11.70226
|109>    H       -4.88140         9.57384       -10.99924
|110>    H       -5.26458        14.15451       -13.55246
|111>    H       -1.50045        11.76820       -15.84441
|112>    H       -4.57162        16.30579       -15.20782
|113> *
|114>
|115>                          ****END OF INPUT****

CARTESIAN COORDINATES (ANGSTROEM)
---------------------------------
  C     -5.749190   -2.714360    2.047370
  C     -6.556190   -3.815210    1.921000
  C     -6.159280   -5.126450    2.253300
  N     -5.885320   -6.210120    2.515300
  C     -7.864300   -3.783710    1.392480
  N     -8.916860   -3.839540    0.937760
  C     -4.351220   -2.713930    2.457530
  C     -3.831420   -1.406650    2.290390
  C     -2.531960   -1.084740    2.597800
  C     -1.705420   -2.100870    3.089340
  C     -2.234740   -3.403120    3.253480
  C     -3.549720   -3.729090    2.944720
  S     -1.045740   -4.501790    3.884180
  C      0.130320   -3.215070    3.918300
  C     -0.340310   -2.023590    3.479310
  Br     1.868070   -3.565140    4.530420
  C     -4.894920   -0.508620    1.795000
  O     -4.803090    0.690180    1.635100
  C     -6.106730   -1.358800    1.686170
  C     -7.372450   -0.878830    1.513720
  C     -7.698550    0.397920    0.984480
  C     -8.837380    1.096800    1.451290
  C     -9.149400    2.424520    1.005880
  N    -10.189980    3.076520    1.527970
  C    -10.930510    2.483720    2.441780
  C    -10.630630    1.154650    2.871550
  N     -9.602620    0.504170    2.384720
  C    -11.450580    0.528280    3.845930
  N    -12.133450    0.065090    4.639710
  C    -12.030500    3.186320    2.990080
  N    -12.924630    3.737810    3.447760
  C     -8.366290    3.099540    0.007980
  C     -7.306910    2.335050   -0.543210
  C     -6.974750    1.017470   -0.057260
  N     -5.975670    0.474310   -0.748110
  S     -5.466760    1.513090   -1.854130
  N     -6.510740    2.703010   -1.540490
  C     -8.694680    4.419830   -0.304070
  C     -8.183420    5.307990   -1.232660
  C     -8.652350    6.642160   -1.324600
  C     -8.067310    7.384230   -2.306480
  C     -7.119870    6.655710   -3.052630
  S     -6.966760    5.018080   -2.445780
  C     -6.386600    7.107560   -4.138570
  C     -6.360280    8.410550   -4.682760
  C     -5.550950    8.547700   -5.768680
  C     -4.897980    7.349280   -6.152110
  S     -5.346840    6.043650   -5.051510
  C     -4.061220    7.187970   -7.219030
  N     -3.476080    6.006710   -7.537680
  C     -2.718770    5.711080   -8.626590
  S     -1.656390    4.338480   -8.525260
  C     -1.066690    4.694320  -10.118930
  N     -0.096660    3.823550  -10.639900
  O      0.366380    4.073110  -11.732730
  O      0.210780    2.881680   -9.928900
  C     -1.647380    5.792360  -10.684770
  C     -2.614890    6.394060   -9.848910
  C     -3.452060    7.483340  -10.264300
  C     -3.133590    8.363320  -11.241510
  C     -4.026400    9.388910  -11.642880
  C     -3.914900   10.243530  -12.694670
  C     -3.023570   10.288700  -13.836270
  C     -2.410730    9.224610  -14.444780
  C     -1.623850    9.336680  -15.611350
  N     -0.965910    9.377220  -16.550240
  C     -2.565530    7.880230  -14.048910
  N     -2.683400    6.768980  -13.786150
  C     -3.079010   11.645570  -14.371620
  C     -4.130940   12.349400  -13.730440
  C     -4.745610   11.480860  -12.710690
  O     -5.687230   11.723070  -11.990730
  C     -4.454350   13.645920  -14.050880
  C     -3.699380   14.281600  -15.041910
  C     -2.641850   13.575430  -15.665830
  C     -2.318790   12.262110  -15.347340
  S     -1.832360   14.552770  -16.850990
  C     -2.911470   15.877530  -16.502150
  C     -3.830930   15.604190  -15.545450
  Br    -2.720330   17.495340  -17.430070
  H     -2.163240   -0.079730    2.464460
  H     -3.911440   -4.732640    3.095360
  H      0.248760   -1.125820    3.434440
  H     -8.217030   -1.465880    1.853540
  H     -9.504340    4.815540    0.299140
  H     -9.409360    7.011940   -0.655870
  H     -8.306700    8.411930   -2.511550
  H     -6.934420    9.211640   -4.254830
  H     -5.406710    9.464390   -6.311360
  H     -3.821010    8.036790   -7.839740
  H     -3.566880    5.269990   -6.844980
  H     -1.436470    6.104980  -11.692130
  H     -4.428810    7.554200   -9.803420
  H     -2.158950    8.320570  -11.702260
  H     -4.881400    9.573840  -10.999240
  H     -5.264580   14.154510  -13.552460
  H     -1.500450   11.768200  -15.844410
  H     -4.571620   16.305790  -15.207820

 Total Charge           Charge          ....    0
 Multiplicity           Mult            ....    1
 Number of Electrons    NEL             ....  636
 Basis Dimension        Dim             .... 1270

ORBITAL ENERGIES
----------------

  NO   OCC          E(Eh)            E(eV)
   0   2.0000    -482.896284    -13140.2759
   1   2.0000    -482.880681    -13139.8513
   2   2.0000     -89.034527     -2422.7526
   3   2.0000     -89.009304     -2422.0663
   4   2.0000     -88.992284     -2421.6032
   5   2.0000     -88.988309     -2421.4950
   6   2.0000     -88.976630     -2421.1772
   7   2.0000     -88.968823     -2420.9647
   8   2.0000     -62.574011     -1702.7254
   9   2.0000     -62.558387     -1702.3002
  10   2.0000     -56.407975     -1534.9390
  11   2.0000     -56.405233     -1534.8644
  12   2.0000     -56.405204     -1534.8636
  13   2.0000     -56.392327     -1534.5132
  14   2.0000     -56.389630     -1534.4398
  15   2.0000     -56.389593     -1534.4388
  16   2.0000     -19.253841      -523.9237
  17   2.0000     -19.253262      -523.9079
  18   2.0000     -19.231984      -523.3289
  19   2.0000     -19.203652      -522.5579
  20   2.0000     -14.665288      -399.0628
  21   2.0000     -14.528957      -395.3530
  22   2.0000     -14.457561      -393.4102
  23   2.0000     -14.453770      -393.3071
  24   2.0000     -14.450552      -393.2195
  25   2.0000     -14.439027      -392.9059
  26   2.0000     -14.434770      -392.7901
  27   2.0000     -14.431267      -392.6947
  28   2.0000     -14.422431      -392.4543
  29   2.0000     -14.419242      -392.3675
  30   2.0000     -14.404236      -391.9592
  31   2.0000     -14.401041      -391.8722
  32   2.0000     -10.400809      -283.0204
  33   2.0000     -10.382617      -282.5254
  34   2.0000     -10.382222      -282.5146
  35   2.0000     -10.376123      -282.3487
  36   2.0000     -10.371377      -282.2195
  37   2.0000     -10.368236      -282.1340
  38   2.0000     -10.364439      -282.0307
  39   2.0000     -10.362450      -281.9766
  40   2.0000     -10.360604      -281.9264
  41   2.0000     -10.359861      -281.9061
  42   2.0000     -10.354529      -281.7611
  43   2.0000     -10.352628      -281.7093
  44   2.0000     -10.348923      -281.6085
  45   2.0000     -10.345172      -281.5064
  46   2.0000     -10.343563      -281.4627
  47   2.0000     -10.343222      -281.4534
  48   2.0000     -10.341041      -281.3940
  49   2.0000     -10.339856      -281.3618
  50   2.0000     -10.338022      -281.3119
  51   2.0000     -10.334509      -281.2163
  52   2.0000     -10.334138      -281.2062
  53   2.0000     -10.333956      -281.2012
  54   2.0000     -10.333267      -281.1825
  55   2.0000     -10.332713      -281.1674
  56   2.0000     -10.329754      -281.0869
  57   2.0000     -10.329534      -281.0809
  58   2.0000     -10.328834      -281.0619
  59   2.0000     -10.328617      -281.0560
  60   2.0000     -10.327403      -281.0229
  61   2.0000     -10.326037      -280.9857
  62   2.0000     -10.324538      -280.9450
  63   2.0000     -10.322324      -280.8847
  64   2.0000     -10.321794      -280.8703
  65   2.0000     -10.320617      -280.8383
  66   2.0000     -10.317594      -280.7560
  67   2.0000     -10.316472      -280.7255
  68   2.0000     -10.316125      -280.7160
  69   2.0000     -10.315528      -280.6998
  70   2.0000     -10.315338      -280.6946
  71   2.0000     -10.315236      -280.6919
  72   2.0000     -10.314171      -280.6629
  73   2.0000     -10.308940      -280.5205
  74   2.0000     -10.308477      -280.5079
  75   2.0000     -10.307246      -280.4744
  76   2.0000     -10.305358      -280.4230
  77   2.0000     -10.304177      -280.3909
  78   2.0000     -10.302228      -280.3379
  79   2.0000     -10.300373      -280.2874
  80   2.0000     -10.299906      -280.2747
  81   2.0000     -10.298407      -280.2339
  82   2.0000     -10.296715      -280.1879
  83   2.0000     -10.292536      -280.0741
  84   2.0000     -10.291989      -280.0593
  85   2.0000     -10.290653      -280.0229
  86   2.0000     -10.283249      -279.8214
  87   2.0000     -10.282972      -279.8139
  88   2.0000      -8.803456      -239.5542
  89   2.0000      -8.787814      -239.1286
  90   2.0000      -8.126117      -221.1229
  91   2.0000      -8.105063      -220.5500
  92   2.0000      -8.088623      -220.1026
  93   2.0000      -8.084348      -219.9863
  94   2.0000      -8.070627      -219.6129
  95   2.0000      -8.064784      -219.4539
  96   2.0000      -6.639829      -180.6789
  97   2.0000      -6.625154      -180.2796
  98   2.0000      -6.624944      -180.2739
  99   2.0000      -6.624059      -180.2498
 100   2.0000      -6.609572      -179.8556
 101   2.0000      -6.609389      -179.8506
 102   2.0000      -6.097363      -165.9177
 103   2.0000      -6.089629      -165.7072
 104   2.0000      -6.088457      -165.6753
 105   2.0000      -6.074829      -165.3045
 106   2.0000      -6.070294      -165.1811
 107   2.0000      -6.066398      -165.0751
 108   2.0000      -6.058374      -164.8567
 109   2.0000      -6.054318      -164.7464
 110   2.0000      -6.054037      -164.7387
 111   2.0000      -6.049738      -164.6218
 112   2.0000      -6.049541      -164.6164
 113   2.0000      -6.045569      -164.5083
 114   2.0000      -6.040359      -164.3665
 115   2.0000      -6.035899      -164.2452
 116   2.0000      -6.034492      -164.2069
 117   2.0000      -6.032045      -164.1403
 118   2.0000      -6.030200      -164.0901
 119   2.0000      -6.026010      -163.9761
 120   2.0000      -2.755658       -74.9853
 121   2.0000      -2.751624       -74.8755
 122   2.0000      -2.751379       -74.8688
 123   2.0000      -2.739961       -74.5581
 124   2.0000      -2.739759       -74.5526
 125   2.0000      -2.739741       -74.5522
 126   2.0000      -2.735863       -74.4466
 127   2.0000      -2.735730       -74.4430
 128   2.0000      -2.724205       -74.1294
 129   2.0000      -2.724200       -74.1292
 130   2.0000      -1.335607       -36.3437
 131   2.0000      -1.155452       -31.4414
 132   2.0000      -1.147047       -31.2127
 133   2.0000      -1.135768       -30.9058
 134   2.0000      -1.131226       -30.7822
 135   2.0000      -1.117803       -30.4170
 136   2.0000      -1.113394       -30.2970
 137   2.0000      -1.039677       -28.2910
 138   2.0000      -1.038932       -28.2708
 139   2.0000      -1.036157       -28.1953
 140   2.0000      -1.029187       -28.0056
 141   2.0000      -1.026090       -27.9213
 142   2.0000      -1.013808       -27.5871
 143   2.0000      -1.011996       -27.5378
 144   2.0000      -1.007070       -27.4038
 145   2.0000      -1.005662       -27.3655
 146   2.0000      -1.004912       -27.3450
 147   2.0000      -1.002315       -27.2744
 148   2.0000      -0.995508       -27.0891
 149   2.0000      -0.989301       -26.9202
 150   2.0000      -0.981672       -26.7126
 151   2.0000      -0.978832       -26.6354
 152   2.0000      -0.971583       -26.4381
 153   2.0000      -0.962666       -26.1955
 154   2.0000      -0.950238       -25.8573
 155   2.0000      -0.934583       -25.4313
 156   2.0000      -0.932911       -25.3858
 157   2.0000      -0.923690       -25.1349
 158   2.0000      -0.917324       -24.9617
 159   2.0000      -0.911519       -24.8037
 160   2.0000      -0.901889       -24.5416
 161   2.0000      -0.900527       -24.5046
 162   2.0000      -0.899418       -24.4744
 163   2.0000      -0.897191       -24.4138
 164   2.0000      -0.886435       -24.1211
 165   2.0000      -0.881110       -23.9762
 166   2.0000      -0.878654       -23.9094
 167   2.0000      -0.877108       -23.8673
 168   2.0000      -0.865024       -23.5385
 169   2.0000      -0.854720       -23.2581
 170   2.0000      -0.848297       -23.0833
 171   2.0000      -0.842987       -22.9388
 172   2.0000      -0.841562       -22.9001
 173   2.0000      -0.824137       -22.4259
 174   2.0000      -0.820756       -22.3339
 175   2.0000      -0.819841       -22.3090
 176   2.0000      -0.808251       -21.9936
 177   2.0000      -0.790778       -21.5182
 178   2.0000      -0.786295       -21.3962
 179   2.0000      -0.779117       -21.2009
 180   2.0000      -0.773127       -21.0379
 181   2.0000      -0.755564       -20.5600
 182   2.0000      -0.747281       -20.3346
 183   2.0000      -0.738644       -20.0995
 184   2.0000      -0.732653       -19.9365
 185   2.0000      -0.725399       -19.7391
 186   2.0000      -0.719599       -19.5813
 187   2.0000      -0.713374       -19.4119
 188   2.0000      -0.705230       -19.1903
 189   2.0000      -0.701943       -19.1008
 190   2.0000      -0.696461       -18.9517
 191   2.0000      -0.693555       -18.8726
 192   2.0000      -0.687569       -18.7097
 193   2.0000      -0.682434       -18.5700
 194   2.0000      -0.681114       -18.5341
 195   2.0000      -0.673506       -18.3270
 196   2.0000      -0.670172       -18.2363
 197   2.0000      -0.661140       -17.9905
 198   2.0000      -0.659156       -17.9365
 199   2.0000      -0.655050       -17.8248
 200   2.0000      -0.651664       -17.7327
 201   2.0000      -0.650492       -17.7008
 202   2.0000      -0.646688       -17.5973
 203   2.0000      -0.645852       -17.5745
 204   2.0000      -0.639655       -17.4059
 205   2.0000      -0.639036       -17.3891
 206   2.0000      -0.627948       -17.0873
 207   2.0000      -0.621393       -16.9090
 208   2.0000      -0.618238       -16.8231
 209   2.0000      -0.616923       -16.7873
 210   2.0000      -0.614689       -16.7265
 211   2.0000      -0.613295       -16.6886
 212   2.0000      -0.607784       -16.5387
 213   2.0000      -0.599543       -16.3144
 214   2.0000      -0.598765       -16.2932
 215   2.0000      -0.587567       -15.9885
 216   2.0000      -0.586833       -15.9685
 217   2.0000      -0.582811       -15.8591
 218   2.0000      -0.577092       -15.7035
 219   2.0000      -0.574526       -15.6336
 220   2.0000      -0.570825       -15.5329
 221   2.0000      -0.567082       -15.4311
 222   2.0000      -0.564031       -15.3481
 223   2.0000      -0.562027       -15.2935
 224   2.0000      -0.554829       -15.0977
 225   2.0000      -0.553530       -15.0623
 226   2.0000      -0.552170       -15.0253
 227   2.0000      -0.548425       -14.9234
 228   2.0000      -0.546239       -14.8639
 229   2.0000      -0.540419       -14.7055
 230   2.0000      -0.539273       -14.6744
 231   2.0000      -0.532879       -14.5004
 232   2.0000      -0.530961       -14.4482
 233   2.0000      -0.530035       -14.4230
 234   2.0000      -0.528241       -14.3742
 235   2.0000      -0.525176       -14.2908
 236   2.0000      -0.523285       -14.2393
 237   2.0000      -0.522225       -14.2105
 238   2.0000      -0.521218       -14.1831
 239   2.0000      -0.514631       -14.0038
 240   2.0000      -0.513389       -13.9700
 241   2.0000      -0.511231       -13.9113
 242   2.0000      -0.508798       -13.8451
 243   2.0000      -0.507713       -13.8156
 244   2.0000      -0.504276       -13.7221
 245   2.0000      -0.503183       -13.6923
 246   2.0000      -0.501012       -13.6332
 247   2.0000      -0.497905       -13.5487
 248   2.0000      -0.493990       -13.4422
 249   2.0000      -0.492860       -13.4114
 250   2.0000      -0.487576       -13.2676
 251   2.0000      -0.485177       -13.2023
 252   2.0000      -0.482342       -13.1252
 253   2.0000      -0.480092       -13.0640
 254   2.0000      -0.477456       -12.9922
 255   2.0000      -0.476789       -12.9741
 256   2.0000      -0.474759       -12.9188
 257   2.0000      -0.472869       -12.8674
 258   2.0000      -0.470922       -12.8144
 259   2.0000      -0.469591       -12.7782
 260   2.0000      -0.465748       -12.6737
 261   2.0000      -0.465452       -12.6656
 262   2.0000      -0.463776       -12.6200
 263   2.0000      -0.461699       -12.5635
 264   2.0000      -0.459764       -12.5108
 265   2.0000      -0.457455       -12.4480
 266   2.0000      -0.451514       -12.2863
 267   2.0000      -0.451197       -12.2777
 268   2.0000      -0.448365       -12.2006
 269   2.0000      -0.446597       -12.1525
 270   2.0000      -0.445406       -12.1201
 271   2.0000      -0.443396       -12.0654
 272   2.0000      -0.441748       -12.0206
 273   2.0000      -0.439182       -11.9507
 274   2.0000      -0.438327       -11.9275
 275   2.0000      -0.437113       -11.8944
 276   2.0000      -0.435216       -11.8428
 277   2.0000      -0.432755       -11.7759
 278   2.0000      -0.429736       -11.6937
 279   2.0000      -0.429086       -11.6760
 280   2.0000      -0.426100       -11.5948
 281   2.0000      -0.419404       -11.4126
 282   2.0000      -0.417932       -11.3725
 283   2.0000      -0.414638       -11.2829
 284   2.0000      -0.413004       -11.2384
 285   2.0000      -0.409044       -11.1307
 286   2.0000      -0.405543       -11.0354
 287   2.0000      -0.403156       -10.9704
 288   2.0000      -0.401553       -10.9268
 289   2.0000      -0.401213       -10.9176
 290   2.0000      -0.400206       -10.8902
 291   2.0000      -0.396605       -10.7922
 292   2.0000      -0.396480       -10.7888
 293   2.0000      -0.394052       -10.7227
 294   2.0000      -0.386139       -10.5074
 295   2.0000      -0.385504       -10.4901
 296   2.0000      -0.381803       -10.3894
 297   2.0000      -0.381065       -10.3693
 298   2.0000      -0.376215       -10.2373
 299   2.0000      -0.370123       -10.0716
 300   2.0000      -0.368249       -10.0206
 301   2.0000      -0.366833        -9.9820
 302   2.0000      -0.364359        -9.9147
 303   2.0000      -0.360136        -9.7998
 304   2.0000      -0.355567        -9.6755
 305   2.0000      -0.353282        -9.6133
 306   2.0000      -0.351413        -9.5624
 307   2.0000      -0.344682        -9.3793
 308   2.0000      -0.339844        -9.2476
 309   2.0000      -0.329392        -8.9632
 310   2.0000      -0.327410        -8.9093
 311   2.0000      -0.320988        -8.7345
 312   2.0000      -0.308556        -8.3962
 313   2.0000      -0.306986        -8.3535
 314   2.0000      -0.305958        -8.3255
 315   2.0000      -0.287272        -7.8171
 316   2.0000      -0.281761        -7.6671
 317   2.0000      -0.232251        -6.3199
 318   0.0000      -0.135904        -3.6981
 319   0.0000      -0.109823        -2.9884
 320   0.0000      -0.083830        -2.2811
 321   0.0000      -0.074631        -2.0308
 322   0.0000      -0.071996        -1.9591

MULLIKEN ATOMIC CHARGES
-----------------------
   0 C :    0.291221
   1 C :   -0.339300
   2 C :   -0.184807
   3 N :    0.143761
   4 C :   -0.205041
   5 N :    0.164185
   6 C :    0.019836
   7 C :   -0.013472
   8 C :   -0.080783
   9 C :    0.121044
  10 C :   -0.087164
  11 C :   -0.027437
  12 S :    0.182969
  13 C :   -0.123684
  14 C :    0.035695
  15 Br:    0.017779
  16 C :    0.154816
  17 O :   -0.162772
  18 C :   -0.071502
  19 C :   -0.071373
  20 C :    0.043399
  21 C :   -0.037464
  22 C :   -0.056359
  23 N :    0.046748
  24 C :   -0.152166
  25 C :   -0.119104
  26 N :    0.048920
  27 C :   -0.206088
  28 N :    0.237183
  29 C :   -0.214374
  30 N :    0.229265
  31 C :    0.125336
  32 C :    0.058632
  33 C :    0.038079
  34 N :   -0.273159
  35 S :    0.524970
  36 N :   -0.338919
  37 C :   -0.144735
  38 C :    0.026996
  39 C :    0.019954
  40 C :    0.047086
  41 C :   -0.043545
  42 S :    0.151877
  43 C :   -0.039383
  44 C :    0.025221
  45 C :    0.053825
  46 C :   -0.060342
  47 S :    0.085223
  48 C :    0.044715
  49 N :   -0.016787
  50 C :   -0.104342
  51 S :    0.187477
  52 C :   -0.004289
  53 N :    0.278025
  54 O :   -0.228161
  55 O :   -0.260902
  56 C :    0.027052
  57 C :    0.090282
  58 C :   -0.038741
  59 C :    0.017590
  60 C :    0.012103
  61 C :   -0.097747
  62 C :    0.279920
  63 C :   -0.332766
  64 C :   -0.178893
  65 N :    0.161068
  66 C :   -0.183273
  67 N :    0.150707
  68 C :    0.001947
  69 C :   -0.003106
  70 C :    0.139616
  71 O :   -0.143847
  72 C :   -0.066868
  73 C :    0.112124
  74 C :   -0.087991
  75 C :   -0.017049
  76 S :    0.193474
  77 C :   -0.124176
  78 C :    0.040604
  79 Br:    0.032240
  80 H :   -0.018132
  81 H :   -0.007167
  82 H :   -0.006908
  83 H :    0.042691
  84 H :    0.009178
  85 H :    0.003905
  86 H :   -0.006256
  87 H :    0.000505
  88 H :    0.005353
  89 H :    0.038192
  90 H :    0.151565
  91 H :    0.018719
  92 H :    0.018638
  93 H :    0.024099
  94 H :    0.012092
  95 H :   -0.007000
  96 H :    0.000088
  97 H :   -0.000613
Sum of atomic charges:   -0.0000000

LOEWDIN ATOMIC CHARGES
----------------------
   0 C :    0.074436
   1 C :   -0.140250
   2 C :   -0.017886
   3 N :   -0.058660
   4 C :   -0.024172
   5 N :   -0.051989
   6 C :   -0.019095
   7 C :   -0.046827
   8 C :    0.016751
   9 C :   -0.034553
  10 C :   -0.145211
  11 C :   -0.011306
  12 S :    0.429980
  13 C :   -0.273762
  14 C :   -0.071869
  15 Br:    0.132503
  16 C :    0.082588
  17 O :   -0.154209
  18 C :   -0.090216
  19 C :    0.081814
  20 C :   -0.077528
  21 C :    0.019534
  22 C :   -0.013220
  23 N :    0.000710
  24 C :   -0.047981
  25 C :   -0.015136
  26 N :   -0.011512
  27 C :   -0.032806
  28 N :   -0.002050
  29 C :   -0.039254
  30 N :   -0.018438
  31 C :   -0.003192
  32 C :   -0.042579
  33 C :   -0.020348
  34 N :   -0.274359
  35 S :    0.650374
  36 N :   -0.298231
  37 C :   -0.046642
  38 C :   -0.114316
  39 C :   -0.035014
  40 C :   -0.013213
  41 C :   -0.209416
  42 S :    0.460161
  43 C :   -0.135727
  44 C :   -0.042158
  45 C :   -0.003911
  46 C :   -0.196221
  47 S :    0.373087
  48 C :    0.027632
  49 N :    0.054471
  50 C :   -0.101061
  51 S :    0.464010
  52 C :   -0.198685
  53 N :    0.273125
  54 O :   -0.195852
  55 O :   -0.226885
  56 C :    0.018095
  57 C :   -0.104241
  58 C :    0.014599
  59 C :   -0.026468
  60 C :    0.061149
  61 C :   -0.087677
  62 C :    0.071756
  63 C :   -0.136955
  64 C :   -0.020538
  65 N :   -0.041522
  66 C :   -0.013935
  67 N :   -0.049628
  68 C :   -0.020004
  69 C :   -0.053653
  70 C :    0.083705
  71 O :   -0.143419
  72 C :    0.024633
  73 C :   -0.031155
  74 C :   -0.142266
  75 C :   -0.009307
  76 S :    0.438350
  77 C :   -0.269174
  78 C :   -0.069982
  79 Br:    0.143395
  80 H :    0.037885
  81 H :    0.040663
  82 H :    0.037261
  83 H :    0.046803
  84 H :    0.043058
  85 H :    0.039417
  86 H :    0.033748
  87 H :    0.038402
  88 H :    0.040553
  89 H :    0.044237
  90 H :    0.090961
  91 H :    0.048611
  92 H :    0.034947
  93 H :    0.035089
  94 H :    0.042731
  95 H :    0.042424
  96 H :    0.042026
  97 H :    0.039995

  Mayer bond orders larger than 0.100000
B(  0-C ,  1-C ) :   1.6421 B(  0-C ,  6-C ) :   1.0014 B(  0-C , 18-C ) :   1.0725
B(  1-C ,  2-C ) :   1.1383 B(  1-C ,  4-C ) :   1.1437 B(  2-C ,  3-N ) :   2.9725
B(  4-C ,  5-N ) :   2.9982 B(  6-C ,  7-C ) :   1.2782 B(  6-C , 11-C ) :   1.4115
B(  7-C ,  8-C ) :   1.4258 B(  7-C , 16-C ) :   0.9453 B(  8-C ,  9-C ) :   1.2427
B(  8-C , 80-H ) :   1.0171 B(  9-C , 10-C ) :   1.3122 B(  9-C , 14-C ) :   1.1586
B( 10-C , 11-C ) :   1.3253 B( 10-C , 12-S ) :   1.0824 B( 11-C , 81-H ) :   0.9814
B( 12-S , 13-C ) :   1.0871 B( 13-C , 14-C ) :   1.6194 B( 13-C , 15-Br) :   1.0161
B( 14-C , 82-H ) :   1.0009 B( 16-C , 17-O ) :   2.2056 B( 16-C , 18-C ) :   0.9566
B( 18-C , 19-C ) :   1.5586 B( 19-C , 20-C ) :   1.2055 B( 19-C , 83-H ) :   0.9316
B( 20-C , 21-C ) :   1.2332 B( 20-C , 33-C ) :   1.1854 B( 21-C , 22-C ) :   1.1349
B( 21-C , 26-N ) :   1.4630 B( 22-C , 23-N ) :   1.5128 B( 22-C , 31-C ) :   1.1419
B( 23-N , 24-C ) :   1.6736 B( 24-C , 25-C ) :   1.2416 B( 24-C , 29-C ) :   1.1574
B( 25-C , 26-N ) :   1.7219 B( 25-C , 27-C ) :   1.1506 B( 27-C , 28-N ) :   3.0490
B( 29-C , 30-N ) :   3.0483 B( 31-C , 32-C ) :   1.1309 B( 31-C , 37-C ) :   1.3644
B( 32-C , 33-C ) :   1.1230 B( 32-C , 36-N ) :   1.4830 B( 33-C , 34-N ) :   1.5325
B( 34-N , 35-S ) :   1.2628 B( 34-N , 36-N ) :   0.1377 B( 35-S , 36-N ) :   1.2447
B( 37-C , 38-C ) :   1.3668 B( 37-C , 84-H ) :   0.9450 B( 38-C , 39-C ) :   1.1936
B( 38-C , 42-S ) :   1.1096 B( 39-C , 40-C ) :   1.5289 B( 39-C , 85-H ) :   1.0047
B( 40-C , 41-C ) :   1.2193 B( 40-C , 86-H ) :   0.9934 B( 41-C , 42-S ) :   1.0103
B( 41-C , 43-C ) :   1.4511 B( 43-C , 44-C ) :   1.2105 B( 43-C , 47-S ) :   1.0849
B( 44-C , 45-C ) :   1.5825 B( 44-C , 87-H ) :   0.9937 B( 45-C , 46-C ) :   1.1655
B( 45-C , 88-H ) :   0.9956 B( 46-C , 47-S ) :   1.0054 B( 46-C , 48-C ) :   1.5743
B( 48-C , 49-N ) :   1.1902 B( 48-C , 89-H ) :   0.9536 B( 49-N , 50-C ) :   1.1832
B( 49-N , 90-H ) :   0.9013 B( 50-C , 51-S ) :   1.1467 B( 50-C , 57-C ) :   1.3664
B( 51-S , 52-C ) :   1.0776 B( 52-C , 53-N ) :   0.9562 B( 52-C , 56-C ) :   1.5186
B( 53-N , 54-O ) :   1.5498 B( 53-N , 55-O ) :   1.5092 B( 54-O , 55-O ) :   0.2661
B( 56-C , 57-C ) :   1.2299 B( 56-C , 91-H ) :   0.9874 B( 57-C , 58-C ) :   1.0564
B( 58-C , 59-C ) :   1.6866 B( 58-C , 92-H ) :   0.9741 B( 59-C , 60-C ) :   1.1206
B( 59-C , 93-H ) :   0.9611 B( 60-C , 61-C ) :   1.6398 B( 60-C , 94-H ) :   0.9494
B( 61-C , 62-C ) :   1.0296 B( 61-C , 70-C ) :   0.9359 B( 62-C , 63-C ) :   1.6471
B( 62-C , 68-C ) :   1.0161 B( 63-C , 64-C ) :   1.1255 B( 63-C , 66-C ) :   1.1682
B( 64-C , 65-N ) :   2.9878 B( 66-C , 67-N ) :   2.9492 B( 68-C , 69-C ) :   1.2718
B( 68-C , 75-C ) :   1.4092 B( 69-C , 70-C ) :   0.9295 B( 69-C , 72-C ) :   1.4203
B( 70-C , 71-O ) :   2.2614 B( 72-C , 73-C ) :   1.2518 B( 72-C , 95-H ) :   1.0175
B( 73-C , 74-C ) :   1.3028 B( 73-C , 78-C ) :   1.1653 B( 74-C , 75-C ) :   1.3292
B( 74-C , 76-S ) :   1.0886 B( 75-C , 96-H ) :   0.9828 B( 76-S , 77-C ) :   1.0884
B( 77-C , 78-C ) :   1.6159 B( 77-C , 79-Br) :   1.0235 B( 78-C , 97-H ) :   1.0002

-----------------------------------------------------------------------------
         ABSORPTION SPECTRUM VIA TRANSITION ELECTRIC DIPOLE MOMENTS
-----------------------------------------------------------------------------
State   Energy  Wavelength   fosc         T2         TX        TY        TZ
        (cm-1)    (nm)                  (au**2)     (au)      (au)      (au)
-----------------------------------------------------------------------------
   0    7364.4   1357.9   0.841894348  37.63519  -1.22956  -4.00629   4.48029
   1   16150.9    619.2   0.269421458   5.49176  -0.93554  -0.49308   2.09127
   2   17927.7    557.8   0.268999761   4.93974   1.17315   0.22986  -1.87367
   3   19061.5    524.6   0.117005184   2.02080   0.15256   0.89053  -1.09749
   4   20130.9    496.7   0.702885774  11.49468   2.58996  -1.87130  -1.13359
   5   21193.2    471.8   0.081002383   1.25828   0.79383   0.25524  -0.75031
   6   22758.9    439.4   0.065022921   0.94057   0.32030  -0.07780  -0.91210
   7   23862.8    419.1   0.170022286   2.34563   0.24031  -1.12779   1.00796
   8   24205.1    413.1   0.124797029   1.69736   1.09295  -0.63869  -0.30805
   9   24699.9    404.9   0.207529094   2.76605   0.86405  -0.88654   1.11063
  10   25273.4    395.7   0.024749113   0.32238  -0.38285   0.41013  -0.08722
  11   25408.1    393.6   0.087482425   1.13351  -0.63444  -0.70494   0.48379
  12   25486.1    392.4   0.029383434   0.37956   0.08821   0.60485  -0.07704
  13   26168.7    382.1   0.048176435   0.60608   0.65449  -0.30114  -0.29502
  14   26512.1    377.2   0.156559450   1.94406   0.10959  -1.35950   0.28949
  15   27022.0    370.1   0.034924138   0.42548  -0.62934  -0.15060   0.08204
  16   27476.9    363.9   0.020529013   0.24597   0.25232  -0.42041  -0.07454
  17   27708.5    360.9   0.001855192   0.02204   0.01320   0.07269   0.12878
  18   28080.8    356.1   0.012190827   0.14292   0.28194   0.23981  -0.07697
  19   28828.2    346.9   0.052801356   0.60298  -0.11566   0.65572  -0.39955
  20   29113.9    343.5   0.157355491   1.77933   0.55806  -1.18829   0.23635
  21   29716.3    336.5   0.003707696   0.04108  -0.14263  -0.09252   0.11033
  22   29933.8    334.1   0.022807494   0.25084  -0.00967  -0.50056  -0.01357
  23   30369.6    329.3   0.259943800   2.81784  -1.67857  -0.01133  -0.00984
  24   30555.4    327.3   0.214398472   2.30999  -1.04697  -0.48734  -0.98810
  25   30672.9    326.0   0.430369679   4.61915   1.73747  -0.57139  -1.12865
  26   30729.9    325.4   0.137501853   1.47307  -0.36831  -0.70470   0.91696
  27   31359.0    318.9   0.131979682   1.38555  -1.00961   0.43976  -0.41574
  28   31509.8    317.4   0.039873049   0.41659  -0.33040   0.00809   0.55440
  29   31941.9    313.1   0.067914861   0.69997   0.40204  -0.52485   0.51271
  30   32104.7    311.5   0.060732196   0.62277  -0.11345  -0.28817   0.72585
  31   32286.6    309.7   0.095755561   0.97638  -0.21822   0.95832  -0.10189
  32   32382.5    308.8   0.150405533   1.52908   0.07605  -1.23177  -0.07771
  33   32418.5    308.5   0.147907908   1.50201   0.11421  -1.04364   0.63229
  34   32623.0    306.5   0.082056246   0.82806  -0.85090   0.32034   0.03762
  35   32939.1    303.6   0.540150429   5.39857   0.77106  -2.19151   0.03665
  36   33153.4    301.6   0.309765737   3.07596   0.19665  -1.56469   0.76748
  37   33278.2    300.5   0.026344811   0.26062  -0.08637  -0.02792  -0.50238
  38   33726.0    296.5   0.107545210   1.04979  -0.93553  -0.02918   0.41681
  39   34285.3    291.7   0.013295935   0.12767  -0.17141   0.24012  -0.20157
  40   34946.7    286.2   0.001421310   0.01339   0.10378   0.00793   0.05055
  41   35136.8    284.6   0.069088247   0.64732  -0.34500   0.72590   0.03697
  42   35220.4    283.9   0.187679280   1.75427  -0.60620  -1.01866   0.59088
  43   35330.5    283.0   0.248425274   2.31484   1.07676   0.97590   0.45061
  44   35559.4    281.2   0.038804739   0.35926  -0.53418   0.16377  -0.21699
  45   36445.5    274.4   0.001094205   0.00988  -0.00548  -0.09395   0.03205
  46   36651.2    272.8   0.028723812   0.25801  -0.50634   0.03557  -0.01907
  47   36737.5    272.2   0.029372311   0.26321  -0.41198  -0.06912   0.29784
  48   37024.1    270.1   0.026901881   0.23921   0.47976   0.02490   0.09174
  49   37185.3    268.9   0.072350432   0.64054   0.79515  -0.08971  -0.01497
  50   37362.4    267.6   0.097226914   0.85670   0.48855   0.74554  -0.24939
  51   37582.6    266.1   0.055167851   0.48325   0.01696   0.67355  -0.17116
  52   37819.9    264.4   0.006818014   0.05935  -0.21218   0.09674  -0.07048
  53   37888.4    263.9   0.045201404   0.39275   0.06533  -0.55030   0.29268
  54   38083.7    262.6   0.073700848   0.63710   0.17801   0.77307   0.08819
  55   38369.0    260.6   0.008866270   0.07607  -0.05902   0.22452  -0.14893
  56   38488.5    259.8   0.134705149   1.15220  -0.88257   0.09996   0.60273
  57   39030.5    256.2   0.069003711   0.58203   0.73541   0.05650  -0.19496
  58   39300.1    254.5   0.025092494   0.21020  -0.36893   0.26117   0.07669
  59   39378.9    253.9   0.004835479   0.04043  -0.12573   0.09476   0.12505
  60   39473.6    253.3   0.001837147   0.01532   0.07362  -0.09940  -0.00460
  61   39606.7    252.5   0.045809034   0.38077  -0.32640  -0.04964   0.52131
  62   39895.7    250.7   0.010438731   0.08614   0.14643   0.08875  -0.23837
  63   40044.1    249.7   0.009125051   0.07502   0.16610  -0.10528  -0.19065
  64   40087.5    249.5   0.178575512   1.46652  -0.91841   0.38706   0.68791
  65   40287.9    248.2   0.032525380   0.26578  -0.46157   0.06150   0.22125

FINAL SINGLE POINT ENERGY    -10634.885277068330

DIPOLE MOMENT
-------------
                                X             Y             Z
Electronic contribution:     82.28782      18.53256     -15.49100
Nuclear contribution   :    -79.59982     -10.33805      11.97757
                        -----------------------------------------
Total Dipole Moment    :      2.68800       8.19451      -3.51343
                        -----------------------------------------
Magnitude (a.u.)       :      9.31233
Magnitude (Debye)      :     23.67006

Rotational constants in cm-1:     0.000853     0.000135     0.000122
Rotational constants in MHz :    25.561796     4.054050     3.656724

                             ****ORCA TERMINATED NORMALLY****
TOTAL RUN TIME: 0 days 0 hours 11 minutes 28 seconds 448 msec
