                         Program Version 4.2.0 -  RELEASE  -
|  1> # ORCA input file
|  2> # SCF done       -171.321739946400          0.000520539474
|  3> ! CAM-B3LYP def2-SVP def2/J RIJCOSX Grid4 TightSCF
|  4> %maxcore 5000
|  5> %tddft
|  6>     Mode sTDDFT
|  7>     Ethresh 5.0
|  8>     maxcore 5000
|  9> end
| 10>
| 11> %pal
| 12>   nprocs 6
| 13>   end
| 14> * xyz 0 1
| 15>    C      -14.71978       -16.03081        -4.18492
| 16>    C      -13.43694       -15.70180        -3.77749
| 17>    C      -12.34251       -16.57446        -3.83608
| 18>    N      -11.39565       -17.23106        -3.84883
| 19>    C      -13.02902       -14.47491        -3.23125
| 20>    N      -12.57227       -13.52808        -2.76029
| 21>    C      -15.10360       -17.34830        -4.69798
| 22>    C      -16.48591       -17.32598        -4.99350
| 23>    C      -17.15752       -18.41455        -5.48620
| 24>    C      -16.42689       -19.59153        -5.69778
| 25>    C      -15.04846       -19.60428        -5.39925
| 26>    C      -14.36794       -18.49788        -4.90087
| 27>    S      -14.33753       -21.15811        -5.72979
| 28>    C      -15.88735       -21.75811        -6.25725
| 29>    C      -16.88383       -20.84587        -6.19097
| 30>   Br      -16.03943       -23.53556        -6.84606
| 31>    C      -17.02100       -15.97815        -4.67749
| 32>    O      -18.18060       -15.63033        -4.82097
| 33>    C      -15.88012       -15.20378        -4.17859
| 34>    C      -15.95049       -13.86499        -3.78117
| 35>    C      -17.10174       -13.11261        -3.79340
| 36>    C      -17.17608       -11.77323        -3.40818
| 37>    C      -18.33014       -10.97884        -3.41042
| 38>    C      -18.12321        -9.68717        -2.98740
| 39>    C      -16.79664        -9.41925        -2.63654
| 40>    S      -15.80672       -10.84530        -2.85155
| 41>    C      -16.26168        -8.21162        -2.17771
| 42>    C      -16.93539        -6.99948        -1.97456
| 43>    C      -16.12482        -5.98688        -1.52234
| 44>    C      -14.78502        -6.35992        -1.34922
| 45>    S      -14.57550        -8.04749        -1.78070
| 46>    C      -13.73335        -5.56252        -0.91359
| 47>    C      -12.43409        -6.01208        -0.76723
| 48>    C      -11.37322        -5.22926        -0.35134
| 49>    C      -10.08143        -5.72686        -0.21734
| 50>    O       -9.79909        -7.03486        -0.47736
| 51>    C       -8.47442        -7.24564        -0.27001
| 52>    C       -7.88241        -6.03656         0.13331
| 53>    C       -8.89176        -5.07786         0.17062
| 54>    O       -8.78501        -3.77601         0.50677
| 55>    O       -6.57775        -5.78788         0.44542
| 56>    C       -7.91646        -8.51740        -0.45285
| 57>    C       -8.66412        -9.60946        -0.82703
| 58>    C       -8.16205       -10.89829        -1.00141
| 59>    C       -8.96763       -11.96317        -1.34212
| 60>    C       -8.55053       -13.28132        -1.51181
| 61>    C       -9.39464       -14.34909        -1.81869
| 62>    C       -8.64146       -15.51511        -1.90200
| 63>    C       -7.29261       -15.23656        -1.66021
| 64>    C       -7.12696       -13.78459        -1.38484
| 65>    C       -6.53870       -16.40412        -1.75639
| 66>    C       -7.38556       -17.46693        -2.06369
| 67>    C       -8.80320       -16.96451        -2.17182
| 68>    C       -6.98592       -18.79897        -2.23874
| 69>    C       -7.82934       -19.82819        -2.56803
| 70>    C       -7.44993       -21.17133        -2.73365
| 71>    C       -6.19703       -21.74640        -2.59186
| 72>    C       -6.29719       -23.12277        -2.84503
| 73>    C       -7.60423       -23.46016        -3.15356
| 74>    C       -8.45165       -22.24263        -3.11139
| 75>    C       -7.70083       -24.84558        -3.40369
| 76>    C       -6.45836       -25.41035        -3.25766
| 77>    C       -5.45206       -24.34416        -2.88616
| 78>    C       -6.06786       -26.78037        -3.40945
| 79>    C       -6.87820       -27.79301        -3.72838
| 80>    H      -18.21356       -18.36571        -5.70084
| 81>    H      -13.31373       -18.56243        -4.69116
| 82>    H      -17.90054       -21.04515        -6.47705
| 83>    H      -15.03920       -13.38510        -3.44374
| 84>    H      -18.02217       -13.57248        -4.12335
| 85>    H      -19.28249       -11.36987        -3.72139
| 86>    H      -18.89735        -8.94333        -2.92713
| 87>    H      -17.98807        -6.88899        -2.16187
| 88>    H      -16.46658        -4.98844        -1.31241
| 89>    H      -13.96235        -4.52998        -0.68287
| 90>    H      -12.22860        -7.04914        -0.99786
| 91>    H      -11.51370        -4.18507        -0.11603
| 92>    H       -7.86157        -3.59708         0.72791
| 93>    H       -6.06632        -6.59742         0.34565
| 94>    H       -6.85397        -8.62678        -0.27867
| 95>    H       -9.72222        -9.45502        -0.98711
| 96>    H       -7.10260       -11.05893        -0.84833
| 97>    H      -10.02428       -11.77530        -1.48430
| 98>    H      -10.45524       -14.25696        -1.96932
| 99>    H       -6.46615       -13.30121        -2.10677
|100>    H       -6.72251       -13.60007        -0.38774
|101>    H       -5.47443       -16.48694        -1.62189
|102>    H       -9.45830       -17.44494        -1.44304
|103>    H       -9.24300       -17.14978        -3.15375
|104>    H       -5.93311       -19.00812        -2.10352
|105>    H       -8.87685       -19.60316        -2.71987
|106>    H       -5.29395       -21.22643        -2.32851
|107>    H       -9.25275       -22.31596        -2.37332
|108>    H       -8.91759       -22.02502        -4.07451
|109>    H       -8.60332       -25.36687        -3.66550
|110>    H       -4.65486       -24.27621        -3.62926
|111>    H       -4.98373       -24.56054        -1.92368
|112>    H       -5.01568       -26.98144        -3.24435
|113>    H       -7.93017       -27.64877        -3.90288
|114>    H       -6.50969       -28.79927        -3.82350
|115> *
|116>
|117>                          ****END OF INPUT****

CARTESIAN COORDINATES (ANGSTROEM)
---------------------------------
  C    -14.719780  -16.030810   -4.184920
  C    -13.436940  -15.701800   -3.777490
  C    -12.342510  -16.574460   -3.836080
  N    -11.395650  -17.231060   -3.848830
  C    -13.029020  -14.474910   -3.231250
  N    -12.572270  -13.528080   -2.760290
  C    -15.103600  -17.348300   -4.697980
  C    -16.485910  -17.325980   -4.993500
  C    -17.157520  -18.414550   -5.486200
  C    -16.426890  -19.591530   -5.697780
  C    -15.048460  -19.604280   -5.399250
  C    -14.367940  -18.497880   -4.900870
  S    -14.337530  -21.158110   -5.729790
  C    -15.887350  -21.758110   -6.257250
  C    -16.883830  -20.845870   -6.190970
  Br   -16.039430  -23.535560   -6.846060
  C    -17.021000  -15.978150   -4.677490
  O    -18.180600  -15.630330   -4.820970
  C    -15.880120  -15.203780   -4.178590
  C    -15.950490  -13.864990   -3.781170
  C    -17.101740  -13.112610   -3.793400
  C    -17.176080  -11.773230   -3.408180
  C    -18.330140  -10.978840   -3.410420
  C    -18.123210   -9.687170   -2.987400
  C    -16.796640   -9.419250   -2.636540
  S    -15.806720  -10.845300   -2.851550
  C    -16.261680   -8.211620   -2.177710
  C    -16.935390   -6.999480   -1.974560
  C    -16.124820   -5.986880   -1.522340
  C    -14.785020   -6.359920   -1.349220
  S    -14.575500   -8.047490   -1.780700
  C    -13.733350   -5.562520   -0.913590
  C    -12.434090   -6.012080   -0.767230
  C    -11.373220   -5.229260   -0.351340
  C    -10.081430   -5.726860   -0.217340
  O     -9.799090   -7.034860   -0.477360
  C     -8.474420   -7.245640   -0.270010
  C     -7.882410   -6.036560    0.133310
  C     -8.891760   -5.077860    0.170620
  O     -8.785010   -3.776010    0.506770
  O     -6.577750   -5.787880    0.445420
  C     -7.916460   -8.517400   -0.452850
  C     -8.664120   -9.609460   -0.827030
  C     -8.162050  -10.898290   -1.001410
  C     -8.967630  -11.963170   -1.342120
  C     -8.550530  -13.281320   -1.511810
  C     -9.394640  -14.349090   -1.818690
  C     -8.641460  -15.515110   -1.902000
  C     -7.292610  -15.236560   -1.660210
  C     -7.126960  -13.784590   -1.384840
  C     -6.538700  -16.404120   -1.756390
  C     -7.385560  -17.466930   -2.063690
  C     -8.803200  -16.964510   -2.171820
  C     -6.985920  -18.798970   -2.238740
  C     -7.829340  -19.828190   -2.568030
  C     -7.449930  -21.171330   -2.733650
  C     -6.197030  -21.746400   -2.591860
  C     -6.297190  -23.122770   -2.845030
  C     -7.604230  -23.460160   -3.153560
  C     -8.451650  -22.242630   -3.111390
  C     -7.700830  -24.845580   -3.403690
  C     -6.458360  -25.410350   -3.257660
  C     -5.452060  -24.344160   -2.886160
  C     -6.067860  -26.780370   -3.409450
  C     -6.878200  -27.793010   -3.728380
  H    -18.213560  -18.365710   -5.700840
  H    -13.313730  -18.562430   -4.691160
  H    -17.900540  -21.045150   -6.477050
  H    -15.039200  -13.385100   -3.443740
  H    -18.022170  -13.572480   -4.123350
  H    -19.282490  -11.369870   -3.721390
  H    -18.897350   -8.943330   -2.927130
  H    -17.988070   -6.888990   -2.161870
  H    -16.466580   -4.988440   -1.312410
  H    -13.962350   -4.529980   -0.682870
  H    -12.228600   -7.049140   -0.997860
  H    -11.513700   -4.185070   -0.116030
  H     -7.861570   -3.597080    0.727910
  H     -6.066320   -6.597420    0.345650
  H     -6.853970   -8.626780   -0.278670
  H     -9.722220   -9.455020   -0.987110
  H     -7.102600  -11.058930   -0.848330
  H    -10.024280  -11.775300   -1.484300
  H    -10.455240  -14.256960   -1.969320
  H     -6.466150  -13.301210   -2.106770
  H     -6.722510  -13.600070   -0.387740
  H     -5.474430  -16.486940   -1.621890
  H     -9.458300  -17.444940   -1.443040
  H     -9.243000  -17.149780   -3.153750
  H     -5.933110  -19.008120   -2.103520
  H     -8.876850  -19.603160   -2.719870
  H     -5.293950  -21.226430   -2.328510
  H     -9.252750  -22.315960   -2.373320
  H     -8.917590  -22.025020   -4.074510
  H     -8.603320  -25.366870   -3.665500
  H     -4.654860  -24.276210   -3.629260
  H     -4.983730  -24.560540   -1.923680
  H     -5.015680  -26.981440   -3.244350
  H     -7.930170  -27.648770   -3.902880
  H     -6.509690  -28.799270   -3.823500

 Total Charge           Charge          ....    0
 Multiplicity           Mult            ....    1
 Number of Electrons    NEL             ....  494
 Basis Dimension        Dim             .... 1115

ORBITAL ENERGIES
----------------

  NO   OCC          E(Eh)            E(eV)
   0   2.0000    -482.865549    -13139.4396
   1   2.0000     -88.951391     -2420.4904
   2   2.0000     -88.949996     -2420.4524
   3   2.0000     -88.938351     -2420.1356
   4   2.0000     -62.543239     -1701.8880
   5   2.0000     -56.377159     -1534.1005
   6   2.0000     -56.374509     -1534.0284
   7   2.0000     -56.374454     -1534.0269
   8   2.0000     -19.291563      -524.9501
   9   2.0000     -19.275097      -524.5021
  10   2.0000     -19.271529      -524.4050
  11   2.0000     -19.171213      -521.6752
  12   2.0000     -14.383050      -391.3827
  13   2.0000     -14.381780      -391.3481
  14   2.0000     -10.356610      -281.8177
  15   2.0000     -10.353752      -281.7399
  16   2.0000     -10.342917      -281.4451
  17   2.0000     -10.336633      -281.2741
  18   2.0000     -10.332924      -281.1732
  19   2.0000     -10.321039      -280.8497
  20   2.0000     -10.318412      -280.7783
  21   2.0000     -10.299184      -280.2551
  22   2.0000     -10.299131      -280.2536
  23   2.0000     -10.298004      -280.2229
  24   2.0000     -10.296499      -280.1820
  25   2.0000     -10.296067      -280.1702
  26   2.0000     -10.294420      -280.1254
  27   2.0000     -10.293030      -280.0876
  28   2.0000     -10.291665      -280.0505
  29   2.0000     -10.290230      -280.0114
  30   2.0000     -10.288735      -279.9707
  31   2.0000     -10.288038      -279.9517
  32   2.0000     -10.285020      -279.8696
  33   2.0000     -10.277708      -279.6707
  34   2.0000     -10.277524      -279.6657
  35   2.0000     -10.276486      -279.6374
  36   2.0000     -10.276216      -279.6301
  37   2.0000     -10.276007      -279.6244
  38   2.0000     -10.275854      -279.6202
  39   2.0000     -10.275503      -279.6106
  40   2.0000     -10.274644      -279.5873
  41   2.0000     -10.273947      -279.5683
  42   2.0000     -10.272966      -279.5416
  43   2.0000     -10.272210      -279.5211
  44   2.0000     -10.271968      -279.5145
  45   2.0000     -10.271888      -279.5123
  46   2.0000     -10.271436      -279.5000
  47   2.0000     -10.271342      -279.4974
  48   2.0000     -10.270168      -279.4655
  49   2.0000     -10.270103      -279.4637
  50   2.0000     -10.269891      -279.4579
  51   2.0000     -10.267792      -279.4008
  52   2.0000     -10.267103      -279.3821
  53   2.0000     -10.266737      -279.3721
  54   2.0000     -10.265391      -279.3355
  55   2.0000     -10.264454      -279.3100
  56   2.0000     -10.264329      -279.3066
  57   2.0000     -10.262681      -279.2618
  58   2.0000     -10.262273      -279.2506
  59   2.0000     -10.262071      -279.2451
  60   2.0000     -10.261883      -279.2400
  61   2.0000     -10.259770      -279.1825
  62   2.0000     -10.258294      -279.1424
  63   2.0000     -10.258226      -279.1405
  64   2.0000     -10.257636      -279.1245
  65   2.0000     -10.257362      -279.1170
  66   2.0000     -10.254542      -279.0403
  67   2.0000     -10.239441      -278.6294
  68   2.0000     -10.238850      -278.6133
  69   2.0000      -8.772626      -238.7153
  70   2.0000      -8.047258      -218.9770
  71   2.0000      -8.045870      -218.9393
  72   2.0000      -8.033980      -218.6157
  73   2.0000      -6.608782      -179.8341
  74   2.0000      -6.594394      -179.4426
  75   2.0000      -6.594300      -179.4400
  76   2.0000      -6.016656      -163.7215
  77   2.0000      -6.015579      -163.6922
  78   2.0000      -6.012673      -163.6131
  79   2.0000      -6.011351      -163.5772
  80   2.0000      -6.008878      -163.5099
  81   2.0000      -6.007126      -163.4622
  82   2.0000      -6.003340      -163.3592
  83   2.0000      -5.999402      -163.2520
  84   2.0000      -5.995700      -163.1513
  85   2.0000      -2.724657       -74.1417
  86   2.0000      -2.720605       -74.0314
  87   2.0000      -2.720590       -74.0310
  88   2.0000      -2.709125       -73.7190
  89   2.0000      -2.709108       -73.7186
  90   2.0000      -1.215478       -33.0749
  91   2.0000      -1.170908       -31.8620
  92   2.0000      -1.153705       -31.3939
  93   2.0000      -1.083657       -29.4878
  94   2.0000      -0.991191       -26.9717
  95   2.0000      -0.991003       -26.9666
  96   2.0000      -0.982333       -26.7306
  97   2.0000      -0.979401       -26.6508
  98   2.0000      -0.977716       -26.6050
  99   2.0000      -0.964741       -26.2519
 100   2.0000      -0.963224       -26.2107
 101   2.0000      -0.952917       -25.9302
 102   2.0000      -0.929712       -25.2988
 103   2.0000      -0.924631       -25.1605
 104   2.0000      -0.916731       -24.9455
 105   2.0000      -0.910093       -24.7649
 106   2.0000      -0.906383       -24.6639
 107   2.0000      -0.900314       -24.4988
 108   2.0000      -0.884813       -24.0770
 109   2.0000      -0.877699       -23.8834
 110   2.0000      -0.872842       -23.7512
 111   2.0000      -0.866185       -23.5701
 112   2.0000      -0.855312       -23.2742
 113   2.0000      -0.853368       -23.2213
 114   2.0000      -0.845830       -23.0162
 115   2.0000      -0.839544       -22.8452
 116   2.0000      -0.838241       -22.8097
 117   2.0000      -0.819285       -22.2939
 118   2.0000      -0.818987       -22.2858
 119   2.0000      -0.817570       -22.2472
 120   2.0000      -0.812883       -22.1197
 121   2.0000      -0.800280       -21.7767
 122   2.0000      -0.797898       -21.7119
 123   2.0000      -0.783856       -21.3298
 124   2.0000      -0.770979       -20.9794
 125   2.0000      -0.763353       -20.7719
 126   2.0000      -0.761983       -20.7346
 127   2.0000      -0.754369       -20.5274
 128   2.0000      -0.739062       -20.1109
 129   2.0000      -0.727341       -19.7920
 130   2.0000      -0.721272       -19.6268
 131   2.0000      -0.715707       -19.4754
 132   2.0000      -0.708946       -19.2914
 133   2.0000      -0.702760       -19.1231
 134   2.0000      -0.685702       -18.6589
 135   2.0000      -0.679576       -18.4922
 136   2.0000      -0.665922       -18.1207
 137   2.0000      -0.663411       -18.0523
 138   2.0000      -0.660345       -17.9689
 139   2.0000      -0.653650       -17.7867
 140   2.0000      -0.652422       -17.7533
 141   2.0000      -0.637826       -17.3561
 142   2.0000      -0.632804       -17.2195
 143   2.0000      -0.629149       -17.1200
 144   2.0000      -0.625386       -17.0176
 145   2.0000      -0.624615       -16.9966
 146   2.0000      -0.622783       -16.9468
 147   2.0000      -0.617236       -16.7959
 148   2.0000      -0.616572       -16.7778
 149   2.0000      -0.603858       -16.4318
 150   2.0000      -0.601413       -16.3653
 151   2.0000      -0.594307       -16.1719
 152   2.0000      -0.592655       -16.1270
 153   2.0000      -0.590759       -16.0754
 154   2.0000      -0.588196       -16.0056
 155   2.0000      -0.579644       -15.7729
 156   2.0000      -0.578288       -15.7360
 157   2.0000      -0.575835       -15.6693
 158   2.0000      -0.572325       -15.5738
 159   2.0000      -0.562903       -15.3174
 160   2.0000      -0.560999       -15.2656
 161   2.0000      -0.559314       -15.2197
 162   2.0000      -0.549904       -14.9636
 163   2.0000      -0.545466       -14.8429
 164   2.0000      -0.539461       -14.6795
 165   2.0000      -0.538409       -14.6508
 166   2.0000      -0.536495       -14.5988
 167   2.0000      -0.533969       -14.5300
 168   2.0000      -0.525934       -14.3114
 169   2.0000      -0.521706       -14.1964
 170   2.0000      -0.514639       -14.0040
 171   2.0000      -0.512018       -13.9327
 172   2.0000      -0.511176       -13.9098
 173   2.0000      -0.508617       -13.8402
 174   2.0000      -0.503621       -13.7042
 175   2.0000      -0.502288       -13.6679
 176   2.0000      -0.501924       -13.6581
 177   2.0000      -0.498730       -13.5711
 178   2.0000      -0.497434       -13.5359
 179   2.0000      -0.496062       -13.4985
 180   2.0000      -0.493852       -13.4384
 181   2.0000      -0.491907       -13.3855
 182   2.0000      -0.488960       -13.3053
 183   2.0000      -0.487825       -13.2744
 184   2.0000      -0.484495       -13.1838
 185   2.0000      -0.483474       -13.1560
 186   2.0000      -0.478183       -13.0120
 187   2.0000      -0.477596       -12.9961
 188   2.0000      -0.473604       -12.8874
 189   2.0000      -0.469756       -12.7827
 190   2.0000      -0.463704       -12.6180
 191   2.0000      -0.462760       -12.5923
 192   2.0000      -0.460342       -12.5265
 193   2.0000      -0.460033       -12.5181
 194   2.0000      -0.459497       -12.5035
 195   2.0000      -0.456675       -12.4268
 196   2.0000      -0.455909       -12.4059
 197   2.0000      -0.454249       -12.3607
 198   2.0000      -0.452962       -12.3257
 199   2.0000      -0.446502       -12.1499
 200   2.0000      -0.445937       -12.1346
 201   2.0000      -0.436706       -11.8834
 202   2.0000      -0.435507       -11.8507
 203   2.0000      -0.432073       -11.7573
 204   2.0000      -0.430030       -11.7017
 205   2.0000      -0.427900       -11.6437
 206   2.0000      -0.426990       -11.6190
 207   2.0000      -0.426020       -11.5926
 208   2.0000      -0.424646       -11.5552
 209   2.0000      -0.419798       -11.4233
 210   2.0000      -0.419241       -11.4081
 211   2.0000      -0.417366       -11.3571
 212   2.0000      -0.415602       -11.3091
 213   2.0000      -0.415474       -11.3056
 214   2.0000      -0.413492       -11.2517
 215   2.0000      -0.412694       -11.2300
 216   2.0000      -0.411003       -11.1840
 217   2.0000      -0.410105       -11.1595
 218   2.0000      -0.405383       -11.0310
 219   2.0000      -0.401296       -10.9198
 220   2.0000      -0.398235       -10.8365
 221   2.0000      -0.392101       -10.6696
 222   2.0000      -0.389918       -10.6102
 223   2.0000      -0.388973       -10.5845
 224   2.0000      -0.387555       -10.5459
 225   2.0000      -0.380355       -10.3500
 226   2.0000      -0.377700       -10.2777
 227   2.0000      -0.372469       -10.1354
 228   2.0000      -0.371518       -10.1095
 229   2.0000      -0.361759        -9.8440
 230   2.0000      -0.357686        -9.7331
 231   2.0000      -0.355596        -9.6763
 232   2.0000      -0.347535        -9.4569
 233   2.0000      -0.336157        -9.1473
 234   2.0000      -0.330932        -9.0051
 235   2.0000      -0.327674        -8.9165
 236   2.0000      -0.315206        -8.5772
 237   2.0000      -0.311790        -8.4842
 238   2.0000      -0.302369        -8.2279
 239   2.0000      -0.292196        -7.9511
 240   2.0000      -0.285816        -7.7774
 241   2.0000      -0.281541        -7.6611
 242   2.0000      -0.266215        -7.2441
 243   2.0000      -0.256410        -6.9773
 244   2.0000      -0.233037        -6.3413
 245   2.0000      -0.203410        -5.5351
 246   2.0000      -0.186730        -5.0812
 247   0.0000      -0.100656        -2.7390
 248   0.0000      -0.066885        -1.8200
 249   0.0000      -0.041670        -1.1339
 250   0.0000      -0.028034        -0.7628
 251   0.0000      -0.014662        -0.3990

MULLIKEN ATOMIC CHARGES
-----------------------
   0 C :    0.337842
   1 C :   -0.405797
   2 C :   -0.176280
   3 N :    0.085181
   4 C :   -0.150562
   5 N :    0.074128
   6 C :    0.013447
   7 C :    0.002810
   8 C :   -0.090729
   9 C :    0.117864
  10 C :   -0.091052
  11 C :   -0.040581
  12 S :    0.153506
  13 C :   -0.123055
  14 C :    0.035400
  15 Br:   -0.003458
  16 C :    0.131241
  17 O :   -0.181506
  18 C :   -0.117405
  19 C :   -0.038584
  20 C :   -0.033385
  21 C :    0.005858
  22 C :    0.003736
  23 C :    0.033324
  24 C :   -0.066878
  25 S :    0.112127
  26 C :   -0.016875
  27 C :   -0.002676
  28 C :    0.052074
  29 C :   -0.060002
  30 S :    0.115822
  31 C :    0.041334
  32 C :   -0.014960
  33 C :   -0.023023
  34 C :    0.086041
  35 O :   -0.230325
  36 C :    0.162057
  37 C :    0.064419
  38 C :    0.115308
  39 O :   -0.163704
  40 O :   -0.203312
  41 C :   -0.122521
  42 C :    0.063856
  43 C :   -0.030220
  44 C :    0.032194
  45 C :   -0.140605
  46 C :    0.011032
  47 C :   -0.115168
  48 C :   -0.087114
  49 C :    0.309230
  50 C :   -0.076328
  51 C :   -0.075155
  52 C :    0.294714
  53 C :   -0.001695
  54 C :    0.005946
  55 C :   -0.095798
  56 C :   -0.039033
  57 C :   -0.117676
  58 C :   -0.124828
  59 C :    0.278808
  60 C :   -0.034964
  61 C :   -0.103735
  62 C :    0.270375
  63 C :    0.009611
  64 C :   -0.014059
  65 H :   -0.022279
  66 H :   -0.023513
  67 H :   -0.010722
  68 H :   -0.003094
  69 H :    0.006264
  70 H :   -0.013472
  71 H :   -0.016634
  72 H :   -0.015638
  73 H :   -0.012618
  74 H :   -0.008323
  75 H :    0.013909
  76 H :    0.006417
  77 H :    0.199881
  78 H :    0.193840
  79 H :   -0.036549
  80 H :    0.011351
  81 H :   -0.023209
  82 H :    0.004245
  83 H :   -0.027718
  84 H :    0.032984
  85 H :    0.031163
  86 H :   -0.037636
  87 H :    0.035804
  88 H :    0.068721
  89 H :   -0.037979
  90 H :   -0.004257
  91 H :   -0.032972
  92 H :    0.036416
  93 H :    0.038991
  94 H :   -0.034249
  95 H :    0.033283
  96 H :    0.031797
  97 H :   -0.022801
  98 H :    0.012252
  99 H :    0.020107
Sum of atomic charges:   -0.0000000

LOEWDIN ATOMIC CHARGES
----------------------
   0 C :    0.072160
   1 C :   -0.205446
   2 C :   -0.000195
   3 N :   -0.118303
   4 C :   -0.007085
   5 N :   -0.112580
   6 C :   -0.013155
   7 C :   -0.042899
   8 C :    0.009346
   9 C :   -0.042559
  10 C :   -0.149901
  11 C :   -0.026495
  12 S :    0.408665
  13 C :   -0.281688
  14 C :   -0.070123
  15 Br:    0.115738
  16 C :    0.078956
  17 O :   -0.173184
  18 C :   -0.137523
  19 C :    0.026723
  20 C :   -0.087101
  21 C :   -0.111825
  22 C :   -0.069238
  23 C :   -0.017963
  24 C :   -0.218391
  25 S :    0.417599
  26 C :   -0.136226
  27 C :   -0.068050
  28 C :   -0.013737
  29 C :   -0.188371
  30 S :    0.419143
  31 C :    0.004709
  32 C :   -0.066484
  33 C :    0.005227
  34 C :   -0.006811
  35 O :   -0.004816
  36 C :    0.048045
  37 C :   -0.040938
  38 C :    0.026448
  39 O :   -0.033536
  40 O :   -0.066257
  41 C :   -0.114440
  42 C :    0.032090
  43 C :   -0.075921
  44 C :    0.025166
  45 C :   -0.055390
  46 C :    0.044516
  47 C :   -0.032730
  48 C :    0.011738
  49 C :   -0.017032
  50 C :   -0.046162
  51 C :    0.015053
  52 C :   -0.018142
  53 C :   -0.041819
  54 C :   -0.007701
  55 C :   -0.037182
  56 C :   -0.006554
  57 C :   -0.036345
  58 C :   -0.019424
  59 C :   -0.012530
  60 C :   -0.019520
  61 C :   -0.025062
  62 C :   -0.014606
  63 C :   -0.034162
  64 C :   -0.040962
  65 H :    0.035827
  66 H :    0.034832
  67 H :    0.035740
  68 H :    0.027015
  69 H :    0.034868
  70 H :    0.032990
  71 H :    0.030337
  72 H :    0.030463
  73 H :    0.033776
  74 H :    0.036556
  75 H :    0.024974
  76 H :    0.043456
  77 H :    0.108771
  78 H :    0.099683
  79 H :    0.021981
  80 H :    0.036923
  81 H :    0.019587
  82 H :    0.042510
  83 H :    0.034153
  84 H :    0.053528
  85 H :    0.052825
  86 H :    0.021498
  87 H :    0.058339
  88 H :    0.059894
  89 H :    0.024228
  90 H :    0.034081
  91 H :    0.022231
  92 H :    0.055757
  93 H :    0.057329
  94 H :    0.023416
  95 H :    0.053703
  96 H :    0.053353
  97 H :    0.026839
  98 H :    0.019935
  99 H :    0.023843

  Mayer bond orders larger than 0.100000
B(  0-C ,  1-C ) :   1.4497 B(  0-C ,  6-C ) :   0.9695 B(  0-C , 18-C ) :   1.2362
B(  1-C ,  2-C ) :   1.1870 B(  1-C ,  4-C ) :   1.1845 B(  2-C ,  3-N ) :   2.8724
B(  4-C ,  5-N ) :   2.8571 B(  6-C ,  7-C ) :   1.2839 B(  6-C , 11-C ) :   1.4352
B(  7-C ,  8-C ) :   1.4500 B(  7-C , 16-C ) :   0.9226 B(  8-C ,  9-C ) :   1.2200
B(  8-C , 65-H ) :   1.0157 B(  9-C , 10-C ) :   1.3397 B(  9-C , 14-C ) :   1.1582
B( 10-C , 11-C ) :   1.3034 B( 10-C , 12-S ) :   1.0736 B( 11-C , 66-H ) :   0.9786
B( 12-S , 13-C ) :   1.0823 B( 13-C , 14-C ) :   1.6234 B( 13-C , 15-Br) :   1.0018
B( 14-C , 67-H ) :   1.0002 B( 16-C , 17-O ) :   2.1616 B( 16-C , 18-C ) :   0.9981
B( 18-C , 19-C ) :   1.2889 B( 19-C , 20-C ) :   1.4578 B( 19-C , 68-H ) :   0.9496
B( 20-C , 21-C ) :   1.2429 B( 20-C , 69-H ) :   0.9742 B( 21-C , 22-C ) :   1.3140
B( 21-C , 25-S ) :   1.1180 B( 22-C , 23-C ) :   1.3943 B( 22-C , 70-H ) :   1.0019
B( 23-C , 24-C ) :   1.3536 B( 23-C , 71-H ) :   0.9952 B( 24-C , 25-S ) :   1.0618
B( 24-C , 26-C ) :   1.2873 B( 26-C , 27-C ) :   1.3273 B( 26-C , 30-S ) :   1.1301
B( 27-C , 28-C ) :   1.4295 B( 27-C , 72-H ) :   0.9953 B( 28-C , 29-C ) :   1.2843
B( 28-C , 73-H ) :   0.9983 B( 29-C , 30-S ) :   1.0454 B( 29-C , 31-C ) :   1.3558
B( 31-C , 32-C ) :   1.3514 B( 31-C , 74-H ) :   0.9824 B( 32-C , 33-C ) :   1.3466
B( 32-C , 75-H ) :   0.9807 B( 33-C , 34-C ) :   1.3719 B( 33-C , 76-H ) :   0.9753
B( 34-C , 35-O ) :   1.0781 B( 34-C , 38-C ) :   1.2180 B( 35-O , 36-C ) :   1.1353
B( 36-C , 37-C ) :   1.1860 B( 36-C , 41-C ) :   1.2574 B( 37-C , 38-C ) :   1.3402
B( 37-C , 40-O ) :   1.2274 B( 38-C , 39-O ) :   1.2986 B( 39-O , 77-H ) :   0.9503
B( 40-O , 78-H ) :   0.9573 B( 41-C , 42-C ) :   1.4312 B( 41-C , 79-H ) :   0.9651
B( 42-C , 43-C ) :   1.2873 B( 42-C , 80-H ) :   0.9958 B( 43-C , 44-C ) :   1.3963
B( 43-C , 81-H ) :   0.9820 B( 44-C , 45-C ) :   1.2828 B( 44-C , 82-H ) :   0.9836
B( 45-C , 46-C ) :   1.3983 B( 45-C , 49-C ) :   1.0235 B( 46-C , 47-C ) :   1.2146
B( 46-C , 83-H ) :   1.0163 B( 47-C , 48-C ) :   1.5297 B( 47-C , 52-C ) :   0.9924
B( 48-C , 49-C ) :   1.0044 B( 48-C , 50-C ) :   1.1941 B( 49-C , 84-H ) :   0.8613
B( 49-C , 85-H ) :   0.8598 B( 50-C , 51-C ) :   1.4493 B( 50-C , 86-H ) :   1.0230
B( 51-C , 52-C ) :   1.0324 B( 51-C , 53-C ) :   1.2003 B( 52-C , 87-H ) :   0.8614
B( 52-C , 88-H ) :   0.8432 B( 53-C , 54-C ) :   1.5385 B( 53-C , 89-H ) :   0.9796
B( 54-C , 55-C ) :   1.1674 B( 54-C , 90-H ) :   0.9752 B( 55-C , 56-C ) :   1.5471
B( 55-C , 59-C ) :   1.0260 B( 56-C , 57-C ) :   1.1561 B( 56-C , 91-H ) :   1.0101
B( 57-C , 58-C ) :   1.6373 B( 57-C , 62-C ) :   1.0136 B( 58-C , 59-C ) :   1.0162
B( 58-C , 60-C ) :   1.1355 B( 59-C , 92-H ) :   0.8706 B( 59-C , 93-H ) :   0.8687
B( 60-C , 61-C ) :   1.6207 B( 60-C , 94-H ) :   1.0111 B( 61-C , 62-C ) :   1.0327
B( 61-C , 63-C ) :   1.1113 B( 62-C , 95-H ) :   0.8712 B( 62-C , 96-H ) :   0.8713
B( 63-C , 64-C ) :   1.9136 B( 63-C , 97-H ) :   0.9613 B( 64-C , 98-H ) :   0.9532
B( 64-C , 99-H ) :   0.9493

-----------------------------------------------------------------------------
         ABSORPTION SPECTRUM VIA TRANSITION ELECTRIC DIPOLE MOMENTS
-----------------------------------------------------------------------------
State   Energy  Wavelength   fosc         T2         TX        TY        TZ
        (cm-1)    (nm)                  (au**2)     (au)      (au)      (au)
-----------------------------------------------------------------------------
   0    5510.2   1814.8   0.308546471  18.43447  -3.94986   1.40502  -0.92681
   1   11544.4    866.2   1.416985640  40.40825  -0.57162   6.19750   1.29326
   2   14196.5    704.4   1.913704351  44.37810  -0.12168   6.50892   1.41323
   3   17119.8    584.1   0.057123710   1.09849  -0.54108   0.89424   0.07778
   4   18513.3    540.2   0.024517761   0.43599  -0.65555  -0.07591  -0.02171
   5   18893.4    529.3   0.352618886   6.14427  -2.45820   0.19200  -0.25432
   6   21240.0    470.8   0.088547216   1.37245   0.23992  -1.07797  -0.39099
   7   21997.6    454.6   0.194648850   2.91308   1.11710   1.17375   0.53618
   8   23278.5    429.6   0.116377313   1.64584   1.24870   0.00953   0.29410
   9   23861.3    419.1   0.027777119   0.38324   0.17644   0.56652   0.17654
  10   24980.6    400.3   0.140133968   1.84679   1.20870   0.45067   0.42748
  11   25395.4    393.8   0.247059269   3.20275   1.45252  -1.04536   0.01226
  12   26544.9    376.7   0.006633160   0.08227  -0.07296   0.27167   0.05602
  13   27324.3    366.0   0.000466561   0.00562  -0.03828  -0.03316  -0.05528
  14   28203.4    354.6   0.000019601   0.00023  -0.01107   0.01001  -0.00244
  15   28549.7    350.3   0.011523851   0.13288  -0.12734   0.31915   0.12170
  16   29289.0    341.4   0.058162911   0.65376   0.23090   0.73943   0.23171
  17   29640.2    337.4   0.233128926   2.58935   0.52652   1.44955   0.45927
  18   29876.6    334.7   0.023028150   0.25375   0.13104  -0.47886  -0.08525
  19   30094.2    332.3   0.001769303   0.01936   0.07272   0.10214   0.06028
  20   30226.7    330.8   0.071621860   0.78006   0.45129   0.70670   0.27745
  21   30321.0    329.8   0.010879534   0.11813   0.12200  -0.31378  -0.06916
  22   30717.8    325.5   0.035443350   0.37986   0.33256   0.48863   0.17465
  23   31269.8    319.8   0.045958523   0.48386  -0.44886  -0.49395  -0.19594
  24   31959.0    312.9   0.058892347   0.60665  -0.07032   0.71728   0.29532
  25   32619.6    306.6   0.094092839   0.94963  -0.19469   0.92106   0.25173
  26   33146.3    301.7   0.006443579   0.06400   0.11252   0.17224   0.14720
  27   33506.0    298.5   0.339991892   3.34058   0.63819   1.61013   0.58376
  28   33780.4    296.0   0.004234400   0.04127   0.09558   0.16856   0.06099
  29   33812.3    295.8   0.167414652   1.63002   0.85798   0.83982   0.43429
  30   34287.5    291.7   0.014817314   0.14227  -0.16888  -0.30797  -0.13749
  31   34517.6    289.7   0.011663443   0.11124  -0.09923   0.31398   0.05302
  32   35015.1    285.6   0.073223101   0.68844  -0.56817  -0.57233  -0.19509
  33   35350.9    282.9   0.021119716   0.19668   0.43890  -0.00578   0.06336
  34   35661.9    280.4   0.323793569   2.98909  -1.35508  -0.92533  -0.54463
  35   35778.9    279.5   0.046242469   0.42549  -0.31039  -0.53414  -0.20940
  36   36314.5    275.4   0.000374378   0.00339   0.05254   0.02048   0.01464
  37   36407.0    274.7   0.013036224   0.11788  -0.26650  -0.21540  -0.02147
  38   36718.5    272.3   0.006913898   0.06199   0.19756   0.08629   0.12456
  39   36836.0    271.5   0.007609660   0.06801   0.15729   0.20222   0.04873
  40   36958.4    270.6   0.002284268   0.02035  -0.02866  -0.11730  -0.07594
  41   37246.6    268.5   0.005423259   0.04793   0.17948   0.10525   0.06815
  42   37457.9    267.0   0.000161925   0.00142  -0.02225  -0.03045  -0.00082
  43   38219.6    261.6   0.007571323   0.06522   0.19834  -0.16034  -0.01304
  44   38386.5    260.5   0.028859084   0.24750  -0.48216  -0.00095  -0.12258
  45   38990.4    256.5   0.049277905   0.41607  -0.60919   0.17637  -0.11769
  46   39304.2    254.4   0.087878575   0.73607   0.78216  -0.33937   0.09553
  47   39915.6    250.5   0.024914396   0.20549   0.01001  -0.44367  -0.09243
  48   40165.1    249.0   0.025015500   0.20504   0.02506  -0.43599  -0.11967

FINAL SINGLE POINT ENERGY     -6292.068120368676

DIPOLE MOMENT
-------------
                                X             Y             Z
Electronic contribution:    -90.61107     -68.35997     -55.27470
Nuclear contribution   :     94.32053      70.71399      57.19757
                        -----------------------------------------
Total Dipole Moment    :      3.70946       2.35402       1.92287
                        -----------------------------------------
Magnitude (a.u.)       :      4.79572
Magnitude (Debye)      :     12.18975

Rotational constants in cm-1:     0.000963     0.000388     0.000277
Rotational constants in MHz :    28.858383    11.618664     8.315624

                             ****ORCA TERMINATED NORMALLY****
TOTAL RUN TIME: 0 days 0 hours 9 minutes 7 seconds 440 msec
