                         Program Version 4.2.0 -  RELEASE  -
|  1> # ORCA input file
|  2> # SCF done       -162.276758882441          0.000679487742
|  3> ! CAM-B3LYP def2-SVP def2/J RIJCOSX Grid4 TightSCF
|  4> %maxcore 5000
|  5> %tddft
|  6>     Mode sTDDFT
|  7>     Ethresh 5.0
|  8>     maxcore 5000
|  9> end
| 10>
| 11> %pal
| 12>   nprocs 6
| 13>   end
| 14> * xyz 0 1
| 15>    O        0.09041         2.84200        -2.47755
| 16>    N        0.92860         2.27005        -3.34401
| 17>    C        2.15382         2.50627        -2.94486
| 18>    C        3.29494         2.04917        -3.64139
| 19>    N        4.23815         1.70068        -4.18492
| 20>    C        2.14055         3.28368        -1.74341
| 21>    C        0.78191         3.45893        -1.50909
| 22>    C        0.12480         4.14000        -0.46898
| 23>    N       -0.40343         4.69545         0.38130
| 24>    C        3.25110         3.77870        -0.94465
| 25>    O        3.18042         4.49953         0.01963
| 26>    O        4.42792         3.32219        -1.43285
| 27>    N        5.55456         3.81251        -0.76513
| 28>    C        6.57280         2.92638        -0.57347
| 29>    S        6.61317         1.45112        -1.46272
| 30>    C        8.14765         1.08767        -0.72753
| 31>    N        8.75830        -0.11951        -1.05115
| 32>    O        9.86431        -0.34444        -0.56891
| 33>    O        8.16084        -0.87491        -1.79597
| 34>    C        8.58590         2.05741         0.13552
| 35>    C        7.68960         3.14122         0.24848
| 36>    C        7.85605         4.28185         1.09800
| 37>    C        8.94738         4.47371         1.88426
| 38>    C        9.13996         5.53555         2.78698
| 39>    C       10.26736         5.61824         3.56717
| 40>    C       10.60215         6.57119         4.56233
| 41>    C       11.79371         6.34112         5.18465
| 42>    C       12.47218         5.19870         4.70724
| 43>    S       11.54691         4.42593         3.44072
| 44>    C       13.67932         4.64007         5.07890
| 45>    C       14.61147         4.99973         6.07692
| 46>    C       15.69555         4.17605         6.15528
| 47>    C       15.68826         3.11795         5.21197
| 48>    S       14.22632         3.21651         4.22573
| 49>    C       16.59927         2.12445         4.98811
| 50>    N       16.38688         1.23391         3.98525
| 51>    C       17.12331         0.17726         3.58838
| 52>    S       18.54472        -0.33902         4.43198
| 53>    C       18.71992        -1.64245         3.29361
| 54>    N       19.81351        -2.48827         3.47322
| 55>    O       19.96424        -3.40656         2.68802
| 56>    O       20.54494        -2.23422         4.41946
| 57>    C       17.74310        -1.66843         2.33182
| 58>    C       16.81245        -0.62713         2.47531
| 59>    C       15.69945        -0.34400         1.60744
| 60>    C       15.27393        -1.08590         0.58085
| 61>    O       14.22035        -0.60299        -0.15062
| 62>    C       13.76372        -1.29992        -1.21110
| 63>    O       14.18736        -2.36252        -1.57438
| 64>    C       12.70461        -0.52811        -1.87663
| 65>    C       12.05159        -0.80839        -3.11627
| 66>    N       11.21713         0.15661        -3.41865
| 67>    O       11.26597         1.06798        -2.44390
| 68>    C       12.13684         0.67807        -1.50266
| 69>    C       12.33223         1.45148        -0.34463
| 70>    N       12.48489         2.07618         0.60282
| 71>    C       12.24825        -1.93561        -3.94503
| 72>    N       12.41900        -2.84499        -4.61567
| 73>    H        5.25676         4.41070         0.01117
| 74>    H        9.51515         1.96870         0.66785
| 75>    H        7.05973         5.01268         1.11516
| 76>    H        9.75000         3.74995         1.84010
| 77>    H        8.37777         6.29489         2.89189
| 78>    H        9.94663         7.39271         4.79228
| 79>    H       12.20038         6.95805         5.96634
| 80>    H       14.45277         5.85275         6.71219
| 81>    H       16.50145         4.29556         6.85689
| 82>    H       17.49673         2.01671         5.57642
| 83>    H       15.53864         1.39541         3.44912
| 84>    H       17.72344        -2.41180         1.55694
| 85>    H       15.14855         0.57258         1.77537
| 86>    H       15.68229        -2.03209         0.25618
| 87> *
| 88>
| 89>                          ****END OF INPUT****

CARTESIAN COORDINATES (ANGSTROEM)
---------------------------------
  O      0.090410    2.842000   -2.477550
  N      0.928600    2.270050   -3.344010
  C      2.153820    2.506270   -2.944860
  C      3.294940    2.049170   -3.641390
  N      4.238150    1.700680   -4.184920
  C      2.140550    3.283680   -1.743410
  C      0.781910    3.458930   -1.509090
  C      0.124800    4.140000   -0.468980
  N     -0.403430    4.695450    0.381300
  C      3.251100    3.778700   -0.944650
  O      3.180420    4.499530    0.019630
  O      4.427920    3.322190   -1.432850
  N      5.554560    3.812510   -0.765130
  C      6.572800    2.926380   -0.573470
  S      6.613170    1.451120   -1.462720
  C      8.147650    1.087670   -0.727530
  N      8.758300   -0.119510   -1.051150
  O      9.864310   -0.344440   -0.568910
  O      8.160840   -0.874910   -1.795970
  C      8.585900    2.057410    0.135520
  C      7.689600    3.141220    0.248480
  C      7.856050    4.281850    1.098000
  C      8.947380    4.473710    1.884260
  C      9.139960    5.535550    2.786980
  C     10.267360    5.618240    3.567170
  C     10.602150    6.571190    4.562330
  C     11.793710    6.341120    5.184650
  C     12.472180    5.198700    4.707240
  S     11.546910    4.425930    3.440720
  C     13.679320    4.640070    5.078900
  C     14.611470    4.999730    6.076920
  C     15.695550    4.176050    6.155280
  C     15.688260    3.117950    5.211970
  S     14.226320    3.216510    4.225730
  C     16.599270    2.124450    4.988110
  N     16.386880    1.233910    3.985250
  C     17.123310    0.177260    3.588380
  S     18.544720   -0.339020    4.431980
  C     18.719920   -1.642450    3.293610
  N     19.813510   -2.488270    3.473220
  O     19.964240   -3.406560    2.688020
  O     20.544940   -2.234220    4.419460
  C     17.743100   -1.668430    2.331820
  C     16.812450   -0.627130    2.475310
  C     15.699450   -0.344000    1.607440
  C     15.273930   -1.085900    0.580850
  O     14.220350   -0.602990   -0.150620
  C     13.763720   -1.299920   -1.211100
  O     14.187360   -2.362520   -1.574380
  C     12.704610   -0.528110   -1.876630
  C     12.051590   -0.808390   -3.116270
  N     11.217130    0.156610   -3.418650
  O     11.265970    1.067980   -2.443900
  C     12.136840    0.678070   -1.502660
  C     12.332230    1.451480   -0.344630
  N     12.484890    2.076180    0.602820
  C     12.248250   -1.935610   -3.945030
  N     12.419000   -2.844990   -4.615670
  H      5.256760    4.410700    0.011170
  H      9.515150    1.968700    0.667850
  H      7.059730    5.012680    1.115160
  H      9.750000    3.749950    1.840100
  H      8.377770    6.294890    2.891890
  H      9.946630    7.392710    4.792280
  H     12.200380    6.958050    5.966340
  H     14.452770    5.852750    6.712190
  H     16.501450    4.295560    6.856890
  H     17.496730    2.016710    5.576420
  H     15.538640    1.395410    3.449120
  H     17.723440   -2.411800    1.556940
  H     15.148550    0.572580    1.775370
  H     15.682290   -2.032090    0.256180

 Total Charge           Charge          ....    0
 Multiplicity           Mult            ....    1
 Number of Electrons    NEL             ....  432
 Basis Dimension        Dim             ....  898

ORBITAL ENERGIES
----------------

  NO   OCC          E(Eh)            E(eV)
   0   2.0000     -88.991294     -2421.5762
   1   2.0000     -88.985203     -2421.4105
   2   2.0000     -88.955344     -2420.5980
   3   2.0000     -88.945477     -2420.3295
   4   2.0000     -19.397520      -527.8334
   5   2.0000     -19.368242      -527.0367
   6   2.0000     -19.358761      -526.7787
   7   2.0000     -19.303591      -525.2774
   8   2.0000     -19.274912      -524.4970
   9   2.0000     -19.247029      -523.7383
  10   2.0000     -19.244206      -523.6615
  11   2.0000     -19.239762      -523.5405
  12   2.0000     -19.230378      -523.2852
  13   2.0000     -19.230199      -523.2803
  14   2.0000     -14.656417      -398.8214
  15   2.0000     -14.642509      -398.4429
  16   2.0000     -14.537852      -395.5951
  17   2.0000     -14.533812      -395.4851
  18   2.0000     -14.509918      -394.8349
  19   2.0000     -14.492094      -394.3499
  20   2.0000     -14.470868      -393.7723
  21   2.0000     -14.455364      -393.3505
  22   2.0000     -14.452550      -393.2739
  23   2.0000     -14.427964      -392.6049
  24   2.0000     -10.477154      -285.0979
  25   2.0000     -10.446570      -284.2656
  26   2.0000     -10.443412      -284.1797
  27   2.0000     -10.415808      -283.4285
  28   2.0000     -10.407883      -283.2129
  29   2.0000     -10.377608      -282.3891
  30   2.0000     -10.377374      -282.3827
  31   2.0000     -10.376657      -282.3632
  32   2.0000     -10.372125      -282.2399
  33   2.0000     -10.365919      -282.0710
  34   2.0000     -10.352473      -281.7051
  35   2.0000     -10.351488      -281.6783
  36   2.0000     -10.350157      -281.6421
  37   2.0000     -10.345659      -281.5197
  38   2.0000     -10.343360      -281.4571
  39   2.0000     -10.343285      -281.4551
  40   2.0000     -10.338592      -281.3274
  41   2.0000     -10.325468      -280.9703
  42   2.0000     -10.321025      -280.8494
  43   2.0000     -10.316971      -280.7390
  44   2.0000     -10.313709      -280.6503
  45   2.0000     -10.313020      -280.6315
  46   2.0000     -10.312784      -280.6251
  47   2.0000     -10.309672      -280.5404
  48   2.0000     -10.306552      -280.4555
  49   2.0000     -10.302777      -280.3528
  50   2.0000     -10.300110      -280.2802
  51   2.0000     -10.299286      -280.2578
  52   2.0000     -10.295957      -280.1672
  53   2.0000     -10.295690      -280.1600
  54   2.0000     -10.292300      -280.0677
  55   2.0000     -10.289550      -279.9929
  56   2.0000     -10.286885      -279.9204
  57   2.0000     -10.282487      -279.8007
  58   2.0000      -8.086687      -220.0499
  59   2.0000      -8.080575      -219.8836
  60   2.0000      -8.051959      -219.1049
  61   2.0000      -8.041984      -218.8335
  62   2.0000      -6.056465      -164.8048
  63   2.0000      -6.051915      -164.6810
  64   2.0000      -6.050313      -164.6374
  65   2.0000      -6.047955      -164.5732
  66   2.0000      -6.045918      -164.5178
  67   2.0000      -6.041902      -164.4085
  68   2.0000      -6.021816      -163.8619
  69   2.0000      -6.017796      -163.7526
  70   2.0000      -6.012590      -163.6109
  71   2.0000      -6.011734      -163.5876
  72   2.0000      -6.007706      -163.4780
  73   2.0000      -6.002766      -163.3436
  74   2.0000      -1.339707       -36.4553
  75   2.0000      -1.324712       -36.0472
  76   2.0000      -1.310877       -35.6708
  77   2.0000      -1.310166       -35.6514
  78   2.0000      -1.291499       -35.1435
  79   2.0000      -1.233742       -33.5718
  80   2.0000      -1.181502       -32.1503
  81   2.0000      -1.142518       -31.0895
  82   2.0000      -1.140139       -31.0248
  83   2.0000      -1.130148       -30.7529
  84   2.0000      -1.101057       -29.9613
  85   2.0000      -1.062143       -28.9024
  86   2.0000      -1.054485       -28.6940
  87   2.0000      -1.045894       -28.4602
  88   2.0000      -1.036718       -28.2105
  89   2.0000      -1.023800       -27.8590
  90   2.0000      -1.022433       -27.8218
  91   2.0000      -1.009057       -27.4578
  92   2.0000      -1.001787       -27.2600
  93   2.0000      -0.999539       -27.1988
  94   2.0000      -0.994753       -27.0686
  95   2.0000      -0.981131       -26.6979
  96   2.0000      -0.978301       -26.6209
  97   2.0000      -0.962332       -26.1864
  98   2.0000      -0.926651       -25.2155
  99   2.0000      -0.922659       -25.1068
 100   2.0000      -0.903168       -24.5765
 101   2.0000      -0.895138       -24.3579
 102   2.0000      -0.881010       -23.9735
 103   2.0000      -0.867992       -23.6193
 104   2.0000      -0.861276       -23.4365
 105   2.0000      -0.854702       -23.2576
 106   2.0000      -0.851985       -23.1837
 107   2.0000      -0.835545       -22.7363
 108   2.0000      -0.826799       -22.4984
 109   2.0000      -0.825242       -22.4560
 110   2.0000      -0.817493       -22.2451
 111   2.0000      -0.804528       -21.8923
 112   2.0000      -0.797645       -21.7050
 113   2.0000      -0.793468       -21.5913
 114   2.0000      -0.779738       -21.2177
 115   2.0000      -0.769899       -20.9500
 116   2.0000      -0.757478       -20.6120
 117   2.0000      -0.750773       -20.4296
 118   2.0000      -0.739481       -20.1223
 119   2.0000      -0.730233       -19.8706
 120   2.0000      -0.718359       -19.5476
 121   2.0000      -0.708726       -19.2854
 122   2.0000      -0.695782       -18.9332
 123   2.0000      -0.678007       -18.4495
 124   2.0000      -0.672277       -18.2936
 125   2.0000      -0.666771       -18.1438
 126   2.0000      -0.663515       -18.0552
 127   2.0000      -0.658677       -17.9235
 128   2.0000      -0.653111       -17.7721
 129   2.0000      -0.651987       -17.7415
 130   2.0000      -0.649206       -17.6658
 131   2.0000      -0.639352       -17.3976
 132   2.0000      -0.636709       -17.3257
 133   2.0000      -0.632980       -17.2243
 134   2.0000      -0.626873       -17.0581
 135   2.0000      -0.624037       -16.9809
 136   2.0000      -0.622932       -16.9508
 137   2.0000      -0.622219       -16.9314
 138   2.0000      -0.620316       -16.8796
 139   2.0000      -0.617217       -16.7953
 140   2.0000      -0.612189       -16.6585
 141   2.0000      -0.608346       -16.5539
 142   2.0000      -0.605744       -16.4831
 143   2.0000      -0.596002       -16.2180
 144   2.0000      -0.594167       -16.1681
 145   2.0000      -0.583528       -15.8786
 146   2.0000      -0.583025       -15.8649
 147   2.0000      -0.577633       -15.7182
 148   2.0000      -0.573642       -15.6096
 149   2.0000      -0.569503       -15.4970
 150   2.0000      -0.565194       -15.3797
 151   2.0000      -0.560422       -15.2499
 152   2.0000      -0.558850       -15.2071
 153   2.0000      -0.547885       -14.9087
 154   2.0000      -0.544526       -14.8173
 155   2.0000      -0.542662       -14.7666
 156   2.0000      -0.539746       -14.6872
 157   2.0000      -0.533756       -14.5242
 158   2.0000      -0.524516       -14.2728
 159   2.0000      -0.518408       -14.1066
 160   2.0000      -0.516158       -14.0454
 161   2.0000      -0.509226       -13.8567
 162   2.0000      -0.504887       -13.7387
 163   2.0000      -0.504152       -13.7187
 164   2.0000      -0.499029       -13.5793
 165   2.0000      -0.495708       -13.4889
 166   2.0000      -0.495361       -13.4795
 167   2.0000      -0.491786       -13.3822
 168   2.0000      -0.491435       -13.3726
 169   2.0000      -0.485506       -13.2113
 170   2.0000      -0.483043       -13.1443
 171   2.0000      -0.482948       -13.1417
 172   2.0000      -0.480936       -13.0869
 173   2.0000      -0.479585       -13.0502
 174   2.0000      -0.478139       -13.0108
 175   2.0000      -0.477593       -12.9960
 176   2.0000      -0.474961       -12.9243
 177   2.0000      -0.474275       -12.9057
 178   2.0000      -0.464775       -12.6472
 179   2.0000      -0.462881       -12.5956
 180   2.0000      -0.462105       -12.5745
 181   2.0000      -0.454404       -12.3650
 182   2.0000      -0.452208       -12.3052
 183   2.0000      -0.451911       -12.2971
 184   2.0000      -0.451763       -12.2931
 185   2.0000      -0.447909       -12.1882
 186   2.0000      -0.443029       -12.0554
 187   2.0000      -0.440619       -11.9898
 188   2.0000      -0.438560       -11.9338
 189   2.0000      -0.433262       -11.7897
 190   2.0000      -0.428003       -11.6466
 191   2.0000      -0.423245       -11.5171
 192   2.0000      -0.420312       -11.4373
 193   2.0000      -0.416607       -11.3365
 194   2.0000      -0.410652       -11.1744
 195   2.0000      -0.400298       -10.8927
 196   2.0000      -0.399498       -10.8709
 197   2.0000      -0.399209       -10.8630
 198   2.0000      -0.392344       -10.6762
 199   2.0000      -0.391663       -10.6577
 200   2.0000      -0.390873       -10.6362
 201   2.0000      -0.388347       -10.5674
 202   2.0000      -0.383972       -10.4484
 203   2.0000      -0.378982       -10.3126
 204   2.0000      -0.374101       -10.1798
 205   2.0000      -0.370520       -10.0824
 206   2.0000      -0.368503       -10.0275
 207   2.0000      -0.359554        -9.7840
 208   2.0000      -0.352990        -9.6053
 209   2.0000      -0.347921        -9.4674
 210   2.0000      -0.330341        -8.9890
 211   2.0000      -0.328332        -8.9344
 212   2.0000      -0.315705        -8.5908
 213   2.0000      -0.293176        -7.9777
 214   2.0000      -0.266823        -7.2606
 215   2.0000      -0.214226        -5.8294
 216   0.0000      -0.098268        -2.6740
 217   0.0000      -0.084387        -2.2963
 218   0.0000      -0.072541        -1.9739
 219   0.0000      -0.062054        -1.6886
 220   0.0000      -0.056737        -1.5439

MULLIKEN ATOMIC CHARGES
-----------------------
   0 O :   -0.125238
   1 N :    0.083337
   2 C :   -0.175893
   3 C :   -0.162683
   4 N :    0.263017
   5 C :    0.044048
   6 C :    0.011130
   7 C :   -0.146343
   8 N :    0.260436
   9 C :    0.195518
  10 O :   -0.169823
  11 O :   -0.241390
  12 N :    0.045098
  13 C :   -0.097055
  14 S :    0.220483
  15 C :   -0.030389
  16 N :    0.291062
  17 O :   -0.290007
  18 O :   -0.248642
  19 C :    0.004778
  20 C :    0.130034
  21 C :   -0.044996
  22 C :    0.001572
  23 C :   -0.007676
  24 C :   -0.016507
  25 C :    0.032731
  26 C :    0.032336
  27 C :   -0.041307
  28 S :    0.052865
  29 C :   -0.033228
  30 C :    0.027411
  31 C :    0.045277
  32 C :   -0.047047
  33 S :    0.014443
  34 C :    0.042787
  35 N :   -0.033147
  36 C :   -0.110995
  37 S :    0.159933
  38 C :   -0.016189
  39 N :    0.280181
  40 O :   -0.254516
  41 O :   -0.274212
  42 C :    0.011504
  43 C :    0.116470
  44 C :   -0.024017
  45 C :    0.129401
  46 O :   -0.255180
  47 C :    0.187859
  48 O :   -0.146781
  49 C :    0.052214
  50 C :   -0.180467
  51 N :    0.068234
  52 O :   -0.141874
  53 C :    0.014502
  54 C :   -0.125146
  55 N :    0.214493
  56 C :   -0.175454
  57 N :    0.254582
  58 H :    0.172328
  59 H :    0.013068
  60 H :   -0.032858
  61 H :    0.013526
  62 H :   -0.019766
  63 H :   -0.012915
  64 H :   -0.011733
  65 H :   -0.010882
  66 H :   -0.006835
  67 H :    0.024478
  68 H :    0.159009
  69 H :    0.010857
  70 H :   -0.001617
  71 H :    0.031808
Sum of atomic charges:    0.0000000

LOEWDIN ATOMIC CHARGES
----------------------
   0 O :    0.083957
   1 N :    0.031211
   2 C :   -0.047400
   3 C :   -0.038820
   4 N :    0.016364
   5 C :   -0.081936
   6 C :    0.048873
   7 C :   -0.040450
   8 N :    0.036570
   9 C :    0.090635
  10 O :   -0.143113
  11 O :   -0.030731
  12 N :    0.080594
  13 C :   -0.124739
  14 S :    0.484771
  15 C :   -0.217768
  16 N :    0.278930
  17 O :   -0.246538
  18 O :   -0.214410
  19 C :    0.007429
  20 C :   -0.095977
  21 C :   -0.045906
  22 C :   -0.020662
  23 C :   -0.067781
  24 C :   -0.135339
  25 C :   -0.039609
  26 C :   -0.025503
  27 C :   -0.187209
  28 S :    0.376643
  29 C :   -0.169166
  30 C :   -0.040718
  31 C :   -0.027376
  32 C :   -0.182959
  33 S :    0.351546
  34 C :   -0.004496
  35 N :    0.050755
  36 C :   -0.101753
  37 S :    0.452406
  38 C :   -0.212979
  39 N :    0.273203
  40 O :   -0.220413
  41 O :   -0.241132
  42 C :    0.005508
  43 C :   -0.107422
  44 C :   -0.052080
  45 C :    0.064222
  46 O :   -0.036791
  47 C :    0.096386
  48 O :   -0.130556
  49 C :   -0.071325
  50 C :   -0.042853
  51 N :    0.024188
  52 O :    0.072984
  53 C :    0.029846
  54 C :   -0.028329
  55 N :   -0.010972
  56 C :   -0.029470
  57 N :    0.007927
  58 H :    0.077419
  59 H :    0.043160
  60 H :    0.021855
  61 H :    0.021011
  62 H :    0.030658
  63 H :    0.033059
  64 H :    0.032919
  65 H :    0.033861
  66 H :    0.035332
  67 H :    0.033196
  68 H :    0.079063
  69 H :    0.045789
  70 H :    0.034575
  71 H :    0.027838

  Mayer bond orders larger than 0.100000
B(  0-O ,  1-N ) :   1.0217 B(  0-O ,  6-C ) :   1.1960 B(  1-N ,  2-C ) :   1.7154
B(  1-N ,  6-C ) :   0.1011 B(  2-C ,  3-C ) :   1.1539 B(  2-C ,  5-C ) :   1.2195
B(  3-C ,  4-N ) :   3.0533 B(  5-C ,  6-C ) :   1.5338 B(  5-C ,  9-C ) :   0.9188
B(  6-C ,  7-C ) :   1.1391 B(  7-C ,  8-N ) :   3.0308 B(  9-C , 10-O ) :   2.1296
B(  9-C , 11-O ) :   1.1594 B( 11-O , 12-N ) :   0.9128 B( 12-N , 13-C ) :   1.1753
B( 12-N , 58-H ) :   0.8766 B( 13-C , 14-S ) :   1.1533 B( 13-C , 20-C ) :   1.3634
B( 14-S , 15-C ) :   1.0666 B( 15-C , 16-N ) :   0.9992 B( 15-C , 19-C ) :   1.4694
B( 16-N , 17-O ) :   1.4632 B( 16-N , 18-O ) :   1.5260 B( 17-O , 18-O ) :   0.2366
B( 19-C , 20-C ) :   1.2431 B( 19-C , 59-H ) :   0.9940 B( 20-C , 21-C ) :   1.0669
B( 21-C , 22-C ) :   1.6821 B( 21-C , 60-H ) :   0.9804 B( 22-C , 23-C ) :   1.1455
B( 22-C , 61-H ) :   0.9630 B( 23-C , 24-C ) :   1.5623 B( 23-C , 62-H ) :   0.9883
B( 24-C , 25-C ) :   1.1388 B( 24-C , 28-S ) :   1.0424 B( 25-C , 26-C ) :   1.5889
B( 25-C , 63-H ) :   0.9990 B( 26-C , 27-C ) :   1.1903 B( 26-C , 64-H ) :   0.9959
B( 27-C , 28-S ) :   1.0424 B( 27-C , 29-C ) :   1.5108 B( 29-C , 30-C ) :   1.1866
B( 29-C , 33-S ) :   1.0513 B( 30-C , 31-C ) :   1.6079 B( 30-C , 65-H ) :   0.9935
B( 31-C , 32-C ) :   1.1558 B( 31-C , 66-H ) :   0.9947 B( 32-C , 33-S ) :   1.0119
B( 32-C , 34-C ) :   1.5952 B( 34-C , 35-N ) :   1.1389 B( 34-C , 67-H ) :   0.9658
B( 35-N , 36-C ) :   1.2516 B( 35-N , 68-H ) :   0.8928 B( 36-C , 37-S ) :   1.1301
B( 36-C , 43-C ) :   1.3466 B( 37-S , 38-C ) :   1.0650 B( 38-C , 39-N ) :   0.9854
B( 38-C , 42-C ) :   1.4878 B( 39-N , 40-O ) :   1.5284 B( 39-N , 41-O ) :   1.4992
B( 40-O , 41-O ) :   0.2515 B( 42-C , 43-C ) :   1.2501 B( 42-C , 69-H ) :   0.9991
B( 43-C , 44-C ) :   1.0661 B( 44-C , 45-C ) :   1.7704 B( 44-C , 70-H ) :   0.9520
B( 45-C , 46-O ) :   0.9928 B( 45-C , 71-H ) :   0.9856 B( 46-O , 47-C ) :   1.1656
B( 47-C , 48-O ) :   2.1776 B( 47-C , 49-C ) :   0.8821 B( 49-C , 50-C ) :   1.2466
B( 49-C , 53-C ) :   1.5324 B( 50-C , 51-N ) :   1.7046 B( 50-C , 56-C ) :   1.1577
B( 51-N , 52-O ) :   1.0216 B( 51-N , 53-C ) :   0.1063 B( 52-O , 53-C ) :   1.1715
B( 53-C , 54-C ) :   1.1517 B( 54-C , 55-N ) :   2.9686 B( 56-C , 57-N ) :   3.0645

-----------------------------------------------------------------------------
         ABSORPTION SPECTRUM VIA TRANSITION ELECTRIC DIPOLE MOMENTS
-----------------------------------------------------------------------------
State   Energy  Wavelength   fosc         T2         TX        TY        TZ
        (cm-1)    (nm)                  (au**2)     (au)      (au)      (au)
-----------------------------------------------------------------------------
   0   14274.1    700.6   0.984346868  22.70258  -4.32157   1.62708  -1.17441
   1   15013.8    666.1   0.142578055   3.12635  -1.52590   0.73219  -0.51173
   2   16444.0    608.1   0.031287552   0.62638  -0.27130  -0.45155  -0.59066
   3   19807.2    504.9   0.167140860   2.77802  -1.17751   1.17935  -0.02471
   4   22643.0    441.6   0.062773282   0.91268  -0.03576   0.80536   0.51263
   5   23341.9    428.4   0.004167453   0.05878  -0.18760  -0.10116  -0.11554
   6   24793.6    403.3   0.369889006   4.91142   0.18031   1.78276   1.30410
   7   25371.9    394.1   0.168545980   2.18696   1.33415  -0.60889   0.19043
   8   26276.1    380.6   0.473174377   5.92837  -0.75592  -1.37691  -1.86039
   9   27175.9    368.0   0.115641886   1.40090  -0.23803   1.02653   0.53896
  10   28831.7    346.8   0.165414923   1.88878   0.12410   1.02281   0.90953
  11   29293.2    341.4   0.001150226   0.01293   0.09815   0.01735   0.05470
  12   30042.2    332.9   0.126191835   1.38285   0.06747  -1.00931  -0.59965
  13   30952.0    323.1   0.055861129   0.59415   0.73028  -0.23378   0.07869
  14   31409.6    318.4   0.075459685   0.79091  -0.18737  -0.52171  -0.69543
  15   31919.8    313.3   0.090720700   0.93567  -0.78080   0.20905  -0.53134
  16   32453.3    308.1   0.017468041   0.17720   0.20319  -0.35790  -0.08842
  17   33171.8    301.5   0.134278178   1.33264  -0.99289   0.22163  -0.54561
  18   33592.9    297.7   0.036180543   0.35457   0.48832  -0.12874   0.31550
  19   33911.3    294.9   0.023878858   0.23182  -0.19811   0.43802  -0.02655
  20   34923.9    286.3   0.001321277   0.01246   0.04487  -0.06319  -0.08031
  21   35434.6    282.2   0.051970129   0.48284  -0.23616   0.54698   0.35760
  22   35742.2    279.8   0.201227658   1.85346  -0.86298   1.05293  -0.00834
  23   35915.3    278.4   0.016463627   0.15091   0.31295   0.01615   0.22959
  24   36795.5    271.8   0.008731173   0.07812  -0.15294   0.22569  -0.06160
  25   37058.3    269.8   0.046469395   0.41282  -0.38142  -0.07043  -0.51223
  26   37675.6    265.4   0.128769376   1.12520   0.79096   0.22902   0.66867
  27   38295.2    261.1   0.000078392   0.00067  -0.02340   0.00661  -0.00909
  28   38832.2    257.5   0.053995474   0.45776  -0.48284  -0.17080  -0.44210
  29   39245.7    254.8   0.001167824   0.00980   0.01533   0.05652   0.07979
  30   39329.4    254.3   0.000094251   0.00079   0.00615   0.02711  -0.00405
  31   39529.6    253.0   0.005129528   0.04272   0.03298   0.10551   0.17464
  32   39819.2    251.1   0.037353358   0.30883  -0.04453   0.47166   0.29048
  33   39992.3    250.0   0.056934781   0.46868  -0.10985   0.59782   0.31499

FINAL SINGLE POINT ENERGY     -4192.422395067340

DIPOLE MOMENT
-------------
                                X             Y             Z
Electronic contribution:    -23.98181     -15.81316     -27.37654
Nuclear contribution   :     21.66187      20.12987      29.50910
                        -----------------------------------------
Total Dipole Moment    :     -2.31994       4.31671       2.13256
                        -----------------------------------------
Magnitude (a.u.)       :      5.34452
Magnitude (Debye)      :     13.58469

Rotational constants in cm-1:     0.001937     0.000538     0.000433
Rotational constants in MHz :    58.056453    16.129100    12.979570

                             ****ORCA TERMINATED NORMALLY****
TOTAL RUN TIME: 0 days 0 hours 5 minutes 16 seconds 850 msec
