                         Program Version 4.2.0 -  RELEASE  -
|  1> # ORCA input file
|  2> # SCF done       -184.247375382211          0.000752383246
|  3> ! CAM-B3LYP def2-SVP def2/J RIJCOSX Grid4 TightSCF
|  4> %maxcore 5000
|  5> %tddft
|  6>     Mode sTDDFT
|  7>     Ethresh 5.0
|  8>     maxcore 5000
|  9> end
| 10>
| 11> %pal
| 12>   nprocs 6
| 13>   end
| 14> * xyz 0 1
| 15>    C        6.81944       -15.69480       -11.47512
| 16>    C        5.91671       -15.87533       -10.50273
| 17>    C        4.79833       -16.77761       -10.50111
| 18>    C        4.06142       -16.74651        -9.37145
| 19>    C        4.53245       -15.82238        -8.39089
| 20>    S        5.95291       -14.98741        -8.96933
| 21>    C        3.99229       -15.58015        -7.15131
| 22>    C        2.85946       -16.18972        -6.55519
| 23>    C        2.58563       -15.73240        -5.30839
| 24>    C        3.48551       -14.73193        -4.83616
| 25>    S        4.69559       -14.40148        -6.05285
| 26>    C        3.35958       -14.10290        -3.62748
| 27>    C        4.16596       -13.10739        -3.03340
| 28>    O        3.61796       -12.47195        -1.95933
| 29>    C        4.48185       -11.54201        -1.50607
| 30>    C        5.61940       -11.56237        -2.26409
| 31>    C        5.43684       -12.57829        -3.25847
| 32>    C        6.44719       -12.95100        -4.15170
| 33>    N        7.33633       -13.22404        -4.82360
| 34>    C        6.84797       -10.72934        -2.16434
| 35>    F        6.72508        -9.71907        -1.28299
| 36>    F        7.92271       -11.43223        -1.78760
| 37>    F        7.15679       -10.15167        -3.33775
| 38>    C        4.07553       -10.74761        -0.31508
| 39>    C        4.10208       -11.68440         0.90863
| 40>    O        5.07331       -12.14172         1.42526
| 41>    O        2.85772       -11.93324         1.31767
| 42>    C        1.87992       -11.26630         0.53307
| 43>    C        2.61976       -10.26155        -0.37762
| 44>    C        2.47925        -8.82173         0.12066
| 45>    C        2.57618        -8.77353         1.64035
| 46>    C        1.35015        -9.42378         2.28880
| 47>    C        0.84607       -10.63354         1.47212
| 48>    O       -0.23709       -10.18009         0.67166
| 49>    C       -0.65458        -8.95738         1.04908
| 50>    O       -1.49356        -8.35066         0.45440
| 51>    C        0.09588        -8.52387         2.29971
| 52>    C        0.27083        -7.03777         2.35286
| 53>    C        0.99075        -6.39563         3.27032
| 54>    C        1.18246        -4.96444         3.31078
| 55>    C        1.22452        -4.09697         2.24322
| 56>    C        1.02416        -4.31351         0.78756
| 57>    N        1.57011        -2.85807         2.72085
| 58>    C        1.78271        -2.89238         4.05025
| 59>    C        2.14679        -1.68841         4.83570
| 60>    C        1.52979        -4.19921         4.48199
| 61>    C        1.66576        -4.59830         5.83204
| 62>    C        1.03371        -5.60823         6.50194
| 63>    C        1.35880        -6.04772         7.84555
| 64>    C        2.47294        -5.71099         8.57229
| 65>    C        2.74467        -6.18821         9.87105
| 66>    N        3.01963        -6.53760        10.92990
| 67>    C        3.50685        -4.85746         8.13526
| 68>    N        4.39382        -4.18259         7.85523
| 69>    C        0.31860        -6.97475         8.27603
| 70>    C       -0.61887        -7.12230         7.22589
| 71>    C       -0.21925        -6.27229         6.08223
| 72>    O       -0.85883        -6.10085         5.06567
| 73>    C       -1.72745        -7.92582         7.33056
| 74>    C       -1.91780        -8.62391         8.52797
| 75>    C       -0.97567        -8.47009         9.57218
| 76>    C        0.14341        -7.65379         9.46781
| 77>    S       -1.40751        -9.41315        10.96720
| 78>    C       -2.82694        -9.99406        10.13854
| 79>    C       -2.97262        -9.50893         8.88277
| 80>   Br       -3.98434       -11.18598        11.00989
| 81>    H        6.76247       -16.25681       -12.39087
| 82>    H        7.62649       -14.99273       -11.37249
| 83>    H        4.60146       -17.40911       -11.34924
| 84>    H        3.19090       -17.35311        -9.19602
| 85>    H        2.28529       -16.94382        -7.06256
| 86>    H        1.76858       -16.07491        -4.69855
| 87>    H        2.48964       -14.35981        -3.03697
| 88>    H        4.78835        -9.93874        -0.15678
| 89>    H        1.35991       -12.02292        -0.06832
| 90>    H        2.23151       -10.33358        -1.39499
| 91>    H        1.51963        -8.41269        -0.20113
| 92>    H        3.26267        -8.21014        -0.32997
| 93>    H        2.65469        -7.74040         1.97889
| 94>    H        3.47692        -9.29683         1.96804
| 95>    H        1.61055        -9.73968         3.30001
| 96>    H        0.47342       -11.42330         2.13838
| 97>    H       -0.54338        -8.82612         3.14157
| 98>    H       -0.30499        -6.49597         1.61939
| 99>    H        1.49762        -6.95183         4.05030
|100>    H       -0.03143        -4.24957         0.52212
|101>    H        1.38271        -5.30009         0.50227
|102>    H        1.56571        -3.56181         0.21534
|103>    H        1.65495        -2.03415         2.14544
|104>    H        2.44057        -0.87619         4.17449
|105>    H        2.97390        -1.90907         5.50930
|106>    H        1.30563        -1.35195         5.44259
|107>    H        2.35068        -3.98473         6.40573
|108>    H       -2.42842        -8.01093         6.51481
|109>    H        0.82713        -7.56340        10.29507
|110>    H       -3.79094        -9.76122         8.23338
|111> *
|112>
|113>                          ****END OF INPUT****

CARTESIAN COORDINATES (ANGSTROEM)
---------------------------------
  C      6.819440  -15.694800  -11.475120
  C      5.916710  -15.875330  -10.502730
  C      4.798330  -16.777610  -10.501110
  C      4.061420  -16.746510   -9.371450
  C      4.532450  -15.822380   -8.390890
  S      5.952910  -14.987410   -8.969330
  C      3.992290  -15.580150   -7.151310
  C      2.859460  -16.189720   -6.555190
  C      2.585630  -15.732400   -5.308390
  C      3.485510  -14.731930   -4.836160
  S      4.695590  -14.401480   -6.052850
  C      3.359580  -14.102900   -3.627480
  C      4.165960  -13.107390   -3.033400
  O      3.617960  -12.471950   -1.959330
  C      4.481850  -11.542010   -1.506070
  C      5.619400  -11.562370   -2.264090
  C      5.436840  -12.578290   -3.258470
  C      6.447190  -12.951000   -4.151700
  N      7.336330  -13.224040   -4.823600
  C      6.847970  -10.729340   -2.164340
  F      6.725080   -9.719070   -1.282990
  F      7.922710  -11.432230   -1.787600
  F      7.156790  -10.151670   -3.337750
  C      4.075530  -10.747610   -0.315080
  C      4.102080  -11.684400    0.908630
  O      5.073310  -12.141720    1.425260
  O      2.857720  -11.933240    1.317670
  C      1.879920  -11.266300    0.533070
  C      2.619760  -10.261550   -0.377620
  C      2.479250   -8.821730    0.120660
  C      2.576180   -8.773530    1.640350
  C      1.350150   -9.423780    2.288800
  C      0.846070  -10.633540    1.472120
  O     -0.237090  -10.180090    0.671660
  C     -0.654580   -8.957380    1.049080
  O     -1.493560   -8.350660    0.454400
  C      0.095880   -8.523870    2.299710
  C      0.270830   -7.037770    2.352860
  C      0.990750   -6.395630    3.270320
  C      1.182460   -4.964440    3.310780
  C      1.224520   -4.096970    2.243220
  C      1.024160   -4.313510    0.787560
  N      1.570110   -2.858070    2.720850
  C      1.782710   -2.892380    4.050250
  C      2.146790   -1.688410    4.835700
  C      1.529790   -4.199210    4.481990
  C      1.665760   -4.598300    5.832040
  C      1.033710   -5.608230    6.501940
  C      1.358800   -6.047720    7.845550
  C      2.472940   -5.710990    8.572290
  C      2.744670   -6.188210    9.871050
  N      3.019630   -6.537600   10.929900
  C      3.506850   -4.857460    8.135260
  N      4.393820   -4.182590    7.855230
  C      0.318600   -6.974750    8.276030
  C     -0.618870   -7.122300    7.225890
  C     -0.219250   -6.272290    6.082230
  O     -0.858830   -6.100850    5.065670
  C     -1.727450   -7.925820    7.330560
  C     -1.917800   -8.623910    8.527970
  C     -0.975670   -8.470090    9.572180
  C      0.143410   -7.653790    9.467810
  S     -1.407510   -9.413150   10.967200
  C     -2.826940   -9.994060   10.138540
  C     -2.972620   -9.508930    8.882770
  Br    -3.984340  -11.185980   11.009890
  H      6.762470  -16.256810  -12.390870
  H      7.626490  -14.992730  -11.372490
  H      4.601460  -17.409110  -11.349240
  H      3.190900  -17.353110   -9.196020
  H      2.285290  -16.943820   -7.062560
  H      1.768580  -16.074910   -4.698550
  H      2.489640  -14.359810   -3.036970
  H      4.788350   -9.938740   -0.156780
  H      1.359910  -12.022920   -0.068320
  H      2.231510  -10.333580   -1.394990
  H      1.519630   -8.412690   -0.201130
  H      3.262670   -8.210140   -0.329970
  H      2.654690   -7.740400    1.978890
  H      3.476920   -9.296830    1.968040
  H      1.610550   -9.739680    3.300010
  H      0.473420  -11.423300    2.138380
  H     -0.543380   -8.826120    3.141570
  H     -0.304990   -6.495970    1.619390
  H      1.497620   -6.951830    4.050300
  H     -0.031430   -4.249570    0.522120
  H      1.382710   -5.300090    0.502270
  H      1.565710   -3.561810    0.215340
  H      1.654950   -2.034150    2.145440
  H      2.440570   -0.876190    4.174490
  H      2.973900   -1.909070    5.509300
  H      1.305630   -1.351950    5.442590
  H      2.350680   -3.984730    6.405730
  H     -2.428420   -8.010930    6.514810
  H      0.827130   -7.563400   10.295070
  H     -3.790940   -9.761220    8.233380

 Total Charge           Charge          ....    0
 Multiplicity           Mult            ....    1
 Number of Electrons    NEL             ....  510
 Basis Dimension        Dim             .... 1104

ORBITAL ENERGIES
----------------

  NO   OCC          E(Eh)            E(eV)
   0   2.0000    -482.883967    -13139.9408
   1   2.0000     -88.972825     -2421.0736
   2   2.0000     -88.948970     -2420.4245
   3   2.0000     -88.945857     -2420.3398
   4   2.0000     -62.561671     -1702.3896
   5   2.0000     -56.395619     -1534.6028
   6   2.0000     -56.392908     -1534.5290
   7   2.0000     -56.392876     -1534.5282
   8   2.0000     -24.800922      -674.8674
   9   2.0000     -24.791703      -674.6165
  10   2.0000     -24.791125      -674.6008
  11   2.0000     -19.314546      -525.5755
  12   2.0000     -19.272747      -524.4381
  13   2.0000     -19.266895      -524.2789
  14   2.0000     -19.208771      -522.6972
  15   2.0000     -19.206241      -522.6284
  16   2.0000     -19.204829      -522.5900
  17   2.0000     -14.479411      -394.0048
  18   2.0000     -14.411890      -392.1675
  19   2.0000     -14.409563      -392.1041
  20   2.0000     -14.397811      -391.7844
  21   2.0000     -10.520581      -286.2796
  22   2.0000     -10.405758      -283.1551
  23   2.0000     -10.399016      -282.9716
  24   2.0000     -10.363558      -282.0068
  25   2.0000     -10.361311      -281.9456
  26   2.0000     -10.359536      -281.8973
  27   2.0000     -10.356822      -281.8234
  28   2.0000     -10.346139      -281.5328
  29   2.0000     -10.344749      -281.4949
  30   2.0000     -10.336038      -281.2579
  31   2.0000     -10.335020      -281.2302
  32   2.0000     -10.324950      -280.9562
  33   2.0000     -10.323500      -280.9167
  34   2.0000     -10.322226      -280.8820
  35   2.0000     -10.322180      -280.8808
  36   2.0000     -10.315708      -280.7047
  37   2.0000     -10.314767      -280.6791
  38   2.0000     -10.314189      -280.6633
  39   2.0000     -10.313637      -280.6483
  40   2.0000     -10.313107      -280.6339
  41   2.0000     -10.312224      -280.6099
  42   2.0000     -10.310231      -280.5556
  43   2.0000     -10.307093      -280.4703
  44   2.0000     -10.305440      -280.4253
  45   2.0000     -10.304909      -280.4108
  46   2.0000     -10.303573      -280.3745
  47   2.0000     -10.302176      -280.3365
  48   2.0000     -10.300570      -280.2928
  49   2.0000     -10.298063      -280.2245
  50   2.0000     -10.297536      -280.2102
  51   2.0000     -10.297379      -280.2059
  52   2.0000     -10.296863      -280.1919
  53   2.0000     -10.295140      -280.1450
  54   2.0000     -10.294635      -280.1313
  55   2.0000     -10.293482      -280.0999
  56   2.0000     -10.293433      -280.0986
  57   2.0000     -10.290966      -280.0314
  58   2.0000     -10.289252      -279.9848
  59   2.0000     -10.288540      -279.9654
  60   2.0000     -10.288098      -279.9534
  61   2.0000     -10.287923      -279.9486
  62   2.0000     -10.281859      -279.7836
  63   2.0000     -10.280816      -279.7552
  64   2.0000     -10.280126      -279.7364
  65   2.0000     -10.274345      -279.5791
  66   2.0000     -10.274316      -279.5783
  67   2.0000     -10.273349      -279.5520
  68   2.0000     -10.269703      -279.4528
  69   2.0000     -10.265491      -279.3382
  70   2.0000      -8.791089      -239.2177
  71   2.0000      -8.068879      -219.5654
  72   2.0000      -8.045008      -218.9158
  73   2.0000      -8.042662      -218.8520
  74   2.0000      -6.627364      -180.3397
  75   2.0000      -6.612840      -179.9445
  76   2.0000      -6.612637      -179.9390
  77   2.0000      -6.038583      -164.3182
  78   2.0000      -6.034295      -164.2015
  79   2.0000      -6.030066      -164.0864
  80   2.0000      -6.014775      -163.6703
  81   2.0000      -6.012467      -163.6075
  82   2.0000      -6.010612      -163.5571
  83   2.0000      -6.008487      -163.4993
  84   2.0000      -6.005811      -163.4264
  85   2.0000      -6.003189      -163.3551
  86   2.0000      -2.743256       -74.6478
  87   2.0000      -2.739151       -74.5361
  88   2.0000      -2.739013       -74.5323
  89   2.0000      -2.727462       -74.2180
  90   2.0000      -2.727444       -74.2175
  91   2.0000      -1.385450       -37.7000
  92   2.0000      -1.289115       -35.0786
  93   2.0000      -1.283986       -34.9390
  94   2.0000      -1.234040       -33.5799
  95   2.0000      -1.208974       -32.8978
  96   2.0000      -1.200246       -32.6603
  97   2.0000      -1.124077       -30.5877
  98   2.0000      -1.117315       -30.4037
  99   2.0000      -1.111431       -30.2436
 100   2.0000      -1.095885       -29.8205
 101   2.0000      -1.019129       -27.7319
 102   2.0000      -1.009560       -27.4715
 103   2.0000      -1.000521       -27.2256
 104   2.0000      -0.989666       -26.9302
 105   2.0000      -0.986430       -26.8421
 106   2.0000      -0.984827       -26.7985
 107   2.0000      -0.977201       -26.5910
 108   2.0000      -0.955497       -26.0004
 109   2.0000      -0.940886       -25.6028
 110   2.0000      -0.937525       -25.5114
 111   2.0000      -0.932861       -25.3845
 112   2.0000      -0.918869       -25.0037
 113   2.0000      -0.909809       -24.7571
 114   2.0000      -0.904615       -24.6158
 115   2.0000      -0.898685       -24.4545
 116   2.0000      -0.887406       -24.1475
 117   2.0000      -0.882821       -24.0228
 118   2.0000      -0.879073       -23.9208
 119   2.0000      -0.872786       -23.7497
 120   2.0000      -0.853968       -23.2376
 121   2.0000      -0.852475       -23.1970
 122   2.0000      -0.847574       -23.0637
 123   2.0000      -0.837357       -22.7857
 124   2.0000      -0.829549       -22.5732
 125   2.0000      -0.828300       -22.5392
 126   2.0000      -0.825956       -22.4754
 127   2.0000      -0.823181       -22.3999
 128   2.0000      -0.806576       -21.9480
 129   2.0000      -0.799718       -21.7614
 130   2.0000      -0.777276       -21.1507
 131   2.0000      -0.774587       -21.0776
 132   2.0000      -0.755181       -20.5495
 133   2.0000      -0.754686       -20.5360
 134   2.0000      -0.746051       -20.3011
 135   2.0000      -0.741287       -20.1714
 136   2.0000      -0.726239       -19.7620
 137   2.0000      -0.719934       -19.5904
 138   2.0000      -0.715652       -19.4739
 139   2.0000      -0.711061       -19.3489
 140   2.0000      -0.703735       -19.1496
 141   2.0000      -0.690954       -18.8018
 142   2.0000      -0.687652       -18.7120
 143   2.0000      -0.681260       -18.5380
 144   2.0000      -0.677543       -18.4369
 145   2.0000      -0.671609       -18.2754
 146   2.0000      -0.666671       -18.1410
 147   2.0000      -0.660106       -17.9624
 148   2.0000      -0.656303       -17.8589
 149   2.0000      -0.650289       -17.6953
 150   2.0000      -0.643623       -17.5139
 151   2.0000      -0.637194       -17.3389
 152   2.0000      -0.636416       -17.3178
 153   2.0000      -0.631762       -17.1911
 154   2.0000      -0.624492       -16.9933
 155   2.0000      -0.621558       -16.9135
 156   2.0000      -0.619290       -16.8517
 157   2.0000      -0.613155       -16.6848
 158   2.0000      -0.609871       -16.5954
 159   2.0000      -0.605584       -16.4788
 160   2.0000      -0.604931       -16.4610
 161   2.0000      -0.598466       -16.2851
 162   2.0000      -0.591709       -16.1012
 163   2.0000      -0.583220       -15.8702
 164   2.0000      -0.577722       -15.7206
 165   2.0000      -0.575895       -15.6709
 166   2.0000      -0.568000       -15.4561
 167   2.0000      -0.565836       -15.3972
 168   2.0000      -0.554990       -15.1020
 169   2.0000      -0.552523       -15.0349
 170   2.0000      -0.549612       -14.9557
 171   2.0000      -0.546514       -14.8714
 172   2.0000      -0.545553       -14.8452
 173   2.0000      -0.544826       -14.8255
 174   2.0000      -0.541388       -14.7319
 175   2.0000      -0.540115       -14.6973
 176   2.0000      -0.538832       -14.6624
 177   2.0000      -0.538382       -14.6501
 178   2.0000      -0.532732       -14.4964
 179   2.0000      -0.528147       -14.3716
 180   2.0000      -0.525020       -14.2865
 181   2.0000      -0.522855       -14.2276
 182   2.0000      -0.521085       -14.1794
 183   2.0000      -0.518472       -14.1083
 184   2.0000      -0.514550       -14.0016
 185   2.0000      -0.514179       -13.9915
 186   2.0000      -0.511813       -13.9271
 187   2.0000      -0.511007       -13.9052
 188   2.0000      -0.507708       -13.8154
 189   2.0000      -0.505898       -13.7662
 190   2.0000      -0.504598       -13.7308
 191   2.0000      -0.502291       -13.6680
 192   2.0000      -0.501680       -13.6514
 193   2.0000      -0.501493       -13.6463
 194   2.0000      -0.499760       -13.5992
 195   2.0000      -0.496229       -13.5031
 196   2.0000      -0.493838       -13.4380
 197   2.0000      -0.490304       -13.3418
 198   2.0000      -0.488839       -13.3020
 199   2.0000      -0.487139       -13.2557
 200   2.0000      -0.484217       -13.1762
 201   2.0000      -0.481389       -13.0993
 202   2.0000      -0.479405       -13.0453
 203   2.0000      -0.477410       -12.9910
 204   2.0000      -0.476182       -12.9576
 205   2.0000      -0.473449       -12.8832
 206   2.0000      -0.470406       -12.8004
 207   2.0000      -0.468862       -12.7584
 208   2.0000      -0.468515       -12.7489
 209   2.0000      -0.466891       -12.7048
 210   2.0000      -0.465592       -12.6694
 211   2.0000      -0.461654       -12.5622
 212   2.0000      -0.456157       -12.4127
 213   2.0000      -0.454639       -12.3714
 214   2.0000      -0.449844       -12.2409
 215   2.0000      -0.449231       -12.2242
 216   2.0000      -0.445142       -12.1129
 217   2.0000      -0.444764       -12.1026
 218   2.0000      -0.441417       -12.0116
 219   2.0000      -0.439257       -11.9528
 220   2.0000      -0.437079       -11.8935
 221   2.0000      -0.435418       -11.8483
 222   2.0000      -0.431070       -11.7300
 223   2.0000      -0.427122       -11.6226
 224   2.0000      -0.425936       -11.5903
 225   2.0000      -0.423314       -11.5190
 226   2.0000      -0.420404       -11.4398
 227   2.0000      -0.417787       -11.3686
 228   2.0000      -0.412836       -11.2338
 229   2.0000      -0.411574       -11.1995
 230   2.0000      -0.406715       -11.0673
 231   2.0000      -0.405065       -11.0224
 232   2.0000      -0.403348       -10.9756
 233   2.0000      -0.399766       -10.8782
 234   2.0000      -0.387674       -10.5491
 235   2.0000      -0.385696       -10.4953
 236   2.0000      -0.384245       -10.4558
 237   2.0000      -0.376013       -10.2318
 238   2.0000      -0.373341       -10.1591
 239   2.0000      -0.370976       -10.0948
 240   2.0000      -0.367317        -9.9952
 241   2.0000      -0.363691        -9.8965
 242   2.0000      -0.359503        -9.7826
 243   2.0000      -0.350533        -9.5385
 244   2.0000      -0.345637        -9.4053
 245   2.0000      -0.343693        -9.3523
 246   2.0000      -0.342874        -9.3301
 247   2.0000      -0.327921        -8.9232
 248   2.0000      -0.325673        -8.8620
 249   2.0000      -0.311752        -8.4832
 250   2.0000      -0.297689        -8.1005
 251   2.0000      -0.292769        -7.9666
 252   2.0000      -0.284994        -7.7551
 253   2.0000      -0.267323        -7.2742
 254   2.0000      -0.229954        -6.2574
 255   0.0000      -0.080085        -2.1792
 256   0.0000      -0.077487        -2.1085
 257   0.0000      -0.050847        -1.3836
 258   0.0000      -0.008201        -0.2232
 259   0.0000      -0.003396        -0.0924

MULLIKEN ATOMIC CHARGES
-----------------------
   0 C :   -0.018072
   1 C :   -0.071443
   2 C :    0.061620
   3 C :    0.028246
   4 C :   -0.062012
   5 S :    0.111947
   6 C :   -0.053346
   7 C :    0.045144
   8 C :    0.022703
   9 C :    0.003298
  10 S :    0.112108
  11 C :   -0.115853
  12 C :    0.206102
  13 O :   -0.214215
  14 C :    0.093885
  15 C :   -0.090806
  16 C :   -0.090486
  17 C :   -0.267440
  18 N :    0.173131
  19 C :    0.516858
  20 F :   -0.158911
  21 F :   -0.143734
  22 F :   -0.156356
  23 C :   -0.085125
  24 C :    0.180794
  25 O :   -0.143573
  26 O :   -0.256328
  27 C :    0.208461
  28 C :   -0.087828
  29 C :    0.095748
  30 C :    0.102726
  31 C :   -0.125354
  32 C :    0.176976
  33 O :   -0.273919
  34 C :    0.144692
  35 O :   -0.159714
  36 C :   -0.002122
  37 C :   -0.102377
  38 C :    0.062070
  39 C :    0.068035
  40 C :   -0.175590
  41 C :    0.125989
  42 N :   -0.021730
  43 C :   -0.136221
  44 C :    0.120738
  45 C :    0.061986
  46 C :   -0.081651
  47 C :   -0.097805
  48 C :    0.311925
  49 C :   -0.357703
  50 C :   -0.186000
  51 N :    0.147257
  52 C :   -0.198453
  53 N :    0.147762
  54 C :    0.014735
  55 C :   -0.013558
  56 C :    0.118687
  57 O :   -0.139958
  58 C :   -0.085463
  59 C :    0.121068
  60 C :   -0.090819
  61 C :   -0.026000
  62 S :    0.185013
  63 C :   -0.122424
  64 C :    0.036524
  65 Br:    0.021144
  66 H :    0.025695
  67 H :    0.031956
  68 H :   -0.005321
  69 H :   -0.008368
  70 H :   -0.008944
  71 H :   -0.009405
  72 H :   -0.005538
  73 H :    0.041966
  74 H :    0.028013
  75 H :    0.025350
  76 H :    0.018223
  77 H :    0.013093
  78 H :    0.014873
  79 H :    0.015220
  80 H :    0.016134
  81 H :    0.023962
  82 H :    0.056200
  83 H :    0.013419
  84 H :   -0.008918
  85 H :    0.050621
  86 H :    0.031077
  87 H :    0.000508
  88 H :    0.121867
  89 H :    0.006974
  90 H :    0.060555
  91 H :    0.048243
  92 H :    0.011430
  93 H :   -0.013443
  94 H :   -0.005718
  95 H :   -0.004705
Sum of atomic charges:   -0.0000000

LOEWDIN ATOMIC CHARGES
----------------------
   0 C :   -0.057897
   1 C :   -0.141616
   2 C :   -0.018341
   3 C :   -0.028182
   4 C :   -0.159900
   5 S :    0.375982
   6 C :   -0.190173
   7 C :   -0.017721
   8 C :   -0.040594
   9 C :   -0.121286
  10 S :    0.418163
  11 C :   -0.107263
  12 C :    0.073799
  13 O :    0.016551
  14 C :    0.058668
  15 C :   -0.105645
  16 C :   -0.112054
  17 C :   -0.063205
  18 N :   -0.046246
  19 C :    0.172014
  20 F :   -0.059156
  21 F :   -0.047490
  22 F :   -0.056074
  23 C :   -0.060505
  24 C :    0.073031
  25 O :   -0.136759
  26 O :   -0.066184
  27 C :    0.074537
  28 C :   -0.025570
  29 C :   -0.025887
  30 C :   -0.031546
  31 C :   -0.028104
  32 C :    0.072593
  33 O :   -0.081183
  34 C :    0.077821
  35 O :   -0.148611
  36 C :   -0.058584
  37 C :   -0.029872
  38 C :   -0.006015
  39 C :   -0.050909
  40 C :   -0.012491
  41 C :   -0.054039
  42 N :    0.106415
  43 C :    0.024965
  44 C :   -0.052259
  45 C :   -0.086452
  46 C :    0.083852
  47 C :   -0.119073
  48 C :    0.078586
  49 C :   -0.150315
  50 C :   -0.018831
  51 N :   -0.059180
  52 C :   -0.022486
  53 N :   -0.062116
  54 C :   -0.023145
  55 C :   -0.049439
  56 C :    0.074910
  57 O :   -0.133415
  58 C :    0.015228
  59 C :   -0.033358
  60 C :   -0.145747
  61 C :   -0.009896
  62 S :    0.430852
  63 C :   -0.272118
  64 C :   -0.071668
  65 Br:    0.134864
  66 H :    0.031432
  67 H :    0.030763
  68 H :    0.036062
  69 H :    0.033443
  70 H :    0.033534
  71 H :    0.033912
  72 H :    0.042587
  73 H :    0.049982
  74 H :    0.027833
  75 H :    0.036121
  76 H :    0.026995
  77 H :    0.029240
  78 H :    0.031058
  79 H :    0.025510
  80 H :    0.033422
  81 H :    0.026521
  82 H :    0.059838
  83 H :    0.026659
  84 H :    0.024151
  85 H :    0.042266
  86 H :    0.041397
  87 H :    0.028758
  88 H :    0.091703
  89 H :    0.034426
  90 H :    0.050955
  91 H :    0.046517
  92 H :    0.042646
  93 H :    0.038885
  94 H :    0.040963
  95 H :    0.038190

  Mayer bond orders larger than 0.100000
B(  0-C ,  1-C ) :   1.8705 B(  0-C , 66-H ) :   0.9507 B(  0-C , 67-H ) :   0.9413
B(  1-C ,  2-C ) :   1.0744 B(  1-C ,  5-S ) :   1.0050 B(  2-C ,  3-C ) :   1.6711
B(  2-C , 68-H ) :   0.9928 B(  3-C ,  4-C ) :   1.1415 B(  3-C , 69-H ) :   0.9926
B(  4-C ,  5-S ) :   1.0664 B(  4-C ,  6-C ) :   1.5591 B(  6-C ,  7-C ) :   1.1658
B(  6-C , 10-S ) :   1.0328 B(  7-C ,  8-C ) :   1.6119 B(  7-C , 70-H ) :   0.9920
B(  8-C ,  9-C ) :   1.1270 B(  8-C , 71-H ) :   1.0012 B(  9-C , 10-S ) :   1.0669
B(  9-C , 11-C ) :   1.5806 B( 11-C , 12-C ) :   1.1804 B( 11-C , 72-H ) :   0.9451
B( 12-C , 13-O ) :   1.1085 B( 12-C , 16-C ) :   1.4161 B( 13-O , 14-C ) :   1.1438
B( 14-C , 15-C ) :   1.6183 B( 14-C , 23-C ) :   1.0143 B( 15-C , 16-C ) :   1.2292
B( 15-C , 19-C ) :   0.9398 B( 16-C , 17-C ) :   1.1540 B( 17-C , 18-N ) :   2.9922
B( 19-C , 20-F ) :   1.1412 B( 19-C , 21-F ) :   1.2033 B( 19-C , 22-F ) :   1.1804
B( 23-C , 24-C ) :   0.8903 B( 23-C , 28-C ) :   0.9817 B( 23-C , 73-H ) :   0.8794
B( 24-C , 25-O ) :   2.2573 B( 24-C , 26-O ) :   1.1314 B( 26-O , 27-C ) :   0.9669
B( 27-C , 28-C ) :   0.9741 B( 27-C , 32-C ) :   1.0540 B( 27-C , 74-H ) :   0.9150
B( 28-C , 29-C ) :   1.0835 B( 28-C , 75-H ) :   0.9117 B( 29-C , 30-C ) :   1.1366
B( 29-C , 76-H ) :   0.9106 B( 29-C , 77-H ) :   0.9351 B( 30-C , 31-C ) :   1.0793
B( 30-C , 78-H ) :   0.9080 B( 30-C , 79-H ) :   0.9155 B( 31-C , 32-C ) :   0.9917
B( 31-C , 36-C ) :   1.0210 B( 31-C , 80-H ) :   0.9003 B( 32-C , 33-O ) :   0.9606
B( 32-C , 81-H ) :   0.9169 B( 33-O , 34-C ) :   1.1214 B( 34-C , 35-O ) :   2.2186
B( 34-C , 36-C ) :   0.9171 B( 36-C , 37-C ) :   1.0199 B( 36-C , 82-H ) :   0.8672
B( 37-C , 38-C ) :   1.8058 B( 37-C , 83-H ) :   0.9710 B( 38-C , 39-C ) :   1.0947
B( 38-C , 84-H ) :   0.9405 B( 39-C , 40-C ) :   1.5276 B( 39-C , 45-C ) :   1.1914
B( 40-C , 41-C ) :   1.1098 B( 40-C , 42-N ) :   1.1722 B( 41-C , 85-H ) :   0.9379
B( 41-C , 86-H ) :   0.9373 B( 41-C , 87-H ) :   0.9358 B( 42-N , 43-C ) :   1.2968
B( 42-N , 88-H ) :   0.9312 B( 43-C , 44-C ) :   1.1124 B( 43-C , 45-C ) :   1.3322
B( 44-C , 89-H ) :   0.9359 B( 44-C , 90-H ) :   0.9344 B( 44-C , 91-H ) :   0.9419
B( 45-C , 46-C ) :   1.1997 B( 46-C , 47-C ) :   1.5479 B( 46-C , 92-H ) :   0.9349
B( 47-C , 48-C ) :   1.0711 B( 47-C , 56-C ) :   0.9590 B( 48-C , 49-C ) :   1.6235
B( 48-C , 54-C ) :   1.0022 B( 49-C , 50-C ) :   1.1434 B( 49-C , 52-C ) :   1.1459
B( 50-C , 51-N ) :   2.9692 B( 52-C , 53-N ) :   2.9827 B( 54-C , 55-C ) :   1.2747
B( 54-C , 61-C ) :   1.4083 B( 55-C , 56-C ) :   0.9277 B( 55-C , 58-C ) :   1.4265
B( 56-C , 57-O ) :   2.2181 B( 58-C , 59-C ) :   1.2419 B( 58-C , 93-H ) :   1.0170
B( 59-C , 60-C ) :   1.3091 B( 59-C , 64-C ) :   1.1617 B( 60-C , 61-C ) :   1.3302
B( 60-C , 62-S ) :   1.0828 B( 61-C , 94-H ) :   0.9794 B( 62-S , 63-C ) :   1.0872
B( 63-C , 64-C ) :   1.6185 B( 63-C , 65-Br) :   1.0177 B( 64-C , 95-H ) :   1.0003

-----------------------------------------------------------------------------
         ABSORPTION SPECTRUM VIA TRANSITION ELECTRIC DIPOLE MOMENTS
-----------------------------------------------------------------------------
State   Energy  Wavelength   fosc         T2         TX        TY        TZ
        (cm-1)    (nm)                  (au**2)     (au)      (au)      (au)
-----------------------------------------------------------------------------
   0   19173.8    521.5   1.119668702  19.22463   0.61489  -1.60903  -4.03207
   1   23539.8    424.8   0.240902693   3.36910   0.03703  -1.20068   1.38784
   2   25920.5    385.8   0.326514674   4.14700  -0.14700   0.54298  -1.95718
   3   26015.6    384.4   0.001132714   0.01433  -0.01170   0.03238  -0.11467
   4   27863.9    358.9   0.020183548   0.23847   0.02088  -0.41595   0.25499
   5   29365.1    340.5   0.403689520   4.52576   1.55165   1.39094  -0.42829
   6   29455.0    339.5   0.011913983   0.13316  -0.16992  -0.26288  -0.18757
   7   29799.6    335.6   0.008346615   0.09221   0.10357  -0.03198  -0.28365
   8   30899.4    323.6   0.050075275   0.53352  -0.22634   0.12474  -0.68317
   9   31500.7    317.5   0.353113905   3.69037  -1.01484  -1.09361   1.21016
  10   32115.5    311.4   0.000646347   0.00663   0.05594   0.04091  -0.04269
  11   32227.3    310.3   0.273497802   2.79386  -1.07202  -0.96687   0.84249
  12   32487.7    307.8   0.173127839   1.75438   1.08233   0.68185  -0.34354
  13   33878.0    295.2   0.000028843   0.00028   0.01269   0.00772   0.00772
  14   34483.1    290.0   0.364065723   3.47576   1.59511   0.81967   0.50942
  15   34748.0    287.8   0.250618815   2.37443   1.17985   0.97474   0.17963
  16   35302.0    283.3   0.012912236   0.12041   0.00130  -0.23085  -0.25908
  17   38094.1    262.5   0.000030292   0.00026  -0.00424   0.00863   0.01301
  18   38626.2    258.9   0.190978899   1.62772   0.90112   0.21799  -0.87646
  19   39742.1    251.6   0.175419070   1.45312   0.01136  -0.44809   1.11902
  20   39805.1    251.2   0.081598728   0.67487   0.77658   0.12140  -0.23885
  21   39960.4    250.2   0.070464718   0.58052   0.06068   0.55140   0.52230

FINAL SINGLE POINT ENERGY     -6619.792435415413

DIPOLE MOMENT
-------------
                                X             Y             Z
Electronic contribution:    -41.60413     -38.39992     114.58890
Nuclear contribution   :     38.28754      38.83215    -117.39013
                        -----------------------------------------
Total Dipole Moment    :     -3.31658       0.43223      -2.80122
                        -----------------------------------------
Magnitude (a.u.)       :      4.36273
Magnitude (Debye)      :     11.08918

Rotational constants in cm-1:     0.001514     0.000294     0.000268
Rotational constants in MHz :    45.387188     8.820715     8.042002

                             ****ORCA TERMINATED NORMALLY****
TOTAL RUN TIME: 0 days 0 hours 13 minutes 56 seconds 142 msec
