                         Program Version 4.2.0 -  RELEASE  -
|  1> # ORCA input file
|  2> # SCF done       -179.283542203071          0.000634488798
|  3> ! CAM-B3LYP def2-SVP def2/J RIJCOSX Grid4 TightSCF
|  4> %maxcore 5000
|  5> %tddft
|  6>     Mode sTDDFT
|  7>     Ethresh 5.0
|  8>     maxcore 5000
|  9> end
| 10>
| 11> %pal
| 12>   nprocs 6
| 13>   end
| 14> * xyz 0 1
| 15>    C       -1.73300        -2.15894        -5.06923
| 16>    C       -0.59233        -1.91024        -4.41222
| 17>    C        0.33980        -0.84207        -4.63882
| 18>    C        1.40860        -0.84912        -3.81272
| 19>    C        1.41198        -1.91533        -2.86897
| 20>    S       -0.00990        -2.91621        -3.07615
| 21>    C        2.35752        -2.18205        -1.90808
| 22>    C        3.54687        -1.46917        -1.61881
| 23>    C        4.26869        -1.99682        -0.59624
| 24>    C        3.69870        -3.15922        -0.01091
| 25>    S        2.19746        -3.55469        -0.82467
| 26>    C        4.22919        -3.86728         1.03669
| 27>    C        3.69468        -5.01353         1.64597
| 28>    S        2.20499        -5.74737         1.11638
| 29>    C        2.30785        -6.97225         2.35306
| 30>    C        3.44686        -6.80029         3.13206
| 31>    C        4.22944        -5.71494         2.72991
| 32>    C        5.50844        -5.33871         3.41291
| 33>    C        6.04164        -6.48987         4.25826
| 34>    S        6.85542        -7.75128         3.19714
| 35>    C        4.93674        -7.09291         5.11645
| 36>    C        3.82760        -7.70522         4.26341
| 37>    C        1.31419        -7.97462         2.47665
| 38>    C        0.26509        -8.09608         1.63461
| 39>    N       -0.69414        -9.05955         1.78474
| 40>    C       -1.73991        -9.27044         0.96588
| 41>    S       -1.95190        -8.34052        -0.48334
| 42>    C       -3.38841        -9.25948        -0.84624
| 43>    N       -4.08423        -8.93817        -2.00720
| 44>    O       -5.08932        -9.58112        -2.26684
| 45>    O       -3.63402        -8.02672        -2.68707
| 46>    C       -3.67652       -10.21409         0.09160
| 47>    C       -2.75040       -10.24108         1.14870
| 48>    C       -2.79295       -11.09133         2.29465
| 49>    C       -3.68440       -12.08042         2.52900
| 50>    C       -3.70075       -12.88633         3.70200
| 51>    C       -2.84883       -12.90791         4.80448
| 52>    C       -1.68654       -12.13559         4.90819
| 53>    N       -0.71797       -11.51792         4.95942
| 54>    C       -3.25354       -13.85708         5.78680
| 55>    C       -4.38746       -14.55218         5.38662
| 56>    S       -4.99229       -14.05909         3.85425
| 57>    S       -4.94804       -15.75900         6.49938
| 58>    C       -3.63723       -15.31783         7.54462
| 59>    C       -2.81848       -14.30007         7.06987
| 60>    C       -1.80454       -13.97688         8.01620
| 61>    C       -0.91279       -12.89676         7.93320
| 62>    N       -0.19217       -12.00392         7.93344
| 63>    C       -1.87114       -14.76918         9.14995
| 64>    S       -3.19018       -15.90766         9.09758
| 65>    C       -1.00371       -14.72553        10.28873
| 66>    S       -1.64672       -14.94921        11.89569
| 67>    C       -0.08993       -14.76514        12.59385
| 68>    C        0.86692       -14.54563        11.65465
| 69>    C        0.35197       -14.52310        10.33350
| 70>    C        1.33637       -14.45684         9.21261
| 71>    C        2.45327       -15.45137         9.53803
| 72>    N        1.87179       -16.84024         9.48709
| 73>    O        0.98994       -17.02949         8.69173
| 74>    O        2.34040       -17.67169        10.22268
| 75>    C        3.12846       -15.21454        10.88685
| 76>    N        4.50111       -14.64604        10.69293
| 77>    O        5.08814       -14.94929         9.68436
| 78>    O        4.92751       -13.94790        11.57366
| 79>    C        2.33037       -14.32974        11.85496
| 80>    H       -2.05247        -1.52281        -5.87588
| 81>    H       -2.35971        -2.99434        -4.81609
| 82>    H        0.16459        -0.11701        -5.41380
| 83>    H        2.20406        -0.12556        -3.84187
| 84>    H        3.83191        -0.59174        -2.17115
| 85>    H        5.19807        -1.59209        -0.23512
| 86>    H        5.15961        -3.49511         1.44439
| 87>    H        5.33102        -4.47551         4.06470
| 88>    H        6.26107        -5.04548         2.67702
| 89>    H        6.85705        -6.13739         4.89502
| 90>    H        5.87764        -7.82449         2.29759
| 91>    H        4.52380        -6.29477         5.73878
| 92>    H        5.35305        -7.85624         5.77528
| 93>    H        2.95810        -7.90982         4.89104
| 94>    H        4.16688        -8.66392         3.85744
| 95>    H        1.42048        -8.67199         3.29682
| 96>    H        0.13443        -7.42930         0.79489
| 97>    H       -0.59728        -9.66801         2.59123
| 98>    H       -4.53493       -10.85408         0.00587
| 99>    H       -2.04316       -10.90807         3.04711
|100>    H       -4.45920       -12.30024         1.80887
|101>    H        0.02357       -14.82448        13.65761
|102>    H        1.74955       -13.44994         9.11784
|103>    H        0.87766       -14.71989         8.26016
|104>    H        3.22257       -15.43934         8.75162
|105>    H        3.30165       -16.20103        11.34579
|106>    H        2.56117       -13.27981        11.64810
|107>    H        2.62075       -14.53332        12.88471
|108> *
|109>
|110>                          ****END OF INPUT****

CARTESIAN COORDINATES (ANGSTROEM)
---------------------------------
  C     -1.733000   -2.158940   -5.069230
  C     -0.592330   -1.910240   -4.412220
  C      0.339800   -0.842070   -4.638820
  C      1.408600   -0.849120   -3.812720
  C      1.411980   -1.915330   -2.868970
  S     -0.009900   -2.916210   -3.076150
  C      2.357520   -2.182050   -1.908080
  C      3.546870   -1.469170   -1.618810
  C      4.268690   -1.996820   -0.596240
  C      3.698700   -3.159220   -0.010910
  S      2.197460   -3.554690   -0.824670
  C      4.229190   -3.867280    1.036690
  C      3.694680   -5.013530    1.645970
  S      2.204990   -5.747370    1.116380
  C      2.307850   -6.972250    2.353060
  C      3.446860   -6.800290    3.132060
  C      4.229440   -5.714940    2.729910
  C      5.508440   -5.338710    3.412910
  C      6.041640   -6.489870    4.258260
  S      6.855420   -7.751280    3.197140
  C      4.936740   -7.092910    5.116450
  C      3.827600   -7.705220    4.263410
  C      1.314190   -7.974620    2.476650
  C      0.265090   -8.096080    1.634610
  N     -0.694140   -9.059550    1.784740
  C     -1.739910   -9.270440    0.965880
  S     -1.951900   -8.340520   -0.483340
  C     -3.388410   -9.259480   -0.846240
  N     -4.084230   -8.938170   -2.007200
  O     -5.089320   -9.581120   -2.266840
  O     -3.634020   -8.026720   -2.687070
  C     -3.676520  -10.214090    0.091600
  C     -2.750400  -10.241080    1.148700
  C     -2.792950  -11.091330    2.294650
  C     -3.684400  -12.080420    2.529000
  C     -3.700750  -12.886330    3.702000
  C     -2.848830  -12.907910    4.804480
  C     -1.686540  -12.135590    4.908190
  N     -0.717970  -11.517920    4.959420
  C     -3.253540  -13.857080    5.786800
  C     -4.387460  -14.552180    5.386620
  S     -4.992290  -14.059090    3.854250
  S     -4.948040  -15.759000    6.499380
  C     -3.637230  -15.317830    7.544620
  C     -2.818480  -14.300070    7.069870
  C     -1.804540  -13.976880    8.016200
  C     -0.912790  -12.896760    7.933200
  N     -0.192170  -12.003920    7.933440
  C     -1.871140  -14.769180    9.149950
  S     -3.190180  -15.907660    9.097580
  C     -1.003710  -14.725530   10.288730
  S     -1.646720  -14.949210   11.895690
  C     -0.089930  -14.765140   12.593850
  C      0.866920  -14.545630   11.654650
  C      0.351970  -14.523100   10.333500
  C      1.336370  -14.456840    9.212610
  C      2.453270  -15.451370    9.538030
  N      1.871790  -16.840240    9.487090
  O      0.989940  -17.029490    8.691730
  O      2.340400  -17.671690   10.222680
  C      3.128460  -15.214540   10.886850
  N      4.501110  -14.646040   10.692930
  O      5.088140  -14.949290    9.684360
  O      4.927510  -13.947900   11.573660
  C      2.330370  -14.329740   11.854960
  H     -2.052470   -1.522810   -5.875880
  H     -2.359710   -2.994340   -4.816090
  H      0.164590   -0.117010   -5.413800
  H      2.204060   -0.125560   -3.841870
  H      3.831910   -0.591740   -2.171150
  H      5.198070   -1.592090   -0.235120
  H      5.159610   -3.495110    1.444390
  H      5.331020   -4.475510    4.064700
  H      6.261070   -5.045480    2.677020
  H      6.857050   -6.137390    4.895020
  H      5.877640   -7.824490    2.297590
  H      4.523800   -6.294770    5.738780
  H      5.353050   -7.856240    5.775280
  H      2.958100   -7.909820    4.891040
  H      4.166880   -8.663920    3.857440
  H      1.420480   -8.671990    3.296820
  H      0.134430   -7.429300    0.794890
  H     -0.597280   -9.668010    2.591230
  H     -4.534930  -10.854080    0.005870
  H     -2.043160  -10.908070    3.047110
  H     -4.459200  -12.300240    1.808870
  H      0.023570  -14.824480   13.657610
  H      1.749550  -13.449940    9.117840
  H      0.877660  -14.719890    8.260160
  H      3.222570  -15.439340    8.751620
  H      3.301650  -16.201030   11.345790
  H      2.561170  -13.279810   11.648100
  H      2.620750  -14.533320   12.884710

 Total Charge           Charge          ....    0
 Multiplicity           Mult            ....    1
 Number of Electrons    NEL             ....  526
 Basis Dimension        Dim             .... 1086

ORBITAL ENERGIES
----------------

  NO   OCC          E(Eh)            E(eV)
   0   2.0000     -88.991638     -2421.5856
   1   2.0000     -88.990203     -2421.5465
   2   2.0000     -88.987882     -2421.4834
   3   2.0000     -88.979165     -2421.2462
   4   2.0000     -88.972458     -2421.0637
   5   2.0000     -88.944929     -2420.3146
   6   2.0000     -88.938346     -2420.1354
   7   2.0000     -88.932238     -2419.9692
   8   2.0000     -88.902394     -2419.1571
   9   2.0000     -19.261815      -524.1406
  10   2.0000     -19.261043      -524.1196
  11   2.0000     -19.260861      -524.1147
  12   2.0000     -19.259732      -524.0840
  13   2.0000     -19.226472      -523.1789
  14   2.0000     -19.225309      -523.1472
  15   2.0000     -14.659436      -398.9035
  16   2.0000     -14.659385      -398.9021
  17   2.0000     -14.638000      -398.3202
  18   2.0000     -14.482586      -394.0912
  19   2.0000     -14.417609      -392.3231
  20   2.0000     -14.411625      -392.1603
  21   2.0000     -10.370094      -282.1846
  22   2.0000     -10.350129      -281.6413
  23   2.0000     -10.349234      -281.6170
  24   2.0000     -10.344679      -281.4930
  25   2.0000     -10.341745      -281.4132
  26   2.0000     -10.340887      -281.3898
  27   2.0000     -10.339120      -281.3418
  28   2.0000     -10.333636      -281.1925
  29   2.0000     -10.328955      -281.0651
  30   2.0000     -10.323486      -280.9163
  31   2.0000     -10.323241      -280.9097
  32   2.0000     -10.322726      -280.8957
  33   2.0000     -10.319673      -280.8126
  34   2.0000     -10.314645      -280.6758
  35   2.0000     -10.314002      -280.6583
  36   2.0000     -10.312348      -280.6133
  37   2.0000     -10.310728      -280.5692
  38   2.0000     -10.305907      -280.4380
  39   2.0000     -10.304566      -280.4015
  40   2.0000     -10.303120      -280.3622
  41   2.0000     -10.302231      -280.3380
  42   2.0000     -10.301042      -280.3056
  43   2.0000     -10.300768      -280.2981
  44   2.0000     -10.300327      -280.2861
  45   2.0000     -10.299638      -280.2674
  46   2.0000     -10.298633      -280.2401
  47   2.0000     -10.296313      -280.1769
  48   2.0000     -10.296227      -280.1746
  49   2.0000     -10.295329      -280.1501
  50   2.0000     -10.294809      -280.1360
  51   2.0000     -10.293212      -280.0925
  52   2.0000     -10.291330      -280.0413
  53   2.0000     -10.284338      -279.8511
  54   2.0000     -10.282972      -279.8139
  55   2.0000     -10.280495      -279.7465
  56   2.0000     -10.279865      -279.7294
  57   2.0000     -10.278284      -279.6863
  58   2.0000     -10.277616      -279.6681
  59   2.0000     -10.272631      -279.5325
  60   2.0000     -10.270220      -279.4669
  61   2.0000     -10.269683      -279.4523
  62   2.0000     -10.266631      -279.3692
  63   2.0000     -10.264639      -279.3150
  64   2.0000     -10.264318      -279.3063
  65   2.0000      -8.086945      -220.0570
  66   2.0000      -8.085334      -220.0131
  67   2.0000      -8.083300      -219.9578
  68   2.0000      -8.074539      -219.7194
  69   2.0000      -8.068334      -219.5505
  70   2.0000      -8.040094      -218.7821
  71   2.0000      -8.034289      -218.6241
  72   2.0000      -8.028999      -218.4802
  73   2.0000      -7.998055      -217.6381
  74   2.0000      -6.056492      -164.8055
  75   2.0000      -6.055336      -164.7741
  76   2.0000      -6.052841      -164.7062
  77   2.0000      -6.052239      -164.6898
  78   2.0000      -6.051090      -164.6585
  79   2.0000      -6.048657      -164.5923
  80   2.0000      -6.048615      -164.5912
  81   2.0000      -6.046095      -164.5226
  82   2.0000      -6.044925      -164.4908
  83   2.0000      -6.044305      -164.4739
  84   2.0000      -6.039905      -164.3542
  85   2.0000      -6.037724      -164.2948
  86   2.0000      -6.035760      -164.2414
  87   2.0000      -6.033310      -164.1747
  88   2.0000      -6.030467      -164.0973
  89   2.0000      -6.009310      -163.5216
  90   2.0000      -6.005451      -163.4166
  91   2.0000      -6.004128      -163.3806
  92   2.0000      -6.002125      -163.3261
  93   2.0000      -5.999964      -163.2673
  94   2.0000      -5.998825      -163.2363
  95   2.0000      -5.995133      -163.1359
  96   2.0000      -5.994885      -163.1291
  97   2.0000      -5.989516      -162.9830
  98   2.0000      -5.968332      -162.4066
  99   2.0000      -5.964667      -162.3068
 100   2.0000      -5.957783      -162.1195
 101   2.0000      -1.344009       -36.5724
 102   2.0000      -1.342152       -36.5218
 103   2.0000      -1.305325       -35.5197
 104   2.0000      -1.165219       -31.7072
 105   2.0000      -1.164413       -31.6853
 106   2.0000      -1.124076       -30.5877
 107   2.0000      -1.089460       -29.6457
 108   2.0000      -1.046418       -28.4745
 109   2.0000      -1.021426       -27.7944
 110   2.0000      -1.009031       -27.4571
 111   2.0000      -1.001254       -27.2455
 112   2.0000      -0.998320       -27.1657
 113   2.0000      -0.990338       -26.9485
 114   2.0000      -0.988979       -26.9115
 115   2.0000      -0.981232       -26.7007
 116   2.0000      -0.977506       -26.5993
 117   2.0000      -0.962557       -26.1925
 118   2.0000      -0.953163       -25.9369
 119   2.0000      -0.926275       -25.2052
 120   2.0000      -0.919572       -25.0228
 121   2.0000      -0.906790       -24.6750
 122   2.0000      -0.903104       -24.5747
 123   2.0000      -0.899893       -24.4873
 124   2.0000      -0.886181       -24.1142
 125   2.0000      -0.879255       -23.9258
 126   2.0000      -0.877164       -23.8689
 127   2.0000      -0.869704       -23.6659
 128   2.0000      -0.859691       -23.3934
 129   2.0000      -0.855832       -23.2884
 130   2.0000      -0.853517       -23.2254
 131   2.0000      -0.841143       -22.8887
 132   2.0000      -0.839179       -22.8352
 133   2.0000      -0.830391       -22.5961
 134   2.0000      -0.822086       -22.3701
 135   2.0000      -0.813470       -22.1356
 136   2.0000      -0.810131       -22.0448
 137   2.0000      -0.801108       -21.7993
 138   2.0000      -0.787719       -21.4349
 139   2.0000      -0.780493       -21.2383
 140   2.0000      -0.778973       -21.1969
 141   2.0000      -0.775109       -21.0918
 142   2.0000      -0.753411       -20.5013
 143   2.0000      -0.737365       -20.0647
 144   2.0000      -0.723957       -19.6999
 145   2.0000      -0.720744       -19.6124
 146   2.0000      -0.714572       -19.4445
 147   2.0000      -0.711303       -19.3556
 148   2.0000      -0.705546       -19.1989
 149   2.0000      -0.697940       -18.9919
 150   2.0000      -0.690714       -18.7953
 151   2.0000      -0.685312       -18.6483
 152   2.0000      -0.683078       -18.5875
 153   2.0000      -0.676034       -18.3958
 154   2.0000      -0.664770       -18.0893
 155   2.0000      -0.659477       -17.9453
 156   2.0000      -0.656199       -17.8561
 157   2.0000      -0.651102       -17.7174
 158   2.0000      -0.649895       -17.6846
 159   2.0000      -0.643015       -17.4973
 160   2.0000      -0.639686       -17.4067
 161   2.0000      -0.631853       -17.1936
 162   2.0000      -0.627961       -17.0877
 163   2.0000      -0.624885       -17.0040
 164   2.0000      -0.623698       -16.9717
 165   2.0000      -0.620542       -16.8858
 166   2.0000      -0.619153       -16.8480
 167   2.0000      -0.615732       -16.7549
 168   2.0000      -0.607448       -16.5295
 169   2.0000      -0.606120       -16.4934
 170   2.0000      -0.601980       -16.3807
 171   2.0000      -0.596617       -16.2348
 172   2.0000      -0.593802       -16.1582
 173   2.0000      -0.593091       -16.1388
 174   2.0000      -0.586668       -15.9641
 175   2.0000      -0.583312       -15.8727
 176   2.0000      -0.573558       -15.6073
 177   2.0000      -0.569096       -15.4859
 178   2.0000      -0.565491       -15.3878
 179   2.0000      -0.559450       -15.2234
 180   2.0000      -0.551892       -15.0177
 181   2.0000      -0.547994       -14.9117
 182   2.0000      -0.544289       -14.8108
 183   2.0000      -0.542977       -14.7751
 184   2.0000      -0.539964       -14.6932
 185   2.0000      -0.537601       -14.6289
 186   2.0000      -0.533353       -14.5133
 187   2.0000      -0.527092       -14.3429
 188   2.0000      -0.521512       -14.1911
 189   2.0000      -0.519431       -14.1344
 190   2.0000      -0.517416       -14.0796
 191   2.0000      -0.516523       -14.0553
 192   2.0000      -0.515087       -14.0162
 193   2.0000      -0.513599       -13.9758
 194   2.0000      -0.507336       -13.8053
 195   2.0000      -0.506947       -13.7947
 196   2.0000      -0.502403       -13.6711
 197   2.0000      -0.498412       -13.5625
 198   2.0000      -0.497358       -13.5338
 199   2.0000      -0.491668       -13.3790
 200   2.0000      -0.488627       -13.2962
 201   2.0000      -0.485420       -13.2089
 202   2.0000      -0.484764       -13.1911
 203   2.0000      -0.482444       -13.1280
 204   2.0000      -0.481459       -13.1012
 205   2.0000      -0.480147       -13.0655
 206   2.0000      -0.475648       -12.9430
 207   2.0000      -0.471896       -12.8409
 208   2.0000      -0.469355       -12.7718
 209   2.0000      -0.466928       -12.7058
 210   2.0000      -0.463433       -12.6107
 211   2.0000      -0.462073       -12.5736
 212   2.0000      -0.459746       -12.5103
 213   2.0000      -0.458684       -12.4814
 214   2.0000      -0.457299       -12.4437
 215   2.0000      -0.457067       -12.4374
 216   2.0000      -0.452475       -12.3125
 217   2.0000      -0.450683       -12.2637
 218   2.0000      -0.449558       -12.2331
 219   2.0000      -0.443273       -12.0621
 220   2.0000      -0.440840       -11.9959
 221   2.0000      -0.439783       -11.9671
 222   2.0000      -0.439021       -11.9464
 223   2.0000      -0.438159       -11.9229
 224   2.0000      -0.428087       -11.6488
 225   2.0000      -0.425167       -11.5694
 226   2.0000      -0.424387       -11.5482
 227   2.0000      -0.423548       -11.5253
 228   2.0000      -0.421838       -11.4788
 229   2.0000      -0.418965       -11.4006
 230   2.0000      -0.405132       -11.0242
 231   2.0000      -0.404749       -11.0138
 232   2.0000      -0.400427       -10.8962
 233   2.0000      -0.399165       -10.8618
 234   2.0000      -0.398130       -10.8337
 235   2.0000      -0.397073       -10.8049
 236   2.0000      -0.394765       -10.7421
 237   2.0000      -0.394284       -10.7290
 238   2.0000      -0.393870       -10.7178
 239   2.0000      -0.393656       -10.7119
 240   2.0000      -0.382862       -10.4182
 241   2.0000      -0.379110       -10.3161
 242   2.0000      -0.378696       -10.3048
 243   2.0000      -0.376234       -10.2379
 244   2.0000      -0.375318       -10.2129
 245   2.0000      -0.374438       -10.1890
 246   2.0000      -0.367105        -9.9894
 247   2.0000      -0.364509        -9.9188
 248   2.0000      -0.355037        -9.6610
 249   2.0000      -0.353508        -9.6194
 250   2.0000      -0.335027        -9.1165
 251   2.0000      -0.332744        -9.0544
 252   2.0000      -0.330890        -9.0040
 253   2.0000      -0.328602        -8.9417
 254   2.0000      -0.323205        -8.7949
 255   2.0000      -0.318404        -8.6642
 256   2.0000      -0.302331        -8.2268
 257   2.0000      -0.300059        -8.1650
 258   2.0000      -0.293948        -7.9987
 259   2.0000      -0.284198        -7.7334
 260   2.0000      -0.273522        -7.4429
 261   2.0000      -0.246750        -6.7144
 262   2.0000      -0.203582        -5.5397
 263   0.0000      -0.069366        -1.8876
 264   0.0000      -0.057081        -1.5533
 265   0.0000      -0.045567        -1.2399
 266   0.0000      -0.043190        -1.1753
 267   0.0000      -0.032152        -0.8749

MULLIKEN ATOMIC CHARGES
-----------------------
   0 C :   -0.029670
   1 C :   -0.064191
   2 C :    0.051048
   3 C :    0.028944
   4 C :   -0.067610
   5 S :    0.083916
   6 C :   -0.038314
   7 C :    0.033429
   8 C :    0.029209
   9 C :   -0.030673
  10 S :    0.058046
  11 C :   -0.032437
  12 C :   -0.077809
  13 S :    0.065231
  14 C :   -0.091241
  15 C :   -0.073175
  16 C :   -0.109027
  17 C :    0.193214
  18 C :   -0.217614
  19 S :   -0.060796
  20 C :    0.112147
  21 C :    0.097285
  22 C :   -0.017462
  23 C :    0.033179
  24 N :   -0.010750
  25 C :   -0.105826
  26 S :    0.155663
  27 C :   -0.012681
  28 N :    0.279679
  29 O :   -0.263143
  30 O :   -0.273356
  31 C :    0.009702
  32 C :    0.117516
  33 C :   -0.018689
  34 C :    0.033361
  35 C :   -0.091932
  36 C :   -0.038736
  37 C :   -0.277498
  38 N :    0.144296
  39 C :    0.150524
  40 C :   -0.241412
  41 S :    0.169730
  42 S :    0.191926
  43 C :   -0.231953
  44 C :    0.126663
  45 C :    0.000895
  46 C :   -0.315756
  47 N :    0.198110
  48 C :   -0.113831
  49 S :    0.195248
  50 C :   -0.199303
  51 S :    0.146069
  52 C :   -0.124849
  53 C :   -0.089924
  54 C :   -0.050053
  55 C :    0.236301
  56 C :   -0.037045
  57 N :    0.221115
  58 O :   -0.212900
  59 O :   -0.219984
  60 C :   -0.019658
  61 N :    0.215756
  62 O :   -0.223478
  63 O :   -0.211728
  64 C :    0.261244
  65 H :    0.019686
  66 H :    0.028536
  67 H :   -0.011146
  68 H :   -0.011676
  69 H :   -0.017690
  70 H :   -0.016285
  71 H :   -0.018737
  72 H :    0.018305
  73 H :    0.022152
  74 H :    0.037871
  75 H :    0.063549
  76 H :    0.005942
  77 H :    0.008857
  78 H :    0.022251
  79 H :    0.019519
  80 H :    0.003619
  81 H :    0.036609
  82 H :    0.151712
  83 H :    0.009004
  84 H :   -0.037723
  85 H :   -0.024701
  86 H :    0.024001
  87 H :    0.043241
  88 H :    0.046971
  89 H :    0.092639
  90 H :    0.089594
  91 H :    0.031815
  92 H :    0.017143
Sum of atomic charges:   -0.0000000

LOEWDIN ATOMIC CHARGES
----------------------
   0 C :   -0.072192
   1 C :   -0.140503
   2 C :   -0.030071
   3 C :   -0.028052
   4 C :   -0.175158
   5 S :    0.354922
   6 C :   -0.183494
   7 C :   -0.036773
   8 C :   -0.034978
   9 C :   -0.152553
  10 S :    0.363493
  11 C :   -0.078846
  12 C :   -0.171190
  13 S :    0.417382
  14 C :   -0.178076
  15 C :   -0.063101
  16 C :   -0.068801
  17 C :   -0.036610
  18 C :   -0.123154
  19 S :    0.150092
  20 C :   -0.035287
  21 C :   -0.032149
  22 C :   -0.071209
  23 C :    0.001332
  24 N :    0.056478
  25 C :   -0.083999
  26 S :    0.455240
  27 C :   -0.215254
  28 N :    0.274181
  29 O :   -0.229367
  30 O :   -0.239724
  31 C :    0.009447
  32 C :   -0.121538
  33 C :    0.007565
  34 C :   -0.070082
  35 C :   -0.115363
  36 C :   -0.120872
  37 C :   -0.022142
  38 N :   -0.068895
  39 C :   -0.059027
  40 C :   -0.339722
  41 S :    0.452963
  42 S :    0.424514
  43 C :   -0.333101
  44 C :   -0.063668
  45 C :   -0.102357
  46 C :   -0.032371
  47 N :   -0.046756
  48 C :   -0.143812
  49 S :    0.461962
  50 C :   -0.201098
  51 S :    0.443796
  52 C :   -0.175448
  53 C :   -0.071621
  54 C :   -0.051846
  55 C :   -0.020186
  56 C :    0.005364
  57 N :    0.275782
  58 O :   -0.181052
  59 O :   -0.188518
  60 C :    0.002044
  61 N :    0.272822
  62 O :   -0.192344
  63 O :   -0.180771
  64 C :   -0.018405
  65 H :    0.028599
  66 H :    0.028956
  67 H :    0.033266
  68 H :    0.032028
  69 H :    0.030291
  70 H :    0.031864
  71 H :    0.036136
  72 H :    0.034573
  73 H :    0.029094
  74 H :    0.026897
  75 H :   -0.031573
  76 H :    0.024643
  77 H :    0.027447
  78 H :    0.034512
  79 H :    0.028676
  80 H :    0.037506
  81 H :    0.018698
  82 H :    0.102163
  83 H :    0.043429
  84 H :    0.028154
  85 H :    0.027244
  86 H :    0.027585
  87 H :    0.049184
  88 H :    0.043443
  89 H :    0.055857
  90 H :    0.055683
  91 H :    0.045587
  92 H :    0.042217

  Mayer bond orders larger than 0.100000
B(  0-C ,  1-C ) :   1.8629 B(  0-C , 65-H ) :   0.9516 B(  0-C , 66-H ) :   0.9420
B(  1-C ,  2-C ) :   1.0783 B(  1-C ,  5-S ) :   1.0076 B(  2-C ,  3-C ) :   1.6617
B(  2-C , 67-H ) :   0.9932 B(  3-C ,  4-C ) :   1.1509 B(  3-C , 68-H ) :   0.9918
B(  4-C ,  5-S ) :   1.0479 B(  4-C ,  6-C ) :   1.5570 B(  6-C ,  7-C ) :   1.1699
B(  6-C , 10-S ) :   1.0298 B(  7-C ,  8-C ) :   1.6052 B(  7-C , 69-H ) :   0.9917
B(  8-C ,  9-C ) :   1.1382 B(  8-C , 70-H ) :   0.9990 B(  9-C , 10-S ) :   1.0367
B(  9-C , 11-C ) :   1.5633 B( 11-C , 12-C ) :   1.2023 B( 11-C , 71-H ) :   0.9610
B( 12-C , 13-S ) :   1.0923 B( 12-C , 16-C ) :   1.4436 B( 13-S , 14-C ) :   1.1006
B( 14-C , 15-C ) :   1.4643 B( 14-C , 22-C ) :   1.1977 B( 15-C , 16-C ) :   1.3474
B( 15-C , 21-C ) :   1.0474 B( 16-C , 17-C ) :   1.0486 B( 17-C , 18-C ) :   1.0164
B( 17-C , 72-H ) :   0.8999 B( 17-C , 73-H ) :   0.9098 B( 18-C , 19-S ) :   1.0427
B( 18-C , 20-C ) :   1.0075 B( 18-C , 74-H ) :   0.9286 B( 19-S , 75-H ) :   0.9509
B( 20-C , 21-C ) :   1.0845 B( 20-C , 76-H ) :   0.9379 B( 20-C , 77-H ) :   0.9303
B( 21-C , 78-H ) :   0.9123 B( 21-C , 79-H ) :   0.9100 B( 22-C , 23-C ) :   1.6566
B( 22-C , 80-H ) :   0.9599 B( 23-C , 24-N ) :   1.0971 B( 23-C , 81-H ) :   0.9602
B( 24-N , 25-C ) :   1.2949 B( 24-N , 82-H ) :   0.9063 B( 25-C , 26-S ) :   1.1385
B( 25-C , 32-C ) :   1.2863 B( 26-S , 27-C ) :   1.0489 B( 27-C , 28-N ) :   0.9907
B( 27-C , 31-C ) :   1.4923 B( 28-N , 29-O ) :   1.5187 B( 28-N , 30-O ) :   1.4986
B( 29-O , 30-O ) :   0.2502 B( 31-C , 32-C ) :   1.2318 B( 31-C , 83-H ) :   0.9996
B( 32-C , 33-C ) :   1.1171 B( 33-C , 34-C ) :   1.7086 B( 33-C , 84-H ) :   0.9467
B( 34-C , 35-C ) :   1.1496 B( 34-C , 85-H ) :   0.9446 B( 35-C , 36-C ) :   1.4728
B( 35-C , 41-S ) :   1.1341 B( 36-C , 37-C ) :   1.1801 B( 36-C , 39-C ) :   1.2574
B( 37-C , 38-N ) :   2.9263 B( 39-C , 40-C ) :   1.4203 B( 39-C , 44-C ) :   1.0719
B( 40-C , 41-S ) :   1.0804 B( 40-C , 42-S ) :   1.0791 B( 42-S , 43-C ) :   1.0871
B( 43-C , 44-C ) :   1.4248 B( 43-C , 49-S ) :   1.0832 B( 44-C , 45-C ) :   1.2390
B( 45-C , 46-C ) :   1.1800 B( 45-C , 48-C ) :   1.5356 B( 46-C , 47-N ) :   2.9491
B( 48-C , 49-S ) :   1.1561 B( 48-C , 50-C ) :   1.0943 B( 50-C , 51-S ) :   1.1462
B( 50-C , 52-C ) :   0.1031 B( 50-C , 54-C ) :   1.5732 B( 51-S , 52-C ) :   1.1534
B( 52-C , 53-C ) :   1.5854 B( 52-C , 86-H ) :   0.9727 B( 53-C , 54-C ) :   1.2538
B( 53-C , 64-C ) :   1.0569 B( 54-C , 55-C ) :   1.0563 B( 55-C , 56-C ) :   1.0671
B( 55-C , 87-H ) :   0.8829 B( 55-C , 88-H ) :   0.8873 B( 56-C , 57-N ) :   0.8010
B( 56-C , 60-C ) :   0.9865 B( 56-C , 89-H ) :   0.8823 B( 57-N , 58-O ) :   1.5838
B( 57-N , 59-O ) :   1.5735 B( 58-O , 59-O ) :   0.2677 B( 60-C , 61-N ) :   0.8133
B( 60-C , 64-C ) :   1.0606 B( 60-C , 90-H ) :   0.8750 B( 61-N , 62-O ) :   1.5688
B( 61-N , 63-O ) :   1.5899 B( 62-O , 63-O ) :   0.2696 B( 64-C , 91-H ) :   0.8803
B( 64-C , 92-H ) :   0.9076

-----------------------------------------------------------------------------
         ABSORPTION SPECTRUM VIA TRANSITION ELECTRIC DIPOLE MOMENTS
-----------------------------------------------------------------------------
State   Energy  Wavelength   fosc         T2         TX        TY        TZ
        (cm-1)    (nm)                  (au**2)     (au)      (au)      (au)
-----------------------------------------------------------------------------
   0   15179.0    658.8   0.881233101  19.11276   0.49588   3.43195  -2.66244
   1   19666.4    508.5   0.140815428   2.35723   0.39416   0.96761  -1.12499
   2   21571.6    463.6   0.382992703   5.84500   1.80057  -0.20658   1.60008
   3   24270.1    412.0   0.748935271  10.15893  -2.81760  -1.07255  -1.03426
   4   26263.4    380.8   0.093953747   1.17771   0.41965  -0.37814   0.92661
   5   26314.8    380.0   0.728184644   9.10996   1.02188  -1.16108   2.59183
   6   28420.8    351.9   0.107871658   1.24953   0.94703   0.58346   0.11066
   7   29950.4    333.9   0.000292312   0.00321  -0.00497   0.03046  -0.04754
   8   30641.3    326.4   0.084459480   0.90744   0.81672   0.32923   0.36334
   9   31538.5    317.1   0.003910543   0.04082  -0.19093  -0.04030  -0.05237
  10   31870.0    313.8   0.227796957   2.35311  -1.21431  -0.41870  -0.83860
  11   31951.2    313.0   0.002655336   0.02736  -0.04584  -0.11545   0.10922
  12   32145.2    311.1   0.051909896   0.53163  -0.07231   0.37575  -0.62066
  13   32595.6    306.8   0.462885188   4.67509   0.67664  -0.76334   1.90645
  14   32954.1    303.5   0.019885229   0.19865  -0.39723  -0.20030  -0.02715
  15   33553.0    298.0   0.045886164   0.45022   0.02835  -0.32139   0.58832
  16   33776.0    296.1   0.295388533   2.87913  -1.11003  -0.21719  -1.26483
  17   34459.3    290.2   0.101175928   0.96660   0.80825   0.53882   0.15167
  18   34759.4    287.7   0.013498715   0.12785  -0.24441  -0.24878   0.07888
  19   35071.4    285.1   0.139948533   1.31368   0.08073  -0.69312   0.90926
  20   35514.0    281.6   0.042363428   0.39271   0.47729   0.40392   0.04173
  21   35958.1    278.1   0.131852068   1.20716  -0.70238  -0.00759  -0.84485
  22   36784.4    271.9   0.061839855   0.55345   0.01699  -0.46793   0.57811
  23   37293.6    268.1   0.000884644   0.00781  -0.05040   0.05194  -0.05071
  24   37555.2    266.3   0.058933092   0.51661   0.20459  -0.31454   0.61304
  25   37663.0    265.5   0.001216541   0.01063   0.07849   0.03110   0.05921
  26   38332.5    260.9   0.006860473   0.05892  -0.13285  -0.19387   0.06071
  27   38624.6    258.9   0.110478259   0.94165  -0.64447   0.16634  -0.70614
  28   38887.1    257.2   0.075712738   0.64097  -0.63180  -0.02883  -0.49089
  29   39236.2    254.9   0.024548462   0.20597  -0.33934  -0.28680   0.09255
  30   39964.1    250.2   0.000271985   0.00224   0.02603   0.01360  -0.03712
  31   40107.9    249.3   0.027983368   0.22969   0.34297  -0.13966   0.30423
  32   40278.6    248.3   0.004035026   0.03298   0.14553   0.07774  -0.07587

FINAL SINGLE POINT ENERGY     -6052.601769337942

DIPOLE MOMENT
-------------
                                X             Y             Z
Electronic contribution:    -50.02512     -49.60584      12.29006
Nuclear contribution   :     49.48385      49.85843     -10.33646
                        -----------------------------------------
Total Dipole Moment    :     -0.54127       0.25259       1.95360
                        -----------------------------------------
Magnitude (a.u.)       :      2.04287
Magnitude (Debye)      :      5.19256

Rotational constants in cm-1:     0.001177     0.000356     0.000283
Rotational constants in MHz :    35.291777    10.683790     8.475369

                             ****ORCA TERMINATED NORMALLY****
TOTAL RUN TIME: 0 days 0 hours 7 minutes 27 seconds 677 msec
