                         Program Version 4.2.0 -  RELEASE  -
|  1> # ORCA input file
|  2> # SCF done       -207.985140698950          0.000564342800
|  3> ! CAM-B3LYP def2-SVP def2/J RIJCOSX Grid4 TightSCF
|  4> %maxcore 5000
|  5> %tddft
|  6>     Mode sTDDFT
|  7>     Ethresh 5.0
|  8>     maxcore 5000
|  9> end
| 10>
| 11> %pal
| 12>   nprocs 6
| 13>   end
| 14> * xyz 0 1
| 15>    C       -2.25649         3.23109        -0.92261
| 16>    C       -3.46677         2.99516        -1.56164
| 17>    C       -3.58050         3.05377        -2.94378
| 18>    C       -2.47355         3.33506        -3.73229
| 19>    C       -1.26508         3.56342        -3.10253
| 20>    C       -1.14872         3.52622        -1.70017
| 21>    C        0.22825         3.85176        -1.32994
| 22>    C        0.61524         4.33590        -0.10869
| 23>    C       -0.24893         4.45475         1.00138
| 24>    N       -0.90522         4.58016         1.93382
| 25>    C        1.89311         4.86372         0.16192
| 26>    N        2.91236         5.32436         0.42091
| 27>    C        1.01005         3.83702        -2.54933
| 28>    C        0.05358         3.84689        -3.69816
| 29>    O        0.33436         4.00821        -4.86222
| 30>    C        2.34138         3.73892        -2.81293
| 31>    C        3.39115         3.35248        -1.95028
| 32>    C        3.32221         2.64933        -0.75452
| 33>    C        4.57523         2.43699        -0.19935
| 34>    C        5.62322         2.97383        -0.98045
| 35>    S        5.05255         3.71748        -2.40057
| 36>    C        6.84991         2.72744        -0.32302
| 37>    C        6.57594         2.03787         0.88001
| 38>    C        5.14028         1.84494         0.99979
| 39>    C        4.45658         1.26782         2.02945
| 40>    C        5.10729         0.73219         3.16075
| 41>    N        5.63473         0.28924         4.07723
| 42>    C        3.04858         1.17769         2.01417
| 43>    N        1.90440         1.10846         1.98209
| 44>    C        7.72004         1.74752         1.60563
| 45>    C        8.86908         2.20769         0.96893
| 46>    S        8.52066         3.01658        -0.54992
| 47>    C       10.20113         2.07532         1.43265
| 48>    C       11.28831         2.60479         0.69693
| 49>    C       12.66120         2.50735         1.12751
| 50>    N       13.62758         2.98813         0.33271
| 51>    C       13.31747         3.56337        -0.80262
| 52>    C       11.95020         3.70748        -1.20497
| 53>    N       10.99397         3.22056        -0.45377
| 54>    C       11.61464         4.35748        -2.41831
| 55>    N       11.36959         4.88259        -3.40600
| 56>    C       14.35342         4.02415        -1.65575
| 57>    N       15.15528         4.39257        -2.38484
| 58>    C       13.00209         1.88124         2.35372
| 59>    C       11.91770         1.32615         3.07023
| 60>    C       10.54704         1.41755         2.63435
| 61>    N        9.72236         0.81763         3.49409
| 62>    S       10.56362         0.20843         4.71198
| 63>    N       12.02366         0.66579         4.22397
| 64>    C       14.32363         1.78689         2.86345
| 65>    C       15.48002         2.39339         2.38317
| 66>    C       16.59244         2.06737         3.14329
| 67>    C       16.29186         1.19399         4.21282
| 68>    S       14.63118         0.80889         4.29326
| 69>    C       17.48946         0.91426         4.90939
| 70>    C       18.54759         1.60809         4.28273
| 71>    C       18.01347         2.37362         3.17025
| 72>    C       18.69714         3.24112         2.37056
| 73>    C       20.08062         3.45852         2.54302
| 74>    N       21.20593         3.61540         2.69783
| 75>    C       18.06204         3.98369         1.35183
| 76>    N       17.53990         4.59266         0.53335
| 77>    C       19.76940         1.41355         4.91036
| 78>    C       19.66446         0.58190         6.01679
| 79>    S       18.01792         0.01069         6.25228
| 80>    C       20.68643         0.13818         6.88657
| 81>    C       21.91779         0.67830         7.09186
| 82>    C       22.51674         1.95313         6.75077
| 83>    C       21.87474         3.15991         6.64632
| 84>    C       22.54073         4.39032         6.46238
| 85>    N       23.03376         5.41723         6.32690
| 86>    C       20.48695         3.33063         6.81213
| 87>    N       19.36447         3.52169         6.96148
| 88>    C       23.96284         1.77922         6.81699
| 89>    C       24.24570         0.52587         7.42097
| 90>    C       22.98204        -0.17383         7.70324
| 91>    O       22.81771        -1.23395         8.26116
| 92>    C       25.53035         0.09622         7.65429
| 93>    C       26.58003         0.93286         7.26314
| 94>    C       26.28576         2.17271         6.64385
| 95>    C       24.98730         2.61328         6.41520
| 96>    S       27.73582         3.02957         6.23193
| 97>    C       28.70421         1.75341         6.88310
| 98>    C       27.98302         0.72728         7.38543
| 99>    H       -2.18959         3.16908         0.15157
|100>    H       -4.33666         2.76154        -0.96656
|101>    H       -4.53816         2.87421        -3.40846
|102>    H       -2.54004         3.37785        -4.80844
|103>    H        2.61521         3.92479        -3.84733
|104>    H        2.40036         2.27953        -0.34405
|105>    H        7.75780         1.23178         2.54757
|106>    H       15.47838         3.03305         1.52051
|107>    H       20.70513         1.81526         4.56675
|108>    H       20.49927        -0.79063         7.41696
|109>    H       25.71890        -0.85687         8.12342
|110>    H       24.80820         3.55903         5.93086
|111>    H       29.77186         1.85138         6.84819
|112>    H       28.41416        -0.15147         7.82964
|113> *
|114>
|115>                          ****END OF INPUT****

CARTESIAN COORDINATES (ANGSTROEM)
---------------------------------
  C     -2.256490    3.231090   -0.922610
  C     -3.466770    2.995160   -1.561640
  C     -3.580500    3.053770   -2.943780
  C     -2.473550    3.335060   -3.732290
  C     -1.265080    3.563420   -3.102530
  C     -1.148720    3.526220   -1.700170
  C      0.228250    3.851760   -1.329940
  C      0.615240    4.335900   -0.108690
  C     -0.248930    4.454750    1.001380
  N     -0.905220    4.580160    1.933820
  C      1.893110    4.863720    0.161920
  N      2.912360    5.324360    0.420910
  C      1.010050    3.837020   -2.549330
  C      0.053580    3.846890   -3.698160
  O      0.334360    4.008210   -4.862220
  C      2.341380    3.738920   -2.812930
  C      3.391150    3.352480   -1.950280
  C      3.322210    2.649330   -0.754520
  C      4.575230    2.436990   -0.199350
  C      5.623220    2.973830   -0.980450
  S      5.052550    3.717480   -2.400570
  C      6.849910    2.727440   -0.323020
  C      6.575940    2.037870    0.880010
  C      5.140280    1.844940    0.999790
  C      4.456580    1.267820    2.029450
  C      5.107290    0.732190    3.160750
  N      5.634730    0.289240    4.077230
  C      3.048580    1.177690    2.014170
  N      1.904400    1.108460    1.982090
  C      7.720040    1.747520    1.605630
  C      8.869080    2.207690    0.968930
  S      8.520660    3.016580   -0.549920
  C     10.201130    2.075320    1.432650
  C     11.288310    2.604790    0.696930
  C     12.661200    2.507350    1.127510
  N     13.627580    2.988130    0.332710
  C     13.317470    3.563370   -0.802620
  C     11.950200    3.707480   -1.204970
  N     10.993970    3.220560   -0.453770
  C     11.614640    4.357480   -2.418310
  N     11.369590    4.882590   -3.406000
  C     14.353420    4.024150   -1.655750
  N     15.155280    4.392570   -2.384840
  C     13.002090    1.881240    2.353720
  C     11.917700    1.326150    3.070230
  C     10.547040    1.417550    2.634350
  N      9.722360    0.817630    3.494090
  S     10.563620    0.208430    4.711980
  N     12.023660    0.665790    4.223970
  C     14.323630    1.786890    2.863450
  C     15.480020    2.393390    2.383170
  C     16.592440    2.067370    3.143290
  C     16.291860    1.193990    4.212820
  S     14.631180    0.808890    4.293260
  C     17.489460    0.914260    4.909390
  C     18.547590    1.608090    4.282730
  C     18.013470    2.373620    3.170250
  C     18.697140    3.241120    2.370560
  C     20.080620    3.458520    2.543020
  N     21.205930    3.615400    2.697830
  C     18.062040    3.983690    1.351830
  N     17.539900    4.592660    0.533350
  C     19.769400    1.413550    4.910360
  C     19.664460    0.581900    6.016790
  S     18.017920    0.010690    6.252280
  C     20.686430    0.138180    6.886570
  C     21.917790    0.678300    7.091860
  C     22.516740    1.953130    6.750770
  C     21.874740    3.159910    6.646320
  C     22.540730    4.390320    6.462380
  N     23.033760    5.417230    6.326900
  C     20.486950    3.330630    6.812130
  N     19.364470    3.521690    6.961480
  C     23.962840    1.779220    6.816990
  C     24.245700    0.525870    7.420970
  C     22.982040   -0.173830    7.703240
  O     22.817710   -1.233950    8.261160
  C     25.530350    0.096220    7.654290
  C     26.580030    0.932860    7.263140
  C     26.285760    2.172710    6.643850
  C     24.987300    2.613280    6.415200
  S     27.735820    3.029570    6.231930
  C     28.704210    1.753410    6.883100
  C     27.983020    0.727280    7.385430
  H     -2.189590    3.169080    0.151570
  H     -4.336660    2.761540   -0.966560
  H     -4.538160    2.874210   -3.408460
  H     -2.540040    3.377850   -4.808440
  H      2.615210    3.924790   -3.847330
  H      2.400360    2.279530   -0.344050
  H      7.757800    1.231780    2.547570
  H     15.478380    3.033050    1.520510
  H     20.705130    1.815260    4.566750
  H     20.499270   -0.790630    7.416960
  H     25.718900   -0.856870    8.123420
  H     24.808200    3.559030    5.930860
  H     29.771860    1.851380    6.848190
  H     28.414160   -0.151470    7.829640

 Total Charge           Charge          ....    0
 Multiplicity           Mult            ....    1
 Number of Electrons    NEL             ....  596
 Basis Dimension        Dim             .... 1270

ORBITAL ENERGIES
----------------

  NO   OCC          E(Eh)            E(eV)
   0   2.0000     -89.065793     -2423.6034
   1   2.0000     -88.999699     -2421.8049
   2   2.0000     -88.999402     -2421.7969
   3   2.0000     -88.995022     -2421.6777
   4   2.0000     -88.994712     -2421.6692
   5   2.0000     -88.967757     -2420.9357
   6   2.0000     -19.220619      -523.0196
   7   2.0000     -19.218099      -522.9511
   8   2.0000     -14.482926      -394.1005
   9   2.0000     -14.477374      -393.9494
  10   2.0000     -14.473954      -393.8563
  11   2.0000     -14.473485      -393.8436
  12   2.0000     -14.443791      -393.0355
  13   2.0000     -14.436643      -392.8410
  14   2.0000     -14.435979      -392.8230
  15   2.0000     -14.435256      -392.8033
  16   2.0000     -14.434615      -392.7859
  17   2.0000     -14.431734      -392.7075
  18   2.0000     -14.422034      -392.4435
  19   2.0000     -14.419999      -392.3881
  20   2.0000     -14.416717      -392.2988
  21   2.0000     -14.415271      -392.2595
  22   2.0000     -10.400177      -283.0032
  23   2.0000     -10.397224      -282.9229
  24   2.0000     -10.371119      -282.2125
  25   2.0000     -10.370242      -282.1886
  26   2.0000     -10.369368      -282.1649
  27   2.0000     -10.369168      -282.1594
  28   2.0000     -10.367365      -282.1104
  29   2.0000     -10.365458      -282.0585
  30   2.0000     -10.363231      -281.9978
  31   2.0000     -10.362118      -281.9676
  32   2.0000     -10.357757      -281.8489
  33   2.0000     -10.356065      -281.8029
  34   2.0000     -10.349178      -281.6155
  35   2.0000     -10.347007      -281.5564
  36   2.0000     -10.346431      -281.5407
  37   2.0000     -10.345546      -281.5166
  38   2.0000     -10.345495      -281.5152
  39   2.0000     -10.345353      -281.5114
  40   2.0000     -10.339165      -281.3430
  41   2.0000     -10.338969      -281.3376
  42   2.0000     -10.337221      -281.2901
  43   2.0000     -10.336882      -281.2809
  44   2.0000     -10.336806      -281.2788
  45   2.0000     -10.336336      -281.2660
  46   2.0000     -10.335666      -281.2478
  47   2.0000     -10.335544      -281.2445
  48   2.0000     -10.334805      -281.2243
  49   2.0000     -10.334525      -281.2167
  50   2.0000     -10.333258      -281.1822
  51   2.0000     -10.332860      -281.1714
  52   2.0000     -10.331314      -281.1294
  53   2.0000     -10.328645      -281.0567
  54   2.0000     -10.328404      -281.0502
  55   2.0000     -10.327470      -281.0247
  56   2.0000     -10.323040      -280.9042
  57   2.0000     -10.322393      -280.8866
  58   2.0000     -10.321421      -280.8601
  59   2.0000     -10.318841      -280.7899
  60   2.0000     -10.317543      -280.7546
  61   2.0000     -10.316175      -280.7174
  62   2.0000     -10.315265      -280.6926
  63   2.0000     -10.314980      -280.6849
  64   2.0000     -10.313018      -280.6315
  65   2.0000     -10.312486      -280.6170
  66   2.0000     -10.310260      -280.5564
  67   2.0000     -10.310161      -280.5537
  68   2.0000     -10.309995      -280.5492
  69   2.0000     -10.309169      -280.5267
  70   2.0000     -10.307809      -280.4897
  71   2.0000     -10.306647      -280.4581
  72   2.0000     -10.305224      -280.4194
  73   2.0000     -10.304961      -280.4123
  74   2.0000     -10.304524      -280.4004
  75   2.0000     -10.303440      -280.3709
  76   2.0000     -10.301514      -280.3184
  77   2.0000     -10.298292      -280.2308
  78   2.0000     -10.297742      -280.2158
  79   2.0000     -10.297313      -280.2041
  80   2.0000     -10.296879      -280.1923
  81   2.0000     -10.295672      -280.1595
  82   2.0000     -10.293499      -280.1003
  83   2.0000     -10.290391      -280.0158
  84   2.0000      -8.156567      -221.9515
  85   2.0000      -8.094310      -220.2574
  86   2.0000      -8.094132      -220.2525
  87   2.0000      -8.088263      -220.0928
  88   2.0000      -8.087058      -220.0600
  89   2.0000      -8.064106      -219.4355
  90   2.0000      -6.127636      -166.7414
  91   2.0000      -6.119819      -166.5288
  92   2.0000      -6.119444      -166.5185
  93   2.0000      -6.063418      -164.9940
  94   2.0000      -6.063281      -164.9903
  95   2.0000      -6.059282      -164.8815
  96   2.0000      -6.059129      -164.8773
  97   2.0000      -6.057682      -164.8379
  98   2.0000      -6.056888      -164.8163
  99   2.0000      -6.056637      -164.8095
 100   2.0000      -6.056623      -164.8091
 101   2.0000      -6.053098      -164.7132
 102   2.0000      -6.051786      -164.6775
 103   2.0000      -6.050670      -164.6471
 104   2.0000      -6.049525      -164.6159
 105   2.0000      -6.033624      -164.1833
 106   2.0000      -6.029284      -164.0651
 107   2.0000      -6.025762      -163.9693
 108   2.0000      -1.162997       -31.6468
 109   2.0000      -1.139958       -31.0198
 110   2.0000      -1.136046       -30.9134
 111   2.0000      -1.133618       -30.8473
 112   2.0000      -1.067446       -29.0467
 113   2.0000      -1.052491       -28.6397
 114   2.0000      -1.052028       -28.6271
 115   2.0000      -1.028274       -27.9808
 116   2.0000      -1.027046       -27.9473
 117   2.0000      -1.025874       -27.9154
 118   2.0000      -1.024173       -27.8692
 119   2.0000      -1.022931       -27.8354
 120   2.0000      -1.020732       -27.7755
 121   2.0000      -1.013454       -27.5775
 122   2.0000      -1.012965       -27.5642
 123   2.0000      -1.011283       -27.5184
 124   2.0000      -1.010151       -27.4876
 125   2.0000      -1.009265       -27.4635
 126   2.0000      -1.002151       -27.2699
 127   2.0000      -1.001172       -27.2433
 128   2.0000      -0.996337       -27.1117
 129   2.0000      -0.995407       -27.0864
 130   2.0000      -0.990764       -26.9601
 131   2.0000      -0.986801       -26.8522
 132   2.0000      -0.966946       -26.3119
 133   2.0000      -0.962482       -26.1905
 134   2.0000      -0.952093       -25.9078
 135   2.0000      -0.935453       -25.4550
 136   2.0000      -0.929436       -25.2912
 137   2.0000      -0.926868       -25.2214
 138   2.0000      -0.921362       -25.0715
 139   2.0000      -0.910081       -24.7646
 140   2.0000      -0.903747       -24.5922
 141   2.0000      -0.896882       -24.4054
 142   2.0000      -0.885832       -24.1047
 143   2.0000      -0.883352       -24.0372
 144   2.0000      -0.879727       -23.9386
 145   2.0000      -0.872420       -23.7398
 146   2.0000      -0.865007       -23.5380
 147   2.0000      -0.863421       -23.4949
 148   2.0000      -0.862539       -23.4709
 149   2.0000      -0.862055       -23.4577
 150   2.0000      -0.851913       -23.1817
 151   2.0000      -0.825243       -22.4560
 152   2.0000      -0.825056       -22.4509
 153   2.0000      -0.823537       -22.4096
 154   2.0000      -0.808152       -21.9909
 155   2.0000      -0.799209       -21.7476
 156   2.0000      -0.784792       -21.3553
 157   2.0000      -0.780672       -21.2432
 158   2.0000      -0.775267       -21.0961
 159   2.0000      -0.768188       -20.9035
 160   2.0000      -0.759910       -20.6782
 161   2.0000      -0.755946       -20.5703
 162   2.0000      -0.743051       -20.2194
 163   2.0000      -0.728875       -19.8337
 164   2.0000      -0.721988       -19.6463
 165   2.0000      -0.717250       -19.5174
 166   2.0000      -0.713121       -19.4050
 167   2.0000      -0.707894       -19.2628
 168   2.0000      -0.705731       -19.2039
 169   2.0000      -0.702382       -19.1128
 170   2.0000      -0.692830       -18.8529
 171   2.0000      -0.690153       -18.7800
 172   2.0000      -0.686280       -18.6746
 173   2.0000      -0.684762       -18.6333
 174   2.0000      -0.681488       -18.5442
 175   2.0000      -0.675853       -18.3909
 176   2.0000      -0.671727       -18.2786
 177   2.0000      -0.663872       -18.0649
 178   2.0000      -0.655906       -17.8481
 179   2.0000      -0.651884       -17.7387
 180   2.0000      -0.645551       -17.5663
 181   2.0000      -0.641535       -17.4571
 182   2.0000      -0.638817       -17.3831
 183   2.0000      -0.635658       -17.2971
 184   2.0000      -0.627192       -17.0668
 185   2.0000      -0.622859       -16.9488
 186   2.0000      -0.622234       -16.9318
 187   2.0000      -0.621361       -16.9081
 188   2.0000      -0.617339       -16.7986
 189   2.0000      -0.609477       -16.5847
 190   2.0000      -0.602158       -16.3855
 191   2.0000      -0.599514       -16.3136
 192   2.0000      -0.596115       -16.2211
 193   2.0000      -0.592635       -16.1264
 194   2.0000      -0.586247       -15.9526
 195   2.0000      -0.578849       -15.7513
 196   2.0000      -0.576279       -15.6814
 197   2.0000      -0.568666       -15.4742
 198   2.0000      -0.565506       -15.3882
 199   2.0000      -0.558146       -15.1879
 200   2.0000      -0.555115       -15.1055
 201   2.0000      -0.554082       -15.0773
 202   2.0000      -0.550951       -14.9921
 203   2.0000      -0.549640       -14.9565
 204   2.0000      -0.544158       -14.8073
 205   2.0000      -0.541422       -14.7328
 206   2.0000      -0.540268       -14.7015
 207   2.0000      -0.538113       -14.6428
 208   2.0000      -0.535279       -14.5657
 209   2.0000      -0.532232       -14.4828
 210   2.0000      -0.528764       -14.3884
 211   2.0000      -0.525906       -14.3106
 212   2.0000      -0.519800       -14.1445
 213   2.0000      -0.518396       -14.1063
 214   2.0000      -0.515441       -14.0259
 215   2.0000      -0.513673       -13.9778
 216   2.0000      -0.511269       -13.9123
 217   2.0000      -0.510857       -13.9011
 218   2.0000      -0.509130       -13.8541
 219   2.0000      -0.508596       -13.8396
 220   2.0000      -0.508151       -13.8275
 221   2.0000      -0.505276       -13.7493
 222   2.0000      -0.503203       -13.6928
 223   2.0000      -0.499652       -13.5962
 224   2.0000      -0.497154       -13.5283
 225   2.0000      -0.496116       -13.5000
 226   2.0000      -0.494733       -13.4624
 227   2.0000      -0.490070       -13.3355
 228   2.0000      -0.489443       -13.3184
 229   2.0000      -0.486612       -13.2414
 230   2.0000      -0.483428       -13.1547
 231   2.0000      -0.482264       -13.1231
 232   2.0000      -0.480526       -13.0758
 233   2.0000      -0.478779       -13.0282
 234   2.0000      -0.470544       -12.8042
 235   2.0000      -0.467206       -12.7133
 236   2.0000      -0.467026       -12.7084
 237   2.0000      -0.466563       -12.6958
 238   2.0000      -0.465851       -12.6765
 239   2.0000      -0.463832       -12.6215
 240   2.0000      -0.463167       -12.6034
 241   2.0000      -0.462545       -12.5865
 242   2.0000      -0.460662       -12.5353
 243   2.0000      -0.458838       -12.4856
 244   2.0000      -0.458627       -12.4799
 245   2.0000      -0.455595       -12.3974
 246   2.0000      -0.455330       -12.3902
 247   2.0000      -0.454959       -12.3801
 248   2.0000      -0.454320       -12.3627
 249   2.0000      -0.452340       -12.3088
 250   2.0000      -0.451885       -12.2964
 251   2.0000      -0.451585       -12.2883
 252   2.0000      -0.445696       -12.1280
 253   2.0000      -0.444805       -12.1038
 254   2.0000      -0.444213       -12.0876
 255   2.0000      -0.443716       -12.0741
 256   2.0000      -0.443075       -12.0567
 257   2.0000      -0.441696       -12.0192
 258   2.0000      -0.441017       -12.0007
 259   2.0000      -0.437353       -11.9010
 260   2.0000      -0.436129       -11.8677
 261   2.0000      -0.434509       -11.8236
 262   2.0000      -0.433015       -11.7829
 263   2.0000      -0.432642       -11.7728
 264   2.0000      -0.430961       -11.7270
 265   2.0000      -0.430704       -11.7201
 266   2.0000      -0.429188       -11.6788
 267   2.0000      -0.428310       -11.6549
 268   2.0000      -0.426347       -11.6015
 269   2.0000      -0.423569       -11.5259
 270   2.0000      -0.423014       -11.5108
 271   2.0000      -0.419432       -11.4133
 272   2.0000      -0.412997       -11.2382
 273   2.0000      -0.411711       -11.2032
 274   2.0000      -0.411344       -11.1932
 275   2.0000      -0.410387       -11.1672
 276   2.0000      -0.405478       -11.0336
 277   2.0000      -0.390762       -10.6332
 278   2.0000      -0.388773       -10.5791
 279   2.0000      -0.384567       -10.4646
 280   2.0000      -0.375333       -10.2133
 281   2.0000      -0.368560       -10.0290
 282   2.0000      -0.365969        -9.9585
 283   2.0000      -0.363592        -9.8938
 284   2.0000      -0.353651        -9.6233
 285   2.0000      -0.353025        -9.6063
 286   2.0000      -0.348673        -9.4879
 287   2.0000      -0.346129        -9.4186
 288   2.0000      -0.342830        -9.3289
 289   2.0000      -0.338244        -9.2041
 290   2.0000      -0.328100        -8.9280
 291   2.0000      -0.326597        -8.8871
 292   2.0000      -0.321764        -8.7557
 293   2.0000      -0.315593        -8.5877
 294   2.0000      -0.310711        -8.4549
 295   2.0000      -0.296975        -8.0811
 296   2.0000      -0.282358        -7.6834
 297   2.0000      -0.249532        -6.7901
 298   0.0000      -0.146911        -3.9977
 299   0.0000      -0.112205        -3.0532
 300   0.0000      -0.107561        -2.9269
 301   0.0000      -0.089882        -2.4458
 302   0.0000      -0.089215        -2.4277

MULLIKEN ATOMIC CHARGES
-----------------------
   0 C :   -0.027435
   1 C :    0.043048
   2 C :    0.044198
   3 C :   -0.028637
   4 C :    0.004537
   5 C :    0.008243
   6 C :    0.257091
   7 C :   -0.326857
   8 C :   -0.172272
   9 N :    0.165342
  10 C :   -0.199768
  11 N :    0.170453
  12 C :   -0.130377
  13 C :    0.130866
  14 O :   -0.139172
  15 C :    0.082815
  16 C :   -0.109684
  17 C :   -0.005826
  18 C :   -0.000767
  19 C :   -0.080020
  20 S :    0.226517
  21 C :   -0.064675
  22 C :    0.042969
  23 C :    0.309589
  24 C :   -0.290139
  25 C :   -0.185896
  26 N :    0.174613
  27 C :   -0.188049
  28 N :    0.168236
  29 C :   -0.062857
  30 C :   -0.173306
  31 S :    0.217535
  32 C :    0.180593
  33 C :   -0.052356
  34 C :   -0.069230
  35 N :    0.051305
  36 C :   -0.117152
  37 C :   -0.094924
  38 N :   -0.017579
  39 C :   -0.238864
  40 N :    0.260562
  41 C :   -0.220634
  42 N :    0.255788
  43 C :    0.203078
  44 C :   -0.022287
  45 C :    0.001180
  46 N :   -0.278304
  47 S :    0.585840
  48 N :   -0.334660
  49 C :   -0.183862
  50 C :   -0.055028
  51 C :    0.044427
  52 C :   -0.072191
  53 S :    0.216202
  54 C :   -0.078153
  55 C :   -0.001141
  56 C :    0.309229
  57 C :   -0.283766
  58 C :   -0.184821
  59 N :    0.168708
  60 C :   -0.191255
  61 N :    0.187512
  62 C :   -0.003263
  63 C :   -0.109418
  64 S :    0.217145
  65 C :    0.076936
  66 C :   -0.127418
  67 C :    0.262008
  68 C :   -0.328122
  69 C :   -0.174476
  70 N :    0.161781
  71 C :   -0.197820
  72 N :    0.165909
  73 C :   -0.003494
  74 C :    0.003806
  75 C :    0.130604
  76 O :   -0.144793
  77 C :   -0.064890
  78 C :    0.108184
  79 C :   -0.094351
  80 C :   -0.014833
  81 S :    0.146212
  82 C :   -0.051126
  83 C :    0.025706
  84 H :    0.012772
  85 H :    0.004443
  86 H :    0.002038
  87 H :    0.000856
  88 H :    0.022956
  89 H :    0.024957
  90 H :    0.022477
  91 H :    0.023358
  92 H :    0.025344
  93 H :    0.021045
  94 H :   -0.010773
  95 H :    0.002342
  96 H :    0.041169
  97 H :   -0.005801
Sum of atomic charges:   -0.0000000

LOEWDIN ATOMIC CHARGES
----------------------
   0 C :    0.001646
   1 C :    0.004643
   2 C :   -0.001815
   3 C :    0.014869
   4 C :   -0.046637
   5 C :   -0.010202
   6 C :    0.064866
   7 C :   -0.131902
   8 C :   -0.019525
   9 N :   -0.041840
  10 C :   -0.015379
  11 N :   -0.043882
  12 C :   -0.087033
  13 C :    0.084009
  14 O :   -0.137625
  15 C :    0.039988
  16 C :   -0.176691
  17 C :    0.006233
  18 C :   -0.059715
  19 C :   -0.162127
  20 S :    0.507591
  21 C :   -0.177537
  22 C :   -0.065582
  23 C :    0.082013
  24 C :   -0.099087
  25 C :   -0.015991
  26 N :   -0.031672
  27 C :   -0.013427
  28 N :   -0.033056
  29 C :   -0.006108
  30 C :   -0.163764
  31 S :    0.518001
  32 C :   -0.036453
  33 C :   -0.012642
  34 C :   -0.004169
  35 N :    0.010877
  36 C :   -0.018388
  37 C :   -0.017659
  38 N :   -0.019715
  39 C :   -0.039627
  40 N :    0.006251
  41 C :   -0.040763
  42 N :    0.014349
  43 C :   -0.039922
  44 C :   -0.045043
  45 C :   -0.036824
  46 N :   -0.266883
  47 S :    0.702492
  48 N :   -0.301838
  49 C :   -0.161348
  50 C :   -0.005845
  51 C :   -0.063590
  52 C :   -0.178445
  53 S :    0.517248
  54 C :   -0.163390
  55 C :   -0.058708
  56 C :    0.079566
  57 C :   -0.094844
  58 C :   -0.012547
  59 N :   -0.032141
  60 C :   -0.019001
  61 N :   -0.020607
  62 C :    0.005224
  63 C :   -0.176006
  64 S :    0.500288
  65 C :    0.038345
  66 C :   -0.084401
  67 C :    0.065211
  68 C :   -0.135540
  69 C :   -0.019561
  70 N :   -0.043904
  71 C :   -0.015548
  72 N :   -0.047833
  73 C :   -0.019267
  74 C :   -0.056646
  75 C :    0.083697
  76 O :   -0.143647
  77 C :    0.024910
  78 C :   -0.035200
  79 C :   -0.144064
  80 C :   -0.007255
  81 S :    0.433942
  82 C :   -0.148916
  83 C :   -0.057724
  84 H :    0.042065
  85 H :    0.037399
  86 H :    0.035262
  87 H :    0.040787
  88 H :    0.046677
  89 H :    0.042483
  90 H :    0.038948
  91 H :    0.038756
  92 H :    0.042686
  93 H :    0.045881
  94 H :    0.040911
  95 H :    0.042765
  96 H :    0.030082
  97 H :    0.035540

  Mayer bond orders larger than 0.100000
B(  0-C ,  1-C ) :   1.3724 B(  0-C ,  5-C ) :   1.3842 B(  0-C , 84-H ) :   0.9867
B(  1-C ,  2-C ) :   1.3809 B(  1-C , 85-H ) :   0.9853 B(  2-C ,  3-C ) :   1.3514
B(  2-C , 86-H ) :   0.9900 B(  3-C ,  4-C ) :   1.3914 B(  3-C , 87-H ) :   1.0064
B(  4-C ,  5-C ) :   1.3310 B(  4-C , 13-C ) :   0.9268 B(  5-C ,  6-C ) :   0.9993
B(  6-C ,  7-C ) :   1.6608 B(  6-C , 12-C ) :   1.0325 B(  7-C ,  8-C ) :   1.1231
B(  7-C , 10-C ) :   1.1710 B(  8-C ,  9-N ) :   3.0011 B( 10-C , 11-N ) :   2.9975
B( 12-C , 13-C ) :   0.9379 B( 12-C , 15-C ) :   1.6844 B( 13-C , 14-O ) :   2.2656
B( 15-C , 16-C ) :   1.1293 B( 15-C , 88-H ) :   0.9272 B( 16-C , 17-C ) :   1.3924
B( 16-C , 20-S ) :   1.0970 B( 17-C , 18-C ) :   1.3609 B( 17-C , 89-H ) :   0.9802
B( 18-C , 19-C ) :   1.3980 B( 18-C , 23-C ) :   0.9961 B( 19-C , 20-S ) :   1.1505
B( 19-C , 21-C ) :   1.2105 B( 21-C , 22-C ) :   1.3951 B( 21-C , 31-S ) :   1.0862
B( 22-C , 23-C ) :   0.9884 B( 22-C , 29-C ) :   1.2901 B( 23-C , 24-C ) :   1.7152
B( 24-C , 25-C ) :   1.1382 B( 24-C , 27-C ) :   1.1322 B( 25-C , 26-N ) :   2.9869
B( 27-C , 28-N ) :   2.9831 B( 29-C , 30-C ) :   1.4042 B( 29-C , 90-H ) :   0.9821
B( 30-C , 31-S ) :   1.0893 B( 30-C , 32-C ) :   1.2168 B( 32-C , 33-C ) :   1.2459
B( 32-C , 43-C ) :   0.1240 B( 32-C , 45-C ) :   1.2010 B( 33-C , 34-C ) :   1.1065
B( 33-C , 38-N ) :   1.3964 B( 34-C , 35-N ) :   1.4524 B( 34-C , 43-C ) :   1.2535
B( 35-N , 36-C ) :   1.7257 B( 36-C , 37-C ) :   1.2131 B( 36-C , 41-C ) :   1.1567
B( 37-C , 38-N ) :   1.6929 B( 37-C , 39-C ) :   1.1638 B( 39-C , 40-N ) :   3.0420
B( 41-C , 42-N ) :   3.0324 B( 43-C , 44-C ) :   1.1905 B( 43-C , 49-C ) :   1.1986
B( 44-C , 45-C ) :   1.1109 B( 44-C , 48-N ) :   1.4717 B( 45-C , 46-N ) :   1.5124
B( 46-N , 47-S ) :   1.2925 B( 46-N , 48-N ) :   0.1490 B( 47-S , 48-N ) :   1.2752
B( 49-C , 50-C ) :   1.3966 B( 49-C , 53-S ) :   1.0999 B( 50-C , 51-C ) :   1.2886
B( 50-C , 91-H ) :   0.9861 B( 51-C , 52-C ) :   1.3910 B( 51-C , 56-C ) :   0.9902
B( 52-C , 53-S ) :   1.1038 B( 52-C , 54-C ) :   1.2076 B( 54-C , 55-C ) :   1.4031
B( 54-C , 64-S ) :   1.1455 B( 55-C , 56-C ) :   0.9958 B( 55-C , 62-C ) :   1.3592
B( 56-C , 57-C ) :   1.7200 B( 57-C , 58-C ) :   1.1331 B( 57-C , 60-C ) :   1.1336
B( 58-C , 59-N ) :   2.9814 B( 60-C , 61-N ) :   2.9926 B( 62-C , 63-C ) :   1.3973
B( 62-C , 92-H ) :   0.9813 B( 63-C , 64-S ) :   1.0961 B( 63-C , 65-C ) :   1.1214
B( 65-C , 66-C ) :   1.6874 B( 65-C , 93-H ) :   0.9302 B( 66-C , 67-C ) :   1.0306
B( 66-C , 75-C ) :   0.9368 B( 67-C , 68-C ) :   1.6525 B( 67-C , 73-C ) :   1.0127
B( 68-C , 69-C ) :   1.1256 B( 68-C , 71-C ) :   1.1726 B( 69-C , 70-N ) :   2.9956
B( 71-C , 72-N ) :   2.9961 B( 73-C , 74-C ) :   1.2663 B( 73-C , 80-C ) :   1.4198
B( 74-C , 75-C ) :   0.9270 B( 74-C , 77-C ) :   1.4233 B( 75-C , 76-O ) :   2.2641
B( 77-C , 78-C ) :   1.2551 B( 77-C , 94-H ) :   1.0154 B( 78-C , 79-C ) :   1.2997
B( 78-C , 83-C ) :   1.1721 B( 79-C , 80-C ) :   1.3210 B( 79-C , 81-S ) :   1.1003
B( 80-C , 95-H ) :   0.9854 B( 81-S , 82-C ) :   1.1274 B( 82-C , 83-C ) :   1.6304
B( 82-C , 96-H ) :   0.9682 B( 83-C , 97-H ) :   0.9988

-----------------------------------------------------------------------------
         ABSORPTION SPECTRUM VIA TRANSITION ELECTRIC DIPOLE MOMENTS
-----------------------------------------------------------------------------
State   Energy  Wavelength   fosc         T2         TX        TY        TZ
        (cm-1)    (nm)                  (au**2)     (au)      (au)      (au)
-----------------------------------------------------------------------------
   0    7575.4   1320.1   0.794054519  34.50813   5.52990  -0.43659   1.93331
   1   13540.7    738.5   0.008291867   0.20160  -0.16040  -0.09182  -0.40919
   2   14035.7    712.5   0.068689973   1.61115  -1.11913   0.17832  -0.57174
   3   16160.9    618.8   0.009209605   0.18761  -0.12667   0.14448   0.38819
   4   20092.0    497.7   0.999919209  16.38387  -3.71631   0.20647  -1.59068
   5   20415.5    489.8   0.112578977   1.81540   1.10955  -0.65002  -0.40219
   6   21908.3    456.4   0.089840123   1.35001  -1.08863   0.14190  -0.38047
   7   23397.6    427.4   0.021931810   0.30859   0.55396  -0.02861   0.02999
   8   23432.6    426.8   0.043728688   0.61436   0.30466  -0.68574   0.22651
   9   23540.9    424.8   0.020009693   0.27983   0.50381   0.08247  -0.13859
  10   23684.9    422.2   0.030828190   0.42850   0.51039   0.21352  -0.34987
  11   24234.3    412.6   0.021174724   0.28765  -0.45396   0.06729  -0.27756
  12   24672.2    405.3   0.033415665   0.44588   0.49850   0.05437   0.44093
  13   25118.8    398.1   0.020425654   0.26770   0.14118   0.43304  -0.24546
  14   25339.1    394.6   0.000979251   0.01272   0.08991  -0.00307  -0.06804
  15   26228.4    381.3   0.006162645   0.07735   0.03248  -0.23669  -0.14238
  16   26857.6    372.3   0.005290501   0.06485  -0.13567  -0.20625   0.06247
  17   27624.2    362.0   0.448160727   5.34096  -1.98355   0.18992  -1.17065
  18   27813.6    359.5   0.036080463   0.42706  -0.64362   0.04373   0.10441
  19   28491.0    351.0   0.120388149   1.39108   1.02935  -0.45829   0.34855
  20   28732.5    348.0   0.014296299   0.16380  -0.39863   0.01034  -0.06922
  21   29051.2    344.2   0.343354784   3.89094   1.65894  -0.73823   0.77063
  22   29074.7    343.9   0.024420567   0.27651   0.39151   0.19234  -0.29366
  23   29262.7    341.7   0.021159787   0.23805   0.21918  -0.00871  -0.43582
  24   29405.2    340.1   0.081638014   0.91399   0.06390   0.33533  -0.89301
  25   29635.1    337.4   0.081633919   0.90686   0.11423  -0.74950   0.57624
  26   29912.3    334.3   0.019004537   0.20916   0.05234   0.18027   0.41704
  27   30003.8    333.3   0.195156383   2.14132  -1.42482  -0.16415  -0.29028
  28   30459.8    328.3   0.059840637   0.64676  -0.14710   0.23903  -0.75365
  29   30585.0    327.0   0.072468653   0.78004  -0.67631  -0.08095   0.56223
  30   30909.0    323.5   0.266990387   2.84371  -1.55193   0.13525  -0.64571
  31   31114.3    321.4   0.012601127   0.13333  -0.13893   0.33515  -0.04128
  32   31382.3    318.7   0.025386275   0.26631   0.25711   0.04228   0.44544
  33   31834.5    314.1   0.887873092   9.18180  -2.56437  -1.24451   1.02810
  34   31899.2    313.5   0.161884442   1.67071   1.11868   0.17836  -0.62245
  35   32473.2    307.9   0.354584265   3.59476  -0.45980  -1.12351   1.45639
  36   32544.6    307.3   0.241642758   2.44439   0.11874  -0.73142   1.37671
  37   32652.7    306.3   0.041712893   0.42056   0.09124  -0.26279  -0.58581
  38   32869.7    304.2   0.023826687   0.23864  -0.31191  -0.30299  -0.22260
  39   33199.1    301.2   0.158808784   1.57480  -1.22447   0.26317  -0.07885
  40   33419.6    299.2   0.030717352   0.30259  -0.32803  -0.22656  -0.37902
  41   33476.0    298.7   0.116288490   1.14361  -0.95558  -0.09226   0.47113
  42   33611.7    297.5   0.035162823   0.34440  -0.21144   0.48615  -0.25170
  43   33675.5    297.0   0.007914278   0.07737   0.06696  -0.22490   0.14935
  44   33807.2    295.8   0.009161162   0.08921   0.18639   0.08598   0.21697
  45   34140.3    292.9   0.136100247   1.31240   1.03091  -0.12540   0.48364
  46   34432.7    290.4   0.347116400   3.31879  -1.65109   0.74748  -0.18432
  47   34651.8    288.6   0.162932272   1.54795   0.31256   0.85331  -0.84977
  48   34753.7    287.7   0.006047954   0.05729   0.10657   0.20567   0.06025
  49   34938.9    286.2   0.004980904   0.04693   0.20322   0.06661   0.03460
  50   35064.3    285.2   0.288808266   2.71156  -0.28170  -0.62133   1.49872
  51   35257.4    283.6   0.207214351   1.93484   0.16040  -0.65498   1.21660
  52   35434.3    282.2   0.039675444   0.36862   0.20043  -0.25366   0.51390
  53   35614.9    280.8   0.006569900   0.06073  -0.17485  -0.16947  -0.03791
  54   36456.4    274.3   0.030556263   0.27593  -0.51683  -0.06095  -0.07147
  55   36583.1    273.4   0.195559487   1.75984   0.97646   0.55730   0.70411
  56   36846.4    271.4   0.110079825   0.98353  -0.78017  -0.10680  -0.60288
  57   37155.6    269.1   0.008937599   0.07919   0.14938  -0.07007  -0.22796
  58   37257.3    268.4   0.077005022   0.68043   0.74891  -0.16694   0.30280
  59   37342.8    267.8   0.039602965   0.34914   0.57083   0.03008   0.14962
  60   37603.7    265.9   0.103676937   0.90767   0.43825  -0.26192   0.80436
  61   37728.9    265.0   0.005664618   0.04943   0.21735   0.00479  -0.04654
  62   38032.8    262.9   0.079983740   0.69234   0.77520   0.28351   0.10499
  63   38212.2    261.7   0.029449146   0.25372  -0.39419   0.02906  -0.31223
  64   38464.6    260.0   0.058089336   0.49718  -0.35605   0.09016  -0.60189
  65   38570.3    259.3   0.057855575   0.49382  -0.25542  -0.45513   0.47057
  66   38779.8    257.9   0.145898968   1.23858  -0.45778  -0.16290  -1.00124
  67   38830.6    257.5   0.075212188   0.63766  -0.03038  -0.29499  -0.74143
  68   38924.1    256.9   0.003909487   0.03307  -0.16969  -0.00173  -0.06532
  69   39027.6    256.2   0.183807345   1.55048   0.25944   1.06858  -0.58421
  70   39411.4    253.7   0.037207963   0.31081  -0.30542  -0.45815   0.08728
  71   39573.8    252.7   0.005503494   0.04578   0.07809   0.19921  -0.00108
  72   39586.0    252.6   0.009754547   0.08112   0.11082  -0.25800   0.04773
  73   39908.5    250.6   0.012620659   0.10411  -0.02103   0.16001  -0.27940
  74   40065.2    249.6   0.020899153   0.17173   0.07686   0.34732  -0.21258
  75   40202.8    248.7   0.035653581   0.29196   0.52521  -0.02693   0.12403
  76   40267.2    248.3   0.011330170   0.09263   0.09269   0.10341   0.27083

FINAL SINGLE POINT ENERGY     -5671.998253488280

DIPOLE MOMENT
-------------
                                X             Y             Z
Electronic contribution:      8.53038       1.62564       0.97238
Nuclear contribution   :     -8.19870      -5.37796      -0.57300
                        -----------------------------------------
Total Dipole Moment    :      0.33168      -3.75232       0.39938
                        -----------------------------------------
Magnitude (a.u.)       :      3.78806
Magnitude (Debye)      :      9.62849

Rotational constants in cm-1:     0.002430     0.000163     0.000156
Rotational constants in MHz :    72.847046     4.874993     4.665230

                             ****ORCA TERMINATED NORMALLY****
TOTAL RUN TIME: 0 days 0 hours 11 minutes 57 seconds 919 msec
