                         Program Version 4.2.0 -  RELEASE  -
|  1> # ORCA input file
|  2> # SCF done       -161.085293557526          0.000837565121
|  3> ! CAM-B3LYP def2-SVP def2/J RIJCOSX Grid4 TightSCF
|  4> %maxcore 5000
|  5> %tddft
|  6>     Mode sTDDFT
|  7>     Ethresh 5.0
|  8>     maxcore 5000
|  9> end
| 10>
| 11> %pal
| 12>   nprocs 6
| 13>   end
| 14> * xyz 0 1
| 15>    C       -2.82908         1.24924        -0.62230
| 16>    C       -3.68399         0.86048         0.36288
| 17>    F       -4.48989         1.69922         1.01809
| 18>    C       -3.63306        -0.52608         0.62465
| 19>    F       -4.38560        -1.13158         1.55248
| 20>    C       -2.73026        -1.19847        -0.16890
| 21>    S       -1.94563        -0.08068        -1.24643
| 22>    C       -2.41849        -2.58784        -0.17344
| 23>    C       -1.49649        -3.22621        -0.98026
| 24>    C       -1.44107        -4.59607        -0.72111
| 25>    C       -2.33011        -4.99190         0.29458
| 26>    S       -3.23119        -3.68744         0.92645
| 27>    C       -2.19880        -6.38672         0.49047
| 28>    C       -1.22720        -6.88106        -0.40325
| 29>    C       -0.69976        -5.76230        -1.17406
| 30>    C        0.31698        -5.78569        -2.08099
| 31>    C        1.06971        -6.94671        -2.36671
| 32>    N        1.73027        -7.85679        -2.58550
| 33>    C        0.73106        -4.62013        -2.76166
| 34>    N        1.06398        -3.67413        -3.31722
| 35>    C       -1.04719        -8.25611        -0.30947
| 36>    C       -1.86263        -8.81264         0.66931
| 37>    S       -2.86840        -7.61118         1.47122
| 38>    C       -1.92393       -10.16777         1.04391
| 39>    C       -1.30196       -11.25365         0.41144
| 40>    C       -1.54894       -12.50819         1.07218
| 41>    N       -1.05873       -13.65108         0.58624
| 42>    C       -0.35445       -13.57770        -0.52103
| 43>    C        0.16029       -14.85491        -1.08091
| 44>    O       -0.17055       -15.93722        -0.65039
| 45>    C        1.08800       -14.70112        -2.21682
| 46>    C        1.31500       -13.53648        -2.83208
| 47>    C        0.66412       -12.27086        -2.44598
| 48>    O        0.73915       -11.26668        -3.11853
| 49>    C       -0.11025       -12.33119        -1.17853
| 50>    N       -0.57639       -11.19593        -0.70799
| 51>    C       -2.36125       -12.38052         2.20791
| 52>    S       -2.82236       -10.72104         2.42204
| 53>    C       -2.77295       -13.40486         3.08057
| 54>    C       -2.31548       -14.71756         3.09611
| 55>    C       -2.92351       -15.45902         4.10210
| 56>    C       -3.86671       -14.71899         4.84292
| 57>    S       -3.97837       -13.09698         4.32562
| 58>    C       -4.45409       -15.56996         5.80747
| 59>    C       -3.88403       -16.84992         5.68779
| 60>    C       -2.88302       -16.81636         4.63316
| 61>    C       -2.03945       -17.82011         4.26387
| 62>    C       -2.09253       -19.10330         4.85175
| 63>    N       -2.12514       -20.14924         5.31904
| 64>    C       -1.00989       -17.64601         3.31158
| 65>    N       -0.13531       -17.52088         2.58208
| 66>    C       -4.40510       -17.76401         6.60641
| 67>    C       -5.36580       -17.18730         7.41468
| 68>    S       -5.62893       -15.49130         7.04363
| 69>    C       -6.11888       -17.80256         8.45746
| 70>    C       -6.06003       -19.10416         8.90704
| 71>    F       -5.24041       -20.02966         8.40041
| 72>    C       -6.95749       -19.37024         9.96539
| 73>    F       -7.06379       -20.56562        10.54895
| 74>    C       -7.69875       -18.28793        10.32712
| 75>    S       -7.30640       -16.92073         9.37268
| 76>    H       -2.67840         2.23760        -1.00482
| 77>    H       -0.90780        -2.70367        -1.71246
| 78>    H       -0.37955        -8.85652        -0.90136
| 79>    H        1.55627       -15.61684        -2.55142
| 80>    H        1.97482       -13.46871        -3.68641
| 81>    H       -1.58535       -15.07254         2.39088
| 82>    H       -4.10834       -18.79350         6.68535
| 83>    H       -8.44280       -18.22916        11.09429
| 84> *
| 85>
| 86>                          ****END OF INPUT****

CARTESIAN COORDINATES (ANGSTROEM)
---------------------------------
  C     -2.829080    1.249240   -0.622300
  C     -3.683990    0.860480    0.362880
  F     -4.489890    1.699220    1.018090
  C     -3.633060   -0.526080    0.624650
  F     -4.385600   -1.131580    1.552480
  C     -2.730260   -1.198470   -0.168900
  S     -1.945630   -0.080680   -1.246430
  C     -2.418490   -2.587840   -0.173440
  C     -1.496490   -3.226210   -0.980260
  C     -1.441070   -4.596070   -0.721110
  C     -2.330110   -4.991900    0.294580
  S     -3.231190   -3.687440    0.926450
  C     -2.198800   -6.386720    0.490470
  C     -1.227200   -6.881060   -0.403250
  C     -0.699760   -5.762300   -1.174060
  C      0.316980   -5.785690   -2.080990
  C      1.069710   -6.946710   -2.366710
  N      1.730270   -7.856790   -2.585500
  C      0.731060   -4.620130   -2.761660
  N      1.063980   -3.674130   -3.317220
  C     -1.047190   -8.256110   -0.309470
  C     -1.862630   -8.812640    0.669310
  S     -2.868400   -7.611180    1.471220
  C     -1.923930  -10.167770    1.043910
  C     -1.301960  -11.253650    0.411440
  C     -1.548940  -12.508190    1.072180
  N     -1.058730  -13.651080    0.586240
  C     -0.354450  -13.577700   -0.521030
  C      0.160290  -14.854910   -1.080910
  O     -0.170550  -15.937220   -0.650390
  C      1.088000  -14.701120   -2.216820
  C      1.315000  -13.536480   -2.832080
  C      0.664120  -12.270860   -2.445980
  O      0.739150  -11.266680   -3.118530
  C     -0.110250  -12.331190   -1.178530
  N     -0.576390  -11.195930   -0.707990
  C     -2.361250  -12.380520    2.207910
  S     -2.822360  -10.721040    2.422040
  C     -2.772950  -13.404860    3.080570
  C     -2.315480  -14.717560    3.096110
  C     -2.923510  -15.459020    4.102100
  C     -3.866710  -14.718990    4.842920
  S     -3.978370  -13.096980    4.325620
  C     -4.454090  -15.569960    5.807470
  C     -3.884030  -16.849920    5.687790
  C     -2.883020  -16.816360    4.633160
  C     -2.039450  -17.820110    4.263870
  C     -2.092530  -19.103300    4.851750
  N     -2.125140  -20.149240    5.319040
  C     -1.009890  -17.646010    3.311580
  N     -0.135310  -17.520880    2.582080
  C     -4.405100  -17.764010    6.606410
  C     -5.365800  -17.187300    7.414680
  S     -5.628930  -15.491300    7.043630
  C     -6.118880  -17.802560    8.457460
  C     -6.060030  -19.104160    8.907040
  F     -5.240410  -20.029660    8.400410
  C     -6.957490  -19.370240    9.965390
  F     -7.063790  -20.565620   10.548950
  C     -7.698750  -18.287930   10.327120
  S     -7.306400  -16.920730    9.372680
  H     -2.678400    2.237600   -1.004820
  H     -0.907800   -2.703670   -1.712460
  H     -0.379550   -8.856520   -0.901360
  H      1.556270  -15.616840   -2.551420
  H      1.974820  -13.468710   -3.686410
  H     -1.585350  -15.072540    2.390880
  H     -4.108340  -18.793500    6.685350
  H     -8.442800  -18.229160   11.094290

 Total Charge           Charge          ....    0
 Multiplicity           Mult            ....    1
 Number of Electrons    NEL             ....  466
 Basis Dimension        Dim             ....  922

ORBITAL ENERGIES
----------------

  NO   OCC          E(Eh)            E(eV)
   0   2.0000     -89.000982     -2421.8398
   1   2.0000     -88.992843     -2421.6184
   2   2.0000     -88.992718     -2421.6150
   3   2.0000     -88.992290     -2421.6033
   4   2.0000     -88.991147     -2421.5722
   5   2.0000     -88.980990     -2421.2958
   6   2.0000     -88.980594     -2421.2851
   7   2.0000     -24.809867      -675.1108
   8   2.0000     -24.804570      -674.9667
   9   2.0000     -24.797570      -674.7762
  10   2.0000     -24.796450      -674.7457
  11   2.0000     -19.223384      -523.0949
  12   2.0000     -19.223277      -523.0920
  13   2.0000     -14.448644      -393.1676
  14   2.0000     -14.448514      -393.1641
  15   2.0000     -14.429671      -392.6513
  16   2.0000     -14.427406      -392.5897
  17   2.0000     -14.424347      -392.5064
  18   2.0000     -14.423778      -392.4909
  19   2.0000     -10.376661      -282.3633
  20   2.0000     -10.375630      -282.3353
  21   2.0000     -10.375163      -282.3225
  22   2.0000     -10.374513      -282.3049
  23   2.0000     -10.372242      -282.2431
  24   2.0000     -10.372111      -282.2395
  25   2.0000     -10.364123      -282.0221
  26   2.0000     -10.363831      -282.0142
  27   2.0000     -10.350135      -281.6415
  28   2.0000     -10.349211      -281.6164
  29   2.0000     -10.340003      -281.3658
  30   2.0000     -10.339734      -281.3585
  31   2.0000     -10.337879      -281.3080
  32   2.0000     -10.337762      -281.3048
  33   2.0000     -10.334930      -281.2278
  34   2.0000     -10.334662      -281.2204
  35   2.0000     -10.334247      -281.2091
  36   2.0000     -10.334044      -281.2036
  37   2.0000     -10.332915      -281.1729
  38   2.0000     -10.332850      -281.1712
  39   2.0000     -10.332648      -281.1657
  40   2.0000     -10.330946      -281.1193
  41   2.0000     -10.330836      -281.1163
  42   2.0000     -10.330791      -281.1151
  43   2.0000     -10.330026      -281.0943
  44   2.0000     -10.329815      -281.0886
  45   2.0000     -10.329683      -281.0850
  46   2.0000     -10.327114      -281.0151
  47   2.0000     -10.323289      -280.9110
  48   2.0000     -10.322662      -280.8939
  49   2.0000     -10.312798      -280.6255
  50   2.0000     -10.312736      -280.6238
  51   2.0000     -10.305374      -280.4235
  52   2.0000     -10.304671      -280.4044
  53   2.0000     -10.304313      -280.3946
  54   2.0000     -10.303710      -280.3782
  55   2.0000     -10.303234      -280.3652
  56   2.0000     -10.303229      -280.3651
  57   2.0000     -10.302751      -280.3521
  58   2.0000     -10.300131      -280.2808
  59   2.0000     -10.298542      -280.2376
  60   2.0000     -10.298295      -280.2309
  61   2.0000      -8.095876      -220.3000
  62   2.0000      -8.087672      -220.0767
  63   2.0000      -8.087576      -220.0741
  64   2.0000      -8.087033      -220.0594
  65   2.0000      -8.085537      -220.0186
  66   2.0000      -8.076714      -219.7786
  67   2.0000      -8.075912      -219.7568
  68   2.0000      -6.064956      -165.0358
  69   2.0000      -6.060850      -164.9241
  70   2.0000      -6.058482      -164.8597
  71   2.0000      -6.056938      -164.8177
  72   2.0000      -6.056878      -164.8160
  73   2.0000      -6.056377      -164.8024
  74   2.0000      -6.054869      -164.7614
  75   2.0000      -6.052842      -164.7062
  76   2.0000      -6.052738      -164.7034
  77   2.0000      -6.052163      -164.6877
  78   2.0000      -6.050574      -164.6445
  79   2.0000      -6.049909      -164.6264
  80   2.0000      -6.049777      -164.6228
  81   2.0000      -6.049262      -164.6088
  82   2.0000      -6.047799      -164.5690
  83   2.0000      -6.046206      -164.5256
  84   2.0000      -6.045392      -164.5035
  85   2.0000      -6.042141      -164.4150
  86   2.0000      -6.041350      -164.3935
  87   2.0000      -6.038277      -164.3099
  88   2.0000      -6.037505      -164.2889
  89   2.0000      -1.324976       -36.0544
  90   2.0000      -1.321328       -35.9552
  91   2.0000      -1.310271       -35.6543
  92   2.0000      -1.308418       -35.6039
  93   2.0000      -1.141170       -31.0528
  94   2.0000      -1.136427       -30.9238
  95   2.0000      -1.100022       -29.9331
  96   2.0000      -1.045251       -28.4427
  97   2.0000      -1.045004       -28.4360
  98   2.0000      -1.027235       -27.9525
  99   2.0000      -1.020588       -27.7716
 100   2.0000      -1.019197       -27.7337
 101   2.0000      -1.017843       -27.6969
 102   2.0000      -1.013407       -27.5762
 103   2.0000      -1.008517       -27.4431
 104   2.0000      -1.003703       -27.3121
 105   2.0000      -1.002404       -27.2768
 106   2.0000      -0.994471       -27.0609
 107   2.0000      -0.986774       -26.8515
 108   2.0000      -0.958704       -26.0877
 109   2.0000      -0.954992       -25.9867
 110   2.0000      -0.936461       -25.4824
 111   2.0000      -0.919396       -25.0180
 112   2.0000      -0.911483       -24.8027
 113   2.0000      -0.881890       -23.9974
 114   2.0000      -0.877111       -23.8674
 115   2.0000      -0.873161       -23.7599
 116   2.0000      -0.870986       -23.7007
 117   2.0000      -0.858254       -23.3543
 118   2.0000      -0.857649       -23.3378
 119   2.0000      -0.855778       -23.2869
 120   2.0000      -0.845496       -23.0071
 121   2.0000      -0.844261       -22.9735
 122   2.0000      -0.841117       -22.8880
 123   2.0000      -0.804601       -21.8943
 124   2.0000      -0.799418       -21.7533
 125   2.0000      -0.791712       -21.5436
 126   2.0000      -0.778337       -21.1796
 127   2.0000      -0.775940       -21.1144
 128   2.0000      -0.772770       -21.0281
 129   2.0000      -0.749608       -20.3979
 130   2.0000      -0.746610       -20.3163
 131   2.0000      -0.719031       -19.5658
 132   2.0000      -0.707857       -19.2618
 133   2.0000      -0.700335       -19.0571
 134   2.0000      -0.696445       -18.9512
 135   2.0000      -0.692662       -18.8483
 136   2.0000      -0.686272       -18.6744
 137   2.0000      -0.681795       -18.5526
 138   2.0000      -0.678213       -18.4551
 139   2.0000      -0.676230       -18.4011
 140   2.0000      -0.671751       -18.2793
 141   2.0000      -0.666785       -18.1441
 142   2.0000      -0.663581       -18.0570
 143   2.0000      -0.657273       -17.8853
 144   2.0000      -0.639750       -17.4085
 145   2.0000      -0.636658       -17.3243
 146   2.0000      -0.631858       -17.1937
 147   2.0000      -0.623585       -16.9686
 148   2.0000      -0.621206       -16.9039
 149   2.0000      -0.614467       -16.7205
 150   2.0000      -0.612082       -16.6556
 151   2.0000      -0.609907       -16.5964
 152   2.0000      -0.596985       -16.2448
 153   2.0000      -0.589202       -16.0330
 154   2.0000      -0.588515       -16.0143
 155   2.0000      -0.586507       -15.9597
 156   2.0000      -0.586374       -15.9561
 157   2.0000      -0.584239       -15.8980
 158   2.0000      -0.578191       -15.7334
 159   2.0000      -0.567488       -15.4421
 160   2.0000      -0.562149       -15.2968
 161   2.0000      -0.560366       -15.2483
 162   2.0000      -0.556644       -15.1471
 163   2.0000      -0.552479       -15.0337
 164   2.0000      -0.549865       -14.9626
 165   2.0000      -0.548129       -14.9153
 166   2.0000      -0.546415       -14.8687
 167   2.0000      -0.545667       -14.8484
 168   2.0000      -0.537538       -14.6271
 169   2.0000      -0.527305       -14.3487
 170   2.0000      -0.523752       -14.2520
 171   2.0000      -0.520953       -14.1759
 172   2.0000      -0.520518       -14.1640
 173   2.0000      -0.517506       -14.0821
 174   2.0000      -0.506563       -13.7843
 175   2.0000      -0.505836       -13.7645
 176   2.0000      -0.504282       -13.7222
 177   2.0000      -0.503652       -13.7051
 178   2.0000      -0.502447       -13.6723
 179   2.0000      -0.498829       -13.5738
 180   2.0000      -0.494883       -13.4664
 181   2.0000      -0.493803       -13.4371
 182   2.0000      -0.493330       -13.4242
 183   2.0000      -0.491687       -13.3795
 184   2.0000      -0.489825       -13.3288
 185   2.0000      -0.489421       -13.3178
 186   2.0000      -0.487132       -13.2555
 187   2.0000      -0.484307       -13.1787
 188   2.0000      -0.477571       -12.9954
 189   2.0000      -0.475665       -12.9435
 190   2.0000      -0.471341       -12.8258
 191   2.0000      -0.470215       -12.7952
 192   2.0000      -0.467894       -12.7321
 193   2.0000      -0.467488       -12.7210
 194   2.0000      -0.459564       -12.5054
 195   2.0000      -0.458611       -12.4794
 196   2.0000      -0.456725       -12.4281
 197   2.0000      -0.453801       -12.3485
 198   2.0000      -0.451789       -12.2938
 199   2.0000      -0.450171       -12.2498
 200   2.0000      -0.448527       -12.2050
 201   2.0000      -0.444902       -12.1064
 202   2.0000      -0.440962       -11.9992
 203   2.0000      -0.436962       -11.8903
 204   2.0000      -0.436491       -11.8775
 205   2.0000      -0.435896       -11.8613
 206   2.0000      -0.435249       -11.8437
 207   2.0000      -0.434222       -11.8158
 208   2.0000      -0.430588       -11.7169
 209   2.0000      -0.429395       -11.6844
 210   2.0000      -0.422052       -11.4846
 211   2.0000      -0.420715       -11.4482
 212   2.0000      -0.414695       -11.2844
 213   2.0000      -0.409474       -11.1423
 214   2.0000      -0.406442       -11.0598
 215   2.0000      -0.390493       -10.6258
 216   2.0000      -0.384027       -10.4499
 217   2.0000      -0.369846       -10.0640
 218   2.0000      -0.361183        -9.8283
 219   2.0000      -0.357808        -9.7365
 220   2.0000      -0.354247        -9.6395
 221   2.0000      -0.349528        -9.5111
 222   2.0000      -0.346928        -9.4404
 223   2.0000      -0.342569        -9.3218
 224   2.0000      -0.334745        -9.1089
 225   2.0000      -0.332943        -9.0598
 226   2.0000      -0.327743        -8.9183
 227   2.0000      -0.327550        -8.9131
 228   2.0000      -0.322103        -8.7649
 229   2.0000      -0.320190        -8.7128
 230   2.0000      -0.296332        -8.0636
 231   2.0000      -0.267540        -7.2801
 232   2.0000      -0.232523        -6.3273
 233   0.0000      -0.114426        -3.1137
 234   0.0000      -0.101833        -2.7710
 235   0.0000      -0.089123        -2.4252
 236   0.0000      -0.082739        -2.2514
 237   0.0000      -0.039717        -1.0807

MULLIKEN ATOMIC CHARGES
-----------------------
   0 C :   -0.141392
   1 C :    0.254357
   2 F :   -0.170864
   3 C :    0.181980
   4 F :   -0.176580
   5 C :   -0.170744
   6 S :    0.165114
   7 C :   -0.022542
   8 C :   -0.075087
   9 C :    0.018124
  10 C :   -0.105355
  11 S :    0.209957
  12 C :   -0.096265
  13 C :    0.026154
  14 C :    0.301242
  15 C :   -0.290211
  16 C :   -0.196444
  17 N :    0.197546
  18 C :   -0.190667
  19 N :    0.170074
  20 C :   -0.057564
  21 C :   -0.092867
  22 S :    0.174190
  23 C :   -0.116471
  24 C :    0.024826
  25 C :    0.022270
  26 N :    0.066364
  27 C :   -0.116337
  28 C :    0.138275
  29 O :   -0.094835
  30 C :   -0.013228
  31 C :   -0.018155
  32 C :    0.139728
  33 O :   -0.096178
  34 C :   -0.116653
  35 N :    0.065291
  36 C :   -0.115211
  37 S :    0.193042
  38 C :   -0.093716
  39 C :   -0.057109
  40 C :    0.025334
  41 C :   -0.093531
  42 S :    0.171768
  43 C :   -0.101267
  44 C :    0.012008
  45 C :    0.301197
  46 C :   -0.291878
  47 C :   -0.192421
  48 N :    0.179912
  49 C :   -0.196904
  50 N :    0.196860
  51 C :   -0.061194
  52 C :   -0.034581
  53 S :    0.180812
  54 C :   -0.153537
  55 C :    0.193311
  56 F :   -0.164845
  57 C :    0.256357
  58 F :   -0.168979
  59 C :   -0.147842
  60 S :    0.145386
  61 H :    0.043989
  62 H :    0.012576
  63 H :    0.029600
  64 H :    0.020951
  65 H :    0.022143
  66 H :    0.029851
  67 H :    0.016292
  68 H :    0.044576
Sum of atomic charges:    0.0000000

LOEWDIN ATOMIC CHARGES
----------------------
   0 C :   -0.212248
   1 C :    0.020633
   2 F :   -0.049786
   3 C :    0.013410
   4 F :   -0.051928
   5 C :   -0.220392
   6 S :    0.470757
   7 C :   -0.178215
   8 C :   -0.035892
   9 C :   -0.065319
  10 C :   -0.187138
  11 S :    0.488812
  12 C :   -0.177121
  13 C :   -0.067560
  14 C :    0.078058
  15 C :   -0.093684
  16 C :   -0.024433
  17 N :   -0.012853
  18 C :   -0.014614
  19 N :   -0.033400
  20 C :   -0.007375
  21 C :   -0.186369
  22 S :    0.458584
  23 C :   -0.192291
  24 C :   -0.044536
  25 C :   -0.044581
  26 N :    0.008083
  27 C :   -0.039024
  28 C :    0.054516
  29 O :   -0.091016
  30 C :   -0.012339
  31 C :   -0.012781
  32 C :    0.054855
  33 O :   -0.091437
  34 C :   -0.039149
  35 N :    0.007763
  36 C :   -0.192295
  37 S :    0.484114
  38 C :   -0.185816
  39 C :   -0.007400
  40 C :   -0.066066
  41 C :   -0.178714
  42 S :    0.456779
  43 C :   -0.182862
  44 C :   -0.065244
  45 C :    0.076411
  46 C :   -0.090551
  47 C :   -0.017524
  48 N :   -0.026472
  49 C :   -0.023381
  50 N :   -0.013303
  51 C :   -0.026314
  52 C :   -0.178221
  53 S :    0.464523
  54 C :   -0.223115
  55 C :    0.024619
  56 F :   -0.039560
  57 C :    0.022726
  58 F :   -0.048017
  59 C :   -0.214468
  60 S :    0.448386
  61 H :    0.036059
  62 H :    0.036657
  63 H :    0.044655
  64 H :    0.046319
  65 H :    0.046472
  66 H :    0.044743
  67 H :    0.041151
  68 H :    0.035716

  Mayer bond orders larger than 0.100000
B(  0-C ,  1-C ) :   1.5505 B(  0-C ,  5-C ) :   0.1201 B(  0-C ,  6-S ) :   1.1266
B(  0-C , 61-H ) :   0.9685 B(  1-C ,  2-F ) :   1.1449 B(  1-C ,  3-C ) :   1.1958
B(  3-C ,  4-F ) :   1.1385 B(  3-C ,  5-C ) :   1.4469 B(  5-C ,  6-S ) :   1.1418
B(  5-C ,  7-C ) :   1.1593 B(  7-C ,  8-C ) :   1.4646 B(  7-C , 11-S ) :   1.1120
B(  8-C ,  9-C ) :   1.2975 B(  8-C , 62-H ) :   0.9925 B(  9-C , 10-C ) :   1.4382
B(  9-C , 14-C ) :   0.9985 B( 10-C , 11-S ) :   1.1042 B( 10-C , 12-C ) :   1.2041
B( 12-C , 13-C ) :   1.4267 B( 12-C , 22-S ) :   1.1236 B( 13-C , 14-C ) :   0.9864
B( 13-C , 20-C ) :   1.2720 B( 14-C , 15-C ) :   1.7183 B( 15-C , 16-C ) :   1.1315
B( 15-C , 18-C ) :   1.1334 B( 16-C , 17-N ) :   3.0046 B( 18-C , 19-N ) :   2.9917
B( 20-C , 21-C ) :   1.4571 B( 20-C , 63-H ) :   0.9885 B( 21-C , 22-S ) :   1.0783
B( 21-C , 23-C ) :   1.1871 B( 23-C , 24-C ) :   1.3707 B( 23-C , 36-C ) :   0.1532
B( 23-C , 37-S ) :   1.1495 B( 24-C , 25-C ) :   1.1859 B( 24-C , 35-N ) :   1.4392
B( 25-C , 26-N ) :   1.4425 B( 25-C , 36-C ) :   1.3710 B( 26-N , 27-C ) :   1.7155
B( 27-C , 28-C ) :   0.8900 B( 27-C , 34-C ) :   1.0875 B( 28-C , 29-O ) :   2.2446
B( 28-C , 30-C ) :   1.0223 B( 30-C , 31-C ) :   1.6919 B( 30-C , 64-H ) :   0.9953
B( 31-C , 32-C ) :   1.0214 B( 31-C , 65-H ) :   0.9955 B( 32-C , 33-O ) :   2.2436
B( 32-C , 34-C ) :   0.8909 B( 34-C , 35-N ) :   1.7183 B( 36-C , 37-S ) :   1.1498
B( 36-C , 38-C ) :   1.1873 B( 38-C , 39-C ) :   1.4528 B( 38-C , 42-S ) :   1.0790
B( 39-C , 40-C ) :   1.2717 B( 39-C , 66-H ) :   0.9894 B( 40-C , 41-C ) :   1.4275
B( 40-C , 45-C ) :   0.9852 B( 41-C , 42-S ) :   1.1199 B( 41-C , 43-C ) :   1.2013
B( 43-C , 44-C ) :   1.4421 B( 43-C , 53-S ) :   1.1194 B( 44-C , 45-C ) :   0.9977
B( 44-C , 51-C ) :   1.2698 B( 45-C , 46-C ) :   1.7204 B( 46-C , 47-C ) :   1.1337
B( 46-C , 49-C ) :   1.1314 B( 47-C , 48-N ) :   2.9957 B( 49-C , 50-N ) :   3.0036
B( 51-C , 52-C ) :   1.5001 B( 51-C , 67-H ) :   0.9955 B( 52-C , 53-S ) :   1.0972
B( 52-C , 54-C ) :   1.1230 B( 54-C , 55-C ) :   1.4756 B( 54-C , 59-C ) :   0.1279
B( 54-C , 60-S ) :   1.1286 B( 55-C , 56-F ) :   1.1417 B( 55-C , 57-C ) :   1.1987
B( 57-C , 58-F ) :   1.1462 B( 57-C , 59-C ) :   1.5540 B( 59-C , 60-S ) :   1.1232
B( 59-C , 68-H ) :   0.9692

-----------------------------------------------------------------------------
         ABSORPTION SPECTRUM VIA TRANSITION ELECTRIC DIPOLE MOMENTS
-----------------------------------------------------------------------------
State   Energy  Wavelength   fosc         T2         TX        TY        TZ
        (cm-1)    (nm)                  (au**2)     (au)      (au)      (au)
-----------------------------------------------------------------------------
   0   10081.3    991.9   0.590193414  19.27316  -0.76516  -3.83780   1.98972
   1   11739.4    851.8   0.039378011   1.10429  -0.61306   0.36667   0.77071
   2   13974.5    715.6   0.200932924   4.73358   0.36183   1.91369  -0.96976
   3   17646.5    566.7   0.142697139   2.66214  -0.82045   0.78393   1.17237
   4   19238.4    519.8   0.047789534   0.81779  -0.50891   0.43351   0.60899
   5   21383.8    467.6   0.043103899   0.66360  -0.13163  -0.71402   0.36939
   6   24588.6    406.7   0.114365904   1.53122   0.63533  -0.57866  -0.89035
   7   24831.6    402.7   0.005502429   0.07295  -0.26354   0.04926   0.03275
   8   25683.0    389.4   1.160204613  14.87185   0.68158   3.37535  -1.73619
   9   25977.9    384.9   0.034123477   0.43244  -0.11443  -0.57677   0.29441
  10   26727.9    374.1   0.002298218   0.02831  -0.15936   0.03675  -0.03949
  11   27434.4    364.5   0.359027328   4.30831  -0.34402  -1.83201   0.91307
  12   28070.2    356.2   0.018791836   0.22039  -0.06727  -0.42288   0.19246
  13   29116.0    343.5   0.039529395   0.44695  -0.49391   0.28161   0.35172
  14   29408.6    340.0   0.536366425   6.00431   1.59259  -1.03165  -1.55037
  15   30132.6    331.9   0.042351175   0.46271   0.22497  -0.63739   0.07637
  16   30411.7    328.8   0.167866573   1.81719  -1.08195   0.38119   0.70800
  17   30776.7    324.9   0.000005313   0.00006  -0.00261   0.00707   0.00023
  18   31446.7    318.0   0.008117005   0.08498  -0.08280   0.26977   0.07312
  19   31510.6    317.4   0.227615051   2.37805  -0.36283  -1.26226   0.80816
  20   32115.5    311.4   0.290274709   2.97557   1.17194  -0.59129  -1.11915
  21   32383.3    308.8   0.115179951   1.17093  -0.45490   0.97528   0.11323
  22   32573.1    307.0   0.025333496   0.25604  -0.26606  -0.28779   0.32005
  23   32868.2    304.2   0.012341292   0.12361  -0.30553   0.04638   0.16766
  24   33243.9    300.8   0.107200451   1.06160  -0.45496   0.85761   0.34512
  25   33462.3    298.8   0.541764404   5.33004   1.55948  -0.86353  -1.46710
  26   33550.8    298.1   0.111068894   1.08985   0.93001  -0.34270  -0.32785
  27   33813.8    295.7   0.001184027   0.01153  -0.00641   0.09904  -0.04097
  28   34507.6    289.8   0.022017882   0.21006  -0.34106   0.15607   0.26340
  29   34564.3    289.3   0.030653538   0.29196   0.44789  -0.14849  -0.26326
  30   34805.8    287.3   0.194608547   1.84071  -0.16628  -1.21985   0.57012
  31   35250.7    283.7   0.001920018   0.01793   0.11577  -0.02732   0.06151
  32   35681.4    280.3   0.008656396   0.07987  -0.15100   0.06195   0.23071
  33   35737.3    279.8   0.005172683   0.04765  -0.05082  -0.16729   0.13069
  34   36406.3    274.7   0.063954754   0.57832   0.11605   0.67950  -0.32114
  35   36745.9    272.1   0.046345844   0.41522   0.36066  -0.21244  -0.48991
  36   37113.5    269.4   0.305605098   2.71084  -0.93729   0.85133   1.05241
  37   37317.2    268.0   0.046934136   0.41405  -0.11892  -0.55294   0.30687
  38   37924.7    263.7   0.028773074   0.24977  -0.31423   0.11738   0.37048
  39   38094.1    262.5   0.088406271   0.76401   0.41367   0.46744  -0.61187
  40   38120.5    262.3   0.106663900   0.92116   0.00980   0.91849  -0.27826
  41   38255.3    261.4   0.004593470   0.03953   0.01199   0.19746  -0.01986
  42   38306.2    261.1   0.012707587   0.10921   0.23914  -0.02050  -0.22716
  43   38330.8    260.9   0.058172791   0.49963  -0.08591  -0.65497   0.25152
  44   38416.9    260.3   0.037715239   0.32320  -0.13901  -0.48192   0.26764
  45   38695.5    258.4   0.000725819   0.00618   0.05241   0.00861  -0.05792
  46   38802.2    257.7   0.031241982   0.26507  -0.37262   0.28282   0.21502
  47   39123.5    255.6   0.001453453   0.01223  -0.04647   0.10026   0.00441
  48   39591.3    252.6   0.034045310   0.28310  -0.16963   0.48346   0.14347
  49   39699.0    251.9   0.057186453   0.47423   0.41996  -0.14007  -0.52749
  50   39969.1    250.2   0.020899015   0.17214   0.13485   0.32116  -0.22541
  51   40044.4    249.7   0.022395312   0.18412   0.24940  -0.27872  -0.21031
  52   40230.2    248.6   0.012232155   0.10010   0.21187  -0.14792  -0.18256

FINAL SINGLE POINT ENERGY     -5266.900180959236

DIPOLE MOMENT
-------------
                                X             Y             Z
Electronic contribution:    -18.65936       8.96888      20.90952
Nuclear contribution   :     16.41652      -6.85507     -19.40822
                        -----------------------------------------
Total Dipole Moment    :     -2.24284       2.11381       1.50130
                        -----------------------------------------
Magnitude (a.u.)       :      3.42818
Magnitude (Debye)      :      8.71375

Rotational constants in cm-1:     0.001675     0.000361     0.000298
Rotational constants in MHz :    50.212779    10.815828     8.935511

                             ****ORCA TERMINATED NORMALLY****
TOTAL RUN TIME: 0 days 0 hours 6 minutes 0 seconds 155 msec
