                         Program Version 4.2.0 -  RELEASE  -
|  1> # ORCA input file
|  2> # SCF done       -207.058495377226          0.000742576550
|  3> ! CAM-B3LYP def2-SVP def2/J RIJCOSX Grid4 TightSCF
|  4> %maxcore 5000
|  5> %tddft
|  6>     Mode sTDDFT
|  7>     Ethresh 5.0
|  8>     maxcore 5000
|  9> end
| 10>
| 11> %pal
| 12>   nprocs 6
| 13>   end
| 14> * xyz 0 1
| 15>    C        1.80332        -1.27826         3.66615
| 16>    O        1.27373        -2.24222         4.19076
| 17>    C        2.39417        -0.12366         4.36664
| 18>    C        2.91001         0.78026         3.42109
| 19>    C        3.51655         1.94717         3.85501
| 20>    C        3.59572         2.18967         5.22251
| 21>    C        3.07920         1.28428         6.15206
| 22>    C        2.47054         0.11194         5.72330
| 23>   Br        3.20046         1.63877         8.00404
| 24>   Br        4.42394         3.78319         5.81218
| 25>    C        2.67273         0.24683         2.07904
| 26>    C        3.04828         0.85868         0.91305
| 27>    C        3.71845         2.10051         0.85480
| 28>    N        4.26566         3.10284         0.74407
| 29>    C        2.83308         0.35768        -0.38931
| 30>    N        2.69473         0.02291        -1.47867
| 31>    C        1.98412        -1.02199         2.23548
| 32>    C        1.56156        -1.84328         1.21859
| 33>    C        0.89248        -3.07385         1.26396
| 34>    C        0.52854        -3.75945         0.09532
| 35>    C       -0.12250        -4.94739         0.35859
| 36>    C       -0.25909        -5.18340         1.74948
| 37>    S        0.40336        -3.94978         2.71576
| 38>    C       -0.93523        -6.41273         1.91752
| 39>    C       -1.23124        -6.95668         0.65290
| 40>    C       -0.73460        -6.04977        -0.37018
| 41>    C       -0.83613        -6.19566        -1.72134
| 42>    C       -1.48837        -7.29989        -2.31187
| 43>    N       -2.02897        -8.18527        -2.79900
| 44>    C       -0.31058        -5.24244        -2.62052
| 45>    N        0.11123        -4.46933        -3.35395
| 46>    C       -1.89952        -8.17629         0.72615
| 47>    C       -2.12254        -8.57244         2.03621
| 48>    S       -1.48904        -7.40096         3.19152
| 49>    C       -2.79174        -9.73426         2.52032
| 50>    C       -3.19414        -9.84114         3.81543
| 51>    C       -3.89215       -10.96170         4.31969
| 52>    C       -4.07911       -12.09600         3.59430
| 53>    C       -3.45294       -12.20644         2.21836
| 54>    C       -3.15213       -10.84406         1.54386
| 55>    N       -2.12000       -10.94053         0.53908
| 56>    C       -1.25509       -11.84938         0.61960
| 57>    C       -1.28811       -12.88380         1.67053
| 58>    N       -2.29250       -13.05199         2.40677
| 59>    F       -0.21167       -13.63713         1.84561
| 60>    F       -0.28431       -11.90050        -0.28045
| 61>    C       -4.71548       -13.25202         4.12503
| 62>    C       -4.85278       -14.50239         3.54107
| 63>    C       -5.50983       -15.40382         4.37352
| 64>    C       -5.88344       -14.84059         5.60837
| 65>    S       -5.42498       -13.20316         5.73538
| 66>    C       -6.53173       -15.83061         6.38323
| 67>    C       -6.56535       -17.02813         5.63589
| 68>    C       -5.94200       -16.79274         4.34482
| 69>    C       -5.83588       -17.67927         3.31414
| 70>    C       -6.33524       -18.99441         3.42709
| 71>    N       -6.74802       -20.05770         3.54332
| 72>    C       -5.24037       -17.32878         2.08407
| 73>    N       -4.75751       -17.03180         1.08772
| 74>    C       -7.20197       -18.06357         6.30329
| 75>    C       -7.66480       -17.67687         7.55543
| 76>    S       -7.26341       -15.99786         7.90827
| 77>    C       -8.32778       -18.43869         8.53724
| 78>    C       -8.97171       -19.63563         8.41715
| 79>    C       -9.20856       -20.43422         9.65160
| 80>    O       -9.08016       -20.05952        10.79256
| 81>    C       -9.57825       -21.78262         9.17151
| 82>    C       -9.68200       -21.76795         7.76836
| 83>    C       -9.45484       -20.40364         7.29005
| 84>    C       -9.88568       -19.92275         6.08145
| 85>    C       -9.88352       -18.55850         5.73110
| 86>    N       -9.92227       -17.45543         5.41548
| 87>    C      -10.47818       -20.72573         5.08264
| 88>    N      -10.97143       -21.33476         4.24542
| 89>    C       -9.97726       -22.93538         7.08627
| 90>    C      -10.17822       -24.09992         7.81961
| 91>    C      -10.09288       -24.10199         9.21407
| 92>    C       -9.78676       -22.93425         9.90149
| 93>   Br      -10.38494       -25.69550        10.18610
| 94>   Br      -10.56998       -25.69872         6.89244
| 95>    H        3.92728         2.67151         3.17085
| 96>    H        2.06736        -0.59651         6.43014
| 97>    H        1.76085        -1.50995         0.20732
| 98>    H        0.74682        -3.37302        -0.88470
| 99>    H       -2.21533        -8.75764        -0.11919
|100>    H       -2.99247        -9.02811         4.49760
|101>    H       -4.27176       -10.90574         5.32956
|102>    H       -4.12923       -12.76632         1.55894
|103>    H       -4.05199       -10.51085         1.00739
|104>    H       -4.46642       -14.74750         2.56997
|105>    H       -7.28869       -19.06818         5.93172
|106>    H       -8.26705       -18.06238         9.55436
|107>    H      -10.04282       -22.96995         6.01062
|108>    H       -9.71301       -22.92649        10.97787
|109> *
|110>
|111>                          ****END OF INPUT****

CARTESIAN COORDINATES (ANGSTROEM)
---------------------------------
  C      1.803320   -1.278260    3.666150
  O      1.273730   -2.242220    4.190760
  C      2.394170   -0.123660    4.366640
  C      2.910010    0.780260    3.421090
  C      3.516550    1.947170    3.855010
  C      3.595720    2.189670    5.222510
  C      3.079200    1.284280    6.152060
  C      2.470540    0.111940    5.723300
  Br     3.200460    1.638770    8.004040
  Br     4.423940    3.783190    5.812180
  C      2.672730    0.246830    2.079040
  C      3.048280    0.858680    0.913050
  C      3.718450    2.100510    0.854800
  N      4.265660    3.102840    0.744070
  C      2.833080    0.357680   -0.389310
  N      2.694730    0.022910   -1.478670
  C      1.984120   -1.021990    2.235480
  C      1.561560   -1.843280    1.218590
  C      0.892480   -3.073850    1.263960
  C      0.528540   -3.759450    0.095320
  C     -0.122500   -4.947390    0.358590
  C     -0.259090   -5.183400    1.749480
  S      0.403360   -3.949780    2.715760
  C     -0.935230   -6.412730    1.917520
  C     -1.231240   -6.956680    0.652900
  C     -0.734600   -6.049770   -0.370180
  C     -0.836130   -6.195660   -1.721340
  C     -1.488370   -7.299890   -2.311870
  N     -2.028970   -8.185270   -2.799000
  C     -0.310580   -5.242440   -2.620520
  N      0.111230   -4.469330   -3.353950
  C     -1.899520   -8.176290    0.726150
  C     -2.122540   -8.572440    2.036210
  S     -1.489040   -7.400960    3.191520
  C     -2.791740   -9.734260    2.520320
  C     -3.194140   -9.841140    3.815430
  C     -3.892150  -10.961700    4.319690
  C     -4.079110  -12.096000    3.594300
  C     -3.452940  -12.206440    2.218360
  C     -3.152130  -10.844060    1.543860
  N     -2.120000  -10.940530    0.539080
  C     -1.255090  -11.849380    0.619600
  C     -1.288110  -12.883800    1.670530
  N     -2.292500  -13.051990    2.406770
  F     -0.211670  -13.637130    1.845610
  F     -0.284310  -11.900500   -0.280450
  C     -4.715480  -13.252020    4.125030
  C     -4.852780  -14.502390    3.541070
  C     -5.509830  -15.403820    4.373520
  C     -5.883440  -14.840590    5.608370
  S     -5.424980  -13.203160    5.735380
  C     -6.531730  -15.830610    6.383230
  C     -6.565350  -17.028130    5.635890
  C     -5.942000  -16.792740    4.344820
  C     -5.835880  -17.679270    3.314140
  C     -6.335240  -18.994410    3.427090
  N     -6.748020  -20.057700    3.543320
  C     -5.240370  -17.328780    2.084070
  N     -4.757510  -17.031800    1.087720
  C     -7.201970  -18.063570    6.303290
  C     -7.664800  -17.676870    7.555430
  S     -7.263410  -15.997860    7.908270
  C     -8.327780  -18.438690    8.537240
  C     -8.971710  -19.635630    8.417150
  C     -9.208560  -20.434220    9.651600
  O     -9.080160  -20.059520   10.792560
  C     -9.578250  -21.782620    9.171510
  C     -9.682000  -21.767950    7.768360
  C     -9.454840  -20.403640    7.290050
  C     -9.885680  -19.922750    6.081450
  C     -9.883520  -18.558500    5.731100
  N     -9.922270  -17.455430    5.415480
  C    -10.478180  -20.725730    5.082640
  N    -10.971430  -21.334760    4.245420
  C     -9.977260  -22.935380    7.086270
  C    -10.178220  -24.099920    7.819610
  C    -10.092880  -24.101990    9.214070
  C     -9.786760  -22.934250    9.901490
  Br   -10.384940  -25.695500   10.186100
  Br   -10.569980  -25.698720    6.892440
  H      3.927280    2.671510    3.170850
  H      2.067360   -0.596510    6.430140
  H      1.760850   -1.509950    0.207320
  H      0.746820   -3.373020   -0.884700
  H     -2.215330   -8.757640   -0.119190
  H     -2.992470   -9.028110    4.497600
  H     -4.271760  -10.905740    5.329560
  H     -4.129230  -12.766320    1.558940
  H     -4.051990  -10.510850    1.007390
  H     -4.466420  -14.747500    2.569970
  H     -7.288690  -19.068180    5.931720
  H     -8.267050  -18.062380    9.554360
  H    -10.042820  -22.969950    6.010620
  H     -9.713010  -22.926490   10.977870

 Total Charge           Charge          ....    0
 Multiplicity           Mult            ....    1
 Number of Electrons    NEL             ....  670
 Basis Dimension        Dim             .... 1278

ORBITAL ENERGIES
----------------

  NO   OCC          E(Eh)            E(eV)
   0   2.0000    -482.882463    -13139.8998
   1   2.0000    -482.880167    -13139.8374
   2   2.0000    -482.879479    -13139.8187
   3   2.0000    -482.877834    -13139.7739
   4   2.0000     -89.005497     -2421.9627
   5   2.0000     -89.001984     -2421.8671
   6   2.0000     -88.999623     -2421.8029
   7   2.0000     -88.998448     -2421.7709
   8   2.0000     -62.560074     -1702.3462
   9   2.0000     -62.557780     -1702.2837
  10   2.0000     -62.557089     -1702.2649
  11   2.0000     -62.555460     -1702.2206
  12   2.0000     -56.394025     -1534.5594
  13   2.0000     -56.391745     -1534.4974
  14   2.0000     -56.391374     -1534.4873
  15   2.0000     -56.391269     -1534.4844
  16   2.0000     -56.391039     -1534.4782
  17   2.0000     -56.389426     -1534.4343
  18   2.0000     -56.389070     -1534.4246
  19   2.0000     -56.388971     -1534.4219
  20   2.0000     -56.388384     -1534.4059
  21   2.0000     -56.388292     -1534.4034
  22   2.0000     -56.386749     -1534.3614
  23   2.0000     -56.386650     -1534.3588
  24   2.0000     -24.820738      -675.4066
  25   2.0000     -24.820143      -675.3904
  26   2.0000     -19.237591      -523.4815
  27   2.0000     -19.227485      -523.2065
  28   2.0000     -14.450086      -393.2068
  29   2.0000     -14.449782      -393.1986
  30   2.0000     -14.441184      -392.9646
  31   2.0000     -14.440591      -392.9485
  32   2.0000     -14.436220      -392.8295
  33   2.0000     -14.435836      -392.8191
  34   2.0000     -14.427934      -392.6040
  35   2.0000     -14.427072      -392.5806
  36   2.0000     -14.423402      -392.4807
  37   2.0000     -14.422004      -392.4427
  38   2.0000     -10.437493      -284.0186
  39   2.0000     -10.435508      -283.9646
  40   2.0000     -10.385492      -282.6036
  41   2.0000     -10.378675      -282.4181
  42   2.0000     -10.376647      -282.3629
  43   2.0000     -10.373176      -282.2685
  44   2.0000     -10.363540      -282.0063
  45   2.0000     -10.360538      -281.9246
  46   2.0000     -10.359578      -281.8985
  47   2.0000     -10.359202      -281.8882
  48   2.0000     -10.357244      -281.8349
  49   2.0000     -10.356662      -281.8191
  50   2.0000     -10.355508      -281.7877
  51   2.0000     -10.355460      -281.7864
  52   2.0000     -10.354770      -281.7676
  53   2.0000     -10.354081      -281.7489
  54   2.0000     -10.353755      -281.7400
  55   2.0000     -10.353624      -281.7364
  56   2.0000     -10.353295      -281.7275
  57   2.0000     -10.345724      -281.5215
  58   2.0000     -10.343445      -281.4595
  59   2.0000     -10.342562      -281.4354
  60   2.0000     -10.341189      -281.3981
  61   2.0000     -10.340624      -281.3827
  62   2.0000     -10.339291      -281.3464
  63   2.0000     -10.339004      -281.3386
  64   2.0000     -10.337459      -281.2966
  65   2.0000     -10.337117      -281.2873
  66   2.0000     -10.335865      -281.2532
  67   2.0000     -10.335753      -281.2501
  68   2.0000     -10.335534      -281.2442
  69   2.0000     -10.335070      -281.2315
  70   2.0000     -10.328897      -281.0636
  71   2.0000     -10.328755      -281.0597
  72   2.0000     -10.325827      -280.9800
  73   2.0000     -10.324764      -280.9511
  74   2.0000     -10.324159      -280.9347
  75   2.0000     -10.323848      -280.9262
  76   2.0000     -10.322965      -280.9022
  77   2.0000     -10.322760      -280.8966
  78   2.0000     -10.322588      -280.8919
  79   2.0000     -10.322336      -280.8850
  80   2.0000     -10.319212      -280.8000
  81   2.0000     -10.318439      -280.7790
  82   2.0000     -10.317456      -280.7522
  83   2.0000     -10.317206      -280.7455
  84   2.0000     -10.316804      -280.7345
  85   2.0000     -10.315750      -280.7058
  86   2.0000     -10.314957      -280.6843
  87   2.0000     -10.314520      -280.6723
  88   2.0000     -10.314127      -280.6617
  89   2.0000     -10.310276      -280.5569
  90   2.0000     -10.310226      -280.5555
  91   2.0000     -10.309821      -280.5445
  92   2.0000     -10.309386      -280.5327
  93   2.0000     -10.309015      -280.5226
  94   2.0000     -10.308758      -280.5156
  95   2.0000     -10.308106      -280.4978
  96   2.0000      -8.789403      -239.1718
  97   2.0000      -8.787105      -239.1093
  98   2.0000      -8.786417      -239.0906
  99   2.0000      -8.784792      -239.0463
 100   2.0000      -8.100263      -220.4194
 101   2.0000      -8.096645      -220.3209
 102   2.0000      -8.094369      -220.2590
 103   2.0000      -8.090892      -220.1644
 104   2.0000      -6.625537      -180.2900
 105   2.0000      -6.623279      -180.2286
 106   2.0000      -6.622559      -180.2090
 107   2.0000      -6.620987      -180.1662
 108   2.0000      -6.611532      -179.9089
 109   2.0000      -6.610729      -179.8871
 110   2.0000      -6.609201      -179.8455
 111   2.0000      -6.608541      -179.8275
 112   2.0000      -6.608423      -179.8243
 113   2.0000      -6.607741      -179.8058
 114   2.0000      -6.606897      -179.7828
 115   2.0000      -6.606080      -179.7606
 116   2.0000      -6.069412      -165.1571
 117   2.0000      -6.065888      -165.0612
 118   2.0000      -6.065253      -165.0439
 119   2.0000      -6.063621      -164.9995
 120   2.0000      -6.062751      -164.9758
 121   2.0000      -6.061743      -164.9484
 122   2.0000      -6.060304      -164.9093
 123   2.0000      -6.059429      -164.8855
 124   2.0000      -6.058958      -164.8726
 125   2.0000      -6.056681      -164.8107
 126   2.0000      -6.055564      -164.7803
 127   2.0000      -6.053414      -164.7218
 128   2.0000      -2.741436       -74.5983
 129   2.0000      -2.739185       -74.5370
 130   2.0000      -2.738441       -74.5168
 131   2.0000      -2.737685       -74.4962
 132   2.0000      -2.737070       -74.4795
 133   2.0000      -2.736871       -74.4741
 134   2.0000      -2.735395       -74.4339
 135   2.0000      -2.734779       -74.4171
 136   2.0000      -2.734677       -74.4143
 137   2.0000      -2.734119       -74.3992
 138   2.0000      -2.733083       -74.3710
 139   2.0000      -2.732492       -74.3549
 140   2.0000      -2.725917       -74.1760
 141   2.0000      -2.725914       -74.1759
 142   2.0000      -2.723588       -74.1126
 143   2.0000      -2.723566       -74.1120
 144   2.0000      -2.722930       -74.0947
 145   2.0000      -2.722919       -74.0944
 146   2.0000      -2.721264       -74.0494
 147   2.0000      -2.721248       -74.0489
 148   2.0000      -1.351256       -36.7695
 149   2.0000      -1.336729       -36.3742
 150   2.0000      -1.153431       -31.3865
 151   2.0000      -1.143477       -31.1156
 152   2.0000      -1.103614       -30.0309
 153   2.0000      -1.059362       -28.8267
 154   2.0000      -1.055128       -28.7115
 155   2.0000      -1.036512       -28.2049
 156   2.0000      -1.033132       -28.1129
 157   2.0000      -1.032336       -28.0913
 158   2.0000      -1.031276       -28.0624
 159   2.0000      -1.028306       -27.9816
 160   2.0000      -1.018743       -27.7214
 161   2.0000      -1.016201       -27.6522
 162   2.0000      -1.015359       -27.6293
 163   2.0000      -1.013811       -27.5872
 164   2.0000      -1.013018       -27.5656
 165   2.0000      -1.009280       -27.4639
 166   2.0000      -1.003530       -27.3074
 167   2.0000      -1.002354       -27.2754
 168   2.0000      -0.985807       -26.8252
 169   2.0000      -0.983963       -26.7750
 170   2.0000      -0.979800       -26.6617
 171   2.0000      -0.971358       -26.4320
 172   2.0000      -0.961843       -26.1731
 173   2.0000      -0.936099       -25.4725
 174   2.0000      -0.931089       -25.3362
 175   2.0000      -0.926469       -25.2105
 176   2.0000      -0.924788       -25.1647
 177   2.0000      -0.918455       -24.9924
 178   2.0000      -0.915969       -24.9248
 179   2.0000      -0.911582       -24.8054
 180   2.0000      -0.904016       -24.5995
 181   2.0000      -0.893530       -24.3142
 182   2.0000      -0.888246       -24.1704
 183   2.0000      -0.881887       -23.9974
 184   2.0000      -0.881162       -23.9776
 185   2.0000      -0.869978       -23.6733
 186   2.0000      -0.867783       -23.6136
 187   2.0000      -0.864755       -23.5312
 188   2.0000      -0.860187       -23.4069
 189   2.0000      -0.858788       -23.3688
 190   2.0000      -0.856829       -23.3155
 191   2.0000      -0.823519       -22.4091
 192   2.0000      -0.809564       -22.0294
 193   2.0000      -0.798111       -21.7177
 194   2.0000      -0.795756       -21.6536
 195   2.0000      -0.792877       -21.5753
 196   2.0000      -0.784955       -21.3597
 197   2.0000      -0.780001       -21.2249
 198   2.0000      -0.777187       -21.1483
 199   2.0000      -0.775282       -21.0965
 200   2.0000      -0.766381       -20.8543
 201   2.0000      -0.749621       -20.3982
 202   2.0000      -0.732298       -19.9269
 203   2.0000      -0.723774       -19.6949
 204   2.0000      -0.712799       -19.3962
 205   2.0000      -0.710316       -19.3287
 206   2.0000      -0.706990       -19.2382
 207   2.0000      -0.704626       -19.1738
 208   2.0000      -0.699715       -19.0402
 209   2.0000      -0.698400       -19.0044
 210   2.0000      -0.693896       -18.8819
 211   2.0000      -0.691018       -18.8036
 212   2.0000      -0.685855       -18.6631
 213   2.0000      -0.683558       -18.6006
 214   2.0000      -0.676595       -18.4111
 215   2.0000      -0.673154       -18.3174
 216   2.0000      -0.659963       -17.9585
 217   2.0000      -0.657649       -17.8955
 218   2.0000      -0.650221       -17.6934
 219   2.0000      -0.644832       -17.5468
 220   2.0000      -0.640721       -17.4349
 221   2.0000      -0.634186       -17.2571
 222   2.0000      -0.630804       -17.1650
 223   2.0000      -0.629100       -17.1187
 224   2.0000      -0.625911       -17.0319
 225   2.0000      -0.624833       -17.0026
 226   2.0000      -0.621185       -16.9033
 227   2.0000      -0.614894       -16.7321
 228   2.0000      -0.610479       -16.6120
 229   2.0000      -0.605235       -16.4693
 230   2.0000      -0.598493       -16.2858
 231   2.0000      -0.590949       -16.0806
 232   2.0000      -0.589304       -16.0358
 233   2.0000      -0.581778       -15.8310
 234   2.0000      -0.579639       -15.7728
 235   2.0000      -0.571443       -15.5497
 236   2.0000      -0.570087       -15.5129
 237   2.0000      -0.564800       -15.3690
 238   2.0000      -0.562765       -15.3136
 239   2.0000      -0.561529       -15.2800
 240   2.0000      -0.559066       -15.2130
 241   2.0000      -0.557743       -15.1770
 242   2.0000      -0.554726       -15.0949
 243   2.0000      -0.553642       -15.0654
 244   2.0000      -0.552790       -15.0422
 245   2.0000      -0.549118       -14.9423
 246   2.0000      -0.548140       -14.9156
 247   2.0000      -0.545788       -14.8516
 248   2.0000      -0.539855       -14.6902
 249   2.0000      -0.536253       -14.5922
 250   2.0000      -0.533283       -14.5114
 251   2.0000      -0.527655       -14.3582
 252   2.0000      -0.526837       -14.3360
 253   2.0000      -0.521959       -14.2032
 254   2.0000      -0.518682       -14.1141
 255   2.0000      -0.516929       -14.0664
 256   2.0000      -0.515840       -14.0367
 257   2.0000      -0.513591       -13.9755
 258   2.0000      -0.512797       -13.9539
 259   2.0000      -0.512115       -13.9354
 260   2.0000      -0.509257       -13.8576
 261   2.0000      -0.507103       -13.7990
 262   2.0000      -0.506005       -13.7691
 263   2.0000      -0.504067       -13.7164
 264   2.0000      -0.501338       -13.6421
 265   2.0000      -0.499962       -13.6046
 266   2.0000      -0.497150       -13.5281
 267   2.0000      -0.494342       -13.4517
 268   2.0000      -0.492063       -13.3897
 269   2.0000      -0.489184       -13.3114
 270   2.0000      -0.484605       -13.1868
 271   2.0000      -0.484189       -13.1754
 272   2.0000      -0.479925       -13.0594
 273   2.0000      -0.471250       -12.8234
 274   2.0000      -0.470150       -12.7934
 275   2.0000      -0.468920       -12.7600
 276   2.0000      -0.468858       -12.7583
 277   2.0000      -0.467066       -12.7095
 278   2.0000      -0.465926       -12.6785
 279   2.0000      -0.464584       -12.6420
 280   2.0000      -0.462550       -12.5866
 281   2.0000      -0.461341       -12.5537
 282   2.0000      -0.459514       -12.5040
 283   2.0000      -0.457650       -12.4533
 284   2.0000      -0.457309       -12.4440
 285   2.0000      -0.454524       -12.3682
 286   2.0000      -0.451538       -12.2870
 287   2.0000      -0.450835       -12.2679
 288   2.0000      -0.449646       -12.2355
 289   2.0000      -0.449312       -12.2264
 290   2.0000      -0.448171       -12.1954
 291   2.0000      -0.445772       -12.1301
 292   2.0000      -0.444948       -12.1077
 293   2.0000      -0.444064       -12.0836
 294   2.0000      -0.443693       -12.0735
 295   2.0000      -0.439071       -11.9477
 296   2.0000      -0.437719       -11.9109
 297   2.0000      -0.437549       -11.9063
 298   2.0000      -0.436181       -11.8691
 299   2.0000      -0.434979       -11.8364
 300   2.0000      -0.433855       -11.8058
 301   2.0000      -0.433047       -11.7838
 302   2.0000      -0.429920       -11.6987
 303   2.0000      -0.426951       -11.6179
 304   2.0000      -0.422508       -11.4970
 305   2.0000      -0.418971       -11.4008
 306   2.0000      -0.416671       -11.3382
 307   2.0000      -0.414274       -11.2730
 308   2.0000      -0.408162       -11.1066
 309   2.0000      -0.406264       -11.0550
 310   2.0000      -0.405592       -11.0367
 311   2.0000      -0.402316       -10.9476
 312   2.0000      -0.394960       -10.7474
 313   2.0000      -0.392582       -10.6827
 314   2.0000      -0.391476       -10.6526
 315   2.0000      -0.382021       -10.3953
 316   2.0000      -0.376155       -10.2357
 317   2.0000      -0.368986       -10.0406
 318   2.0000      -0.365296        -9.9402
 319   2.0000      -0.360502        -9.8098
 320   2.0000      -0.357090        -9.7169
 321   2.0000      -0.355595        -9.6762
 322   2.0000      -0.352758        -9.5990
 323   2.0000      -0.350269        -9.5313
 324   2.0000      -0.349353        -9.5064
 325   2.0000      -0.346368        -9.4252
 326   2.0000      -0.340920        -9.2769
 327   2.0000      -0.337190        -9.1754
 328   2.0000      -0.334385        -9.0991
 329   2.0000      -0.330096        -8.9824
 330   2.0000      -0.319264        -8.6876
 331   2.0000      -0.316494        -8.6122
 332   2.0000      -0.311862        -8.4862
 333   2.0000      -0.283965        -7.7271
 334   2.0000      -0.255679        -6.9574
 335   0.0000      -0.126580        -3.4444
 336   0.0000      -0.117459        -3.1962
 337   0.0000      -0.097061        -2.6412
 338   0.0000      -0.095432        -2.5968
 339   0.0000      -0.080646        -2.1945

MULLIKEN ATOMIC CHARGES
-----------------------
   0 C :    0.166903
   1 O :   -0.185112
   2 C :   -0.013816
   3 C :    0.030640
   4 C :   -0.006227
   5 C :   -0.025953
   6 C :   -0.016926
   7 C :   -0.018980
   8 Br:    0.015980
   9 Br:    0.025875
  10 C :    0.322782
  11 C :   -0.345480
  12 C :   -0.187534
  13 N :    0.162427
  14 C :   -0.188305
  15 N :    0.156597
  16 C :   -0.093666
  17 C :   -0.027821
  18 C :   -0.051165
  19 C :   -0.064139
  20 C :    0.052171
  21 C :   -0.067289
  22 S :    0.242347
  23 C :   -0.102219
  24 C :    0.029749
  25 C :    0.306901
  26 C :   -0.293155
  27 C :   -0.187273
  28 N :    0.182611
  29 C :   -0.195432
  30 N :    0.184806
  31 C :   -0.039263
  32 C :   -0.070378
  33 S :    0.177428
  34 C :    0.016604
  35 C :   -0.039817
  36 C :   -0.064359
  37 C :    0.068608
  38 C :    0.062480
  39 C :    0.150557
  40 N :   -0.105987
  41 C :    0.125651
  42 C :    0.123653
  43 N :   -0.088311
  44 F :   -0.135182
  45 F :   -0.132881
  46 C :   -0.060699
  47 C :   -0.035702
  48 C :    0.028150
  49 C :   -0.096340
  50 S :    0.177119
  51 C :   -0.071506
  52 C :   -0.004842
  53 C :    0.306088
  54 C :   -0.287873
  55 C :   -0.184159
  56 N :    0.174545
  57 C :   -0.181375
  58 N :    0.175244
  59 C :    0.000548
  60 C :   -0.111217
  61 S :    0.216423
  62 C :    0.081545
  63 C :   -0.141418
  64 C :    0.137165
  65 O :   -0.137617
  66 C :    0.006500
  67 C :    0.013827
  68 C :    0.268754
  69 C :   -0.324768
  70 C :   -0.200994
  71 N :    0.171329
  72 C :   -0.173936
  73 N :    0.171701
  74 C :   -0.007574
  75 C :   -0.024235
  76 C :   -0.016763
  77 C :   -0.023273
  78 Br:    0.016236
  79 Br:    0.025089
  80 H :    0.008090
  81 H :    0.004364
  82 H :    0.016039
  83 H :    0.029570
  84 H :    0.030995
  85 H :   -0.004735
  86 H :   -0.004479
  87 H :    0.045423
  88 H :    0.045334
  89 H :    0.011553
  90 H :    0.024556
  91 H :    0.023564
  92 H :    0.017088
  93 H :    0.008563
Sum of atomic charges:   -0.0000000

LOEWDIN ATOMIC CHARGES
----------------------
   0 C :    0.085506
   1 O :   -0.170290
   2 C :   -0.042965
   3 C :   -0.010216
   4 C :   -0.005928
   5 C :   -0.118232
   6 C :   -0.123417
   7 C :    0.006141
   8 Br:    0.138848
   9 Br:    0.144262
  10 C :    0.074263
  11 C :   -0.132754
  12 C :   -0.019768
  13 N :   -0.042796
  14 C :   -0.022907
  15 N :   -0.040645
  16 C :   -0.115252
  17 C :    0.058646
  18 C :   -0.184321
  19 C :    0.015239
  20 C :   -0.075182
  21 C :   -0.164939
  22 S :    0.546379
  23 C :   -0.185340
  24 C :   -0.055244
  25 C :    0.075472
  26 C :   -0.095108
  27 C :   -0.018278
  28 N :   -0.023489
  29 C :   -0.019825
  30 N :   -0.021803
  31 C :   -0.022686
  32 C :   -0.151654
  33 S :    0.480440
  34 C :   -0.039953
  35 C :   -0.034728
  36 C :   -0.030742
  37 C :   -0.032036
  38 C :    0.024555
  39 C :    0.028369
  40 N :   -0.064429
  41 C :    0.057515
  42 C :    0.049500
  43 N :   -0.070069
  44 F :   -0.024520
  45 F :   -0.021698
  46 C :   -0.145660
  47 C :   -0.022141
  48 C :   -0.055792
  49 C :   -0.182569
  50 S :    0.482489
  51 C :   -0.157285
  52 C :   -0.065198
  53 C :    0.081688
  54 C :   -0.094253
  55 C :   -0.012983
  56 N :   -0.028610
  57 C :   -0.015318
  58 N :   -0.027994
  59 C :    0.012693
  60 C :   -0.182062
  61 S :    0.501233
  62 C :    0.044148
  63 C :   -0.095200
  64 C :    0.083797
  65 O :   -0.136666
  66 C :   -0.044982
  67 C :   -0.008647
  68 C :    0.063732
  69 C :   -0.130789
  70 C :   -0.014835
  71 N :   -0.042215
  72 C :   -0.021229
  73 N :   -0.036484
  74 C :   -0.006758
  75 C :   -0.117471
  76 C :   -0.123579
  77 C :    0.007148
  78 Br:    0.138935
  79 Br:    0.144939
  80 H :    0.045174
  81 H :    0.045659
  82 H :    0.054116
  83 H :    0.048822
  84 H :    0.041713
  85 H :    0.025036
  86 H :    0.025515
  87 H :    0.043617
  88 H :    0.051214
  89 H :    0.039890
  90 H :    0.043040
  91 H :    0.046705
  92 H :    0.046609
  93 H :    0.046889

  Mayer bond orders larger than 0.100000
B(  0-C ,  1-O ) :   2.1168 B(  0-C ,  2-C ) :   0.9643 B(  0-C , 16-C ) :   0.9875
B(  2-C ,  3-C ) :   1.3283 B(  2-C ,  7-C ) :   1.3695 B(  3-C ,  4-C ) :   1.3693
B(  3-C , 10-C ) :   0.9865 B(  4-C ,  5-C ) :   1.3653 B(  4-C , 80-H ) :   0.9788
B(  5-C ,  6-C ) :   1.4239 B(  5-C ,  9-Br) :   1.0610 B(  6-C ,  7-C ) :   1.3483
B(  6-C ,  8-Br) :   1.0342 B(  7-C , 81-H ) :   1.0089 B( 10-C , 11-C ) :   1.6379
B( 10-C , 16-C ) :   1.0821 B( 11-C , 12-C ) :   1.1425 B( 11-C , 14-C ) :   1.1420
B( 12-C , 13-N ) :   2.9687 B( 14-C , 15-N ) :   2.9590 B( 16-C , 17-C ) :   1.4767
B( 17-C , 18-C ) :   1.2811 B( 17-C , 82-H ) :   0.9399 B( 18-C , 19-C ) :   1.3159
B( 18-C , 22-S ) :   1.0654 B( 19-C , 20-C ) :   1.3389 B( 19-C , 83-H ) :   1.0096
B( 20-C , 21-C ) :   1.3475 B( 20-C , 25-C ) :   0.9811 B( 21-C , 22-S ) :   1.1285
B( 21-C , 23-C ) :   1.2090 B( 23-C , 24-C ) :   1.4235 B( 23-C , 33-S ) :   1.1189
B( 24-C , 25-C ) :   0.9998 B( 24-C , 31-C ) :   1.2711 B( 25-C , 26-C ) :   1.7197
B( 26-C , 27-C ) :   1.1338 B( 26-C , 29-C ) :   1.1348 B( 27-C , 28-N ) :   2.9894
B( 29-C , 30-N ) :   2.9937 B( 31-C , 32-C ) :   1.4501 B( 31-C , 84-H ) :   0.9824
B( 32-C , 33-S ) :   1.1041 B( 32-C , 34-C ) :   1.1483 B( 34-C , 35-C ) :   1.6651
B( 34-C , 39-C ) :   0.9582 B( 35-C , 36-C ) :   1.1433 B( 35-C , 85-H ) :   0.9714
B( 36-C , 37-C ) :   1.6525 B( 36-C , 86-H ) :   0.9728 B( 37-C , 38-C ) :   0.9971
B( 37-C , 46-C ) :   1.1558 B( 38-C , 39-C ) :   0.9730 B( 38-C , 43-N ) :   1.0356
B( 38-C , 87-H ) :   0.8889 B( 39-C , 40-N ) :   1.0186 B( 39-C , 88-H ) :   0.8714
B( 40-N , 41-C ) :   1.9263 B( 41-C , 42-C ) :   0.9321 B( 41-C , 45-F ) :   1.1765
B( 42-C , 43-N ) :   1.9476 B( 42-C , 44-F ) :   1.1754 B( 46-C , 47-C ) :   1.4588
B( 46-C , 50-S ) :   1.1062 B( 47-C , 48-C ) :   1.2818 B( 47-C , 89-H ) :   0.9818
B( 48-C , 49-C ) :   1.4344 B( 48-C , 53-C ) :   0.9974 B( 49-C , 50-S ) :   1.1205
B( 49-C , 51-C ) :   1.1983 B( 51-C , 52-C ) :   1.4034 B( 51-C , 61-S ) :   1.1573
B( 52-C , 53-C ) :   0.9968 B( 52-C , 59-C ) :   1.3662 B( 53-C , 54-C ) :   1.7192
B( 54-C , 55-C ) :   1.1338 B( 54-C , 57-C ) :   1.1343 B( 55-C , 56-N ) :   2.9833
B( 57-C , 58-N ) :   2.9871 B( 59-C , 60-C ) :   1.3836 B( 59-C , 90-H ) :   0.9794
B( 60-C , 61-S ) :   1.0867 B( 60-C , 62-C ) :   1.1494 B( 62-C , 63-C ) :   1.6580
B( 62-C , 91-H ) :   0.9265 B( 63-C , 64-C ) :   0.9498 B( 63-C , 68-C ) :   1.0422
B( 64-C , 65-O ) :   2.2673 B( 64-C , 66-C ) :   0.9215 B( 66-C , 67-C ) :   1.3291
B( 66-C , 77-C ) :   1.3730 B( 67-C , 68-C ) :   0.9997 B( 67-C , 74-C ) :   1.3729
B( 68-C , 69-C ) :   1.6543 B( 69-C , 70-C ) :   1.1741 B( 69-C , 72-C ) :   1.1236
B( 70-C , 71-N ) :   2.9944 B( 72-C , 73-N ) :   2.9959 B( 74-C , 75-C ) :   1.3665
B( 74-C , 92-H ) :   0.9830 B( 75-C , 76-C ) :   1.4213 B( 75-C , 79-Br) :   1.0552
B( 76-C , 77-C ) :   1.3549 B( 76-C , 78-Br) :   1.0352 B( 77-C , 93-H ) :   1.0087

-----------------------------------------------------------------------------
         ABSORPTION SPECTRUM VIA TRANSITION ELECTRIC DIPOLE MOMENTS
-----------------------------------------------------------------------------
State   Energy  Wavelength   fosc         T2         TX        TY        TZ
        (cm-1)    (nm)                  (au**2)     (au)      (au)      (au)
-----------------------------------------------------------------------------
   0   12324.2    811.4   0.806117526  21.53361  -2.29052  -3.83068   1.27003
   1   13852.4    721.9   0.192070324   4.56470   0.95987   1.90680   0.08642
   2   18935.4    528.1   1.607692506  27.95140  -2.72145  -4.38971   1.12939
   3   20810.4    480.5   0.212890200   3.36784   0.50214   1.70864   0.44301
   4   21247.6    470.6   0.008324443   0.12898   0.02659  -0.28046  -0.22275
   5   22964.6    435.5   0.133542670   1.91442   0.74924   1.01102   0.57523
   6   24389.0    410.0   0.116009747   1.56595  -0.39244  -1.16374   0.24010
   7   25182.4    397.1   0.046322019   0.60557  -0.50906  -0.47250  -0.35096
   8   25796.3    387.7   0.234899821   2.99779  -0.52243  -0.75449   1.46820
   9   27292.1    366.4   0.055624203   0.67097  -0.06543   0.50955  -0.63800
  10   27429.0    364.6   0.108265294   1.29943   0.14310   0.68557  -0.89942
  11   28156.3    355.2   0.019253580   0.22512  -0.08329   0.31313  -0.34660
  12   28605.7    349.6   0.036757433   0.42303  -0.20421  -0.30436   0.53730
  13   29081.9    343.9   0.131017155   1.48314   0.73077   0.88225  -0.41323
  14   29409.4    340.0   0.048446700   0.54232  -0.12185  -0.72602  -0.01900
  15   29769.2    335.9   0.008243247   0.09116   0.04684   0.28369   0.09214
  16   30004.2    333.3   0.375055683   4.11518  -0.00756  -0.12437  -2.02476
  17   30156.4    331.6   0.190157586   2.07591   0.59419   0.73677   1.08629
  18   30365.9    329.3   0.197553028   2.14177  -0.32841   1.13232   0.86705
  19   30544.4    327.4   0.187525975   2.02118   0.04076   1.07341   0.93130
  20   31419.1    318.3   0.108862112   1.14067  -0.04306  -0.57725   0.89755
  21   32183.4    310.7   0.040835544   0.41772  -0.36058  -0.24843   0.47538
  22   32313.8    309.5   0.253091501   2.57848   0.63510   1.45675  -0.23027
  23   32848.1    304.4   0.051858968   0.51974   0.28183   0.33325   0.57381
  24   32949.6    303.5   0.091160233   0.91082  -0.12349  -0.89751   0.30008
  25   33176.3    301.4   0.068564570   0.68037   0.45934   0.45138   0.51540
  26   33305.8    300.2   0.007061233   0.06980  -0.08895   0.23387  -0.08479
  27   33369.8    299.7   0.174620878   1.72273   0.23454   1.28879  -0.08216
  28   33563.7    297.9   0.109510272   1.07414   0.32068   0.70090   0.69285
  29   34031.4    293.8   0.305572630   2.95604   0.09620   0.06454  -1.71541
  30   34452.1    290.3   0.118140169   1.12890   0.45624  -0.10492  -0.95380
  31   34579.4    289.2   0.094971453   0.90417  -0.18801  -0.56059   0.74469
  32   34721.9    288.0   0.014146930   0.13413   0.20307   0.29413   0.07988
  33   34806.1    287.3   0.598126464   5.65735   0.21698   0.88897   2.19545
  34   35021.5    285.5   0.317845539   2.98784   0.31859   0.40241  -1.65058
  35   35233.1    283.8   0.033588113   0.31384   0.06581   0.30263  -0.46682
  36   35502.2    281.7   0.014566569   0.13508   0.04230  -0.03013   0.36384
  37   35625.0    280.7   0.439356873   4.06012  -0.09018   1.10300  -1.68386
  38   35985.7    277.9   0.081430216   0.74496   0.11117   0.75161  -0.40948
  39   36107.2    277.0   0.045295125   0.41298   0.02842   0.34020  -0.54446
  40   36712.8    272.4   0.025398481   0.22775  -0.05001   0.12094  -0.45894
  41   36816.1    271.6   0.024734230   0.22118   0.01813  -0.27329  -0.38231
  42   36873.7    271.2   0.003136668   0.02800   0.03395   0.09419  -0.13409
  43   37109.1    269.5   0.009374539   0.08317  -0.13221  -0.12518  -0.22364
  44   37303.6    268.1   0.003746136   0.03306   0.03491  -0.08377   0.15756
  45   37398.2    267.4   0.000332405   0.00293   0.00911  -0.05299  -0.00590
  46   37520.5    266.5   0.080220072   0.70387   0.36440   0.58969   0.47260
  47   37897.2    263.9   0.039139983   0.34001  -0.12149  -0.55306  -0.13918
  48   38078.2    262.6   0.019418699   0.16789   0.03723  -0.12288  -0.38910
  49   38126.0    262.3   0.006494516   0.05608  -0.00507   0.13857   0.19197
  50   38406.2    260.4   0.126617038   1.08534   0.44275   0.88026   0.33830
  51   38489.1    259.8   0.026965065   0.23064   0.06977   0.06023   0.47132
  52   38862.9    257.3   0.004347026   0.03682  -0.14214  -0.12483   0.03224
  53   39005.0    256.4   0.023774516   0.20066   0.03767  -0.10080  -0.43484
  54   39359.4    254.1   0.008761200   0.07328   0.07029  -0.02239  -0.26046
  55   39456.7    253.4   0.102948018   0.85896   0.50847   0.77475  -0.01328
  56   39618.6    252.4   0.010538913   0.08757   0.01570  -0.25513   0.14912
  57   39808.6    251.2   0.011278213   0.09327  -0.05051  -0.25134  -0.16597
  58   40124.3    249.2   0.015059351   0.12356   0.16969   0.15457  -0.26622
  59   40227.4    248.6   0.081278507   0.66516   0.29854   0.75868   0.02116
  60   40323.6    248.0   0.082552309   0.67398  -0.08453  -0.81603  -0.03045

FINAL SINGLE POINT ENERGY    -15000.237566326727

DIPOLE MOMENT
-------------
                                X             Y             Z
Electronic contribution:      5.76598     -22.69591     122.76283
Nuclear contribution   :     -5.99844      22.64295    -118.41765
                        -----------------------------------------
Total Dipole Moment    :     -0.23246      -0.05296       4.34517
                        -----------------------------------------
Magnitude (a.u.)       :      4.35171
Magnitude (Debye)      :     11.06116

Rotational constants in cm-1:     0.001252     0.000101     0.000095
Rotational constants in MHz :    37.531871     3.032280     2.842174

                             ****ORCA TERMINATED NORMALLY****
TOTAL RUN TIME: 0 days 0 hours 11 minutes 32 seconds 311 msec
