                         Program Version 4.2.0 -  RELEASE  -
|  1> # ORCA input file
|  2> # SCF done       -202.464579729607          0.000520731348
|  3> ! CAM-B3LYP def2-SVP def2/J RIJCOSX Grid4 TightSCF
|  4> %maxcore 5000
|  5> %tddft
|  6>     Mode sTDDFT
|  7>     Ethresh 5.0
|  8>     maxcore 5000
|  9> end
| 10>
| 11> %pal
| 12>   nprocs 6
| 13>   end
| 14> * xyz 0 1
| 15>    C        6.97085        -2.27998         1.61249
| 16>    C        7.91059        -1.29704         1.31365
| 17>    C        8.63658        -0.61409         2.42811
| 18>    C        8.17631        -0.94817        -0.02003
| 19>    C        9.17999         0.11371        -0.33734
| 20>    C        7.50315        -1.59626        -1.05114
| 21>    C        6.57883        -2.57551        -0.74915
| 22>    C        6.30106        -2.92080         0.58609
| 23>    C        5.26034        -3.94198         0.60035
| 24>    C        4.41756        -4.21224         1.64889
| 25>    C        4.57697        -3.67473         2.94039
| 26>    N        4.67854        -3.27750         4.01284
| 27>    C        3.24621        -4.98316         1.50674
| 28>    N        2.26291        -5.56730         1.40004
| 29>    C        5.08674        -4.39154        -0.76260
| 30>    C        5.76515        -3.40602        -1.65481
| 31>    O        5.69086        -3.35490        -2.86117
| 32>    C        4.53297        -5.51411        -1.29675
| 33>    C        4.23187        -6.75550        -0.67154
| 34>    C        3.34131        -7.63948        -1.24315
| 35>    C        2.99205        -8.87833        -0.71827
| 36>    C        3.68500        -9.40553         0.46587
| 37>    C        4.61834        -8.72801         1.16964
| 38>    S        5.13570        -7.14377         0.78887
| 39>    C        3.17712       -10.71831         0.65746
| 40>    C        2.22910       -10.99917        -0.32704
| 41>    C        1.68422       -12.29532        -0.18731
| 42>    C        2.22478       -12.94982         0.87282
| 43>    S        3.40522       -12.02736         1.74431
| 44>    C        2.07718        -9.85219        -1.18190
| 45>    C        1.13258        -9.83250        -2.23216
| 46>    C        0.65709        -8.76670        -2.93068
| 47>    C       -0.31609        -8.87452        -3.94970
| 48>    C       -0.88156        -7.83255        -4.67272
| 49>    C       -1.82402        -8.27782        -5.59486
| 50>    C       -1.98410        -9.67649        -5.58232
| 51>    S       -0.96978       -10.43713        -4.43727
| 52>    C       -2.96136       -10.02818        -6.53889
| 53>    C       -3.42512        -8.85552        -7.16410
| 54>    C       -2.72428        -7.71767        -6.59221
| 55>    C       -2.87938        -6.40296        -6.92175
| 56>    C       -2.13823        -5.37908        -6.29566
| 57>    N       -1.53603        -4.54500        -5.78925
| 58>    C       -3.79143        -5.98235        -7.91207
| 59>    N       -4.53359        -5.63975        -8.71627
| 60>    C       -4.40175        -9.10243        -8.12621
| 61>    C       -4.69292       -10.45059        -8.24489
| 62>    S       -3.73003       -11.43032        -7.13773
| 63>    C       -5.63298       -11.06805        -9.11689
| 64>    C       -5.84297       -12.42874        -9.14171
| 65>    C       -6.74210       -13.08067        -9.97835
| 66>    C       -7.57120       -12.33493       -10.92678
| 67>    C       -7.53675       -10.99125       -11.06970
| 68>    S       -6.51034        -9.96082       -10.16274
| 69>    C       -8.34740       -13.31667       -11.59985
| 70>    C       -8.03786       -14.59128       -11.11753
| 71>    C       -8.76757       -15.59242       -11.79656
| 72>    C       -9.59147       -15.06418       -12.73916
| 73>    S       -9.52278       -13.34032       -12.85060
| 74>    C       -7.03557       -14.46128       -10.08545
| 75>    C       -6.42681       -15.46314        -9.31060
| 76>    C       -6.72839       -16.79763        -9.30620
| 77>    C       -6.03332       -17.69539        -8.48165
| 78>    C       -6.17728       -19.05213        -8.35539
| 79>    C       -5.60280       -19.71554        -7.15591
| 80>    O       -4.82110       -19.22937        -6.36598
| 81>    C       -6.22126       -21.05249        -7.11489
| 82>    C       -7.03006       -21.22567        -8.25101
| 83>    C       -7.73951       -22.40321        -8.40575
| 84>    C       -7.63572       -23.40485        -7.44387
| 85>    C       -6.81561       -23.23036        -6.31939
| 86>    C       -6.10977       -22.04186        -6.16018
| 87>    C       -6.69709       -24.31222        -5.29341
| 88>    C       -8.40658       -24.67421        -7.62310
| 89>    C       -6.91235       -20.04169        -9.10300
| 90>    C       -7.26976       -20.00045       -10.42870
| 91>    C       -6.91485       -18.98457       -11.33658
| 92>    N       -6.63658       -18.22156       -12.14948
| 93>    C       -7.96179       -21.03474       -11.09008
| 94>    N       -8.54519       -21.82558       -11.68520
| 95>    H        6.78370        -2.54008         2.64272
| 96>    H        8.30211        -0.98730         3.39201
| 97>    H        8.46584         0.46118         2.39352
| 98>    H        9.71031        -0.77915         2.34312
| 99>    H        8.89463         1.06041         0.12013
|100>    H        9.26169         0.25783        -1.41109
|101>    H       10.16036        -0.15743         0.05331
|102>    H        7.69344        -1.33995        -2.08265
|103>    H        4.37269        -5.47813        -2.37038
|104>    H        2.88040        -7.31321        -2.16403
|105>    H        5.10467        -9.14489         2.03758
|106>    H        0.93782       -12.72557        -0.83000
|107>    H        2.00316       -13.94201         1.21431
|108>    H        0.70426       -10.80137        -2.46626
|109>    H        0.97398        -7.76058        -2.70205
|110>    H       -0.60865        -6.80460        -4.51644
|111>    H       -4.88667        -8.34694        -8.71785
|112>    H       -5.25187       -13.01940        -8.45398
|113>    H       -8.15881       -10.46533       -11.77645
|114>    H       -8.68136       -16.65042       -11.63903
|115>    H      -10.25169       -15.59183       -13.39924
|116>    H       -5.62850       -15.13787        -8.65407
|117>    H       -7.53408       -17.16269        -9.91913
|118>    H       -5.32760       -17.26237        -7.77799
|119>    H       -8.38241       -22.55825        -9.25766
|120>    H       -5.47470       -21.88620        -5.30073
|121>    H       -7.67346       -24.55194        -4.87345
|122>    H       -6.03719       -24.00612        -4.48622
|123>    H       -6.29948       -25.22254        -5.74135
|124>    H       -8.98132       -24.64911        -8.54480
|125>    H       -9.09085       -24.82863        -6.78922
|126>    H       -7.73194       -25.52900        -7.65766
|127> *
|128>
|129>                          ****END OF INPUT****

CARTESIAN COORDINATES (ANGSTROEM)
---------------------------------
  C      6.970850   -2.279980    1.612490
  C      7.910590   -1.297040    1.313650
  C      8.636580   -0.614090    2.428110
  C      8.176310   -0.948170   -0.020030
  C      9.179990    0.113710   -0.337340
  C      7.503150   -1.596260   -1.051140
  C      6.578830   -2.575510   -0.749150
  C      6.301060   -2.920800    0.586090
  C      5.260340   -3.941980    0.600350
  C      4.417560   -4.212240    1.648890
  C      4.576970   -3.674730    2.940390
  N      4.678540   -3.277500    4.012840
  C      3.246210   -4.983160    1.506740
  N      2.262910   -5.567300    1.400040
  C      5.086740   -4.391540   -0.762600
  C      5.765150   -3.406020   -1.654810
  O      5.690860   -3.354900   -2.861170
  C      4.532970   -5.514110   -1.296750
  C      4.231870   -6.755500   -0.671540
  C      3.341310   -7.639480   -1.243150
  C      2.992050   -8.878330   -0.718270
  C      3.685000   -9.405530    0.465870
  C      4.618340   -8.728010    1.169640
  S      5.135700   -7.143770    0.788870
  C      3.177120  -10.718310    0.657460
  C      2.229100  -10.999170   -0.327040
  C      1.684220  -12.295320   -0.187310
  C      2.224780  -12.949820    0.872820
  S      3.405220  -12.027360    1.744310
  C      2.077180   -9.852190   -1.181900
  C      1.132580   -9.832500   -2.232160
  C      0.657090   -8.766700   -2.930680
  C     -0.316090   -8.874520   -3.949700
  C     -0.881560   -7.832550   -4.672720
  C     -1.824020   -8.277820   -5.594860
  C     -1.984100   -9.676490   -5.582320
  S     -0.969780  -10.437130   -4.437270
  C     -2.961360  -10.028180   -6.538890
  C     -3.425120   -8.855520   -7.164100
  C     -2.724280   -7.717670   -6.592210
  C     -2.879380   -6.402960   -6.921750
  C     -2.138230   -5.379080   -6.295660
  N     -1.536030   -4.545000   -5.789250
  C     -3.791430   -5.982350   -7.912070
  N     -4.533590   -5.639750   -8.716270
  C     -4.401750   -9.102430   -8.126210
  C     -4.692920  -10.450590   -8.244890
  S     -3.730030  -11.430320   -7.137730
  C     -5.632980  -11.068050   -9.116890
  C     -5.842970  -12.428740   -9.141710
  C     -6.742100  -13.080670   -9.978350
  C     -7.571200  -12.334930  -10.926780
  C     -7.536750  -10.991250  -11.069700
  S     -6.510340   -9.960820  -10.162740
  C     -8.347400  -13.316670  -11.599850
  C     -8.037860  -14.591280  -11.117530
  C     -8.767570  -15.592420  -11.796560
  C     -9.591470  -15.064180  -12.739160
  S     -9.522780  -13.340320  -12.850600
  C     -7.035570  -14.461280  -10.085450
  C     -6.426810  -15.463140   -9.310600
  C     -6.728390  -16.797630   -9.306200
  C     -6.033320  -17.695390   -8.481650
  C     -6.177280  -19.052130   -8.355390
  C     -5.602800  -19.715540   -7.155910
  O     -4.821100  -19.229370   -6.365980
  C     -6.221260  -21.052490   -7.114890
  C     -7.030060  -21.225670   -8.251010
  C     -7.739510  -22.403210   -8.405750
  C     -7.635720  -23.404850   -7.443870
  C     -6.815610  -23.230360   -6.319390
  C     -6.109770  -22.041860   -6.160180
  C     -6.697090  -24.312220   -5.293410
  C     -8.406580  -24.674210   -7.623100
  C     -6.912350  -20.041690   -9.103000
  C     -7.269760  -20.000450  -10.428700
  C     -6.914850  -18.984570  -11.336580
  N     -6.636580  -18.221560  -12.149480
  C     -7.961790  -21.034740  -11.090080
  N     -8.545190  -21.825580  -11.685200
  H      6.783700   -2.540080    2.642720
  H      8.302110   -0.987300    3.392010
  H      8.465840    0.461180    2.393520
  H      9.710310   -0.779150    2.343120
  H      8.894630    1.060410    0.120130
  H      9.261690    0.257830   -1.411090
  H     10.160360   -0.157430    0.053310
  H      7.693440   -1.339950   -2.082650
  H      4.372690   -5.478130   -2.370380
  H      2.880400   -7.313210   -2.164030
  H      5.104670   -9.144890    2.037580
  H      0.937820  -12.725570   -0.830000
  H      2.003160  -13.942010    1.214310
  H      0.704260  -10.801370   -2.466260
  H      0.973980   -7.760580   -2.702050
  H     -0.608650   -6.804600   -4.516440
  H     -4.886670   -8.346940   -8.717850
  H     -5.251870  -13.019400   -8.453980
  H     -8.158810  -10.465330  -11.776450
  H     -8.681360  -16.650420  -11.639030
  H    -10.251690  -15.591830  -13.399240
  H     -5.628500  -15.137870   -8.654070
  H     -7.534080  -17.162690   -9.919130
  H     -5.327600  -17.262370   -7.777990
  H     -8.382410  -22.558250   -9.257660
  H     -5.474700  -21.886200   -5.300730
  H     -7.673460  -24.551940   -4.873450
  H     -6.037190  -24.006120   -4.486220
  H     -6.299480  -25.222540   -5.741350
  H     -8.981320  -24.649110   -8.544800
  H     -9.090850  -24.828630   -6.789220
  H     -7.731940  -25.529000   -7.657660

 Total Charge           Charge          ....    0
 Multiplicity           Mult            ....    1
 Number of Electrons    NEL             ....  582
 Basis Dimension        Dim             .... 1304

ORBITAL ENERGIES
----------------

  NO   OCC          E(Eh)            E(eV)
   0   2.0000     -88.996920     -2421.7293
   1   2.0000     -88.989734     -2421.5338
   2   2.0000     -88.989148     -2421.5178
   3   2.0000     -88.980270     -2421.2762
   4   2.0000     -88.964277     -2420.8411
   5   2.0000     -88.957002     -2420.6431
   6   2.0000     -19.212684      -522.8037
   7   2.0000     -19.197603      -522.3933
   8   2.0000     -14.433952      -392.7678
   9   2.0000     -14.432570      -392.7302
  10   2.0000     -14.413272      -392.2051
  11   2.0000     -14.410843      -392.1390
  12   2.0000     -14.401768      -391.8920
  13   2.0000     -14.401271      -391.8785
  14   2.0000     -10.368257      -282.1346
  15   2.0000     -10.363893      -282.0159
  16   2.0000     -10.355105      -281.7767
  17   2.0000     -10.347779      -281.5774
  18   2.0000     -10.344032      -281.4754
  19   2.0000     -10.340201      -281.3712
  20   2.0000     -10.339212      -281.3443
  21   2.0000     -10.338182      -281.3162
  22   2.0000     -10.337181      -281.2890
  23   2.0000     -10.334797      -281.2241
  24   2.0000     -10.334125      -281.2058
  25   2.0000     -10.333832      -281.1979
  26   2.0000     -10.332724      -281.1677
  27   2.0000     -10.332570      -281.1635
  28   2.0000     -10.328319      -281.0479
  29   2.0000     -10.326489      -280.9980
  30   2.0000     -10.325927      -280.9827
  31   2.0000     -10.324629      -280.9474
  32   2.0000     -10.319095      -280.7968
  33   2.0000     -10.315971      -280.7118
  34   2.0000     -10.313383      -280.6414
  35   2.0000     -10.312539      -280.6185
  36   2.0000     -10.309156      -280.5264
  37   2.0000     -10.308876      -280.5188
  38   2.0000     -10.307570      -280.4832
  39   2.0000     -10.307387      -280.4783
  40   2.0000     -10.306004      -280.4406
  41   2.0000     -10.305411      -280.4245
  42   2.0000     -10.305136      -280.4170
  43   2.0000     -10.304334      -280.3952
  44   2.0000     -10.304100      -280.3888
  45   2.0000     -10.302645      -280.3492
  46   2.0000     -10.301118      -280.3077
  47   2.0000     -10.300168      -280.2818
  48   2.0000     -10.297044      -280.1968
  49   2.0000     -10.296961      -280.1946
  50   2.0000     -10.296357      -280.1781
  51   2.0000     -10.296123      -280.1717
  52   2.0000     -10.296052      -280.1698
  53   2.0000     -10.296008      -280.1686
  54   2.0000     -10.295171      -280.1459
  55   2.0000     -10.294454      -280.1263
  56   2.0000     -10.293924      -280.1119
  57   2.0000     -10.293683      -280.1054
  58   2.0000     -10.292308      -280.0679
  59   2.0000     -10.289694      -279.9968
  60   2.0000     -10.288163      -279.9552
  61   2.0000     -10.287850      -279.9466
  62   2.0000     -10.287800      -279.9453
  63   2.0000     -10.286044      -279.8975
  64   2.0000     -10.285244      -279.8757
  65   2.0000     -10.284909      -279.8666
  66   2.0000     -10.283098      -279.8173
  67   2.0000     -10.282496      -279.8009
  68   2.0000     -10.281383      -279.7707
  69   2.0000     -10.277926      -279.6766
  70   2.0000     -10.277342      -279.6607
  71   2.0000     -10.276526      -279.6385
  72   2.0000     -10.276432      -279.6359
  73   2.0000     -10.275155      -279.6012
  74   2.0000     -10.274370      -279.5798
  75   2.0000     -10.273434      -279.5544
  76   2.0000     -10.272678      -279.5338
  77   2.0000     -10.270382      -279.4713
  78   2.0000     -10.269075      -279.4357
  79   2.0000     -10.266794      -279.3737
  80   2.0000      -8.091081      -220.1695
  81   2.0000      -8.084644      -219.9943
  82   2.0000      -8.083606      -219.9661
  83   2.0000      -8.075085      -219.7342
  84   2.0000      -8.059717      -219.3161
  85   2.0000      -8.052420      -219.1175
  86   2.0000      -6.060370      -164.9110
  87   2.0000      -6.056280      -164.7998
  88   2.0000      -6.054230      -164.7440
  89   2.0000      -6.053361      -164.7203
  90   2.0000      -6.052780      -164.7045
  91   2.0000      -6.049580      -164.6174
  92   2.0000      -6.048767      -164.5953
  93   2.0000      -6.046675      -164.5384
  94   2.0000      -6.046001      -164.5201
  95   2.0000      -6.044663      -164.4836
  96   2.0000      -6.040064      -164.3585
  97   2.0000      -6.037027      -164.2759
  98   2.0000      -6.029194      -164.0627
  99   2.0000      -6.024899      -163.9458
 100   2.0000      -6.021838      -163.8625
 101   2.0000      -6.021705      -163.8589
 102   2.0000      -6.017577      -163.7466
 103   2.0000      -6.014536      -163.6638
 104   2.0000      -1.127400       -30.6781
 105   2.0000      -1.111436       -30.2437
 106   2.0000      -1.048162       -28.5219
 107   2.0000      -1.025299       -27.8998
 108   2.0000      -1.017876       -27.6978
 109   2.0000      -1.015359       -27.6293
 110   2.0000      -1.012962       -27.5641
 111   2.0000      -1.010634       -27.5008
 112   2.0000      -1.003710       -27.3123
 113   2.0000      -1.001863       -27.2621
 114   2.0000      -0.993912       -27.0457
 115   2.0000      -0.991315       -26.9751
 116   2.0000      -0.982324       -26.7304
 117   2.0000      -0.980095       -26.6697
 118   2.0000      -0.979623       -26.6569
 119   2.0000      -0.978829       -26.6353
 120   2.0000      -0.960753       -26.1434
 121   2.0000      -0.954124       -25.9630
 122   2.0000      -0.943111       -25.6633
 123   2.0000      -0.937582       -25.5129
 124   2.0000      -0.935309       -25.4510
 125   2.0000      -0.923327       -25.1250
 126   2.0000      -0.913029       -24.8448
 127   2.0000      -0.905574       -24.6419
 128   2.0000      -0.902153       -24.5488
 129   2.0000      -0.897473       -24.4215
 130   2.0000      -0.890170       -24.2228
 131   2.0000      -0.883640       -24.0451
 132   2.0000      -0.873099       -23.7582
 133   2.0000      -0.871989       -23.7280
 134   2.0000      -0.869289       -23.6546
 135   2.0000      -0.863279       -23.4910
 136   2.0000      -0.860112       -23.4048
 137   2.0000      -0.856495       -23.3064
 138   2.0000      -0.852086       -23.1864
 139   2.0000      -0.839218       -22.8363
 140   2.0000      -0.829951       -22.5841
 141   2.0000      -0.825096       -22.4520
 142   2.0000      -0.810579       -22.0570
 143   2.0000      -0.807886       -21.9837
 144   2.0000      -0.806747       -21.9527
 145   2.0000      -0.797732       -21.7074
 146   2.0000      -0.796565       -21.6756
 147   2.0000      -0.787908       -21.4401
 148   2.0000      -0.777279       -21.1508
 149   2.0000      -0.771550       -20.9949
 150   2.0000      -0.756031       -20.5727
 151   2.0000      -0.750314       -20.4171
 152   2.0000      -0.744022       -20.2459
 153   2.0000      -0.739169       -20.1138
 154   2.0000      -0.737895       -20.0791
 155   2.0000      -0.724374       -19.7112
 156   2.0000      -0.713615       -19.4185
 157   2.0000      -0.711486       -19.3605
 158   2.0000      -0.702501       -19.1160
 159   2.0000      -0.695388       -18.9225
 160   2.0000      -0.688574       -18.7371
 161   2.0000      -0.684970       -18.6390
 162   2.0000      -0.679383       -18.4870
 163   2.0000      -0.677167       -18.4267
 164   2.0000      -0.674531       -18.3549
 165   2.0000      -0.666924       -18.1479
 166   2.0000      -0.659527       -17.9466
 167   2.0000      -0.658282       -17.9128
 168   2.0000      -0.656502       -17.8643
 169   2.0000      -0.649913       -17.6850
 170   2.0000      -0.641257       -17.4495
 171   2.0000      -0.638992       -17.3879
 172   2.0000      -0.632346       -17.2070
 173   2.0000      -0.626640       -17.0517
 174   2.0000      -0.624626       -16.9969
 175   2.0000      -0.619246       -16.8505
 176   2.0000      -0.614196       -16.7131
 177   2.0000      -0.611624       -16.6431
 178   2.0000      -0.603678       -16.4269
 179   2.0000      -0.599258       -16.3066
 180   2.0000      -0.596678       -16.2364
 181   2.0000      -0.589535       -16.0421
 182   2.0000      -0.585296       -15.9267
 183   2.0000      -0.581548       -15.8247
 184   2.0000      -0.578893       -15.7525
 185   2.0000      -0.572862       -15.5884
 186   2.0000      -0.569067       -15.4851
 187   2.0000      -0.564624       -15.3642
 188   2.0000      -0.560622       -15.2553
 189   2.0000      -0.555411       -15.1135
 190   2.0000      -0.551015       -14.9939
 191   2.0000      -0.550054       -14.9677
 192   2.0000      -0.546430       -14.8691
 193   2.0000      -0.544127       -14.8064
 194   2.0000      -0.538918       -14.6647
 195   2.0000      -0.536051       -14.5867
 196   2.0000      -0.531640       -14.4667
 197   2.0000      -0.530337       -14.4312
 198   2.0000      -0.528729       -14.3874
 199   2.0000      -0.526163       -14.3176
 200   2.0000      -0.524356       -14.2684
 201   2.0000      -0.521863       -14.2006
 202   2.0000      -0.521785       -14.1985
 203   2.0000      -0.519532       -14.1372
 204   2.0000      -0.517670       -14.0865
 205   2.0000      -0.517446       -14.0804
 206   2.0000      -0.516236       -14.0475
 207   2.0000      -0.513327       -13.9683
 208   2.0000      -0.509188       -13.8557
 209   2.0000      -0.507564       -13.8115
 210   2.0000      -0.506871       -13.7927
 211   2.0000      -0.504826       -13.7370
 212   2.0000      -0.500307       -13.6141
 213   2.0000      -0.498331       -13.5603
 214   2.0000      -0.496993       -13.5239
 215   2.0000      -0.494852       -13.4656
 216   2.0000      -0.494502       -13.4561
 217   2.0000      -0.490046       -13.3348
 218   2.0000      -0.488864       -13.3027
 219   2.0000      -0.483806       -13.1650
 220   2.0000      -0.482377       -13.1261
 221   2.0000      -0.481946       -13.1144
 222   2.0000      -0.480001       -13.0615
 223   2.0000      -0.475804       -12.9473
 224   2.0000      -0.475157       -12.9297
 225   2.0000      -0.473421       -12.8824
 226   2.0000      -0.470523       -12.8036
 227   2.0000      -0.468295       -12.7429
 228   2.0000      -0.467213       -12.7135
 229   2.0000      -0.466164       -12.6850
 230   2.0000      -0.464552       -12.6411
 231   2.0000      -0.464106       -12.6290
 232   2.0000      -0.461342       -12.5538
 233   2.0000      -0.460907       -12.5419
 234   2.0000      -0.458794       -12.4844
 235   2.0000      -0.455802       -12.4030
 236   2.0000      -0.453207       -12.3324
 237   2.0000      -0.447319       -12.1722
 238   2.0000      -0.445684       -12.1277
 239   2.0000      -0.444787       -12.1033
 240   2.0000      -0.443312       -12.0631
 241   2.0000      -0.443016       -12.0551
 242   2.0000      -0.441790       -12.0217
 243   2.0000      -0.441404       -12.0112
 244   2.0000      -0.439996       -11.9729
 245   2.0000      -0.439652       -11.9635
 246   2.0000      -0.438919       -11.9436
 247   2.0000      -0.437694       -11.9102
 248   2.0000      -0.436850       -11.8873
 249   2.0000      -0.435378       -11.8472
 250   2.0000      -0.433467       -11.7952
 251   2.0000      -0.431670       -11.7463
 252   2.0000      -0.431008       -11.7283
 253   2.0000      -0.430359       -11.7107
 254   2.0000      -0.429246       -11.6804
 255   2.0000      -0.428490       -11.6598
 256   2.0000      -0.425666       -11.5830
 257   2.0000      -0.425386       -11.5753
 258   2.0000      -0.424579       -11.5534
 259   2.0000      -0.423901       -11.5349
 260   2.0000      -0.417480       -11.3602
 261   2.0000      -0.417096       -11.3498
 262   2.0000      -0.415176       -11.2975
 263   2.0000      -0.413141       -11.2421
 264   2.0000      -0.412263       -11.2182
 265   2.0000      -0.408539       -11.1169
 266   2.0000      -0.403883       -10.9902
 267   2.0000      -0.403438       -10.9781
 268   2.0000      -0.400911       -10.9093
 269   2.0000      -0.392754       -10.6874
 270   2.0000      -0.385997       -10.5035
 271   2.0000      -0.383373       -10.4321
 272   2.0000      -0.372359       -10.1324
 273   2.0000      -0.354092        -9.6353
 274   2.0000      -0.353137        -9.6094
 275   2.0000      -0.341576        -9.2948
 276   2.0000      -0.339863        -9.2481
 277   2.0000      -0.335351        -9.1254
 278   2.0000      -0.334523        -9.1028
 279   2.0000      -0.325945        -8.8694
 280   2.0000      -0.324631        -8.8337
 281   2.0000      -0.323111        -8.7923
 282   2.0000      -0.321536        -8.7494
 283   2.0000      -0.306626        -8.3437
 284   2.0000      -0.304729        -8.2921
 285   2.0000      -0.297509        -8.0956
 286   2.0000      -0.292428        -7.9574
 287   2.0000      -0.282595        -7.6898
 288   2.0000      -0.272521        -7.4157
 289   2.0000      -0.242614        -6.6019
 290   2.0000      -0.226859        -6.1731
 291   0.0000      -0.113747        -3.0952
 292   0.0000      -0.095344        -2.5944
 293   0.0000      -0.087759        -2.3880
 294   0.0000      -0.059542        -1.6202
 295   0.0000      -0.052839        -1.4378

MULLIKEN ATOMIC CHARGES
-----------------------
   0 C :   -0.075529
   1 C :   -0.081073
   2 C :    0.111439
   3 C :   -0.077765
   4 C :    0.114583
   5 C :   -0.076019
   6 C :    0.003881
   7 C :    0.030602
   8 C :    0.253299
   9 C :   -0.322693
  10 C :   -0.172725
  11 N :    0.150276
  12 C :   -0.208392
  13 N :    0.164394
  14 C :   -0.128796
  15 C :    0.140176
  16 O :   -0.143316
  17 C :    0.025520
  18 C :   -0.092959
  19 C :   -0.006887
  20 C :    0.063261
  21 C :    0.057236
  22 C :   -0.111664
  23 S :    0.148259
  24 C :   -0.095560
  25 C :    0.039149
  26 C :    0.009060
  27 C :   -0.065434
  28 S :    0.138394
  29 C :    0.104969
  30 C :   -0.038771
  31 C :    0.006092
  32 C :   -0.045650
  33 C :   -0.040559
  34 C :    0.018064
  35 C :   -0.099381
  36 S :    0.165503
  37 C :   -0.084529
  38 C :    0.011731
  39 C :    0.300575
  40 C :   -0.291680
  41 C :   -0.188848
  42 N :    0.180688
  43 C :   -0.186532
  44 N :    0.169290
  45 C :   -0.048339
  46 C :   -0.072799
  47 S :    0.171923
  48 C :   -0.010141
  49 C :   -0.093767
  50 C :    0.076361
  51 C :    0.060470
  52 C :   -0.117953
  53 S :    0.148034
  54 C :   -0.118249
  55 C :    0.058735
  56 C :    0.022866
  57 C :   -0.066701
  58 S :    0.130778
  59 C :    0.102536
  60 C :   -0.025892
  61 C :    0.020676
  62 C :    0.011526
  63 C :   -0.117740
  64 C :    0.138645
  65 O :   -0.159520
  66 C :    0.001933
  67 C :    0.023799
  68 C :   -0.080677
  69 C :   -0.081931
  70 C :   -0.078045
  71 C :   -0.084107
  72 C :    0.118167
  73 C :    0.115246
  74 C :    0.306234
  75 C :   -0.360579
  76 C :   -0.207224
  77 N :    0.154616
  78 C :   -0.177893
  79 N :    0.137873
  80 H :   -0.012054
  81 H :    0.023580
  82 H :    0.029005
  83 H :    0.028053
  84 H :    0.028615
  85 H :    0.017404
  86 H :    0.026693
  87 H :   -0.016985
  88 H :    0.030265
  89 H :   -0.013843
  90 H :    0.040075
  91 H :   -0.013935
  92 H :    0.030178
  93 H :   -0.016503
  94 H :   -0.000798
  95 H :    0.007207
  96 H :    0.021679
  97 H :   -0.005996
  98 H :    0.043997
  99 H :   -0.008898
 100 H :    0.030266
 101 H :   -0.023946
 102 H :   -0.018618
 103 H :    0.004027
 104 H :   -0.013615
 105 H :   -0.022803
 106 H :    0.023657
 107 H :    0.013663
 108 H :    0.026838
 109 H :    0.023116
 110 H :    0.024564
 111 H :    0.024573
Sum of atomic charges:   -0.0000000

LOEWDIN ATOMIC CHARGES
----------------------
   0 C :   -0.008683
   1 C :   -0.002611
   2 C :   -0.042357
   3 C :   -0.008420
   4 C :   -0.042804
   5 C :    0.008039
   6 C :   -0.050355
   7 C :   -0.014165
   8 C :    0.058749
   9 C :   -0.146178
  10 C :   -0.019346
  11 N :   -0.054548
  12 C :   -0.036543
  13 N :   -0.053912
  14 C :   -0.097957
  15 C :    0.084927
  16 O :   -0.143024
  17 C :    0.039554
  18 C :   -0.180606
  19 C :    0.022009
  20 C :   -0.025712
  21 C :   -0.048717
  22 C :   -0.128845
  23 S :    0.486928
  24 C :   -0.190812
  25 C :   -0.043048
  26 C :   -0.062253
  27 C :   -0.160466
  28 S :    0.429270
  29 C :   -0.028686
  30 C :   -0.022517
  31 C :   -0.040492
  32 C :   -0.151135
  33 C :   -0.029871
  34 C :   -0.065369
  35 C :   -0.186414
  36 S :    0.469440
  37 C :   -0.169610
  38 C :   -0.071377
  39 C :    0.082065
  40 C :   -0.098777
  41 C :   -0.017304
  42 N :   -0.027925
  43 C :   -0.015967
  44 N :   -0.031822
  45 C :   -0.032783
  46 C :   -0.186693
  47 S :    0.477701
  48 C :   -0.168402
  49 C :   -0.037376
  50 C :    0.007679
  51 C :   -0.046093
  52 C :   -0.138107
  53 S :    0.479626
  54 C :   -0.203965
  55 C :   -0.029765
  56 C :   -0.053353
  57 C :   -0.158698
  58 S :    0.426133
  59 C :   -0.059001
  60 C :    0.036925
  61 C :   -0.048518
  62 C :    0.063309
  63 C :   -0.112468
  64 C :    0.081367
  65 O :   -0.158693
  66 C :   -0.048870
  67 C :   -0.015468
  68 C :   -0.009927
  69 C :   -0.006926
  70 C :   -0.011235
  71 C :    0.003840
  72 C :   -0.043374
  73 C :   -0.042638
  74 C :    0.075067
  75 C :   -0.154032
  76 C :   -0.021822
  77 N :   -0.059582
  78 C :   -0.018818
  79 N :   -0.065748
  80 H :    0.035438
  81 H :    0.035369
  82 H :    0.038841
  83 H :    0.037985
  84 H :    0.038454
  85 H :    0.033156
  86 H :    0.037798
  87 H :    0.036171
  88 H :    0.050201
  89 H :    0.040048
  90 H :    0.038912
  91 H :    0.030954
  92 H :    0.025165
  93 H :    0.021489
  94 H :    0.036597
  95 H :    0.041716
  96 H :    0.035635
  97 H :    0.026651
  98 H :    0.040121
  99 H :    0.031785
 100 H :    0.026309
 101 H :    0.029601
 102 H :    0.027762
 103 H :    0.039418
 104 H :    0.034926
 105 H :    0.033936
 106 H :    0.036360
 107 H :    0.031759
 108 H :    0.037465
 109 H :    0.035064
 110 H :    0.036265
 111 H :    0.037006

  Mayer bond orders larger than 0.100000
B(  0-C ,  1-C ) :   1.3732 B(  0-C ,  7-C ) :   1.3555 B(  0-C , 80-H ) :   0.9884
B(  1-C ,  2-C ) :   1.0931 B(  1-C ,  3-C ) :   1.3774 B(  2-C , 81-H ) :   0.9514
B(  2-C , 82-H ) :   0.9397 B(  2-C , 83-H ) :   0.9413 B(  3-C ,  4-C ) :   1.0926
B(  3-C ,  5-C ) :   1.3548 B(  4-C , 84-H ) :   0.9412 B(  4-C , 85-H ) :   0.9519
B(  4-C , 86-H ) :   0.9407 B(  5-C ,  6-C ) :   1.3665 B(  5-C , 87-H ) :   1.0093
B(  6-C ,  7-C ) :   1.3325 B(  6-C , 15-C ) :   0.9254 B(  7-C ,  8-C ) :   1.0058
B(  8-C ,  9-C ) :   1.6437 B(  8-C , 14-C ) :   1.0347 B(  9-C , 10-C ) :   1.1396
B(  9-C , 12-C ) :   1.1503 B( 10-C , 11-N ) :   2.9884 B( 12-C , 13-N ) :   3.0229
B( 14-C , 15-C ) :   0.9345 B( 14-C , 17-C ) :   1.6344 B( 15-C , 16-O ) :   2.2660
B( 17-C , 18-C ) :   1.1347 B( 17-C , 88-H ) :   0.9467 B( 18-C , 19-C ) :   1.4719
B( 18-C , 23-S ) :   1.0526 B( 19-C , 20-C ) :   1.2361 B( 19-C , 89-H ) :   0.9774
B( 20-C , 21-C ) :   1.0536 B( 20-C , 29-C ) :   1.3475 B( 21-C , 22-C ) :   1.5918
B( 21-C , 24-C ) :   1.1884 B( 22-C , 23-S ) :   1.1593 B( 22-C , 90-H ) :   0.9419
B( 24-C , 25-C ) :   1.4259 B( 24-C , 28-S ) :   1.0841 B( 25-C , 26-C ) :   1.2114
B( 25-C , 29-C ) :   1.1214 B( 26-C , 27-C ) :   1.5974 B( 26-C , 91-H ) :   0.9976
B( 27-C , 28-S ) :   1.1487 B( 27-C , 92-H ) :   0.9657 B( 29-C , 30-C ) :   1.1856
B( 30-C , 31-C ) :   1.5863 B( 30-C , 93-H ) :   0.9520 B( 31-C , 32-C ) :   1.1805
B( 31-C , 94-H ) :   0.9764 B( 32-C , 33-C ) :   1.4162 B( 32-C , 36-S ) :   1.0937
B( 33-C , 34-C ) :   1.2884 B( 33-C , 95-H ) :   1.0040 B( 34-C , 35-C ) :   1.4315
B( 34-C , 39-C ) :   0.9946 B( 35-C , 36-S ) :   1.1128 B( 35-C , 37-C ) :   1.2024
B( 37-C , 38-C ) :   1.4307 B( 37-C , 47-S ) :   1.1289 B( 38-C , 39-C ) :   1.0019
B( 38-C , 45-C ) :   1.3120 B( 39-C , 40-C ) :   1.7140 B( 40-C , 41-C ) :   1.1324
B( 40-C , 43-C ) :   1.1320 B( 41-C , 42-N ) :   2.9955 B( 43-C , 44-N ) :   2.9881
B( 45-C , 46-C ) :   1.4527 B( 45-C , 96-H ) :   0.9784 B( 46-C , 47-S ) :   1.0959
B( 46-C , 48-C ) :   1.1719 B( 48-C , 49-C ) :   1.4990 B( 48-C , 53-S ) :   1.0778
B( 49-C , 50-C ) :   1.2807 B( 49-C , 97-H ) :   0.9575 B( 50-C , 51-C ) :   1.0626
B( 50-C , 59-C ) :   1.3316 B( 51-C , 52-C ) :   1.5954 B( 51-C , 54-C ) :   1.1775
B( 52-C , 53-S ) :   1.1437 B( 52-C , 98-H ) :   0.9395 B( 54-C , 55-C ) :   1.4511
B( 54-C , 58-S ) :   1.0826 B( 55-C , 56-C ) :   1.2267 B( 55-C , 59-C ) :   1.0704
B( 56-C , 57-C ) :   1.5854 B( 56-C , 99-H ) :   0.9931 B( 57-C , 58-S ) :   1.1524
B( 57-C ,100-H ) :   0.9639 B( 59-C , 60-C ) :   1.1842 B( 60-C , 61-C ) :   1.5451
B( 60-C ,101-H ) :   0.9699 B( 61-C , 62-C ) :   1.1941 B( 61-C ,102-H ) :   0.9697
B( 62-C , 63-C ) :   1.5298 B( 62-C ,103-H ) :   0.9520 B( 63-C , 64-C ) :   0.9539
B( 63-C , 74-C ) :   1.0609 B( 64-C , 65-O ) :   2.2400 B( 64-C , 66-C ) :   0.9252
B( 66-C , 67-C ) :   1.3385 B( 66-C , 71-C ) :   1.3683 B( 67-C , 68-C ) :   1.3568
B( 67-C , 74-C ) :   0.9927 B( 68-C , 69-C ) :   1.3699 B( 68-C ,104-H ) :   0.9840
B( 69-C , 70-C ) :   1.3857 B( 69-C , 73-C ) :   1.0936 B( 70-C , 71-C ) :   1.3489
B( 70-C , 72-C ) :   1.0926 B( 71-C ,105-H ) :   1.0088 B( 72-C ,106-H ) :   0.9404
B( 72-C ,107-H ) :   0.9515 B( 72-C ,108-H ) :   0.9410 B( 73-C ,109-H ) :   0.9513
B( 73-C ,110-H ) :   0.9412 B( 73-C ,111-H ) :   0.9396 B( 74-C , 75-C ) :   1.6068
B( 75-C , 76-C ) :   1.1754 B( 75-C , 78-C ) :   1.1334 B( 76-C , 77-N ) :   2.9659
B( 78-C , 79-N ) :   2.9773

-----------------------------------------------------------------------------
         ABSORPTION SPECTRUM VIA TRANSITION ELECTRIC DIPOLE MOMENTS
-----------------------------------------------------------------------------
State   Energy  Wavelength   fosc         T2         TX        TY        TZ
        (cm-1)    (nm)                  (au**2)     (au)      (au)      (au)
-----------------------------------------------------------------------------
   0    9309.6   1074.2   0.423588739  14.97918  -2.48166  -2.07710  -2.12278
   1   14364.2    696.2   1.197961939  27.45598  -2.91371  -3.79569  -2.13518
   2   15190.4    658.3   0.178365122   3.86559   0.14204   1.96028  -0.05225
   3   16314.4    613.0   0.295921839   5.97146   0.28988   2.42437   0.09919
   4   20290.5    492.8   0.005569680   0.09037   0.02111   0.27274  -0.12463
   5   21635.9    462.2   0.649307172   9.87986   1.74978  -1.94894   1.73774
   6   21764.0    459.5   0.004820279   0.07291  -0.16908  -0.19391  -0.08200
   7   22494.0    444.6   0.068798718   1.00691   0.02927   0.98586  -0.18475
   8   22889.3    436.9   0.021016919   0.30228  -0.18661  -0.51675   0.02054
   9   22919.7    436.3   0.035763050   0.51369  -0.42639  -0.44211  -0.36936
  10   23520.8    425.2   0.014800777   0.20716   0.41239   0.14697  -0.12448
  11   24705.4    404.8   0.024025907   0.32016   0.38671   0.39134   0.13216
  12   25047.5    399.2   0.261263972   3.43392   0.03222   1.83335  -0.26777
  13   26069.0    383.6   0.020266223   0.25593   0.09212   0.49271  -0.06842
  14   26817.9    372.9   0.098004226   1.20308   0.78872   0.39781   0.65020
  15   27411.8    364.8   0.083909845   1.00774  -0.73104  -0.41719   0.54706
  16   27767.6    360.1   0.333092395   3.94914  -1.41866   0.29391  -1.36020
  17   27932.8    358.0   0.409326877   4.82426   1.10835  -0.53418   1.81947
  18   28131.6    355.5   0.025464268   0.29800  -0.16227   0.47051  -0.22425
  19   29491.2    339.1   0.246859172   2.75570  -0.67693   1.20036  -0.92553
  20   29818.8    335.4   0.049331991   0.54465  -0.55832  -0.48145  -0.03360
  21   30206.2    331.1   0.012939121   0.14102   0.03603   0.37087   0.04671
  22   30506.6    327.8   0.384604314   4.15046   0.02270   1.91018  -0.70793
  23   30814.6    324.5   0.104933827   1.12108  -0.12938   1.04957   0.05239
  24   30862.4    324.0   0.052875658   0.56403   0.20984   0.25327   0.67517
  25   31098.3    321.6   0.252222037   2.67006   0.50725  -1.37880   0.71531
  26   31287.7    319.6   0.015919880   0.16751  -0.09981   0.20917   0.33734
  27   31818.9    314.3   0.080273531   0.83054   0.24850   0.70690  -0.51873
  28   31951.6    313.0   0.031223546   0.32171  -0.18317   0.47462  -0.25080
  29   32092.3    311.6   0.166038582   1.70327   0.62533   0.55200   1.00376
  30   32498.8    307.7   0.156999581   1.59040  -0.96154  -0.57447  -0.57949
  31   32719.1    305.6   0.078212849   0.78696  -0.20960  -0.81373  -0.28438
  32   32791.8    305.0   0.026436333   0.26541   0.28452  -0.29101   0.31586
  33   32979.0    303.2   0.089715890   0.89559  -0.60118  -0.72338   0.10437
  34   33094.3    302.2   0.053277229   0.52999   0.05118   0.42299  -0.59029
  35   33479.3    298.7   0.068198269   0.67061   0.46985   0.61160  -0.27531
  36   33636.1    297.3   0.128402756   1.25674   0.35839   0.81508   0.68112
  37   33815.3    295.7   0.038272025   0.37260  -0.15113  -0.56535   0.17360
  38   34197.7    292.4   0.208812280   2.01018  -0.74531  -1.20580   0.02718
  39   34328.0    291.3   0.085906439   0.82386   0.67071   0.23226   0.56574
  40   34470.1    290.1   0.461349391   4.40618  -0.88468  -1.83390   0.51024
  41   34664.7    288.5   0.120895929   1.14815  -0.62455  -0.51457  -0.70236
  42   35039.2    285.4   0.017957314   0.16872  -0.02597  -0.40821   0.03751
  43   35103.6    284.9   0.069497398   0.65177  -0.41985   0.50555  -0.46895
  44   35565.7    281.2   0.267534185   2.47641  -0.69469  -1.32181   0.49663
  45   35887.7    278.6   0.469222281   4.30436  -0.41866  -1.07130   1.72667
  46   36008.1    277.7   0.406525519   3.71675  -0.56738   0.74710  -1.68424
  47   36306.7    275.4   0.111143389   1.00780   0.49299  -0.68697  -0.54114
  48   36395.4    274.8   0.256112571   2.31665   0.95653   1.15405   0.26431
  49   36493.8    274.0   0.005581554   0.05035  -0.08380  -0.19552  -0.07142
  50   36715.2    272.4   0.160345451   1.43776   0.52456  -0.15618   1.06687
  51   36963.4    270.5   0.001034381   0.00921  -0.09246  -0.01515   0.02083
  52   37228.3    268.6   0.011541336   0.10206  -0.19600  -0.19155   0.16418
  53   37338.8    267.8   0.027294161   0.24065  -0.16197  -0.07919  -0.45623
  54   37639.7    265.7   0.013376516   0.11700   0.12740  -0.13063  -0.28931
  55   38131.2    262.3   0.047457592   0.40973  -0.36565  -0.29839  -0.43243
  56   38251.4    261.4   0.005373821   0.04625  -0.11230   0.02607  -0.18154
  57   38319.8    261.0   0.018122642   0.15569  -0.23232  -0.18001  -0.26328
  58   38589.9    259.1   0.016178684   0.13802   0.16673  -0.33066  -0.02978
  59   38793.9    257.8   0.142352835   1.20803  -0.43329  -0.83470  -0.56883
  60   39144.7    255.5   0.023677651   0.19913   0.17844  -0.27227  -0.30522
  61   39193.5    255.1   0.015643163   0.13140   0.27028   0.23610  -0.05103
  62   39628.3    252.3   0.026827544   0.22287  -0.05062  -0.27891   0.37752
  63   39764.6    251.5   0.025023543   0.20717   0.09581   0.42946  -0.11643
  64   39845.9    251.0   0.014150455   0.11691  -0.07705  -0.27306  -0.19082
  65   39922.8    250.5   0.038874867   0.32057   0.46360   0.18223   0.26914
  66   40231.1    248.6   0.036955513   0.30241   0.34886   0.33143   0.26620

FINAL SINGLE POINT ENERGY     -5397.621277013521

DIPOLE MOMENT
-------------
                                X             Y             Z
Electronic contribution:    -17.24826      28.70746     -19.95491
Nuclear contribution   :     19.34591     -28.71602      21.91330
                        -----------------------------------------
Total Dipole Moment    :      2.09765      -0.00856       1.95838
                        -----------------------------------------
Magnitude (a.u.)       :      2.86975
Magnitude (Debye)      :      7.29433

Rotational constants in cm-1:     0.001054     0.000184     0.000160
Rotational constants in MHz :    31.585023     5.529355     4.797943

                             ****ORCA TERMINATED NORMALLY****
TOTAL RUN TIME: 0 days 0 hours 13 minutes 3 seconds 167 msec
