                         Program Version 4.2.0 -  RELEASE  -
|  1> # ORCA input file
|  2> # SCF done       -184.711175001266          0.000822033484
|  3> ! CAM-B3LYP def2-SVP def2/J RIJCOSX Grid4 TightSCF
|  4> %maxcore 5000
|  5> %tddft
|  6>     Mode sTDDFT
|  7>     Ethresh 5.0
|  8>     maxcore 5000
|  9> end
| 10>
| 11> %pal
| 12>   nprocs 6
| 13>   end
| 14> * xyz 0 1
| 15>    C        3.42073         4.54315         0.87614
| 16>    C        2.68862         4.06218         1.92878
| 17>    C        2.97268         4.34841         3.28012
| 18>    N        3.16566         4.53627         4.39535
| 19>    C        1.62434         3.15104         1.78226
| 20>    N        0.77306         2.38391         1.70077
| 21>    C        4.67708         5.27137         0.99207
| 22>    C        5.40747         5.11470        -0.22340
| 23>    C        6.65027         5.65723        -0.38452
| 24>    C        7.22030         6.40019         0.67393
| 25>    C        6.48398         6.57845         1.88158
| 26>    C        5.20191         6.00060         2.02422
| 27>    C        7.06092         7.33095         2.92463
| 28>    C        8.30780         7.87722         2.78662
| 29>    C        9.03330         7.69905         1.59906
| 30>    C        8.50122         6.97694         0.56542
| 31>    C        4.60222         4.33638        -1.17983
| 32>    O        4.90538         3.95496        -2.28687
| 33>    C        3.27404         4.16918        -0.51870
| 34>    C        2.18785         3.83164        -1.26157
| 35>    C        0.82708         4.03320        -0.92780
| 36>    S        0.33142         5.26400         0.20560
| 37>    C       -1.35377         4.87878         0.07438
| 38>    C       -1.53199         3.84567        -0.85442
| 39>    C       -0.29935         3.38574        -1.41276
| 40>    N       -0.56984         2.36455        -2.26095
| 41>    C       -1.92880         2.16612        -2.25535
| 42>    N       -2.48901         1.15845        -3.06576
| 43>    O       -1.70716         0.50952        -3.74013
| 44>    O       -3.69232         1.00846        -3.03909
| 45>    C       -2.56008         3.05111        -1.40768
| 46>    C       -2.36346         5.56272         0.79222
| 47>    C       -2.28216         6.30918         1.96176
| 48>    C       -1.06222         6.39267         2.77562
| 49>    O        0.04828         6.50744         2.31268
| 50>    O       -1.22879         6.32765         4.10464
| 51>    C       -3.54557         6.85345         2.35869
| 52>    C       -4.55640         6.45898         1.52090
| 53>    S       -4.01649         5.46317         0.24295
| 54>    C       -3.73882         7.80373         3.42750
| 55>    S       -5.26871         7.92104         4.24930
| 56>    C       -4.80892         9.32740         5.17555
| 57>    C       -3.48549         9.65610         4.88340
| 58>    C       -2.89705         8.79917         3.89416
| 59>    N       -1.62433         9.22414         3.67098
| 60>    C       -1.38648        10.27891         4.51692
| 61>    N       -0.12509        10.91543         4.49377
| 62>    O        0.66857        10.51414         3.66171
| 63>    O        0.07608        11.80628         5.29024
| 64>    C       -2.48839        10.57184         5.28647
| 65>    C       -5.74478         9.89541         6.06414
| 66>    C       -5.80866        11.20986         6.43198
| 67>    C       -6.66216        11.76529         7.46441
| 68>    C       -7.29139        11.05884         8.45668
| 69>    C       -8.08804        11.64744         9.46074
| 70>    N       -8.75078        12.06768        10.29841
| 71>    C       -7.20092         9.66146         8.62494
| 72>    N       -7.15721         8.53113         8.82320
| 73>    C       -6.65325        13.21496         7.31857
| 74>    C       -5.77721        13.55673         6.24841
| 75>    C       -5.21258        12.33234         5.65942
| 76>    O       -4.49803        12.25891         4.68151
| 77>    C       -5.56208        14.85275         5.87739
| 78>    C       -6.22416        15.88732         6.57546
| 79>    C       -7.10818        15.55375         7.64240
| 80>    C       -7.31238        14.20167         8.00267
| 81>    C       -7.77014        16.59399         8.32541
| 82>    C       -7.56813        17.90136         7.97461
| 83>    C       -6.69595        18.22852         6.92574
| 84>    C       -6.03754        17.24285         6.24134
| 85>    H        7.19338         5.52227        -1.30812
| 86>    H        4.65577         6.16040         2.94073
| 87>    H        6.49875         7.46319         3.83712
| 88>    H        8.74239         8.44981         3.59219
| 89>    H       10.01561         8.13768         1.50693
| 90>    H        9.05523         6.83783        -0.35143
| 91>    H        2.39583         3.43841        -2.25221
| 92>    H        0.06940         1.80221        -2.80181
| 93>    H       -3.61433         3.09322        -1.22645
| 94>    H       -2.14222         6.15462         4.37129
| 95>    H       -5.58912         6.73883         1.58511
| 96>    H       -0.91701         8.85808         3.05058
| 97>    H       -2.54777        11.34377         6.02389
| 98>    H       -6.50051         9.21474         6.43756
| 99>    H       -4.89218        15.08547         5.06300
|100>    H       -7.99298        13.98052         8.80956
|101>    H       -8.43948        16.33761         9.13338
|102>    H       -8.07952        18.69097         8.50426
|103>    H       -6.54842        19.26511         6.66236
|104>    H       -5.36474        17.48833         5.43279
|105> *
|106>
|107>                          ****END OF INPUT****

CARTESIAN COORDINATES (ANGSTROEM)
---------------------------------
  C      3.420730    4.543150    0.876140
  C      2.688620    4.062180    1.928780
  C      2.972680    4.348410    3.280120
  N      3.165660    4.536270    4.395350
  C      1.624340    3.151040    1.782260
  N      0.773060    2.383910    1.700770
  C      4.677080    5.271370    0.992070
  C      5.407470    5.114700   -0.223400
  C      6.650270    5.657230   -0.384520
  C      7.220300    6.400190    0.673930
  C      6.483980    6.578450    1.881580
  C      5.201910    6.000600    2.024220
  C      7.060920    7.330950    2.924630
  C      8.307800    7.877220    2.786620
  C      9.033300    7.699050    1.599060
  C      8.501220    6.976940    0.565420
  C      4.602220    4.336380   -1.179830
  O      4.905380    3.954960   -2.286870
  C      3.274040    4.169180   -0.518700
  C      2.187850    3.831640   -1.261570
  C      0.827080    4.033200   -0.927800
  S      0.331420    5.264000    0.205600
  C     -1.353770    4.878780    0.074380
  C     -1.531990    3.845670   -0.854420
  C     -0.299350    3.385740   -1.412760
  N     -0.569840    2.364550   -2.260950
  C     -1.928800    2.166120   -2.255350
  N     -2.489010    1.158450   -3.065760
  O     -1.707160    0.509520   -3.740130
  O     -3.692320    1.008460   -3.039090
  C     -2.560080    3.051110   -1.407680
  C     -2.363460    5.562720    0.792220
  C     -2.282160    6.309180    1.961760
  C     -1.062220    6.392670    2.775620
  O      0.048280    6.507440    2.312680
  O     -1.228790    6.327650    4.104640
  C     -3.545570    6.853450    2.358690
  C     -4.556400    6.458980    1.520900
  S     -4.016490    5.463170    0.242950
  C     -3.738820    7.803730    3.427500
  S     -5.268710    7.921040    4.249300
  C     -4.808920    9.327400    5.175550
  C     -3.485490    9.656100    4.883400
  C     -2.897050    8.799170    3.894160
  N     -1.624330    9.224140    3.670980
  C     -1.386480   10.278910    4.516920
  N     -0.125090   10.915430    4.493770
  O      0.668570   10.514140    3.661710
  O      0.076080   11.806280    5.290240
  C     -2.488390   10.571840    5.286470
  C     -5.744780    9.895410    6.064140
  C     -5.808660   11.209860    6.431980
  C     -6.662160   11.765290    7.464410
  C     -7.291390   11.058840    8.456680
  C     -8.088040   11.647440    9.460740
  N     -8.750780   12.067680   10.298410
  C     -7.200920    9.661460    8.624940
  N     -7.157210    8.531130    8.823200
  C     -6.653250   13.214960    7.318570
  C     -5.777210   13.556730    6.248410
  C     -5.212580   12.332340    5.659420
  O     -4.498030   12.258910    4.681510
  C     -5.562080   14.852750    5.877390
  C     -6.224160   15.887320    6.575460
  C     -7.108180   15.553750    7.642400
  C     -7.312380   14.201670    8.002670
  C     -7.770140   16.593990    8.325410
  C     -7.568130   17.901360    7.974610
  C     -6.695950   18.228520    6.925740
  C     -6.037540   17.242850    6.241340
  H      7.193380    5.522270   -1.308120
  H      4.655770    6.160400    2.940730
  H      6.498750    7.463190    3.837120
  H      8.742390    8.449810    3.592190
  H     10.015610    8.137680    1.506930
  H      9.055230    6.837830   -0.351430
  H      2.395830    3.438410   -2.252210
  H      0.069400    1.802210   -2.801810
  H     -3.614330    3.093220   -1.226450
  H     -2.142220    6.154620    4.371290
  H     -5.589120    6.738830    1.585110
  H     -0.917010    8.858080    3.050580
  H     -2.547770   11.343770    6.023890
  H     -6.500510    9.214740    6.437560
  H     -4.892180   15.085470    5.063000
  H     -7.992980   13.980520    8.809560
  H     -8.439480   16.337610    9.133380
  H     -8.079520   18.690970    8.504260
  H     -6.548420   19.265110    6.662360
  H     -5.364740   17.488330    5.432790

 Total Charge           Charge          ....    0
 Multiplicity           Mult            ....    1
 Number of Electrons    NEL             ....  494
 Basis Dimension        Dim             .... 1092

ORBITAL ENERGIES
----------------

  NO   OCC          E(Eh)            E(eV)
   0   2.0000     -89.000194     -2421.8184
   1   2.0000     -88.995126     -2421.6805
   2   2.0000     -88.986272     -2421.4396
   3   2.0000     -19.285358      -524.7813
   4   2.0000     -19.255566      -523.9706
   5   2.0000     -19.255136      -523.9589
   6   2.0000     -19.254976      -523.9545
   7   2.0000     -19.254437      -523.9399
   8   2.0000     -19.234364      -523.3937
   9   2.0000     -19.220094      -523.0054
  10   2.0000     -19.212921      -522.8102
  11   2.0000     -14.665274      -399.0624
  12   2.0000     -14.665113      -399.0580
  13   2.0000     -14.494024      -394.4024
  14   2.0000     -14.491493      -394.3336
  15   2.0000     -14.419422      -392.3724
  16   2.0000     -14.417960      -392.3326
  17   2.0000     -14.413503      -392.2114
  18   2.0000     -14.409247      -392.0955
  19   2.0000     -10.435960      -283.9769
  20   2.0000     -10.375958      -282.3442
  21   2.0000     -10.374232      -282.2972
  22   2.0000     -10.371644      -282.2268
  23   2.0000     -10.364589      -282.0348
  24   2.0000     -10.357994      -281.8553
  25   2.0000     -10.349593      -281.6267
  26   2.0000     -10.348190      -281.5886
  27   2.0000     -10.346014      -281.5293
  28   2.0000     -10.344568      -281.4900
  29   2.0000     -10.344476      -281.4875
  30   2.0000     -10.344145      -281.4785
  31   2.0000     -10.339330      -281.3475
  32   2.0000     -10.338275      -281.3188
  33   2.0000     -10.335362      -281.2395
  34   2.0000     -10.335098      -281.2323
  35   2.0000     -10.334527      -281.2168
  36   2.0000     -10.331617      -281.1376
  37   2.0000     -10.325205      -280.9631
  38   2.0000     -10.324639      -280.9477
  39   2.0000     -10.322210      -280.8816
  40   2.0000     -10.321462      -280.8613
  41   2.0000     -10.320598      -280.8377
  42   2.0000     -10.316127      -280.7161
  43   2.0000     -10.312835      -280.6265
  44   2.0000     -10.311777      -280.5977
  45   2.0000     -10.311224      -280.5827
  46   2.0000     -10.309275      -280.5296
  47   2.0000     -10.306565      -280.4559
  48   2.0000     -10.306423      -280.4520
  49   2.0000     -10.306089      -280.4429
  50   2.0000     -10.300782      -280.2985
  51   2.0000     -10.300562      -280.2926
  52   2.0000     -10.300157      -280.2815
  53   2.0000     -10.300109      -280.2802
  54   2.0000     -10.299883      -280.2741
  55   2.0000     -10.298334      -280.2319
  56   2.0000     -10.294849      -280.1371
  57   2.0000     -10.294691      -280.1328
  58   2.0000     -10.294453      -280.1263
  59   2.0000     -10.293115      -280.0899
  60   2.0000     -10.292224      -280.0656
  61   2.0000     -10.289357      -279.9876
  62   2.0000     -10.288841      -279.9736
  63   2.0000     -10.288621      -279.9676
  64   2.0000     -10.288164      -279.9552
  65   2.0000     -10.287056      -279.9250
  66   2.0000     -10.283619      -279.8315
  67   2.0000     -10.283119      -279.8179
  68   2.0000     -10.282704      -279.8066
  69   2.0000     -10.281978      -279.7868
  70   2.0000      -8.095746      -220.2965
  71   2.0000      -8.090005      -220.1402
  72   2.0000      -8.078897      -219.8380
  73   2.0000      -6.065094      -165.0396
  74   2.0000      -6.060586      -164.9169
  75   2.0000      -6.059346      -164.8832
  76   2.0000      -6.058011      -164.8469
  77   2.0000      -6.055047      -164.7662
  78   2.0000      -6.052256      -164.6903
  79   2.0000      -6.048365      -164.5844
  80   2.0000      -6.043676      -164.4568
  81   2.0000      -6.041227      -164.3902
  82   2.0000      -1.337102       -36.3844
  83   2.0000      -1.336013       -36.3548
  84   2.0000      -1.213227       -33.0136
  85   2.0000      -1.157071       -31.4855
  86   2.0000      -1.156084       -31.4587
  87   2.0000      -1.135945       -30.9106
  88   2.0000      -1.128866       -30.7180
  89   2.0000      -1.128171       -30.6991
  90   2.0000      -1.118663       -30.4404
  91   2.0000      -1.117978       -30.4217
  92   2.0000      -1.035214       -28.1696
  93   2.0000      -1.022056       -27.8115
  94   2.0000      -1.017156       -27.6782
  95   2.0000      -1.009576       -27.4720
  96   2.0000      -1.001797       -27.2603
  97   2.0000      -0.997846       -27.1528
  98   2.0000      -0.996886       -27.1266
  99   2.0000      -0.995510       -27.0892
 100   2.0000      -0.988355       -26.8945
 101   2.0000      -0.974806       -26.5258
 102   2.0000      -0.968729       -26.3605
 103   2.0000      -0.939728       -25.5713
 104   2.0000      -0.931895       -25.3581
 105   2.0000      -0.925535       -25.1851
 106   2.0000      -0.921168       -25.0662
 107   2.0000      -0.911704       -24.8087
 108   2.0000      -0.907461       -24.6933
 109   2.0000      -0.904353       -24.6087
 110   2.0000      -0.896927       -24.4066
 111   2.0000      -0.889759       -24.2116
 112   2.0000      -0.887924       -24.1616
 113   2.0000      -0.884369       -24.0649
 114   2.0000      -0.878522       -23.9058
 115   2.0000      -0.877391       -23.8750
 116   2.0000      -0.863855       -23.5067
 117   2.0000      -0.837160       -22.7803
 118   2.0000      -0.831386       -22.6232
 119   2.0000      -0.825433       -22.4612
 120   2.0000      -0.822272       -22.3751
 121   2.0000      -0.804100       -21.8807
 122   2.0000      -0.797912       -21.7123
 123   2.0000      -0.793564       -21.5940
 124   2.0000      -0.774762       -21.0823
 125   2.0000      -0.765070       -20.8186
 126   2.0000      -0.758286       -20.6340
 127   2.0000      -0.749457       -20.3938
 128   2.0000      -0.736603       -20.0440
 129   2.0000      -0.730212       -19.8701
 130   2.0000      -0.722580       -19.6624
 131   2.0000      -0.715987       -19.4830
 132   2.0000      -0.708828       -19.2882
 133   2.0000      -0.707074       -19.2405
 134   2.0000      -0.705054       -19.1855
 135   2.0000      -0.701239       -19.0817
 136   2.0000      -0.699621       -19.0377
 137   2.0000      -0.693077       -18.8596
 138   2.0000      -0.690835       -18.7986
 139   2.0000      -0.682092       -18.5607
 140   2.0000      -0.674564       -18.3558
 141   2.0000      -0.673289       -18.3211
 142   2.0000      -0.668608       -18.1938
 143   2.0000      -0.659178       -17.9371
 144   2.0000      -0.649692       -17.6790
 145   2.0000      -0.648067       -17.6348
 146   2.0000      -0.647892       -17.6300
 147   2.0000      -0.639380       -17.3984
 148   2.0000      -0.633794       -17.2464
 149   2.0000      -0.630123       -17.1465
 150   2.0000      -0.624717       -16.9994
 151   2.0000      -0.619318       -16.8525
 152   2.0000      -0.616987       -16.7891
 153   2.0000      -0.609729       -16.5916
 154   2.0000      -0.607431       -16.5290
 155   2.0000      -0.604426       -16.4473
 156   2.0000      -0.601369       -16.3641
 157   2.0000      -0.598556       -16.2875
 158   2.0000      -0.588537       -16.0149
 159   2.0000      -0.585144       -15.9226
 160   2.0000      -0.579603       -15.7718
 161   2.0000      -0.575936       -15.6720
 162   2.0000      -0.569826       -15.5058
 163   2.0000      -0.564716       -15.3667
 164   2.0000      -0.561238       -15.2721
 165   2.0000      -0.558626       -15.2010
 166   2.0000      -0.556237       -15.1360
 167   2.0000      -0.556121       -15.1328
 168   2.0000      -0.552081       -15.0229
 169   2.0000      -0.550186       -14.9713
 170   2.0000      -0.547612       -14.9013
 171   2.0000      -0.544197       -14.8084
 172   2.0000      -0.543287       -14.7836
 173   2.0000      -0.541990       -14.7483
 174   2.0000      -0.538735       -14.6597
 175   2.0000      -0.537289       -14.6204
 176   2.0000      -0.534355       -14.5405
 177   2.0000      -0.529032       -14.3957
 178   2.0000      -0.523853       -14.2548
 179   2.0000      -0.521821       -14.1995
 180   2.0000      -0.518956       -14.1215
 181   2.0000      -0.516248       -14.0478
 182   2.0000      -0.513094       -13.9620
 183   2.0000      -0.512094       -13.9348
 184   2.0000      -0.510145       -13.8818
 185   2.0000      -0.508258       -13.8304
 186   2.0000      -0.503436       -13.6992
 187   2.0000      -0.502985       -13.6869
 188   2.0000      -0.499996       -13.6056
 189   2.0000      -0.497845       -13.5470
 190   2.0000      -0.496490       -13.5102
 191   2.0000      -0.490533       -13.3481
 192   2.0000      -0.487428       -13.2636
 193   2.0000      -0.484404       -13.1813
 194   2.0000      -0.482662       -13.1339
 195   2.0000      -0.481357       -13.0984
 196   2.0000      -0.468958       -12.7610
 197   2.0000      -0.468019       -12.7354
 198   2.0000      -0.464025       -12.6268
 199   2.0000      -0.463086       -12.6012
 200   2.0000      -0.460823       -12.5396
 201   2.0000      -0.453015       -12.3272
 202   2.0000      -0.452255       -12.3065
 203   2.0000      -0.447573       -12.1791
 204   2.0000      -0.447388       -12.1741
 205   2.0000      -0.444053       -12.0833
 206   2.0000      -0.441211       -12.0060
 207   2.0000      -0.438910       -11.9433
 208   2.0000      -0.437266       -11.8986
 209   2.0000      -0.436542       -11.8789
 210   2.0000      -0.435780       -11.8582
 211   2.0000      -0.433136       -11.7862
 212   2.0000      -0.430218       -11.7068
 213   2.0000      -0.428281       -11.6541
 214   2.0000      -0.426185       -11.5971
 215   2.0000      -0.423597       -11.5267
 216   2.0000      -0.421885       -11.4801
 217   2.0000      -0.420143       -11.4327
 218   2.0000      -0.413840       -11.2612
 219   2.0000      -0.412892       -11.2354
 220   2.0000      -0.409704       -11.1486
 221   2.0000      -0.402571       -10.9545
 222   2.0000      -0.401346       -10.9212
 223   2.0000      -0.401318       -10.9204
 224   2.0000      -0.395799       -10.7702
 225   2.0000      -0.393056       -10.6956
 226   2.0000      -0.391957       -10.6657
 227   2.0000      -0.385587       -10.4924
 228   2.0000      -0.384881       -10.4732
 229   2.0000      -0.384746       -10.4695
 230   2.0000      -0.378889       -10.3101
 231   2.0000      -0.377927       -10.2839
 232   2.0000      -0.371354       -10.1051
 233   2.0000      -0.362791        -9.8720
 234   2.0000      -0.360265        -9.8033
 235   2.0000      -0.350465        -9.5366
 236   2.0000      -0.343801        -9.3553
 237   2.0000      -0.336396        -9.1538
 238   2.0000      -0.331888        -9.0311
 239   2.0000      -0.330071        -8.9817
 240   2.0000      -0.323125        -8.7927
 241   2.0000      -0.318868        -8.6768
 242   2.0000      -0.312599        -8.5063
 243   2.0000      -0.299071        -8.1381
 244   2.0000      -0.291932        -7.9439
 245   2.0000      -0.279754        -7.6125
 246   2.0000      -0.263616        -7.1734
 247   0.0000      -0.112050        -3.0490
 248   0.0000      -0.104944        -2.8557
 249   0.0000      -0.071268        -1.9393
 250   0.0000      -0.070097        -1.9074
 251   0.0000      -0.053123        -1.4455

MULLIKEN ATOMIC CHARGES
-----------------------
   0 C :    0.251728
   1 C :   -0.311771
   2 C :   -0.173566
   3 N :    0.157500
   4 C :   -0.198422
   5 N :    0.160247
   6 C :    0.032931
   7 C :    0.011983
   8 C :   -0.085244
   9 C :    0.095207
  10 C :    0.093008
  11 C :   -0.076324
  12 C :   -0.016270
  13 C :    0.036709
  14 C :    0.037586
  15 C :   -0.015399
  16 C :    0.139782
  17 O :   -0.144924
  18 C :   -0.145041
  19 C :    0.033107
  20 C :   -0.220401
  21 S :    0.237666
  22 C :   -0.096203
  23 C :    0.071417
  24 C :    0.196079
  25 N :   -0.019967
  26 C :    0.139848
  27 N :    0.288454
  28 O :   -0.263158
  29 O :   -0.234023
  30 C :   -0.082740
  31 C :   -0.121442
  32 C :   -0.011496
  33 C :    0.124319
  34 O :   -0.199074
  35 O :   -0.137872
  36 C :    0.090623
  37 C :   -0.109364
  38 S :    0.173741
  39 C :   -0.298324
  40 S :    0.184764
  41 C :   -0.151068
  42 C :    0.146426
  43 C :    0.147890
  44 N :   -0.034954
  45 C :    0.142171
  46 N :    0.280614
  47 O :   -0.249068
  48 O :   -0.226253
  49 C :   -0.047617
  50 C :    0.015475
  51 C :   -0.096014
  52 C :    0.300607
  53 C :   -0.340472
  54 C :   -0.180188
  55 N :    0.150335
  56 C :   -0.204843
  57 N :    0.160152
  58 C :    0.055534
  59 C :   -0.011773
  60 C :    0.133143
  61 O :   -0.148807
  62 C :   -0.077378
  63 C :    0.096924
  64 C :    0.095525
  65 C :   -0.085656
  66 C :   -0.019996
  67 C :    0.037419
  68 C :    0.036478
  69 C :   -0.015125
  70 H :   -0.013010
  71 H :    0.001518
  72 H :   -0.009212
  73 H :   -0.004708
  74 H :   -0.006562
  75 H :   -0.018580
  76 H :    0.015162
  77 H :    0.149794
  78 H :    0.002748
  79 H :    0.202667
  80 H :    0.042800
  81 H :    0.154616
  82 H :    0.000739
  83 H :    0.028336
  84 H :   -0.012576
  85 H :   -0.006696
  86 H :   -0.008553
  87 H :   -0.003604
  88 H :   -0.004098
  89 H :   -0.015940
Sum of atomic charges:   -0.0000000

LOEWDIN ATOMIC CHARGES
----------------------
   0 C :    0.060212
   1 C :   -0.138335
   2 C :   -0.017902
   3 N :   -0.049471
   4 C :   -0.030863
   5 N :   -0.060089
   6 C :   -0.021607
   7 C :   -0.058165
   8 C :    0.032140
   9 C :   -0.009345
  10 C :   -0.004642
  11 C :    0.019161
  12 C :   -0.004837
  13 C :   -0.012586
  14 C :   -0.013292
  15 C :   -0.009807
  16 C :    0.082719
  17 O :   -0.146594
  18 C :   -0.092339
  19 C :    0.039186
  20 C :   -0.221110
  21 S :    0.581461
  22 C :   -0.181779
  23 C :   -0.068410
  24 C :    0.019666
  25 N :    0.080287
  26 C :    0.003122
  27 N :    0.279252
  28 O :   -0.218861
  29 O :   -0.195090
  30 C :   -0.035243
  31 C :   -0.141653
  32 C :   -0.124882
  33 C :    0.072151
  34 O :   -0.170415
  35 O :   -0.008948
  36 C :   -0.082134
  37 C :   -0.174026
  38 S :    0.497306
  39 C :   -0.208631
  40 S :    0.483661
  41 C :   -0.177718
  42 C :   -0.032463
  43 C :   -0.005830
  44 N :    0.070965
  45 C :    0.017702
  46 N :    0.279487
  47 O :   -0.209283
  48 O :   -0.188663
  49 C :   -0.012756
  50 C :    0.041358
  51 C :   -0.093013
  52 C :    0.073650
  53 C :   -0.138422
  54 C :   -0.017955
  55 N :   -0.051155
  56 C :   -0.024258
  57 N :   -0.051686
  58 C :   -0.026683
  59 C :   -0.056020
  60 C :    0.077066
  61 O :   -0.138811
  62 C :    0.032111
  63 C :   -0.008149
  64 C :   -0.006312
  65 C :    0.020052
  66 C :   -0.005269
  67 C :   -0.012247
  68 C :   -0.011287
  69 C :   -0.009139
  70 H :    0.038896
  71 H :    0.040905
  72 H :    0.035146
  73 H :    0.033169
  74 H :    0.032364
  75 H :    0.031372
  76 H :    0.046062
  77 H :    0.100448
  78 H :    0.033909
  79 H :    0.100528
  80 H :    0.029436
  81 H :    0.093072
  82 H :    0.041799
  83 H :    0.045786
  84 H :    0.039116
  85 H :    0.039330
  86 H :    0.034945
  87 H :    0.033661
  88 H :    0.033201
  89 H :    0.032320

  Mayer bond orders larger than 0.100000
B(  0-C ,  1-C ) :   1.6595 B(  0-C ,  6-C ) :   1.0041 B(  0-C , 18-C ) :   1.0257
B(  1-C ,  2-C ) :   1.1357 B(  1-C ,  4-C ) :   1.1618 B(  2-C ,  3-N ) :   2.9949
B(  4-C ,  5-N ) :   3.0097 B(  6-C ,  7-C ) :   1.2133 B(  6-C , 11-C ) :   1.4594
B(  7-C ,  8-C ) :   1.4711 B(  7-C , 16-C ) :   0.9226 B(  8-C ,  9-C ) :   1.1862
B(  8-C , 70-H ) :   1.0165 B(  9-C , 10-C ) :   1.2560 B(  9-C , 15-C ) :   1.2451
B( 10-C , 11-C ) :   1.2032 B( 10-C , 12-C ) :   1.2426 B( 11-C , 71-H ) :   0.9947
B( 12-C , 13-C ) :   1.4894 B( 12-C , 72-H ) :   0.9976 B( 13-C , 14-C ) :   1.2597
B( 13-C , 73-H ) :   0.9888 B( 14-C , 15-C ) :   1.4895 B( 14-C , 74-H ) :   0.9884
B( 15-C , 75-H ) :   0.9973 B( 16-C , 17-O ) :   2.2707 B( 16-C , 18-C ) :   0.9362
B( 18-C , 19-C ) :   1.6628 B( 19-C , 20-C ) :   1.1261 B( 19-C , 76-H ) :   0.9495
B( 20-C , 21-S ) :   1.0965 B( 20-C , 22-C ) :   0.1106 B( 20-C , 24-C ) :   1.3242
B( 21-S , 22-C ) :   1.2018 B( 22-C , 23-C ) :   1.3045 B( 22-C , 31-C ) :   1.1825
B( 23-C , 24-C ) :   1.2482 B( 23-C , 30-C ) :   1.1458 B( 24-C , 25-N ) :   1.2204
B( 25-N , 26-C ) :   1.1703 B( 25-N , 77-H ) :   0.9069 B( 26-C , 27-N ) :   0.9225
B( 26-C , 30-C ) :   1.5366 B( 27-N , 28-O ) :   1.4746 B( 27-N , 29-O ) :   1.5455
B( 28-O , 29-O ) :   0.2729 B( 30-C , 78-H ) :   1.0084 B( 31-C , 32-C ) :   1.4773
B( 31-C , 38-S ) :   1.1773 B( 32-C , 33-C ) :   0.9349 B( 32-C , 36-C ) :   1.2227
B( 33-C , 34-O ) :   2.0241 B( 33-C , 35-O ) :   1.2694 B( 35-O , 79-H ) :   0.9402
B( 36-C , 37-C ) :   1.5529 B( 36-C , 39-C ) :   1.0293 B( 37-C , 38-S ) :   1.1575
B( 37-C , 80-H ) :   0.9666 B( 39-C , 40-S ) :   1.1565 B( 39-C , 41-C ) :   0.1133
B( 39-C , 43-C ) :   1.4069 B( 40-S , 41-C ) :   1.1112 B( 41-C , 42-C ) :   1.3311
B( 41-C , 50-C ) :   1.2019 B( 42-C , 43-C ) :   1.2377 B( 42-C , 49-C ) :   1.1481
B( 43-C , 44-N ) :   1.1841 B( 44-N , 45-C ) :   1.1781 B( 44-N , 81-H ) :   0.8908
B( 45-C , 46-N ) :   0.9102 B( 45-C , 49-C ) :   1.5395 B( 46-N , 47-O ) :   1.4936
B( 46-N , 48-O ) :   1.5515 B( 47-O , 48-O ) :   0.2778 B( 49-C , 82-H ) :   1.0129
B( 50-C , 51-C ) :   1.5876 B( 50-C , 83-H ) :   0.9346 B( 51-C , 52-C ) :   1.0666
B( 51-C , 60-C ) :   0.9464 B( 52-C , 53-C ) :   1.6404 B( 52-C , 58-C ) :   0.9939
B( 53-C , 54-C ) :   1.1430 B( 53-C , 56-C ) :   1.1418 B( 54-C , 55-N ) :   2.9672
B( 56-C , 57-N ) :   2.9923 B( 58-C , 59-C ) :   1.2121 B( 58-C , 65-C ) :   1.4482
B( 59-C , 60-C ) :   0.9421 B( 59-C , 62-C ) :   1.4756 B( 60-C , 61-O ) :   2.2068
B( 62-C , 63-C ) :   1.1764 B( 62-C , 84-H ) :   1.0166 B( 63-C , 64-C ) :   1.2565
B( 63-C , 69-C ) :   1.2461 B( 64-C , 65-C ) :   1.2055 B( 64-C , 66-C ) :   1.2403
B( 65-C , 85-H ) :   0.9907 B( 66-C , 67-C ) :   1.4885 B( 66-C , 86-H ) :   0.9976
B( 67-C , 68-C ) :   1.2612 B( 67-C , 87-H ) :   0.9888 B( 68-C , 69-C ) :   1.4856
B( 68-C , 88-H ) :   0.9895 B( 69-C , 89-H ) :   0.9982

-----------------------------------------------------------------------------
         ABSORPTION SPECTRUM VIA TRANSITION ELECTRIC DIPOLE MOMENTS
-----------------------------------------------------------------------------
State   Energy  Wavelength   fosc         T2         TX        TY        TZ
        (cm-1)    (nm)                  (au**2)     (au)      (au)      (au)
-----------------------------------------------------------------------------
   0   17079.1    585.5   1.019532386  19.65219  -3.55371   2.14795   1.55232
   1   19015.9    525.9   0.356108473   6.16513   0.36037  -1.40047  -2.01840
   2   22082.0    452.9   0.083607693   1.24647  -0.90749   0.36444   0.53862
   3   24114.2    414.7   0.012431637   0.16972   0.33746   0.14168  -0.18912
   4   24327.3    411.1   0.176437338   2.38766  -0.74915  -0.89047  -1.01661
   5   24752.0    404.0   0.095748505   1.27349  -0.43829   0.89727   0.52564
   6   24798.1    403.3   0.023665904   0.31418   0.21485  -0.49913  -0.13743
   7   25279.8    395.6   0.043610915   0.56793   0.31230  -0.10733  -0.67741
   8   26843.8    372.5   0.027678470   0.33945   0.04220   0.53794  -0.21976
   9   27371.1    365.3   0.020683710   0.24878  -0.14958   0.09700   0.46583
  10   28207.4    354.5   0.054760286   0.63911   0.08449   0.60871  -0.51132
  11   28604.0    349.6   0.124952358   1.43812   0.14933  -0.65483  -0.99348
  12   29074.2    343.9   0.350211667   3.96550   1.88117   0.63833   0.13874
  13   29286.8    341.5   0.100805060   1.13314   0.41127   0.64200   0.74286
  14   29799.6    335.6   0.028736460   0.31747  -0.56205   0.00261   0.03950
  15   30243.9    330.6   0.062253818   0.67765  -0.60672   0.53381  -0.15677
  16   31002.4    322.6   0.320659643   3.40505   1.11297   1.34655   0.59427
  17   31893.7    313.5   0.040459872   0.41763   0.22342   0.59617   0.11088
  18   31950.9    313.0   0.381206789   3.92784   0.07752   1.96919  -0.21007
  19   32466.7    308.0   0.206719896   2.09614   1.15788   0.40270  -0.77025
  20   32910.8    303.9   0.046168170   0.46183   0.21026   0.59142   0.26047
  21   33207.7    301.1   0.012833687   0.12723  -0.20017   0.28131   0.08958
  22   33454.1    298.9   0.469804062   4.62320  -1.61741  -1.36897  -0.36483
  23   33834.0    295.6   0.417040438   4.05789  -1.04313  -1.43886  -0.94840
  24   33940.5    294.6   0.058143107   0.56397   0.66587   0.18128   0.29619
  25   34263.3    291.9   0.462608846   4.44489   0.10404  -2.09508  -0.21148
  26   34340.7    291.2   0.016750381   0.16058  -0.09598   0.16899  -0.35045
  27   34724.4    288.0   0.035092971   0.33271   0.48633   0.29089  -0.10755
  28   34765.1    287.6   0.023618076   0.22365   0.32072   0.30101   0.17373
  29   34875.9    286.7   0.051394198   0.48514  -0.30682  -0.20909  -0.58930
  30   35142.5    284.6   0.009544093   0.08941  -0.24831  -0.15415  -0.06314
  31   35638.9    280.6   0.026297721   0.24292   0.43556   0.18058   0.14354
  32   36104.5    277.0   0.077676262   0.70828  -0.72246  -0.40006  -0.16212
  33   36336.4    275.2   0.165714060   1.50139   0.07860  -0.26512  -1.19370
  34   36648.2    272.9   0.071572578   0.64294  -0.29534   0.72989   0.15157
  35   36899.6    271.0   0.075245713   0.67133  -0.59955  -0.18665   0.52634
  36   36996.9    270.3   0.075327772   0.67029  -0.16036  -0.12642   0.79284
  37   37470.8    266.9   0.022244972   0.19544   0.35513   0.25720  -0.05628
  38   37679.8    265.4   0.260245326   2.27379   1.07462   0.75032  -0.74565
  39   37727.9    265.1   0.001381316   0.01205  -0.02766   0.08423   0.06476
  40   37871.7    264.0   0.105126453   0.91385   0.68999   0.45629  -0.47912
  41   38086.0    262.6   0.151756839   1.31177  -0.66172  -0.24324   0.90263
  42   38291.7    261.2   0.042181181   0.36265   0.20674   0.54285   0.15882
  43   38463.3    260.0   0.031899369   0.27303   0.14594  -0.23045   0.44567
  44   38596.0    259.1   0.178173631   1.51977   1.00789   0.70181  -0.10676
  45   39325.3    254.3   0.090409515   0.75686  -0.12837   0.23391   0.82805
  46   39535.5    252.9   0.005454622   0.04542  -0.09415   0.16629  -0.09436
  47   39607.3    252.5   0.002324463   0.01932  -0.09920  -0.08175   0.05288
  48   39705.3    251.9   0.002907546   0.02411   0.14811   0.03405  -0.03183
  49   39807.9    251.2   0.001997552   0.01652   0.09928   0.02721   0.07696
  50   40062.1    249.6   0.193495218   1.59006   1.12998   0.55591  -0.06451
  51   40274.0    248.3   0.029313641   0.23962   0.23918   0.30057   0.30343

FINAL SINGLE POINT ENERGY     -4185.524804076840

DIPOLE MOMENT
-------------
                                X             Y             Z
Electronic contribution:    -13.89765     -31.56161     -11.23482
Nuclear contribution   :     13.74406      34.59762       9.68859
                        -----------------------------------------
Total Dipole Moment    :     -0.15359       3.03601      -1.54623
                        -----------------------------------------
Magnitude (a.u.)       :      3.41054
Magnitude (Debye)      :      8.66890

Rotational constants in cm-1:     0.001436     0.000420     0.000352
Rotational constants in MHz :    43.044829    12.599831    10.537864

                             ****ORCA TERMINATED NORMALLY****
TOTAL RUN TIME: 0 days 0 hours 9 minutes 14 seconds 812 msec
