                         Program Version 4.2.0 -  RELEASE  -
|  1> # ORCA input file
|  2> # SCF done       -194.883546082677          0.000673296318
|  3> ! CAM-B3LYP def2-SVP def2/J RIJCOSX Grid4 TightSCF
|  4> %maxcore 5000
|  5> %tddft
|  6>     Mode sTDDFT
|  7>     Ethresh 5.0
|  8>     maxcore 5000
|  9> end
| 10>
| 11> %pal
| 12>   nprocs 6
| 13>   end
| 14> * xyz 0 1
| 15>    C        1.98748         2.03534        -1.23374
| 16>    C        2.17972         0.89181        -1.94780
| 17>    C        2.20720        -0.21637        -1.02521
| 18>    C        2.06953         0.32554         0.31781
| 19>    O        2.11365        -0.15966         1.42255
| 20>    N        1.90907         1.70778         0.08639
| 21>    C        2.43015        -1.34642        -1.76678
| 22>    O        2.57474        -1.02117        -3.08516
| 23>    C        2.41304         0.35413        -3.27138
| 24>    O        2.48641         0.85525        -4.35666
| 25>    C        2.54864        -2.72117        -1.38693
| 26>    C        3.25989        -3.63941        -2.14759
| 27>    C        3.44090        -4.95464        -1.73457
| 28>    C        2.92328        -5.45445        -0.54529
| 29>    C        2.14986        -4.55543         0.23933
| 30>    C        1.94918        -3.19807        -0.19535
| 31>    N        1.12852        -2.52995         0.60767
| 32>    S        0.70028        -3.47937         1.82096
| 33>    N        1.49569        -4.80475         1.37416
| 34>    C        3.12609        -6.81630        -0.14527
| 35>    C        2.67681        -7.42743         0.99044
| 36>    C        3.00641        -8.79928         1.07332
| 37>    C        2.68482        -9.70638         2.10473
| 38>    C        2.01438        -9.29129         3.31959
| 39>    C        1.06446        -9.96927         4.02995
| 40>    C        0.66663        -9.28614         5.19852
| 41>    C        1.30634        -8.09830         5.40541
| 42>    S        2.42731        -7.79939         4.12254
| 43>    C        1.14249        -7.13522         6.52332
| 44>   Cl       -0.53010        -9.91386         6.26543
| 45>    C        3.05607       -11.03061         1.89913
| 46>    C        3.77147       -11.47492         0.75668
| 47>    C        4.13477       -10.55713        -0.25098
| 48>    C        3.71530        -9.24327        -0.07147
| 49>    S        3.99889        -7.93272        -1.18003
| 50>    C        4.90987       -10.94290        -1.41261
| 51>    C        4.75923       -10.51587        -2.70092
| 52>    C        5.73123       -11.05374        -3.57137
| 53>    C        6.63591       -11.87872        -2.96916
| 54>    S        6.28072       -12.01228        -1.28031
| 55>    C        7.78617       -12.59753        -3.57278
| 56>   Cl        5.75817       -10.68799        -5.25388
| 57>    C        3.99749       -12.86973         0.78543
| 58>    C        3.50021       -13.47842         1.90522
| 59>    S        2.73495       -12.34747         2.99375
| 60>    C        3.51469       -14.86817         2.18415
| 61>    S        2.71840       -15.52461         3.63623
| 62>    C        3.16766       -17.08338         3.08585
| 63>    C        3.87617       -16.99156         1.88144
| 64>    N        4.05403       -15.76472         1.40521
| 65>    C        4.25934       -18.34888         1.38374
| 66>    C        3.66147       -19.22420         2.44592
| 67>    C        3.03738       -18.44704         3.42703
| 68>    S        2.31871       -19.40015         4.65581
| 69>    C        2.84566       -20.86633         3.84661
| 70>    C        3.55298       -20.58697         2.68618
| 71>    C        2.48774       -22.11563         4.41269
| 72>    C        2.77670       -23.32904         3.88420
| 73>    C        2.37275       -24.56615         4.44663
| 74>    C        2.62334       -25.82671         3.93157
| 75>    C        2.06740       -26.83818         4.71561
| 76>    C        1.38883       -26.34664         5.83819
| 77>    S        1.43379       -24.64291         5.93301
| 78>    C        0.85753       -27.45062         6.56338
| 79>    C        1.20211       -28.63229         5.89619
| 80>    C        1.97301       -28.29414         4.71541
| 81>    C        2.50044       -29.15111         3.79353
| 82>    C        3.23484       -28.69663         2.67893
| 83>    N        3.83076       -28.33112         1.76963
| 84>    C        2.34540       -30.54953         3.89107
| 85>    N        2.22986       -31.68800         3.96746
| 86>    C        0.70993       -29.78037         6.54725
| 87>    C        0.01624       -29.45358         7.67168
| 88>    S       -0.05890       -27.74704         7.97227
| 89>    H        1.90487         3.05247        -1.56799
| 90>    H        1.78703         2.36779         0.83889
| 91>    H        3.70442        -3.30603        -3.07252
| 92>    H        4.01845        -5.61956        -2.36020
| 93>    H        2.10565        -6.89245         1.72505
| 94>    H        0.62863       -10.90134         3.72271
| 95>    H        0.30296        -7.43587         7.14524
| 96>    H        0.96384        -6.13134         6.14119
| 97>    H        2.04153        -7.10485         7.13905
| 98>    H        3.96731        -9.87257        -3.03580
| 99>    H        7.76090       -12.48532        -4.65388
|100>    H        7.75156       -13.65669        -3.32223
|101>    H        8.72835       -12.19520        -3.20026
|102>    H        4.48400       -13.43054         0.01052
|103>    H        5.34255       -18.46272         1.31328
|104>    H        3.83937       -18.54998         0.39668
|105>    H        3.96108       -21.35137         2.05109
|106>    H        1.92179       -22.07108         5.33495
|107>    H        3.34083       -23.40306         2.96532
|108>    H        3.18230       -25.98396         3.02706
|109>    H        0.85677       -30.78958         6.20843
|110>    H       -0.46807       -30.11500         8.36165
|111> *
|112>
|113>                          ****END OF INPUT****

CARTESIAN COORDINATES (ANGSTROEM)
---------------------------------
  C      1.987480    2.035340   -1.233740
  C      2.179720    0.891810   -1.947800
  C      2.207200   -0.216370   -1.025210
  C      2.069530    0.325540    0.317810
  O      2.113650   -0.159660    1.422550
  N      1.909070    1.707780    0.086390
  C      2.430150   -1.346420   -1.766780
  O      2.574740   -1.021170   -3.085160
  C      2.413040    0.354130   -3.271380
  O      2.486410    0.855250   -4.356660
  C      2.548640   -2.721170   -1.386930
  C      3.259890   -3.639410   -2.147590
  C      3.440900   -4.954640   -1.734570
  C      2.923280   -5.454450   -0.545290
  C      2.149860   -4.555430    0.239330
  C      1.949180   -3.198070   -0.195350
  N      1.128520   -2.529950    0.607670
  S      0.700280   -3.479370    1.820960
  N      1.495690   -4.804750    1.374160
  C      3.126090   -6.816300   -0.145270
  C      2.676810   -7.427430    0.990440
  C      3.006410   -8.799280    1.073320
  C      2.684820   -9.706380    2.104730
  C      2.014380   -9.291290    3.319590
  C      1.064460   -9.969270    4.029950
  C      0.666630   -9.286140    5.198520
  C      1.306340   -8.098300    5.405410
  S      2.427310   -7.799390    4.122540
  C      1.142490   -7.135220    6.523320
  Cl    -0.530100   -9.913860    6.265430
  C      3.056070  -11.030610    1.899130
  C      3.771470  -11.474920    0.756680
  C      4.134770  -10.557130   -0.250980
  C      3.715300   -9.243270   -0.071470
  S      3.998890   -7.932720   -1.180030
  C      4.909870  -10.942900   -1.412610
  C      4.759230  -10.515870   -2.700920
  C      5.731230  -11.053740   -3.571370
  C      6.635910  -11.878720   -2.969160
  S      6.280720  -12.012280   -1.280310
  C      7.786170  -12.597530   -3.572780
  Cl     5.758170  -10.687990   -5.253880
  C      3.997490  -12.869730    0.785430
  C      3.500210  -13.478420    1.905220
  S      2.734950  -12.347470    2.993750
  C      3.514690  -14.868170    2.184150
  S      2.718400  -15.524610    3.636230
  C      3.167660  -17.083380    3.085850
  C      3.876170  -16.991560    1.881440
  N      4.054030  -15.764720    1.405210
  C      4.259340  -18.348880    1.383740
  C      3.661470  -19.224200    2.445920
  C      3.037380  -18.447040    3.427030
  S      2.318710  -19.400150    4.655810
  C      2.845660  -20.866330    3.846610
  C      3.552980  -20.586970    2.686180
  C      2.487740  -22.115630    4.412690
  C      2.776700  -23.329040    3.884200
  C      2.372750  -24.566150    4.446630
  C      2.623340  -25.826710    3.931570
  C      2.067400  -26.838180    4.715610
  C      1.388830  -26.346640    5.838190
  S      1.433790  -24.642910    5.933010
  C      0.857530  -27.450620    6.563380
  C      1.202110  -28.632290    5.896190
  C      1.973010  -28.294140    4.715410
  C      2.500440  -29.151110    3.793530
  C      3.234840  -28.696630    2.678930
  N      3.830760  -28.331120    1.769630
  C      2.345400  -30.549530    3.891070
  N      2.229860  -31.688000    3.967460
  C      0.709930  -29.780370    6.547250
  C      0.016240  -29.453580    7.671680
  S     -0.058900  -27.747040    7.972270
  H      1.904870    3.052470   -1.567990
  H      1.787030    2.367790    0.838890
  H      3.704420   -3.306030   -3.072520
  H      4.018450   -5.619560   -2.360200
  H      2.105650   -6.892450    1.725050
  H      0.628630  -10.901340    3.722710
  H      0.302960   -7.435870    7.145240
  H      0.963840   -6.131340    6.141190
  H      2.041530   -7.104850    7.139050
  H      3.967310   -9.872570   -3.035800
  H      7.760900  -12.485320   -4.653880
  H      7.751560  -13.656690   -3.322230
  H      8.728350  -12.195200   -3.200260
  H      4.484000  -13.430540    0.010520
  H      5.342550  -18.462720    1.313280
  H      3.839370  -18.549980    0.396680
  H      3.961080  -21.351370    2.051090
  H      1.921790  -22.071080    5.334950
  H      3.340830  -23.403060    2.965320
  H      3.182300  -25.983960    3.027060
  H      0.856770  -30.789580    6.208430
  H     -0.468070  -30.115000    8.361650

 Total Charge           Charge          ....    0
 Multiplicity           Mult            ....    1
 Number of Electrons    NEL             ....  590
 Basis Dimension        Dim             .... 1190

ORBITAL ENERGIES
----------------

  NO   OCC          E(Eh)            E(eV)
   0   2.0000    -101.582137     -2764.1905
   1   2.0000    -101.581318     -2764.1682
   2   2.0000     -89.024700     -2422.4852
   3   2.0000     -88.982518     -2421.3374
   4   2.0000     -88.980439     -2421.2808
   5   2.0000     -88.971409     -2421.0351
   6   2.0000     -88.965399     -2420.8716
   7   2.0000     -88.956388     -2420.6264
   8   2.0000     -88.955722     -2420.6083
   9   2.0000     -88.955189     -2420.5938
  10   2.0000     -88.951374     -2420.4900
  11   2.0000     -19.276319      -524.5353
  12   2.0000     -19.202247      -522.5197
  13   2.0000     -19.191609      -522.2302
  14   2.0000     -14.461841      -393.5267
  15   2.0000     -14.439276      -392.9127
  16   2.0000     -14.436339      -392.8327
  17   2.0000     -14.424681      -392.5155
  18   2.0000     -14.424166      -392.5015
  19   2.0000     -14.414455      -392.2373
  20   2.0000     -10.403004      -283.0801
  21   2.0000     -10.382446      -282.5207
  22   2.0000     -10.365984      -282.0728
  23   2.0000     -10.357344      -281.8377
  24   2.0000     -10.345358      -281.5115
  25   2.0000     -10.344193      -281.4798
  26   2.0000     -10.341058      -281.3945
  27   2.0000     -10.327080      -281.0141
  28   2.0000     -10.325936      -280.9830
  29   2.0000     -10.325405      -280.9686
  30   2.0000     -10.324758      -280.9510
  31   2.0000     -10.324376      -280.9405
  32   2.0000     -10.323007      -280.9033
  33   2.0000     -10.316485      -280.7258
  34   2.0000     -10.315914      -280.7103
  35   2.0000     -10.314973      -280.6847
  36   2.0000     -10.310957      -280.5754
  37   2.0000     -10.309720      -280.5417
  38   2.0000     -10.308067      -280.4968
  39   2.0000     -10.307831      -280.4904
  40   2.0000     -10.307552      -280.4827
  41   2.0000     -10.306819      -280.4628
  42   2.0000     -10.306767      -280.4614
  43   2.0000     -10.306718      -280.4601
  44   2.0000     -10.306640      -280.4579
  45   2.0000     -10.306448      -280.4527
  46   2.0000     -10.305562      -280.4286
  47   2.0000     -10.304789      -280.4076
  48   2.0000     -10.303290      -280.3668
  49   2.0000     -10.302216      -280.3375
  50   2.0000     -10.301617      -280.3213
  51   2.0000     -10.300049      -280.2786
  52   2.0000     -10.298609      -280.2394
  53   2.0000     -10.298396      -280.2336
  54   2.0000     -10.294419      -280.1254
  55   2.0000     -10.293188      -280.0919
  56   2.0000     -10.292762      -280.0803
  57   2.0000     -10.292598      -280.0758
  58   2.0000     -10.291667      -280.0505
  59   2.0000     -10.291152      -280.0365
  60   2.0000     -10.290493      -280.0185
  61   2.0000     -10.289924      -280.0031
  62   2.0000     -10.288976      -279.9773
  63   2.0000     -10.287657      -279.9414
  64   2.0000     -10.283429      -279.8263
  65   2.0000     -10.280801      -279.7548
  66   2.0000     -10.277573      -279.6670
  67   2.0000     -10.276674      -279.6425
  68   2.0000     -10.276116      -279.6273
  69   2.0000     -10.275943      -279.6226
  70   2.0000     -10.275600      -279.6133
  71   2.0000     -10.274699      -279.5888
  72   2.0000     -10.273669      -279.5607
  73   2.0000     -10.272732      -279.5352
  74   2.0000      -9.536878      -259.5116
  75   2.0000      -9.536096      -259.4904
  76   2.0000      -8.116451      -220.8599
  77   2.0000      -8.077585      -219.8023
  78   2.0000      -8.075110      -219.7349
  79   2.0000      -8.066435      -219.4989
  80   2.0000      -8.060585      -219.3397
  81   2.0000      -8.051763      -219.0996
  82   2.0000      -8.051298      -219.0870
  83   2.0000      -8.050666      -219.0698
  84   2.0000      -8.046498      -218.9563
  85   2.0000      -7.307110      -198.8366
  86   2.0000      -7.306335      -198.8155
  87   2.0000      -7.296962      -198.5604
  88   2.0000      -7.296883      -198.5583
  89   2.0000      -7.296170      -198.5389
  90   2.0000      -7.296090      -198.5367
  91   2.0000      -6.087671      -165.6540
  92   2.0000      -6.079777      -165.4391
  93   2.0000      -6.078949      -165.4166
  94   2.0000      -6.046834      -164.5427
  95   2.0000      -6.044313      -164.4741
  96   2.0000      -6.042397      -164.4220
  97   2.0000      -6.040246      -164.3634
  98   2.0000      -6.040182      -164.3617
  99   2.0000      -6.037483      -164.2883
 100   2.0000      -6.035690      -164.2395
 101   2.0000      -6.031676      -164.1303
 102   2.0000      -6.029918      -164.0824
 103   2.0000      -6.028583      -164.0461
 104   2.0000      -6.025834      -163.9713
 105   2.0000      -6.022658      -163.8849
 106   2.0000      -6.021077      -163.8418
 107   2.0000      -6.020621      -163.8294
 108   2.0000      -6.020353      -163.8221
 109   2.0000      -6.016919      -163.7287
 110   2.0000      -6.016448      -163.7159
 111   2.0000      -6.016194      -163.7090
 112   2.0000      -6.016154      -163.7079
 113   2.0000      -6.013848      -163.6451
 114   2.0000      -6.013350      -163.6316
 115   2.0000      -6.012020      -163.5954
 116   2.0000      -6.011922      -163.5927
 117   2.0000      -6.007869      -163.4824
 118   2.0000      -1.206202       -32.8224
 119   2.0000      -1.131551       -30.7911
 120   2.0000      -1.125819       -30.6351
 121   2.0000      -1.112284       -30.2668
 122   2.0000      -1.070849       -29.1393
 123   2.0000      -1.058763       -28.8104
 124   2.0000      -1.036149       -28.1950
 125   2.0000      -1.015609       -27.6361
 126   2.0000      -1.013001       -27.5652
 127   2.0000      -1.002031       -27.2667
 128   2.0000      -1.000110       -27.2144
 129   2.0000      -0.999761       -27.2049
 130   2.0000      -0.994234       -27.0545
 131   2.0000      -0.987826       -26.8801
 132   2.0000      -0.986149       -26.8345
 133   2.0000      -0.978970       -26.6391
 134   2.0000      -0.966134       -26.2898
 135   2.0000      -0.951360       -25.8878
 136   2.0000      -0.943016       -25.6608
 137   2.0000      -0.939263       -25.5586
 138   2.0000      -0.932997       -25.3881
 139   2.0000      -0.916799       -24.9474
 140   2.0000      -0.908957       -24.7340
 141   2.0000      -0.908021       -24.7085
 142   2.0000      -0.899057       -24.4646
 143   2.0000      -0.898217       -24.4417
 144   2.0000      -0.883625       -24.0447
 145   2.0000      -0.879018       -23.9193
 146   2.0000      -0.864254       -23.5176
 147   2.0000      -0.860280       -23.4094
 148   2.0000      -0.857792       -23.3417
 149   2.0000      -0.847965       -23.0743
 150   2.0000      -0.846200       -23.0263
 151   2.0000      -0.844733       -22.9863
 152   2.0000      -0.838818       -22.8254
 153   2.0000      -0.833185       -22.6721
 154   2.0000      -0.817787       -22.2531
 155   2.0000      -0.807842       -21.9825
 156   2.0000      -0.805999       -21.9324
 157   2.0000      -0.804952       -21.9039
 158   2.0000      -0.796266       -21.6675
 159   2.0000      -0.793631       -21.5958
 160   2.0000      -0.778593       -21.1866
 161   2.0000      -0.775978       -21.1154
 162   2.0000      -0.770134       -20.9564
 163   2.0000      -0.762553       -20.7501
 164   2.0000      -0.757813       -20.6211
 165   2.0000      -0.745029       -20.2733
 166   2.0000      -0.744597       -20.2615
 167   2.0000      -0.737705       -20.0740
 168   2.0000      -0.715399       -19.4670
 169   2.0000      -0.713151       -19.4058
 170   2.0000      -0.697371       -18.9764
 171   2.0000      -0.693566       -18.8729
 172   2.0000      -0.690023       -18.7765
 173   2.0000      -0.685011       -18.6401
 174   2.0000      -0.676881       -18.4189
 175   2.0000      -0.668505       -18.1910
 176   2.0000      -0.665722       -18.1152
 177   2.0000      -0.654320       -17.8050
 178   2.0000      -0.649944       -17.6859
 179   2.0000      -0.644902       -17.5487
 180   2.0000      -0.638638       -17.3782
 181   2.0000      -0.632628       -17.2147
 182   2.0000      -0.628516       -17.1028
 183   2.0000      -0.627408       -17.0726
 184   2.0000      -0.621958       -16.9243
 185   2.0000      -0.613683       -16.6992
 186   2.0000      -0.611648       -16.6438
 187   2.0000      -0.608293       -16.5525
 188   2.0000      -0.607711       -16.5367
 189   2.0000      -0.605359       -16.4727
 190   2.0000      -0.594736       -16.1836
 191   2.0000      -0.591895       -16.1063
 192   2.0000      -0.586816       -15.9681
 193   2.0000      -0.583646       -15.8818
 194   2.0000      -0.581785       -15.8312
 195   2.0000      -0.578615       -15.7449
 196   2.0000      -0.575549       -15.6615
 197   2.0000      -0.574703       -15.6385
 198   2.0000      -0.573402       -15.6031
 199   2.0000      -0.568027       -15.4568
 200   2.0000      -0.561802       -15.2874
 201   2.0000      -0.553741       -15.0680
 202   2.0000      -0.550450       -14.9785
 203   2.0000      -0.549230       -14.9453
 204   2.0000      -0.544231       -14.8093
 205   2.0000      -0.539356       -14.6766
 206   2.0000      -0.538830       -14.6623
 207   2.0000      -0.534932       -14.5562
 208   2.0000      -0.525466       -14.2986
 209   2.0000      -0.523650       -14.2492
 210   2.0000      -0.522916       -14.2293
 211   2.0000      -0.521231       -14.1834
 212   2.0000      -0.518032       -14.0964
 213   2.0000      -0.516716       -14.0606
 214   2.0000      -0.514540       -14.0013
 215   2.0000      -0.512930       -13.9575
 216   2.0000      -0.510603       -13.8942
 217   2.0000      -0.507606       -13.8127
 218   2.0000      -0.501230       -13.6392
 219   2.0000      -0.499880       -13.6024
 220   2.0000      -0.498306       -13.5596
 221   2.0000      -0.497260       -13.5311
 222   2.0000      -0.494428       -13.4541
 223   2.0000      -0.492367       -13.3980
 224   2.0000      -0.489010       -13.3066
 225   2.0000      -0.483504       -13.1568
 226   2.0000      -0.482051       -13.1173
 227   2.0000      -0.480227       -13.0676
 228   2.0000      -0.479473       -13.0471
 229   2.0000      -0.476974       -12.9791
 230   2.0000      -0.476304       -12.9609
 231   2.0000      -0.473747       -12.8913
 232   2.0000      -0.472742       -12.8640
 233   2.0000      -0.471421       -12.8280
 234   2.0000      -0.469943       -12.7878
 235   2.0000      -0.468079       -12.7371
 236   2.0000      -0.466629       -12.6976
 237   2.0000      -0.463752       -12.6193
 238   2.0000      -0.463340       -12.6081
 239   2.0000      -0.462998       -12.5988
 240   2.0000      -0.460208       -12.5229
 241   2.0000      -0.459182       -12.4950
 242   2.0000      -0.456145       -12.4123
 243   2.0000      -0.454295       -12.3620
 244   2.0000      -0.454153       -12.3581
 245   2.0000      -0.451476       -12.2853
 246   2.0000      -0.449507       -12.2317
 247   2.0000      -0.448452       -12.2030
 248   2.0000      -0.439747       -11.9661
 249   2.0000      -0.439524       -11.9601
 250   2.0000      -0.435366       -11.8469
 251   2.0000      -0.434960       -11.8359
 252   2.0000      -0.434431       -11.8215
 253   2.0000      -0.432892       -11.7796
 254   2.0000      -0.427988       -11.6462
 255   2.0000      -0.424007       -11.5378
 256   2.0000      -0.423208       -11.5161
 257   2.0000      -0.420885       -11.4529
 258   2.0000      -0.419800       -11.4233
 259   2.0000      -0.419328       -11.4105
 260   2.0000      -0.418961       -11.4005
 261   2.0000      -0.418130       -11.3779
 262   2.0000      -0.413940       -11.2639
 263   2.0000      -0.412742       -11.2313
 264   2.0000      -0.409578       -11.1452
 265   2.0000      -0.403591       -10.9823
 266   2.0000      -0.399529       -10.8717
 267   2.0000      -0.392981       -10.6936
 268   2.0000      -0.385904       -10.5010
 269   2.0000      -0.379442       -10.3251
 270   2.0000      -0.377301       -10.2669
 271   2.0000      -0.374816       -10.1993
 272   2.0000      -0.372495       -10.1361
 273   2.0000      -0.369582       -10.0569
 274   2.0000      -0.358103        -9.7445
 275   2.0000      -0.354925        -9.6580
 276   2.0000      -0.354474        -9.6457
 277   2.0000      -0.352413        -9.5897
 278   2.0000      -0.340527        -9.2662
 279   2.0000      -0.340084        -9.2541
 280   2.0000      -0.338009        -9.1977
 281   2.0000      -0.333554        -9.0765
 282   2.0000      -0.328851        -8.9485
 283   2.0000      -0.326135        -8.8746
 284   2.0000      -0.317420        -8.6374
 285   2.0000      -0.315274        -8.5790
 286   2.0000      -0.312976        -8.5165
 287   2.0000      -0.312231        -8.4962
 288   2.0000      -0.299798        -8.1579
 289   2.0000      -0.295869        -8.0510
 290   2.0000      -0.289144        -7.8680
 291   2.0000      -0.272393        -7.4122
 292   2.0000      -0.260878        -7.0989
 293   2.0000      -0.246227        -6.7002
 294   2.0000      -0.225696        -6.1415
 295   0.0000      -0.097449        -2.6517
 296   0.0000      -0.090173        -2.4537
 297   0.0000      -0.060492        -1.6461
 298   0.0000      -0.037423        -1.0183
 299   0.0000      -0.033295        -0.9060

MULLIKEN ATOMIC CHARGES
-----------------------
   0 C :    0.061082
   1 C :   -0.089023
   2 C :   -0.059333
   3 C :    0.151627
   4 O :   -0.156683
   5 N :   -0.130043
   6 C :    0.097540
   7 O :   -0.253386
   8 C :    0.235223
   9 O :   -0.134586
  10 C :    0.035981
  11 C :   -0.000435
  12 C :   -0.069059
  13 C :    0.158204
  14 C :    0.006809
  15 C :    0.016986
  16 N :   -0.235948
  17 S :    0.527515
  18 N :   -0.289557
  19 C :   -0.078105
  20 C :   -0.079614
  21 C :    0.092433
  22 C :    0.146303
  23 C :   -0.211474
  24 C :    0.031820
  25 C :    0.086105
  26 C :   -0.266092
  27 S :    0.147451
  28 C :    0.120159
  29 Cl:   -0.091686
  30 C :   -0.133799
  31 C :    0.081795
  32 C :    0.134291
  33 C :   -0.120916
  34 S :    0.089682
  35 C :   -0.211729
  36 C :    0.033339
  37 C :    0.085648
  38 C :   -0.267204
  39 S :    0.144200
  40 C :    0.121677
  41 Cl:   -0.090763
  42 C :   -0.071708
  43 C :   -0.000360
  44 S :    0.113075
  45 C :   -0.098974
  46 S :    0.135730
  47 C :   -0.052274
  48 C :   -0.227837
  49 N :   -0.005773
  50 C :    0.394048
  51 C :   -0.166003
  52 C :   -0.104498
  53 S :    0.150010
  54 C :   -0.082795
  55 C :   -0.014318
  56 C :    0.038786
  57 C :    0.008251
  58 C :   -0.043528
  59 C :   -0.044524
  60 C :    0.014414
  61 C :   -0.102697
  62 S :    0.161720
  63 C :   -0.114460
  64 C :   -0.032891
  65 C :    0.296636
  66 C :   -0.299758
  67 C :   -0.185113
  68 N :    0.166979
  69 C :   -0.190320
  70 N :    0.169754
  71 C :    0.035393
  72 C :   -0.083208
  73 S :    0.177016
  74 H :    0.026382
  75 H :    0.134117
  76 H :    0.003186
  77 H :    0.002714
  78 H :    0.008765
  79 H :   -0.007666
  80 H :    0.024484
  81 H :    0.029663
  82 H :    0.039863
  83 H :   -0.007419
  84 H :    0.025257
  85 H :    0.031633
  86 H :    0.037891
  87 H :   -0.002326
  88 H :    0.037415
  89 H :    0.036170
  90 H :   -0.023102
  91 H :   -0.013858
  92 H :   -0.007662
  93 H :    0.001970
  94 H :    0.010716
  95 H :    0.034601
Sum of atomic charges:   -0.0000000

LOEWDIN ATOMIC CHARGES
----------------------
   0 C :    0.094151
   1 C :   -0.141382
   2 C :   -0.115697
   3 C :    0.077170
   4 O :   -0.172269
   5 N :    0.028334
   6 C :    0.114924
   7 O :   -0.057283
   8 C :    0.102797
   9 O :   -0.140025
  10 C :   -0.056777
  11 C :    0.021316
  12 C :   -0.024527
  13 C :   -0.018890
  14 C :   -0.039539
  15 C :   -0.039982
  16 N :   -0.253814
  17 S :    0.659955
  18 N :   -0.282491
  19 C :   -0.154562
  20 C :   -0.040570
  21 C :   -0.045003
  22 C :   -0.049289
  23 C :   -0.171900
  24 C :   -0.076756
  25 C :   -0.178389
  26 C :   -0.198626
  27 S :    0.457485
  28 C :   -0.061436
  29 Cl:    0.126868
  30 C :   -0.141339
  31 C :   -0.038902
  32 C :   -0.055018
  33 C :   -0.138030
  34 S :    0.414425
  35 C :   -0.172568
  36 C :   -0.076318
  37 C :   -0.178010
  38 C :   -0.198389
  39 S :    0.450742
  40 C :   -0.061352
  41 Cl:    0.127134
  42 C :   -0.040480
  43 C :   -0.183468
  44 S :    0.411220
  45 C :   -0.142706
  46 S :    0.412575
  47 C :   -0.213799
  48 C :   -0.038557
  49 N :   -0.081450
  50 C :   -0.011737
  51 C :   -0.046499
  52 C :   -0.201402
  53 S :    0.438241
  54 C :   -0.168205
  55 C :   -0.050654
  56 C :   -0.049612
  57 C :   -0.041521
  58 C :   -0.158728
  59 C :   -0.033717
  60 C :   -0.072114
  61 C :   -0.183436
  62 S :    0.465345
  63 C :   -0.181696
  64 C :   -0.079895
  65 C :    0.085255
  66 C :   -0.106661
  67 C :   -0.015544
  68 N :   -0.038333
  69 C :   -0.016775
  70 N :   -0.036241
  71 C :   -0.034308
  72 C :   -0.180774
  73 S :    0.473813
  74 H :    0.037163
  75 H :    0.091096
  76 H :    0.042039
  77 H :    0.028634
  78 H :    0.018451
  79 H :    0.025261
  80 H :    0.033813
  81 H :    0.037210
  82 H :    0.040723
  83 H :    0.026050
  84 H :    0.034058
  85 H :    0.038028
  86 H :    0.040090
  87 H :    0.025002
  88 H :    0.056741
  89 H :    0.056209
  90 H :    0.030506
  91 H :    0.020094
  92 H :    0.036266
  93 H :    0.039498
  94 H :    0.042061
  95 H :    0.026702

  Mayer bond orders larger than 0.100000
B(  0-C ,  1-C ) :   1.5079 B(  0-C ,  5-N ) :   1.2058 B(  0-C , 74-H ) :   0.9836
B(  1-C ,  2-C ) :   1.1394 B(  1-C ,  8-C ) :   0.9594 B(  2-C ,  3-C ) :   0.9288
B(  2-C ,  6-C ) :   1.5155 B(  3-C ,  4-O ) :   2.2158 B(  3-C ,  5-N ) :   1.0546
B(  5-N , 75-H ) :   0.9283 B(  6-C ,  7-O ) :   1.1726 B(  6-C , 10-C ) :   1.0650
B(  7-O ,  8-C ) :   0.9850 B(  8-C ,  9-O ) :   2.2702 B( 10-C , 11-C ) :   1.4379
B( 10-C , 13-C ) :   0.1174 B( 10-C , 15-C ) :   1.2036 B( 11-C , 12-C ) :   1.2241
B( 11-C , 76-H ) :   1.0018 B( 12-C , 13-C ) :   1.4358 B( 12-C , 77-H ) :   0.9902
B( 13-C , 14-C ) :   1.1798 B( 13-C , 19-C ) :   1.1237 B( 14-C , 15-C ) :   1.1599
B( 14-C , 18-N ) :   1.5260 B( 15-C , 16-N ) :   1.5549 B( 16-N , 17-S ) :   1.2807
B( 16-N , 18-N ) :   0.1444 B( 17-S , 18-N ) :   1.2610 B( 19-C , 20-C ) :   1.6004
B( 19-C , 34-S ) :   1.0490 B( 20-C , 21-C ) :   1.1458 B( 20-C , 78-H ) :   0.9594
B( 21-C , 22-C ) :   1.2926 B( 21-C , 33-C ) :   1.2674 B( 22-C , 23-C ) :   0.9905
B( 22-C , 30-C ) :   1.4276 B( 23-C , 24-C ) :   1.5459 B( 23-C , 27-S ) :   1.1367
B( 24-C , 25-C ) :   1.2253 B( 24-C , 79-H ) :   0.9926 B( 25-C , 26-C ) :   1.6009
B( 25-C , 29-Cl) :   1.0045 B( 26-C , 27-S ) :   1.1360 B( 26-C , 28-C ) :   1.0821
B( 28-C , 80-H ) :   0.9447 B( 28-C , 81-H ) :   0.9482 B( 28-C , 82-H ) :   0.9494
B( 30-C , 31-C ) :   1.2646 B( 30-C , 44-S ) :   1.0620 B( 31-C , 32-C ) :   1.2865
B( 31-C , 42-C ) :   1.1594 B( 32-C , 33-C ) :   1.4203 B( 32-C , 35-C ) :   0.9885
B( 33-C , 34-S ) :   1.0606 B( 35-C , 36-C ) :   1.5493 B( 35-C , 39-S ) :   1.1340
B( 36-C , 37-C ) :   1.2237 B( 36-C , 83-H ) :   0.9945 B( 37-C , 38-C ) :   1.6025
B( 37-C , 41-Cl) :   1.0047 B( 38-C , 39-S ) :   1.1320 B( 38-C , 40-C ) :   1.0827
B( 40-C , 84-H ) :   0.9445 B( 40-C , 85-H ) :   0.9480 B( 40-C , 86-H ) :   0.9492
B( 42-C , 43-C ) :   1.5878 B( 42-C , 87-H ) :   0.9903 B( 43-C , 44-S ) :   1.0625
B( 43-C , 45-C ) :   1.0819 B( 45-C , 46-S ) :   1.0800 B( 45-C , 49-N ) :   1.6982
B( 46-S , 47-C ) :   1.0904 B( 47-C , 48-C ) :   1.4829 B( 47-C , 52-C ) :   1.1895
B( 48-C , 49-N ) :   1.4362 B( 48-C , 50-C ) :   1.0430 B( 50-C , 51-C ) :   0.9816
B( 50-C , 88-H ) :   0.8582 B( 50-C , 89-H ) :   0.8616 B( 51-C , 52-C ) :   1.5165
B( 51-C , 55-C ) :   1.3201 B( 52-C , 53-S ) :   1.0876 B( 53-S , 54-C ) :   1.1030
B( 54-C , 55-C ) :   1.4631 B( 54-C , 56-C ) :   1.1382 B( 55-C , 90-H ) :   0.9962
B( 56-C , 57-C ) :   1.6632 B( 56-C , 91-H ) :   0.9534 B( 57-C , 58-C ) :   1.1696
B( 57-C , 92-H ) :   0.9743 B( 58-C , 59-C ) :   1.4410 B( 58-C , 62-S ) :   1.0907
B( 59-C , 60-C ) :   1.2691 B( 59-C , 93-H ) :   1.0047 B( 60-C , 61-C ) :   1.4617
B( 60-C , 65-C ) :   0.9941 B( 61-C , 62-S ) :   1.1196 B( 61-C , 63-C ) :   1.1849
B( 63-C , 64-C ) :   1.4563 B( 63-C , 73-S ) :   1.1375 B( 64-C , 65-C ) :   1.0197
B( 64-C , 71-C ) :   1.2727 B( 65-C , 66-C ) :   1.7082 B( 66-C , 67-C ) :   1.1328
B( 66-C , 69-C ) :   1.1287 B( 67-C , 68-N ) :   2.9925 B( 69-C , 70-N ) :   3.0025
B( 71-C , 72-C ) :   1.5516 B( 71-C , 94-H ) :   0.9970 B( 72-C , 73-S ) :   1.1452
B( 72-C , 95-H ) :   0.9643

-----------------------------------------------------------------------------
         ABSORPTION SPECTRUM VIA TRANSITION ELECTRIC DIPOLE MOMENTS
-----------------------------------------------------------------------------
State   Energy  Wavelength   fosc         T2         TX        TY        TZ
        (cm-1)    (nm)                  (au**2)     (au)      (au)      (au)
-----------------------------------------------------------------------------
   0   12373.4    808.2   0.212190865   5.64565   0.45798   2.18992  -0.80009
   1   17424.4    573.9   1.734811491  32.77714   0.08957   5.49717  -1.59696
   2   20798.5    480.8   0.955981350  15.13192   0.42040   3.77634  -0.83335
   3   21312.3    469.2   0.199258412   3.07795   0.56125  -1.44279  -0.82541
   4   22087.1    452.8   0.025578395   0.38125  -0.05489   0.61414  -0.03265
   5   23684.9    422.2   0.355313772   4.93875   0.68844   1.85967  -1.00321
   6   26017.0    384.4   0.111193608   1.40701  -0.09978   1.12004   0.37759
   7   26618.6    375.7   0.289215756   3.57694  -0.36123   1.79966  -0.45572
   8   27336.6    365.8   0.119860268   1.44347  -0.33863   0.68279   0.92876
   9   28556.7    350.2   0.057450261   0.66231   0.01297  -0.76817  -0.26842
  10   29218.1    342.3   0.038947493   0.43884   0.11069  -0.59802  -0.26261
  11   29311.0    341.2   0.041090461   0.46152   0.18583   0.57823   0.30437
  12   29521.5    338.7   0.069199208   0.77168   0.12787  -0.62983  -0.59887
  13   30415.8    328.8   0.010879209   0.11775   0.18138  -0.14380  -0.25334
  14   30802.1    324.7   0.102793542   1.09866  -0.70651   0.37559   0.67707
  15   31032.0    322.2   0.002153913   0.02285  -0.05110  -0.13501   0.04486
  16   31479.4    317.7   0.097665295   1.02138  -0.56639   0.46183   0.69807
  17   32100.0    311.5   0.692828747   7.10552   1.12933  -1.53259  -1.86582
  18   32623.8    306.5   0.046877091   0.47304  -0.08130  -0.31052   0.60828
  19   32802.4    304.9   0.149078312   1.49618   0.75600  -0.04121  -0.96070
  20   33333.4    300.0   0.010879889   0.10745   0.31544  -0.07766  -0.04380
  21   33497.5    298.5   0.007119614   0.06997   0.16781   0.20150  -0.03475
  22   33658.6    297.1   0.042471465   0.41541  -0.05682  -0.21613   0.60454
  23   33754.3    296.3   0.157403155   1.53518  -0.02945  -1.23846  -0.02282
  24   34495.0    289.9   0.017397403   0.16604   0.05341   0.19373  -0.35448
  25   34774.4    287.6   0.036413882   0.34473   0.23791  -0.35469  -0.40290
  26   35007.0    285.7   0.281379447   2.64614  -0.74673   0.78276   1.21483
  27   35102.5    284.9   0.011789228   0.11057  -0.26616  -0.02861   0.19725
  28   35561.9    281.2   0.136561118   1.26421   0.23799  -1.01259   0.42688
  29   35975.4    278.0   0.014012865   0.12823   0.05572   0.30239  -0.18354
  30   36369.5    275.0   0.036192662   0.32761   0.21270   0.38978  -0.36117
  31   36538.7    273.7   0.009571800   0.08624   0.10841  -0.24945  -0.11075
  32   37069.0    269.8   0.070131148   0.62284   0.00074  -0.78479   0.08335
  33   37258.0    268.4   0.045701956   0.40382  -0.25342   0.04490   0.58102
  34   37329.8    267.9   0.041119128   0.36263   0.21269   0.48451  -0.28748
  35   37653.8    265.6   0.026652612   0.23303   0.09256   0.46209  -0.10456
  36   37759.1    264.8   0.031402400   0.27379  -0.13243  -0.48466  -0.14614
  37   37894.9    263.9   0.020036766   0.17407   0.22044  -0.22005  -0.27759
  38   38158.2    262.1   0.083521365   0.72058  -0.17424   0.80019  -0.22344
  39   38419.1    260.3   0.003167352   0.02714   0.05872  -0.14919   0.03788
  40   38684.0    258.5   0.022815364   0.19417   0.06990  -0.41884   0.11771
  41   38809.5    257.7   0.047634345   0.40407   0.27354  -0.39420  -0.41696
  42   39316.2    254.3   0.016111029   0.13490  -0.14525  -0.22288   0.25324
  43   39469.6    253.4   0.009463349   0.07893   0.20010   0.19637  -0.01816
  44   39885.5    250.7   0.045810122   0.37811  -0.13644  -0.06111   0.59646
  45   40131.4    249.2   0.005615088   0.04606  -0.00792   0.12831  -0.17186

FINAL SINGLE POINT ENERGY     -7124.590797509483

DIPOLE MOMENT
-------------
                                X             Y             Z
Electronic contribution:    -12.57535      10.94314       4.59044
Nuclear contribution   :     12.05614      -9.63320      -2.24102
                        -----------------------------------------
Total Dipole Moment    :     -0.51922       1.30994       2.34941
                        -----------------------------------------
Magnitude (a.u.)       :      2.73958
Magnitude (Debye)      :      6.96345

Rotational constants in cm-1:     0.001627     0.000157     0.000145
Rotational constants in MHz :    48.767663     4.711971     4.350032

                             ****ORCA TERMINATED NORMALLY****
TOTAL RUN TIME: 0 days 0 hours 9 minutes 37 seconds 571 msec
