                         Program Version 4.2.0 -  RELEASE  -
|  1> # ORCA input file
|  2> # SCF done       -192.821973409129          0.000495357425
|  3> ! CAM-B3LYP def2-SVP def2/J RIJCOSX Grid4 TightSCF
|  4> %maxcore 5000
|  5> %tddft
|  6>     Mode sTDDFT
|  7>     Ethresh 5.0
|  8>     maxcore 5000
|  9> end
| 10>
| 11> %pal
| 12>   nprocs 6
| 13>   end
| 14> * xyz 0 1
| 15>    C       -0.81062        -0.92873        -0.66069
| 16>    S        0.73387        -0.20371        -0.84015
| 17>    C        0.10175         1.36922        -0.41849
| 18>    C       -1.25548         1.28998        -0.17575
| 19>    C       -1.76647        -0.02726        -0.30770
| 20>    C       -3.19650        -0.31872         0.01663
| 21>    C       -3.45186         0.04296         1.47091
| 22>    S       -2.97785         1.78846         1.79782
| 23>    O       -4.17485         2.55977         1.99049
| 24>    O       -1.99856         1.79572         2.84799
| 25>    C       -2.16642         2.36823         0.24999
| 26>    C        0.94329         2.51584        -0.36557
| 27>    C        2.27983         2.47478        -0.56107
| 28>    C        3.15508         3.59320        -0.51564
| 29>    C        2.87280         4.93674        -0.34303
| 30>    C        4.02531         5.72347        -0.35843
| 31>    C        5.19865         4.97249        -0.53896
| 32>    S        4.88000         3.30485        -0.69924
| 33>    C        6.30508         5.85887        -0.53655
| 34>    C        5.83689         7.16847        -0.35754
| 35>    C        4.38638         7.12871        -0.24136
| 36>    C        3.54257         8.18553        -0.06693
| 37>    C        2.14433         8.01776         0.01653
| 38>    N        1.00753         7.88001         0.07632
| 39>    C        4.01097         9.51286         0.03201
| 40>    N        4.38908        10.59206         0.11361
| 41>    C        6.86332         8.11419        -0.34128
| 42>    C        8.11289         7.54130        -0.49066
| 43>    S        8.00537         5.79393        -0.67364
| 44>    C        9.34770         8.25067        -0.54623
| 45>    S        9.28180         9.97362        -0.81287
| 46>    C       11.01710        10.11400        -0.80038
| 47>    C       11.59722         8.87835        -0.56648
| 48>    C       10.65950         7.83050        -0.43221
| 49>    C       11.14968         6.45822        -0.08781
| 50>    C       11.80912         6.49975         1.28003
| 51>    S       13.19753         7.69356         1.25011
| 52>    O       13.01330         8.63504         2.31788
| 53>    O       14.43554         6.96441         1.20664
| 54>    C       13.03022         8.59632        -0.34462
| 55>    C       11.57457        11.40289        -1.04174
| 56>    C       12.81744        11.65874        -1.51132
| 57>    C       13.34370        12.95935        -1.74013
| 58>    C       12.75863        14.20124        -1.56804
| 59>    C       13.62372        15.24203        -1.90641
| 60>    C       14.88410        14.79231        -2.33555
| 61>    S       14.99689        13.09158        -2.33061
| 62>    C       15.68471        15.92072        -2.64857
| 63>    C       14.93281        17.08257        -2.41877
| 64>    C       13.61077        16.69639        -1.94862
| 65>    C       12.57702        17.52373        -1.62301
| 66>    C       11.33072        17.02838        -1.18474
| 67>    N       10.31790        16.62434        -0.83035
| 68>    C       12.68326        18.92807        -1.70656
| 69>    N       12.76585        20.06981        -1.77234
| 70>    C       15.64280        18.25099        -2.69381
| 71>    C       16.93423        17.99658        -3.12070
| 72>    S       17.26388        16.27053        -3.19568
| 73>    C       17.88363        18.98414        -3.51145
| 74>    S       17.30918        20.61285        -3.72995
| 75>    C       18.88059        21.15211        -4.21541
| 76>    C       19.79506        20.11413        -4.20161
| 77>    C       19.23878        18.88319        -3.78475
| 78>    C       19.98780        17.59078        -3.65277
| 79>    C       21.48369        17.77885        -3.52124
| 80>    S       22.00240        18.72127        -4.97918
| 81>    O       23.42588        18.91223        -4.96801
| 82>    O       21.41122        18.13837        -6.14944
| 83>    C       21.21277        20.31568        -4.61825
| 84>    C       19.11898        22.52709        -4.56038
| 85>    C       18.18837        23.47885        -4.54864
| 86>    H       -0.92153        -1.98223        -0.82380
| 87>    H       -3.41811        -1.37442        -0.15323
| 88>    H       -3.85409         0.27312        -0.62611
| 89>    H       -2.84380        -0.55270         2.14599
| 90>    H       -4.50164        -0.03030         1.73861
| 91>    H       -1.66891         3.30036         0.49645
| 92>    H       -2.97903         2.54758        -0.45101
| 93>    H        0.45737         3.45485        -0.14479
| 94>    H        2.74712         1.51919        -0.76321
| 95>    H        1.87664         5.31769        -0.21662
| 96>    H        6.72502         9.17319        -0.21739
| 97>    H       11.88236         6.13088        -0.83066
| 98>    H       10.33790         5.73173        -0.08065
| 99>    H       12.24332         5.54423         1.55820
|100>    H       11.12704         6.84937         2.04963
|101>    H       13.47235         7.94785        -1.09803
|102>    H       13.62833         9.49102        -0.21023
|103>    H       10.89792        12.22920        -0.87297
|104>    H       13.47887        10.84457        -1.76859
|105>    H       11.75286        14.33581        -1.21631
|106>    H       15.25523        19.24811        -2.58798
|107>    H       19.80120        16.98711        -4.54741
|108>    H       19.61066        17.03581        -2.78831
|109>    H       22.01353        16.83077        -3.51536
|110>    H       21.76795        18.36895        -2.65456
|111>    H       21.28237        20.90988        -5.52713
|112>    H       21.82100        20.77556        -3.84003
|113>    H       20.13603        22.76792        -4.83773
|114>    H       17.16861        23.26616        -4.27312
|115>    H       18.41856        24.49457        -4.81524
|116> *
|117>
|118>                          ****END OF INPUT****

CARTESIAN COORDINATES (ANGSTROEM)
---------------------------------
  C     -0.810620   -0.928730   -0.660690
  S      0.733870   -0.203710   -0.840150
  C      0.101750    1.369220   -0.418490
  C     -1.255480    1.289980   -0.175750
  C     -1.766470   -0.027260   -0.307700
  C     -3.196500   -0.318720    0.016630
  C     -3.451860    0.042960    1.470910
  S     -2.977850    1.788460    1.797820
  O     -4.174850    2.559770    1.990490
  O     -1.998560    1.795720    2.847990
  C     -2.166420    2.368230    0.249990
  C      0.943290    2.515840   -0.365570
  C      2.279830    2.474780   -0.561070
  C      3.155080    3.593200   -0.515640
  C      2.872800    4.936740   -0.343030
  C      4.025310    5.723470   -0.358430
  C      5.198650    4.972490   -0.538960
  S      4.880000    3.304850   -0.699240
  C      6.305080    5.858870   -0.536550
  C      5.836890    7.168470   -0.357540
  C      4.386380    7.128710   -0.241360
  C      3.542570    8.185530   -0.066930
  C      2.144330    8.017760    0.016530
  N      1.007530    7.880010    0.076320
  C      4.010970    9.512860    0.032010
  N      4.389080   10.592060    0.113610
  C      6.863320    8.114190   -0.341280
  C      8.112890    7.541300   -0.490660
  S      8.005370    5.793930   -0.673640
  C      9.347700    8.250670   -0.546230
  S      9.281800    9.973620   -0.812870
  C     11.017100   10.114000   -0.800380
  C     11.597220    8.878350   -0.566480
  C     10.659500    7.830500   -0.432210
  C     11.149680    6.458220   -0.087810
  C     11.809120    6.499750    1.280030
  S     13.197530    7.693560    1.250110
  O     13.013300    8.635040    2.317880
  O     14.435540    6.964410    1.206640
  C     13.030220    8.596320   -0.344620
  C     11.574570   11.402890   -1.041740
  C     12.817440   11.658740   -1.511320
  C     13.343700   12.959350   -1.740130
  C     12.758630   14.201240   -1.568040
  C     13.623720   15.242030   -1.906410
  C     14.884100   14.792310   -2.335550
  S     14.996890   13.091580   -2.330610
  C     15.684710   15.920720   -2.648570
  C     14.932810   17.082570   -2.418770
  C     13.610770   16.696390   -1.948620
  C     12.577020   17.523730   -1.623010
  C     11.330720   17.028380   -1.184740
  N     10.317900   16.624340   -0.830350
  C     12.683260   18.928070   -1.706560
  N     12.765850   20.069810   -1.772340
  C     15.642800   18.250990   -2.693810
  C     16.934230   17.996580   -3.120700
  S     17.263880   16.270530   -3.195680
  C     17.883630   18.984140   -3.511450
  S     17.309180   20.612850   -3.729950
  C     18.880590   21.152110   -4.215410
  C     19.795060   20.114130   -4.201610
  C     19.238780   18.883190   -3.784750
  C     19.987800   17.590780   -3.652770
  C     21.483690   17.778850   -3.521240
  S     22.002400   18.721270   -4.979180
  O     23.425880   18.912230   -4.968010
  O     21.411220   18.138370   -6.149440
  C     21.212770   20.315680   -4.618250
  C     19.118980   22.527090   -4.560380
  C     18.188370   23.478850   -4.548640
  H     -0.921530   -1.982230   -0.823800
  H     -3.418110   -1.374420   -0.153230
  H     -3.854090    0.273120   -0.626110
  H     -2.843800   -0.552700    2.145990
  H     -4.501640   -0.030300    1.738610
  H     -1.668910    3.300360    0.496450
  H     -2.979030    2.547580   -0.451010
  H      0.457370    3.454850   -0.144790
  H      2.747120    1.519190   -0.763210
  H      1.876640    5.317690   -0.216620
  H      6.725020    9.173190   -0.217390
  H     11.882360    6.130880   -0.830660
  H     10.337900    5.731730   -0.080650
  H     12.243320    5.544230    1.558200
  H     11.127040    6.849370    2.049630
  H     13.472350    7.947850   -1.098030
  H     13.628330    9.491020   -0.210230
  H     10.897920   12.229200   -0.872970
  H     13.478870   10.844570   -1.768590
  H     11.752860   14.335810   -1.216310
  H     15.255230   19.248110   -2.587980
  H     19.801200   16.987110   -4.547410
  H     19.610660   17.035810   -2.788310
  H     22.013530   16.830770   -3.515360
  H     21.767950   18.368950   -2.654560
  H     21.282370   20.909880   -5.527130
  H     21.821000   20.775560   -3.840030
  H     20.136030   22.767920   -4.837730
  H     17.168610   23.266160   -4.273120
  H     18.418560   24.494570   -4.815240

 Total Charge           Charge          ....    0
 Multiplicity           Mult            ....    1
 Number of Electrons    NEL             ....  572
 Basis Dimension        Dim             .... 1184

ORBITAL ENERGIES
----------------

  NO   OCC          E(Eh)            E(eV)
   0   2.0000     -89.137171     -2425.5457
   1   2.0000     -89.133212     -2425.4380
   2   2.0000     -89.129501     -2425.3370
   3   2.0000     -88.996174     -2421.7090
   4   2.0000     -88.994224     -2421.6560
   5   2.0000     -88.990330     -2421.5500
   6   2.0000     -88.990206     -2421.5466
   7   2.0000     -88.969750     -2420.9900
   8   2.0000     -88.965707     -2420.8800
   9   2.0000     -88.965003     -2420.8608
  10   2.0000     -19.193877      -522.2919
  11   2.0000     -19.188948      -522.1578
  12   2.0000     -19.186868      -522.1012
  13   2.0000     -19.186758      -522.0982
  14   2.0000     -19.182790      -521.9903
  15   2.0000     -19.182555      -521.9838
  16   2.0000     -14.432282      -392.7224
  17   2.0000     -14.431572      -392.7030
  18   2.0000     -14.431214      -392.6933
  19   2.0000     -14.431068      -392.6893
  20   2.0000     -10.366937      -282.0987
  21   2.0000     -10.365739      -282.0661
  22   2.0000     -10.353993      -281.7465
  23   2.0000     -10.352982      -281.7190
  24   2.0000     -10.334518      -281.2165
  25   2.0000     -10.333183      -281.1802
  26   2.0000     -10.332969      -281.1744
  27   2.0000     -10.332535      -281.1626
  28   2.0000     -10.332088      -281.1504
  29   2.0000     -10.331589      -281.1368
  30   2.0000     -10.331462      -281.1334
  31   2.0000     -10.331285      -281.1286
  32   2.0000     -10.331201      -281.1263
  33   2.0000     -10.330918      -281.1186
  34   2.0000     -10.326180      -280.9897
  35   2.0000     -10.324379      -280.9406
  36   2.0000     -10.323680      -280.9216
  37   2.0000     -10.320868      -280.8451
  38   2.0000     -10.320034      -280.8224
  39   2.0000     -10.314837      -280.6810
  40   2.0000     -10.314552      -280.6732
  41   2.0000     -10.313528      -280.6454
  42   2.0000     -10.312088      -280.6062
  43   2.0000     -10.311944      -280.6023
  44   2.0000     -10.311354      -280.5862
  45   2.0000     -10.310597      -280.5656
  46   2.0000     -10.309943      -280.5478
  47   2.0000     -10.305719      -280.4329
  48   2.0000     -10.305640      -280.4307
  49   2.0000     -10.305410      -280.4245
  50   2.0000     -10.304900      -280.4106
  51   2.0000     -10.304565      -280.4015
  52   2.0000     -10.304228      -280.3923
  53   2.0000     -10.303818      -280.3812
  54   2.0000     -10.303816      -280.3811
  55   2.0000     -10.303661      -280.3769
  56   2.0000     -10.301803      -280.3263
  57   2.0000     -10.301334      -280.3135
  58   2.0000     -10.301173      -280.3092
  59   2.0000     -10.301072      -280.3064
  60   2.0000     -10.301060      -280.3061
  61   2.0000     -10.300965      -280.3035
  62   2.0000     -10.300928      -280.3025
  63   2.0000     -10.300631      -280.2944
  64   2.0000     -10.299689      -280.2688
  65   2.0000     -10.299594      -280.2662
  66   2.0000     -10.298855      -280.2461
  67   2.0000     -10.295837      -280.1640
  68   2.0000     -10.292516      -280.0736
  69   2.0000     -10.291746      -280.0527
  70   2.0000     -10.278535      -279.6931
  71   2.0000      -8.203623      -223.2319
  72   2.0000      -8.200040      -223.1344
  73   2.0000      -8.196200      -223.0299
  74   2.0000      -8.090278      -220.1477
  75   2.0000      -8.088027      -220.0864
  76   2.0000      -8.085157      -220.0083
  77   2.0000      -8.085026      -220.0047
  78   2.0000      -8.065359      -219.4696
  79   2.0000      -8.061242      -219.3576
  80   2.0000      -8.060849      -219.3468
  81   2.0000      -6.172480      -167.9617
  82   2.0000      -6.172116      -167.9518
  83   2.0000      -6.171800      -167.9432
  84   2.0000      -6.168788      -167.8613
  85   2.0000      -6.168555      -167.8549
  86   2.0000      -6.168137      -167.8436
  87   2.0000      -6.164934      -167.7564
  88   2.0000      -6.164714      -167.7504
  89   2.0000      -6.164354      -167.7406
  90   2.0000      -6.059601      -164.8901
  91   2.0000      -6.057400      -164.8302
  92   2.0000      -6.055420      -164.7764
  93   2.0000      -6.054325      -164.7465
  94   2.0000      -6.054199      -164.7431
  95   2.0000      -6.053026      -164.7112
  96   2.0000      -6.052596      -164.6995
  97   2.0000      -6.050460      -164.6414
  98   2.0000      -6.050198      -164.6343
  99   2.0000      -6.050077      -164.6310
 100   2.0000      -6.047623      -164.5642
 101   2.0000      -6.047497      -164.5607
 102   2.0000      -6.034734      -164.2135
 103   2.0000      -6.030546      -164.0995
 104   2.0000      -6.030537      -164.0992
 105   2.0000      -6.030150      -164.0887
 106   2.0000      -6.027284      -164.0107
 107   2.0000      -6.026495      -163.9893
 108   2.0000      -6.025884      -163.9727
 109   2.0000      -6.023215      -163.9000
 110   2.0000      -6.023056      -163.8957
 111   2.0000      -1.199457       -32.6389
 112   2.0000      -1.194553       -32.5054
 113   2.0000      -1.190237       -32.3880
 114   2.0000      -1.078285       -29.3416
 115   2.0000      -1.073339       -29.2070
 116   2.0000      -1.069277       -29.0965
 117   2.0000      -1.046782       -28.4844
 118   2.0000      -1.045564       -28.4512
 119   2.0000      -1.024022       -27.8650
 120   2.0000      -1.023074       -27.8393
 121   2.0000      -1.014572       -27.6079
 122   2.0000      -1.011231       -27.5170
 123   2.0000      -1.009366       -27.4662
 124   2.0000      -1.008500       -27.4427
 125   2.0000      -1.003659       -27.3110
 126   2.0000      -0.996013       -27.1029
 127   2.0000      -0.993491       -27.0343
 128   2.0000      -0.962010       -26.1776
 129   2.0000      -0.960417       -26.1343
 130   2.0000      -0.937279       -25.5047
 131   2.0000      -0.932946       -25.3868
 132   2.0000      -0.932571       -25.3765
 133   2.0000      -0.926741       -25.2179
 134   2.0000      -0.920442       -25.0465
 135   2.0000      -0.910388       -24.7729
 136   2.0000      -0.900705       -24.5094
 137   2.0000      -0.894059       -24.3286
 138   2.0000      -0.883483       -24.0408
 139   2.0000      -0.881411       -23.9844
 140   2.0000      -0.877338       -23.8736
 141   2.0000      -0.869332       -23.6557
 142   2.0000      -0.866995       -23.5921
 143   2.0000      -0.857674       -23.3385
 144   2.0000      -0.856973       -23.3194
 145   2.0000      -0.846892       -23.0451
 146   2.0000      -0.834588       -22.7103
 147   2.0000      -0.832916       -22.6648
 148   2.0000      -0.824237       -22.4286
 149   2.0000      -0.819902       -22.3107
 150   2.0000      -0.808595       -22.0030
 151   2.0000      -0.790672       -21.5153
 152   2.0000      -0.779291       -21.2056
 153   2.0000      -0.777570       -21.1588
 154   2.0000      -0.768494       -20.9118
 155   2.0000      -0.759157       -20.6577
 156   2.0000      -0.752866       -20.4865
 157   2.0000      -0.749356       -20.3910
 158   2.0000      -0.743166       -20.2226
 159   2.0000      -0.730086       -19.8667
 160   2.0000      -0.718422       -19.5493
 161   2.0000      -0.709203       -19.2984
 162   2.0000      -0.697705       -18.9855
 163   2.0000      -0.696824       -18.9615
 164   2.0000      -0.691080       -18.8052
 165   2.0000      -0.686190       -18.6722
 166   2.0000      -0.683400       -18.5963
 167   2.0000      -0.681606       -18.5474
 168   2.0000      -0.668318       -18.1859
 169   2.0000      -0.661724       -18.0064
 170   2.0000      -0.656188       -17.8558
 171   2.0000      -0.646714       -17.5980
 172   2.0000      -0.638570       -17.3764
 173   2.0000      -0.637740       -17.3538
 174   2.0000      -0.636634       -17.3237
 175   2.0000      -0.624014       -16.9803
 176   2.0000      -0.623355       -16.9624
 177   2.0000      -0.622310       -16.9339
 178   2.0000      -0.619150       -16.8479
 179   2.0000      -0.616111       -16.7652
 180   2.0000      -0.612955       -16.6794
 181   2.0000      -0.607648       -16.5350
 182   2.0000      -0.604831       -16.4583
 183   2.0000      -0.599245       -16.3063
 184   2.0000      -0.593246       -16.1430
 185   2.0000      -0.591242       -16.0885
 186   2.0000      -0.587945       -15.9988
 187   2.0000      -0.585133       -15.9223
 188   2.0000      -0.571267       -15.5450
 189   2.0000      -0.570242       -15.5171
 190   2.0000      -0.565573       -15.3900
 191   2.0000      -0.563769       -15.3409
 192   2.0000      -0.559078       -15.2133
 193   2.0000      -0.556642       -15.1470
 194   2.0000      -0.550776       -14.9874
 195   2.0000      -0.549488       -14.9523
 196   2.0000      -0.548783       -14.9332
 197   2.0000      -0.547673       -14.9029
 198   2.0000      -0.545418       -14.8416
 199   2.0000      -0.540130       -14.6977
 200   2.0000      -0.535102       -14.5609
 201   2.0000      -0.532668       -14.4946
 202   2.0000      -0.528575       -14.3832
 203   2.0000      -0.526322       -14.3220
 204   2.0000      -0.525671       -14.3042
 205   2.0000      -0.519752       -14.1432
 206   2.0000      -0.518668       -14.1137
 207   2.0000      -0.515784       -14.0352
 208   2.0000      -0.514513       -14.0006
 209   2.0000      -0.513122       -13.9628
 210   2.0000      -0.510918       -13.9028
 211   2.0000      -0.508762       -13.8441
 212   2.0000      -0.506659       -13.7869
 213   2.0000      -0.505137       -13.7455
 214   2.0000      -0.504826       -13.7370
 215   2.0000      -0.503496       -13.7008
 216   2.0000      -0.501547       -13.6478
 217   2.0000      -0.498621       -13.5682
 218   2.0000      -0.496780       -13.5181
 219   2.0000      -0.494937       -13.4679
 220   2.0000      -0.493985       -13.4420
 221   2.0000      -0.489949       -13.3322
 222   2.0000      -0.486395       -13.2355
 223   2.0000      -0.482639       -13.1333
 224   2.0000      -0.480434       -13.0733
 225   2.0000      -0.478965       -13.0333
 226   2.0000      -0.476659       -12.9706
 227   2.0000      -0.474416       -12.9095
 228   2.0000      -0.473103       -12.8738
 229   2.0000      -0.471970       -12.8430
 230   2.0000      -0.471424       -12.8281
 231   2.0000      -0.468926       -12.7601
 232   2.0000      -0.466372       -12.6906
 233   2.0000      -0.462704       -12.5908
 234   2.0000      -0.462132       -12.5753
 235   2.0000      -0.460926       -12.5424
 236   2.0000      -0.458763       -12.4836
 237   2.0000      -0.458439       -12.4748
 238   2.0000      -0.455226       -12.3873
 239   2.0000      -0.453516       -12.3408
 240   2.0000      -0.451455       -12.2847
 241   2.0000      -0.450432       -12.2569
 242   2.0000      -0.446279       -12.1439
 243   2.0000      -0.444427       -12.0935
 244   2.0000      -0.441949       -12.0260
 245   2.0000      -0.441355       -12.0099
 246   2.0000      -0.440646       -11.9906
 247   2.0000      -0.440117       -11.9762
 248   2.0000      -0.439255       -11.9527
 249   2.0000      -0.436730       -11.8840
 250   2.0000      -0.432583       -11.7712
 251   2.0000      -0.429850       -11.6968
 252   2.0000      -0.426863       -11.6155
 253   2.0000      -0.426193       -11.5973
 254   2.0000      -0.423329       -11.5194
 255   2.0000      -0.421687       -11.4747
 256   2.0000      -0.419357       -11.4113
 257   2.0000      -0.402210       -10.9447
 258   2.0000      -0.401105       -10.9146
 259   2.0000      -0.400278       -10.8921
 260   2.0000      -0.397322       -10.8117
 261   2.0000      -0.394707       -10.7405
 262   2.0000      -0.391474       -10.6526
 263   2.0000      -0.389196       -10.5906
 264   2.0000      -0.382855       -10.4180
 265   2.0000      -0.378736       -10.3059
 266   2.0000      -0.377129       -10.2622
 267   2.0000      -0.366476        -9.9723
 268   2.0000      -0.362582        -9.8664
 269   2.0000      -0.359341        -9.7782
 270   2.0000      -0.358535        -9.7562
 271   2.0000      -0.356458        -9.6997
 272   2.0000      -0.354952        -9.6587
 273   2.0000      -0.353109        -9.6086
 274   2.0000      -0.351938        -9.5767
 275   2.0000      -0.348568        -9.4850
 276   2.0000      -0.331535        -9.0215
 277   2.0000      -0.326366        -8.8809
 278   2.0000      -0.325577        -8.8594
 279   2.0000      -0.323907        -8.8140
 280   2.0000      -0.323473        -8.8022
 281   2.0000      -0.318867        -8.6768
 282   2.0000      -0.304982        -8.2990
 283   2.0000      -0.280864        -7.6427
 284   2.0000      -0.254238        -6.9182
 285   2.0000      -0.237218        -6.4550
 286   0.0000      -0.107482        -2.9247
 287   0.0000      -0.104458        -2.8425
 288   0.0000      -0.066530        -1.8104
 289   0.0000      -0.052150        -1.4191
 290   0.0000      -0.040171        -1.0931

MULLIKEN ATOMIC CHARGES
-----------------------
   0 C :   -0.121968
   1 S :    0.110446
   2 C :   -0.109212
   3 C :   -0.050058
   4 C :   -0.074914
   5 C :    0.109840
   6 C :    0.016528
   7 S :    0.637529
   8 O :   -0.461837
   9 O :   -0.460115
  10 C :    0.115635
  11 C :    0.011113
  12 C :    0.036551
  13 C :   -0.078676
  14 C :   -0.028468
  15 C :    0.001104
  16 C :   -0.100471
  17 S :    0.185117
  18 C :   -0.098752
  19 C :    0.027024
  20 C :    0.297412
  21 C :   -0.292096
  22 C :   -0.183451
  23 N :    0.167870
  24 C :   -0.187298
  25 N :    0.178170
  26 C :   -0.070183
  27 C :   -0.053133
  28 S :    0.161680
  29 C :   -0.118703
  30 S :    0.146846
  31 C :   -0.112170
  32 C :   -0.072727
  33 C :   -0.098164
  34 C :    0.079628
  35 C :    0.028127
  36 S :    0.642437
  37 O :   -0.455828
  38 O :   -0.465713
  39 C :    0.097664
  40 C :    0.043507
  41 C :    0.037156
  42 C :   -0.095283
  43 C :   -0.021198
  44 C :   -0.003308
  45 C :   -0.099674
  46 S :    0.184624
  47 C :   -0.094156
  48 C :    0.030134
  49 C :    0.303698
  50 C :   -0.295984
  51 C :   -0.184781
  52 N :    0.174891
  53 C :   -0.188217
  54 N :    0.171481
  55 C :   -0.067566
  56 C :   -0.076376
  57 S :    0.158586
  58 C :   -0.096362
  59 S :    0.126029
  60 C :   -0.093794
  61 C :   -0.084819
  62 C :   -0.070865
  63 C :    0.082758
  64 C :   -0.036696
  65 S :    0.673494
  66 O :   -0.453560
  67 O :   -0.450866
  68 C :    0.058144
  69 C :   -0.008919
  70 C :   -0.018989
  71 H :    0.019352
  72 H :    0.020466
  73 H :    0.029643
  74 H :    0.056636
  75 H :    0.061459
  76 H :    0.061268
  77 H :    0.052027
  78 H :   -0.007551
  79 H :   -0.008030
  80 H :    0.004265
  81 H :    0.019039
  82 H :    0.031661
  83 H :    0.023086
  84 H :    0.063869
  85 H :    0.058635
  86 H :    0.052633
  87 H :    0.062739
  88 H :    0.003120
  89 H :   -0.012352
  90 H :    0.008672
  91 H :    0.016483
  92 H :    0.060270
  93 H :    0.037175
  94 H :    0.067221
  95 H :    0.053848
  96 H :    0.077447
  97 H :    0.066015
  98 H :   -0.003567
  99 H :    0.032821
 100 H :    0.031773
Sum of atomic charges:   -0.0000000

LOEWDIN ATOMIC CHARGES
----------------------
   0 C :   -0.182507
   1 S :    0.437746
   2 C :   -0.161274
   3 C :   -0.091354
   4 C :   -0.074790
   5 C :   -0.033429
   6 C :   -0.132032
   7 S :    1.156899
   8 O :   -0.521225
   9 O :   -0.516534
  10 C :   -0.126719
  11 C :   -0.026024
  12 C :   -0.050524
  13 C :   -0.161243
  14 C :   -0.028226
  15 C :   -0.066472
  16 C :   -0.188497
  17 S :    0.474755
  18 C :   -0.181275
  19 C :   -0.069216
  20 C :    0.082396
  21 C :   -0.099012
  22 C :   -0.014913
  23 N :   -0.032323
  24 C :   -0.017639
  25 N :   -0.027996
  26 C :   -0.035902
  27 C :   -0.181797
  28 S :    0.478423
  29 C :   -0.185288
  30 S :    0.458048
  31 C :   -0.157125
  32 C :   -0.090804
  33 C :   -0.070290
  34 C :   -0.042681
  35 C :   -0.129875
  36 S :    1.158370
  37 O :   -0.514001
  38 O :   -0.523350
  39 C :   -0.133266
  40 C :   -0.035298
  41 C :   -0.041803
  42 C :   -0.165990
  43 C :   -0.024556
  44 C :   -0.069232
  45 C :   -0.182177
  46 S :    0.474209
  47 C :   -0.188839
  48 C :   -0.065793
  49 C :    0.082802
  50 C :   -0.100487
  51 C :   -0.016229
  52 N :   -0.031122
  53 C :   -0.016401
  54 N :   -0.031566
  55 C :   -0.039509
  56 C :   -0.176530
  57 S :    0.490553
  58 C :   -0.182479
  59 S :    0.459951
  60 C :   -0.167309
  61 C :   -0.085055
  62 C :   -0.065848
  63 C :   -0.058429
  64 C :   -0.135691
  65 S :    1.163204
  66 O :   -0.516445
  67 O :   -0.510184
  68 C :   -0.137822
  69 C :   -0.044649
  70 C :   -0.033012
  71 H :    0.024600
  72 H :    0.040966
  73 H :    0.036530
  74 H :    0.038791
  75 H :    0.038802
  76 H :    0.044810
  77 H :    0.039389
  78 H :    0.034630
  79 H :    0.022166
  80 H :    0.038642
  81 H :    0.036264
  82 H :    0.038383
  83 H :    0.019109
  84 H :    0.040105
  85 H :    0.040059
  86 H :    0.038152
  87 H :    0.044170
  88 H :    0.034628
  89 H :    0.026748
  90 H :    0.039663
  91 H :    0.034593
  92 H :    0.041779
  93 H :    0.025893
  94 H :    0.044071
  95 H :    0.033872
  96 H :    0.049162
  97 H :    0.041836
  98 H :    0.033191
  99 H :    0.021266
 100 H :    0.030429

  Mayer bond orders larger than 0.100000
B(  0-C ,  1-S ) :   1.1506 B(  0-C ,  4-C ) :   1.6044 B(  0-C , 71-H ) :   0.9695
B(  1-S ,  2-C ) :   1.1317 B(  2-C ,  3-C ) :   1.5232 B(  2-C , 11-C ) :   1.1577
B(  3-C ,  4-C ) :   1.2662 B(  3-C , 10-C ) :   1.0413 B(  4-C ,  5-C ) :   1.0483
B(  5-C ,  6-C ) :   1.0970 B(  5-C , 72-H ) :   0.9203 B(  5-C , 73-H ) :   0.9073
B(  6-C ,  7-S ) :   0.8259 B(  6-C , 74-H ) :   0.9282 B(  6-C , 75-H ) :   0.9298
B(  7-S ,  8-O ) :   1.7216 B(  7-S ,  9-O ) :   1.7114 B(  7-S , 10-C ) :   0.8355
B( 10-C , 76-H ) :   0.9088 B( 10-C , 77-H ) :   0.9054 B( 11-C , 12-C ) :   1.7021
B( 11-C , 78-H ) :   0.9688 B( 12-C , 13-C ) :   1.1147 B( 12-C , 79-H ) :   0.9572
B( 13-C , 14-C ) :   1.4655 B( 13-C , 17-S ) :   1.1059 B( 14-C , 15-C ) :   1.2989
B( 14-C , 80-H ) :   0.9904 B( 15-C , 16-C ) :   1.4394 B( 15-C , 20-C ) :   0.9994
B( 16-C , 17-S ) :   1.1197 B( 16-C , 18-C ) :   1.1835 B( 18-C , 19-C ) :   1.4479
B( 18-C , 28-S ) :   1.1175 B( 19-C , 20-C ) :   0.9943 B( 19-C , 26-C ) :   1.2880
B( 20-C , 21-C ) :   1.7150 B( 21-C , 22-C ) :   1.1343 B( 21-C , 24-C ) :   1.1308
B( 22-C , 23-N ) :   2.9854 B( 24-C , 25-N ) :   2.9921 B( 26-C , 27-C ) :   1.4597
B( 26-C , 81-H ) :   0.9886 B( 27-C , 28-S ) :   1.0996 B( 27-C , 29-C ) :   1.1320
B( 29-C , 30-S ) :   1.1337 B( 29-C , 31-C ) :   0.1034 B( 29-C , 33-C ) :   1.5473
B( 30-S , 31-C ) :   1.1222 B( 31-C , 32-C ) :   1.5433 B( 31-C , 40-C ) :   1.1121
B( 32-C , 33-C ) :   1.2865 B( 32-C , 39-C ) :   1.0358 B( 33-C , 34-C ) :   1.0574
B( 34-C , 35-C ) :   1.0990 B( 34-C , 82-H ) :   0.8982 B( 34-C , 83-H ) :   0.9066
B( 35-C , 36-S ) :   0.8330 B( 35-C , 84-H ) :   0.9290 B( 35-C , 85-H ) :   0.9276
B( 36-S , 37-O ) :   1.7221 B( 36-S , 38-O ) :   1.7165 B( 36-S , 39-C ) :   0.8333
B( 39-C , 86-H ) :   0.9041 B( 39-C , 87-H ) :   0.9012 B( 40-C , 41-C ) :   1.7117
B( 40-C , 88-H ) :   0.9464 B( 41-C , 42-C ) :   1.1265 B( 41-C , 89-H ) :   0.9535
B( 42-C , 43-C ) :   1.4667 B( 42-C , 46-S ) :   1.1016 B( 43-C , 44-C ) :   1.3032
B( 43-C , 90-H ) :   0.9866 B( 44-C , 45-C ) :   1.4354 B( 44-C , 49-C ) :   1.0002
B( 45-C , 46-S ) :   1.1263 B( 45-C , 47-C ) :   1.1818 B( 47-C , 48-C ) :   1.4447
B( 47-C , 57-S ) :   1.1146 B( 48-C , 49-C ) :   0.9905 B( 48-C , 55-C ) :   1.2975
B( 49-C , 50-C ) :   1.7146 B( 50-C , 51-C ) :   1.1331 B( 50-C , 53-C ) :   1.1318
B( 51-C , 52-N ) :   2.9903 B( 53-C , 54-N ) :   2.9906 B( 55-C , 56-C ) :   1.4535
B( 55-C , 91-H ) :   0.9877 B( 56-C , 57-S ) :   1.1017 B( 56-C , 58-C ) :   1.1402
B( 58-C , 59-S ) :   1.1376 B( 58-C , 60-C ) :   0.1011 B( 58-C , 62-C ) :   1.5511
B( 59-S , 60-C ) :   1.1162 B( 60-C , 61-C ) :   1.5485 B( 60-C , 69-C ) :   1.1223
B( 61-C , 62-C ) :   1.2835 B( 61-C , 68-C ) :   1.0019 B( 62-C , 63-C ) :   1.0557
B( 63-C , 64-C ) :   1.0267 B( 63-C , 92-H ) :   0.9040 B( 63-C , 93-H ) :   0.9008
B( 64-C , 65-S ) :   0.8710 B( 64-C , 94-H ) :   0.9290 B( 64-C , 95-H ) :   0.9395
B( 65-S , 66-O ) :   1.7422 B( 65-S , 67-O ) :   1.7068 B( 65-S , 68-C ) :   0.8471
B( 68-C , 96-H ) :   0.9007 B( 68-C , 97-H ) :   0.9163 B( 69-C , 70-C ) :   1.9185
B( 69-C , 98-H ) :   0.9580 B( 70-C , 99-H ) :   0.9576 B( 70-C ,100-H ) :   0.9487

-----------------------------------------------------------------------------
         ABSORPTION SPECTRUM VIA TRANSITION ELECTRIC DIPOLE MOMENTS
-----------------------------------------------------------------------------
State   Energy  Wavelength   fosc         T2         TX        TY        TZ
        (cm-1)    (nm)                  (au**2)     (au)      (au)      (au)
-----------------------------------------------------------------------------
   0   11518.6    868.2   0.327344089   9.35582  -2.17445  -2.12030   0.36315
   1   11858.3    843.3   0.012002220   0.33321  -0.06475  -0.48013   0.31383
   2   20124.7    496.9   0.219711919   3.59417   1.17943   1.45262  -0.30497
   3   20628.9    484.8   0.334549787   5.33900   1.66456   1.57619  -0.28960
   4   22411.7    446.2   2.411931464  35.42960   3.99732   4.32569  -0.85991
   5   25576.9    391.0   0.098603254   1.26917  -0.77054  -0.81324   0.11869
   6   25677.2    389.5   0.016045362   0.20572   0.34077   0.29925   0.00677
   7   26542.1    376.8   0.121858532   1.51146   0.97751  -0.01530   0.74545
   8   29155.2    343.0   0.406754007   4.59295  -1.35367  -1.62122   0.36355
   9   29692.9    336.8   0.050338880   0.55812  -0.62708  -0.35352   0.19980
  10   30382.3    329.1   0.053261867   0.57713   0.53234   0.53368  -0.09447
  11   30504.6    327.8   0.000656957   0.00709  -0.01381   0.01405  -0.08187
  12   31987.0    312.6   0.322882445   3.32313  -1.32185   1.21836   0.30239
  13   32256.2    310.0   0.399071850   4.07299  -1.61227   1.07873   0.55668
  14   32350.7    309.1   0.535242235   5.44681  -1.24609   1.95012   0.30182
  15   32624.5    306.5   0.350046285   3.53229   0.74908  -1.71044  -0.21350
  16   33505.3    298.5   0.169062668   1.66116  -1.26344   0.23162   0.10595
  17   33873.2    295.2   0.079246435   0.77019  -0.32892   0.81307  -0.03036
  18   33946.0    294.6   0.003773660   0.03660  -0.09984   0.12626   0.10338
  19   34303.8    291.5   0.403210454   3.86959   1.60434   1.09475  -0.31180
  20   34975.4    285.9   0.017432611   0.16409   0.18570  -0.19430   0.30307
  21   35432.2    282.2   0.036544670   0.33955  -0.05089   0.55327  -0.17566
  22   35884.2    278.7   0.107215772   0.98363  -0.86223  -0.48129   0.09241
  23   36779.7    271.9   0.014720625   0.13176  -0.23582  -0.27326   0.03850
  24   36810.7    271.7   0.027806751   0.24869  -0.31400   0.38719  -0.01313
  25   37175.3    269.0   0.028785618   0.25492   0.37457  -0.28430  -0.18380
  26   38409.1    260.4   0.005159998   0.04423   0.09095  -0.18802   0.02458
  27   38813.7    257.6   0.015522043   0.13166   0.14212  -0.32846   0.05979
  28   39375.4    254.0   0.007850065   0.06563   0.22987  -0.11123  -0.02054
  29   40104.5    249.3   0.027435289   0.22521  -0.23389   0.37399  -0.17503

FINAL SINGLE POINT ENERGY     -6608.889197193618

DIPOLE MOMENT
-------------
                                X             Y             Z
Electronic contribution:     -0.05703       8.02310       0.38696
Nuclear contribution   :      0.46575     -11.36085      -2.48051
                        -----------------------------------------
Total Dipole Moment    :      0.40872      -3.33775      -2.09355
                        -----------------------------------------
Magnitude (a.u.)       :      3.96113
Magnitude (Debye)      :     10.06840

Rotational constants in cm-1:     0.002173     0.000147     0.000140
Rotational constants in MHz :    65.150623     4.395613     4.211980

                             ****ORCA TERMINATED NORMALLY****
TOTAL RUN TIME: 0 days 0 hours 9 minutes 10 seconds 432 msec
