                         Program Version 4.2.0 -  RELEASE  -
|  1> # ORCA input file
|  2> # SCF done       -230.561498370934          0.000912831955
|  3> ! CAM-B3LYP def2-SVP def2/J RIJCOSX Grid4 TightSCF
|  4> %maxcore 5000
|  5> %tddft
|  6>     Mode sTDDFT
|  7>     Ethresh 5.0
|  8>     maxcore 5000
|  9> end
| 10>
| 11> %pal
| 12>   nprocs 6
| 13>   end
| 14> * xyz 0 1
| 15>    C       -2.12742        -0.82413         3.44356
| 16>    C       -2.90242        -1.96137         3.60530
| 17>    C       -2.42127        -3.21512         3.23661
| 18>    C       -1.14661        -3.36220         2.70006
| 19>    C       -0.37759        -2.22677         2.54420
| 20>    C       -0.85373        -0.95244         2.90382
| 21>    C        0.17095         0.04729         2.61648
| 22>    C        0.07515         1.38796         2.84001
| 23>    C       -1.05754         2.02729         3.39530
| 24>    N       -1.94442         2.60194         3.84029
| 25>    C        1.09597         2.32370         2.55194
| 26>    N        1.88107         3.13353         2.34583
| 27>    C        1.32229        -0.65834         2.04921
| 28>    C        2.49340        -0.19232         1.60959
| 29>    C        0.99643        -2.12051         2.01116
| 30>    O        1.71602        -3.00925         1.63284
| 31>    C       -3.31603        -4.42026         3.37366
| 32>    F       -5.00962        -3.43097         2.06421
| 33>    F       -2.59194        -5.56648         3.48113
| 34>    F       -4.06890        -4.35702         4.49873
| 35>    C       -4.24964        -4.56947         2.13361
| 36>    C       -3.45811        -4.78616         0.88252
| 37>    C       -3.67944        -5.97983         0.31497
| 38>    C       -4.67805        -6.80685         0.97357
| 39>    S       -5.36801        -6.04504         2.35431
| 40>    C       -4.80298        -7.98087         0.28396
| 41>    C       -3.89167        -7.96763        -0.83997
| 42>    C       -3.17221        -6.71884        -0.84107
| 43>    C       -2.21325        -6.29413        -1.71524
| 44>    C       -1.79155        -7.08749        -2.80324
| 45>    N       -1.45302        -7.73240        -3.68829
| 46>    C       -1.59137        -5.03532        -1.58179
| 47>    N       -1.09346        -4.00893        -1.46440
| 48>    C       -3.95232        -9.10961        -1.59212
| 49>    C       -4.89485       -10.02620        -1.08395
| 50>    S       -5.72266        -9.44067         0.36665
| 51>    C       -5.22136       -11.27245        -1.57530
| 52>    C       -6.18999       -12.11031        -0.97618
| 53>    C       -6.37141       -13.35583        -1.64200
| 54>    N       -7.30111       -14.21130        -1.23766
| 55>    C       -8.01644       -13.86058        -0.17624
| 56>    C       -9.11451       -14.78322         0.21973
| 57>    O       -9.45944       -15.71634        -0.46808
| 58>    C       -9.77556       -14.44763         1.49662
| 59>    C       -9.52047       -13.33248         2.18608
| 60>    C       -8.54345       -12.31315         1.75591
| 61>    O       -8.37290       -11.27841         2.36110
| 62>    C       -7.78213       -12.65630         0.52638
| 63>    N       -6.87486       -11.78188         0.10959
| 64>    C       -5.51291       -13.50461        -2.76538
| 65>    S       -4.54082       -12.05842        -2.98367
| 66>    C       -5.44178       -14.60815        -3.59026
| 67>    C       -6.10661       -15.83474        -3.37033
| 68>    C       -5.84154       -16.74830        -4.35141
| 69>    C       -4.98187       -16.23687        -5.39919
| 70>    S       -4.47182       -14.62180        -5.07178
| 71>    C       -4.83774       -17.18574        -6.36629
| 72>    C       -5.59359       -18.36924        -5.97965
| 73>    C       -6.20198       -18.10622        -4.67470
| 74>    C       -6.90385       -18.99030        -3.90901
| 75>    C       -7.20245       -20.29714        -4.34959
| 76>    N       -7.45618       -21.35848        -4.70110
| 77>    C       -7.33181       -18.68591        -2.59716
| 78>    N       -7.64273       -18.48332        -1.51301
| 79>    C       -5.56063       -19.38192        -6.85607
| 80>    C       -4.70470       -19.10624        -8.05127
| 81>    S       -4.05412       -17.37150        -7.89440
| 82>    C       -3.49975       -20.09359        -8.15047
| 83>    C       -2.72843       -19.91096        -9.42988
| 84>    C       -3.15449       -20.57655       -10.57428
| 85>    C       -2.45416       -20.35902       -11.74367
| 86>    C       -1.34365       -19.49581       -11.79500
| 87>    C       -0.93356       -18.83743       -10.64280
| 88>    C       -1.63431       -19.05024        -9.46654
| 89>    C       -0.80946       -19.47025       -13.15345
| 90>    C        0.28641       -18.78055       -13.57801
| 91>    C        1.08584       -17.96115       -12.74783
| 92>    N        1.76993       -17.28354       -12.12497
| 93>    C        0.77835       -18.79694       -14.90394
| 94>    N        1.22874       -18.76781       -15.95798
| 95>    C       -1.65784       -20.33915       -13.97189
| 96>    C       -1.61369       -20.61514       -15.27717
| 97>    C       -2.70534       -20.93522       -13.08049
| 98>    O       -3.56354       -21.71548       -13.40559
| 99>    F       -3.97310       -21.36067        -8.03899
|100>    F       -5.41045       -19.21277        -9.22073
|101>    F       -2.72015       -19.90431        -7.05226
|102>    H       -2.52431         0.13379         3.73618
|103>    H       -3.89368        -1.87853         4.02360
|104>    H       -0.75606        -4.32876         2.42048
|105>    H        2.76902         0.84732         1.61445
|106>    H        3.21409        -0.89667         1.22406
|107>    H       -2.79795        -4.01098         0.53858
|108>    H       -3.37010        -9.32270        -2.47148
|109>    H      -10.51372       -15.16373         1.83116
|110>    H      -10.04034       -13.10608         3.10712
|111>    H       -6.74454       -15.97482        -2.51512
|112>    H       -6.05567       -20.33394        -6.78378
|113>    H       -4.00119       -21.24508       -10.55742
|114>    H       -0.08882       -18.16871       -10.64305
|115>    H       -1.32140       -18.55053        -8.56257
|116>    H       -0.88900       -20.20376       -15.95717
|117>    H       -2.34926       -21.29195       -15.68326
|118> *
|119>
|120>                          ****END OF INPUT****

CARTESIAN COORDINATES (ANGSTROEM)
---------------------------------
  C     -2.127420   -0.824130    3.443560
  C     -2.902420   -1.961370    3.605300
  C     -2.421270   -3.215120    3.236610
  C     -1.146610   -3.362200    2.700060
  C     -0.377590   -2.226770    2.544200
  C     -0.853730   -0.952440    2.903820
  C      0.170950    0.047290    2.616480
  C      0.075150    1.387960    2.840010
  C     -1.057540    2.027290    3.395300
  N     -1.944420    2.601940    3.840290
  C      1.095970    2.323700    2.551940
  N      1.881070    3.133530    2.345830
  C      1.322290   -0.658340    2.049210
  C      2.493400   -0.192320    1.609590
  C      0.996430   -2.120510    2.011160
  O      1.716020   -3.009250    1.632840
  C     -3.316030   -4.420260    3.373660
  F     -5.009620   -3.430970    2.064210
  F     -2.591940   -5.566480    3.481130
  F     -4.068900   -4.357020    4.498730
  C     -4.249640   -4.569470    2.133610
  C     -3.458110   -4.786160    0.882520
  C     -3.679440   -5.979830    0.314970
  C     -4.678050   -6.806850    0.973570
  S     -5.368010   -6.045040    2.354310
  C     -4.802980   -7.980870    0.283960
  C     -3.891670   -7.967630   -0.839970
  C     -3.172210   -6.718840   -0.841070
  C     -2.213250   -6.294130   -1.715240
  C     -1.791550   -7.087490   -2.803240
  N     -1.453020   -7.732400   -3.688290
  C     -1.591370   -5.035320   -1.581790
  N     -1.093460   -4.008930   -1.464400
  C     -3.952320   -9.109610   -1.592120
  C     -4.894850  -10.026200   -1.083950
  S     -5.722660   -9.440670    0.366650
  C     -5.221360  -11.272450   -1.575300
  C     -6.189990  -12.110310   -0.976180
  C     -6.371410  -13.355830   -1.642000
  N     -7.301110  -14.211300   -1.237660
  C     -8.016440  -13.860580   -0.176240
  C     -9.114510  -14.783220    0.219730
  O     -9.459440  -15.716340   -0.468080
  C     -9.775560  -14.447630    1.496620
  C     -9.520470  -13.332480    2.186080
  C     -8.543450  -12.313150    1.755910
  O     -8.372900  -11.278410    2.361100
  C     -7.782130  -12.656300    0.526380
  N     -6.874860  -11.781880    0.109590
  C     -5.512910  -13.504610   -2.765380
  S     -4.540820  -12.058420   -2.983670
  C     -5.441780  -14.608150   -3.590260
  C     -6.106610  -15.834740   -3.370330
  C     -5.841540  -16.748300   -4.351410
  C     -4.981870  -16.236870   -5.399190
  S     -4.471820  -14.621800   -5.071780
  C     -4.837740  -17.185740   -6.366290
  C     -5.593590  -18.369240   -5.979650
  C     -6.201980  -18.106220   -4.674700
  C     -6.903850  -18.990300   -3.909010
  C     -7.202450  -20.297140   -4.349590
  N     -7.456180  -21.358480   -4.701100
  C     -7.331810  -18.685910   -2.597160
  N     -7.642730  -18.483320   -1.513010
  C     -5.560630  -19.381920   -6.856070
  C     -4.704700  -19.106240   -8.051270
  S     -4.054120  -17.371500   -7.894400
  C     -3.499750  -20.093590   -8.150470
  C     -2.728430  -19.910960   -9.429880
  C     -3.154490  -20.576550  -10.574280
  C     -2.454160  -20.359020  -11.743670
  C     -1.343650  -19.495810  -11.795000
  C     -0.933560  -18.837430  -10.642800
  C     -1.634310  -19.050240   -9.466540
  C     -0.809460  -19.470250  -13.153450
  C      0.286410  -18.780550  -13.578010
  C      1.085840  -17.961150  -12.747830
  N      1.769930  -17.283540  -12.124970
  C      0.778350  -18.796940  -14.903940
  N      1.228740  -18.767810  -15.957980
  C     -1.657840  -20.339150  -13.971890
  C     -1.613690  -20.615140  -15.277170
  C     -2.705340  -20.935220  -13.080490
  O     -3.563540  -21.715480  -13.405590
  F     -3.973100  -21.360670   -8.038990
  F     -5.410450  -19.212770   -9.220730
  F     -2.720150  -19.904310   -7.052260
  H     -2.524310    0.133790    3.736180
  H     -3.893680   -1.878530    4.023600
  H     -0.756060   -4.328760    2.420480
  H      2.769020    0.847320    1.614450
  H      3.214090   -0.896670    1.224060
  H     -2.797950   -4.010980    0.538580
  H     -3.370100   -9.322700   -2.471480
  H    -10.513720  -15.163730    1.831160
  H    -10.040340  -13.106080    3.107120
  H     -6.744540  -15.974820   -2.515120
  H     -6.055670  -20.333940   -6.783780
  H     -4.001190  -21.245080  -10.557420
  H     -0.088820  -18.168710  -10.643050
  H     -1.321400  -18.550530   -8.562570
  H     -0.889000  -20.203760  -15.957170
  H     -2.349260  -21.291950  -15.683260

 Total Charge           Charge          ....    0
 Multiplicity           Mult            ....    1
 Number of Electrons    NEL             ....  624
 Basis Dimension        Dim             .... 1318

ORBITAL ENERGIES
----------------

  NO   OCC          E(Eh)            E(eV)
   0   2.0000     -88.988052     -2421.4880
   1   2.0000     -88.986503     -2421.4458
   2   2.0000     -88.980154     -2421.2731
   3   2.0000     -88.979939     -2421.2672
   4   2.0000     -88.978095     -2421.2171
   5   2.0000     -24.811814      -675.1638
   6   2.0000     -24.810314      -675.1230
   7   2.0000     -24.810005      -675.1146
   8   2.0000     -24.809888      -675.1114
   9   2.0000     -24.805796      -675.0000
  10   2.0000     -24.805598      -674.9946
  11   2.0000     -19.238624      -523.5096
  12   2.0000     -19.237101      -523.4681
  13   2.0000     -19.234401      -523.3947
  14   2.0000     -19.232801      -523.3511
  15   2.0000     -14.461479      -393.5168
  16   2.0000     -14.459319      -393.4581
  17   2.0000     -14.444115      -393.0444
  18   2.0000     -14.442913      -393.0117
  19   2.0000     -14.436720      -392.8431
  20   2.0000     -14.433709      -392.7612
  21   2.0000     -14.433568      -392.7573
  22   2.0000     -14.433021      -392.7425
  23   2.0000     -14.432257      -392.7217
  24   2.0000     -14.432018      -392.7152
  25   2.0000     -10.471988      -284.9573
  26   2.0000     -10.471312      -284.9389
  27   2.0000     -10.427728      -283.7529
  28   2.0000     -10.427088      -283.7355
  29   2.0000     -10.387454      -282.6570
  30   2.0000     -10.384764      -282.5838
  31   2.0000     -10.383203      -282.5413
  32   2.0000     -10.381555      -282.4965
  33   2.0000     -10.378527      -282.4141
  34   2.0000     -10.372289      -282.2443
  35   2.0000     -10.369119      -282.1581
  36   2.0000     -10.366450      -282.0854
  37   2.0000     -10.364986      -282.0456
  38   2.0000     -10.362308      -281.9727
  39   2.0000     -10.361220      -281.9431
  40   2.0000     -10.359322      -281.8915
  41   2.0000     -10.357883      -281.8523
  42   2.0000     -10.357302      -281.8365
  43   2.0000     -10.353971      -281.7459
  44   2.0000     -10.352746      -281.7125
  45   2.0000     -10.351022      -281.6656
  46   2.0000     -10.350078      -281.6399
  47   2.0000     -10.345686      -281.5204
  48   2.0000     -10.344954      -281.5005
  49   2.0000     -10.344840      -281.4974
  50   2.0000     -10.344201      -281.4800
  51   2.0000     -10.343666      -281.4655
  52   2.0000     -10.342759      -281.4408
  53   2.0000     -10.340600      -281.3820
  54   2.0000     -10.340347      -281.3752
  55   2.0000     -10.337655      -281.3019
  56   2.0000     -10.336451      -281.2691
  57   2.0000     -10.335722      -281.2493
  58   2.0000     -10.334931      -281.2278
  59   2.0000     -10.334534      -281.2170
  60   2.0000     -10.333486      -281.1884
  61   2.0000     -10.333281      -281.1829
  62   2.0000     -10.333021      -281.1758
  63   2.0000     -10.331838      -281.1436
  64   2.0000     -10.329478      -281.0794
  65   2.0000     -10.328578      -281.0549
  66   2.0000     -10.327765      -281.0328
  67   2.0000     -10.327390      -281.0226
  68   2.0000     -10.327292      -281.0199
  69   2.0000     -10.327104      -281.0148
  70   2.0000     -10.327030      -281.0128
  71   2.0000     -10.325247      -280.9643
  72   2.0000     -10.319802      -280.8161
  73   2.0000     -10.319735      -280.8143
  74   2.0000     -10.319659      -280.8122
  75   2.0000     -10.319320      -280.8030
  76   2.0000     -10.318433      -280.7788
  77   2.0000     -10.318189      -280.7722
  78   2.0000     -10.317506      -280.7536
  79   2.0000     -10.316380      -280.7230
  80   2.0000     -10.316262      -280.7198
  81   2.0000     -10.316188      -280.7177
  82   2.0000     -10.315577      -280.7011
  83   2.0000     -10.315510      -280.6993
  84   2.0000     -10.314450      -280.6705
  85   2.0000     -10.313329      -280.6400
  86   2.0000     -10.312886      -280.6279
  87   2.0000      -8.083542      -219.9644
  88   2.0000      -8.081994      -219.9222
  89   2.0000      -8.075812      -219.7540
  90   2.0000      -8.073786      -219.6989
  91   2.0000      -8.073727      -219.6973
  92   2.0000      -6.053455      -164.7229
  93   2.0000      -6.051910      -164.6808
  94   2.0000      -6.049274      -164.6091
  95   2.0000      -6.047834      -164.5699
  96   2.0000      -6.045849      -164.5159
  97   2.0000      -6.044304      -164.4739
  98   2.0000      -6.043814      -164.4605
  99   2.0000      -6.043738      -164.4585
 100   2.0000      -6.042629      -164.4283
 101   2.0000      -6.042097      -164.4138
 102   2.0000      -6.040019      -164.3573
 103   2.0000      -6.039302      -164.3378
 104   2.0000      -6.035746      -164.2410
 105   2.0000      -6.034497      -164.2070
 106   2.0000      -6.033678      -164.1847
 107   2.0000      -1.364760       -37.1370
 108   2.0000      -1.363963       -37.1153
 109   2.0000      -1.320614       -35.9357
 110   2.0000      -1.320133       -35.9227
 111   2.0000      -1.295210       -35.2445
 112   2.0000      -1.294726       -35.2313
 113   2.0000      -1.155960       -31.4553
 114   2.0000      -1.150970       -31.3195
 115   2.0000      -1.150163       -31.2975
 116   2.0000      -1.148361       -31.2485
 117   2.0000      -1.116814       -30.3901
 118   2.0000      -1.057987       -28.7893
 119   2.0000      -1.055780       -28.7292
 120   2.0000      -1.042773       -28.3753
 121   2.0000      -1.036275       -28.1985
 122   2.0000      -1.034915       -28.1615
 123   2.0000      -1.033813       -28.1315
 124   2.0000      -1.027500       -27.9597
 125   2.0000      -1.021122       -27.7861
 126   2.0000      -1.018518       -27.7153
 127   2.0000      -1.016523       -27.6610
 128   2.0000      -1.015527       -27.6339
 129   2.0000      -1.011688       -27.5294
 130   2.0000      -1.011551       -27.5257
 131   2.0000      -1.010072       -27.4854
 132   2.0000      -1.001344       -27.2480
 133   2.0000      -0.991104       -26.9693
 134   2.0000      -0.975711       -26.5505
 135   2.0000      -0.974658       -26.5218
 136   2.0000      -0.966682       -26.3048
 137   2.0000      -0.962623       -26.1943
 138   2.0000      -0.947872       -25.7929
 139   2.0000      -0.932077       -25.3631
 140   2.0000      -0.925014       -25.1709
 141   2.0000      -0.921281       -25.0693
 142   2.0000      -0.918349       -24.9896
 143   2.0000      -0.903199       -24.5773
 144   2.0000      -0.900390       -24.5009
 145   2.0000      -0.889993       -24.2180
 146   2.0000      -0.886315       -24.1179
 147   2.0000      -0.884883       -24.0789
 148   2.0000      -0.882529       -24.0148
 149   2.0000      -0.881539       -23.9879
 150   2.0000      -0.878458       -23.9041
 151   2.0000      -0.870048       -23.6752
 152   2.0000      -0.867838       -23.6151
 153   2.0000      -0.851511       -23.1708
 154   2.0000      -0.843874       -22.9630
 155   2.0000      -0.819652       -22.3039
 156   2.0000      -0.813151       -22.1270
 157   2.0000      -0.804088       -21.8803
 158   2.0000      -0.800254       -21.7760
 159   2.0000      -0.797212       -21.6932
 160   2.0000      -0.790182       -21.5019
 161   2.0000      -0.786351       -21.3977
 162   2.0000      -0.784703       -21.3528
 163   2.0000      -0.782991       -21.3063
 164   2.0000      -0.770155       -20.9570
 165   2.0000      -0.754425       -20.5289
 166   2.0000      -0.751942       -20.4614
 167   2.0000      -0.728547       -19.8248
 168   2.0000      -0.721650       -19.6371
 169   2.0000      -0.715963       -19.4823
 170   2.0000      -0.715140       -19.4599
 171   2.0000      -0.709584       -19.3088
 172   2.0000      -0.708792       -19.2872
 173   2.0000      -0.704772       -19.1778
 174   2.0000      -0.702646       -19.1200
 175   2.0000      -0.698795       -19.0152
 176   2.0000      -0.695999       -18.9391
 177   2.0000      -0.694558       -18.8999
 178   2.0000      -0.693556       -18.8726
 179   2.0000      -0.687910       -18.7190
 180   2.0000      -0.678772       -18.4703
 181   2.0000      -0.673624       -18.3302
 182   2.0000      -0.672294       -18.2941
 183   2.0000      -0.669117       -18.2076
 184   2.0000      -0.666200       -18.1282
 185   2.0000      -0.664738       -18.0884
 186   2.0000      -0.658779       -17.9263
 187   2.0000      -0.657389       -17.8885
 188   2.0000      -0.645085       -17.5536
 189   2.0000      -0.643590       -17.5130
 190   2.0000      -0.634162       -17.2564
 191   2.0000      -0.632308       -17.2060
 192   2.0000      -0.631815       -17.1926
 193   2.0000      -0.630911       -17.1680
 194   2.0000      -0.629083       -17.1182
 195   2.0000      -0.626376       -17.0446
 196   2.0000      -0.614103       -16.7106
 197   2.0000      -0.611838       -16.6490
 198   2.0000      -0.609670       -16.5900
 199   2.0000      -0.604809       -16.4577
 200   2.0000      -0.602832       -16.4039
 201   2.0000      -0.595176       -16.1956
 202   2.0000      -0.592289       -16.1170
 203   2.0000      -0.592001       -16.1092
 204   2.0000      -0.584139       -15.8952
 205   2.0000      -0.582363       -15.8469
 206   2.0000      -0.580935       -15.8080
 207   2.0000      -0.579679       -15.7739
 208   2.0000      -0.571928       -15.5629
 209   2.0000      -0.568049       -15.4574
 210   2.0000      -0.560259       -15.2454
 211   2.0000      -0.559524       -15.2254
 212   2.0000      -0.559359       -15.2209
 213   2.0000      -0.557033       -15.1576
 214   2.0000      -0.556039       -15.1306
 215   2.0000      -0.553822       -15.0703
 216   2.0000      -0.552411       -15.0319
 217   2.0000      -0.551922       -15.0186
 218   2.0000      -0.547063       -14.8863
 219   2.0000      -0.545331       -14.8392
 220   2.0000      -0.540248       -14.7009
 221   2.0000      -0.539549       -14.6819
 222   2.0000      -0.537773       -14.6336
 223   2.0000      -0.537720       -14.6321
 224   2.0000      -0.536509       -14.5991
 225   2.0000      -0.533690       -14.5224
 226   2.0000      -0.531644       -14.4668
 227   2.0000      -0.531232       -14.4556
 228   2.0000      -0.528620       -14.3845
 229   2.0000      -0.524786       -14.2802
 230   2.0000      -0.520201       -14.1554
 231   2.0000      -0.519738       -14.1428
 232   2.0000      -0.518478       -14.1085
 233   2.0000      -0.518030       -14.0963
 234   2.0000      -0.516252       -14.0479
 235   2.0000      -0.515055       -14.0154
 236   2.0000      -0.512909       -13.9570
 237   2.0000      -0.511496       -13.9185
 238   2.0000      -0.511425       -13.9166
 239   2.0000      -0.509046       -13.8518
 240   2.0000      -0.507218       -13.8021
 241   2.0000      -0.506209       -13.7746
 242   2.0000      -0.505769       -13.7627
 243   2.0000      -0.503837       -13.7101
 244   2.0000      -0.502381       -13.6705
 245   2.0000      -0.501797       -13.6546
 246   2.0000      -0.500096       -13.6083
 247   2.0000      -0.485264       -13.2047
 248   2.0000      -0.483445       -13.1552
 249   2.0000      -0.483158       -13.1474
 250   2.0000      -0.481986       -13.1155
 251   2.0000      -0.481737       -13.1087
 252   2.0000      -0.479534       -13.0488
 253   2.0000      -0.478254       -13.0140
 254   2.0000      -0.474147       -12.9022
 255   2.0000      -0.473394       -12.8817
 256   2.0000      -0.472235       -12.8502
 257   2.0000      -0.470872       -12.8131
 258   2.0000      -0.469375       -12.7723
 259   2.0000      -0.466339       -12.6897
 260   2.0000      -0.464702       -12.6452
 261   2.0000      -0.463555       -12.6140
 262   2.0000      -0.463144       -12.6028
 263   2.0000      -0.459621       -12.5069
 264   2.0000      -0.459370       -12.5001
 265   2.0000      -0.458109       -12.4658
 266   2.0000      -0.457096       -12.4382
 267   2.0000      -0.454323       -12.3628
 268   2.0000      -0.453480       -12.3398
 269   2.0000      -0.449692       -12.2367
 270   2.0000      -0.447625       -12.1805
 271   2.0000      -0.446293       -12.1442
 272   2.0000      -0.444055       -12.0834
 273   2.0000      -0.443604       -12.0711
 274   2.0000      -0.442542       -12.0422
 275   2.0000      -0.442470       -12.0402
 276   2.0000      -0.442019       -12.0279
 277   2.0000      -0.440784       -11.9943
 278   2.0000      -0.440266       -11.9802
 279   2.0000      -0.439563       -11.9611
 280   2.0000      -0.438118       -11.9218
 281   2.0000      -0.432971       -11.7817
 282   2.0000      -0.431695       -11.7470
 283   2.0000      -0.430705       -11.7201
 284   2.0000      -0.427872       -11.6430
 285   2.0000      -0.426571       -11.6076
 286   2.0000      -0.424836       -11.5604
 287   2.0000      -0.422488       -11.4965
 288   2.0000      -0.416713       -11.3393
 289   2.0000      -0.415223       -11.2988
 290   2.0000      -0.406550       -11.0628
 291   2.0000      -0.388393       -10.5687
 292   2.0000      -0.381570       -10.3831
 293   2.0000      -0.374925       -10.2022
 294   2.0000      -0.372276       -10.1301
 295   2.0000      -0.371174       -10.1001
 296   2.0000      -0.367486        -9.9998
 297   2.0000      -0.364346        -9.9144
 298   2.0000      -0.363825        -9.9002
 299   2.0000      -0.361988        -9.8502
 300   2.0000      -0.359575        -9.7845
 301   2.0000      -0.356110        -9.6902
 302   2.0000      -0.355258        -9.6671
 303   2.0000      -0.353705        -9.6248
 304   2.0000      -0.350549        -9.5389
 305   2.0000      -0.347299        -9.4505
 306   2.0000      -0.337545        -9.1851
 307   2.0000      -0.333377        -9.0716
 308   2.0000      -0.331337        -9.0161
 309   2.0000      -0.329767        -8.9734
 310   2.0000      -0.289624        -7.8811
 311   2.0000      -0.241113        -6.5610
 312   0.0000      -0.128571        -3.4986
 313   0.0000      -0.108903        -2.9634
 314   0.0000      -0.101760        -2.7690
 315   0.0000      -0.099094        -2.6965
 316   0.0000      -0.097778        -2.6607

MULLIKEN ATOMIC CHARGES
-----------------------
   0 C :   -0.025566
   1 C :    0.042784
   2 C :   -0.053759
   3 C :   -0.047242
   4 C :   -0.010439
   5 C :    0.037030
   6 C :    0.314065
   7 C :   -0.321103
   8 C :   -0.186721
   9 N :    0.170809
  10 C :   -0.196628
  11 N :    0.170316
  12 C :   -0.138603
  13 C :    0.019915
  14 C :    0.158364
  15 O :   -0.113875
  16 C :    0.449493
  17 F :   -0.199240
  18 F :   -0.186135
  19 F :   -0.180527
  20 C :    0.045210
  21 C :   -0.126573
  22 C :    0.093599
  23 C :   -0.077827
  24 S :    0.165527
  25 C :   -0.070692
  26 C :    0.051798
  27 C :    0.293442
  28 C :   -0.285427
  29 C :   -0.193129
  30 N :    0.178892
  31 C :   -0.185846
  32 N :    0.176784
  33 C :   -0.082782
  34 C :   -0.060285
  35 S :    0.201149
  36 C :   -0.103099
  37 C :    0.023186
  38 C :    0.044841
  39 N :    0.042884
  40 C :   -0.104183
  41 C :    0.139531
  42 O :   -0.091403
  43 C :   -0.012474
  44 C :   -0.016230
  45 C :    0.138644
  46 O :   -0.102412
  47 C :   -0.095433
  48 N :    0.008155
  49 C :   -0.113650
  50 S :    0.153901
  51 C :   -0.075538
  52 C :   -0.064460
  53 C :    0.041186
  54 C :   -0.076165
  55 S :    0.154820
  56 C :   -0.080359
  57 C :    0.076366
  58 C :    0.297798
  59 C :   -0.292461
  60 C :   -0.194727
  61 N :    0.182981
  62 C :   -0.196894
  63 N :    0.198223
  64 C :   -0.050701
  65 C :    0.038929
  66 S :    0.119671
  67 C :    0.410583
  68 C :   -0.034350
  69 C :   -0.030977
  70 C :   -0.021515
  71 C :    0.038182
  72 C :   -0.019887
  73 C :    0.042767
  74 C :    0.311194
  75 C :   -0.319202
  76 C :   -0.187096
  77 N :    0.170852
  78 C :   -0.197624
  79 N :    0.171663
  80 C :   -0.138312
  81 C :    0.018552
  82 C :    0.153129
  83 O :   -0.115308
  84 F :   -0.181152
  85 F :   -0.197244
  86 F :   -0.186413
  87 H :    0.009206
  88 H :    0.013150
  89 H :    0.011318
  90 H :    0.057117
  91 H :    0.058591
  92 H :    0.048320
  93 H :    0.019966
  94 H :    0.024319
  95 H :    0.019737
  96 H :    0.037573
  97 H :    0.042524
  98 H :    0.012348
  99 H :    0.008746
 100 H :    0.015427
 101 H :    0.057749
 102 H :    0.058364
Sum of atomic charges:   -0.0000000

LOEWDIN ATOMIC CHARGES
----------------------
   0 C :    0.008118
   1 C :    0.021822
   2 C :   -0.052368
   3 C :    0.025426
   4 C :   -0.040909
   5 C :   -0.004899
   6 C :    0.070278
   7 C :   -0.113668
   8 C :   -0.018784
   9 N :   -0.034541
  10 C :   -0.017931
  11 N :   -0.032009
  12 C :   -0.077556
  13 C :    0.079933
  14 C :    0.085593
  15 O :   -0.116311
  16 C :    0.124382
  17 F :   -0.092572
  18 F :   -0.072951
  19 F :   -0.068638
  20 C :   -0.037892
  21 C :   -0.028204
  22 C :   -0.012385
  23 C :   -0.173443
  24 S :    0.377409
  25 C :   -0.182178
  26 C :   -0.026874
  27 C :    0.068985
  28 C :   -0.100179
  29 C :   -0.017619
  30 N :   -0.026383
  31 C :   -0.014957
  32 N :   -0.029375
  33 C :   -0.012069
  34 C :   -0.140008
  35 S :    0.467374
  36 C :   -0.204393
  37 C :   -0.018291
  38 C :   -0.006412
  39 N :   -0.010335
  40 C :   -0.033657
  41 C :    0.058096
  42 O :   -0.084538
  43 C :   -0.009585
  44 C :   -0.014910
  45 C :    0.058623
  46 O :   -0.097918
  47 C :   -0.034300
  48 N :   -0.031072
  49 C :   -0.193600
  50 S :    0.405417
  51 C :   -0.146179
  52 C :    0.007033
  53 C :   -0.035126
  54 C :   -0.173741
  55 S :    0.404822
  56 C :   -0.177631
  57 C :   -0.012523
  58 C :    0.063605
  59 C :   -0.094130
  60 C :   -0.017835
  61 N :   -0.026281
  62 C :   -0.022585
  63 N :   -0.013912
  64 C :   -0.016556
  65 C :   -0.035844
  66 S :    0.357617
  67 C :    0.126438
  68 C :   -0.055132
  69 C :    0.037293
  70 C :   -0.043644
  71 C :   -0.005476
  72 C :    0.006544
  73 C :    0.011583
  74 C :    0.069826
  75 C :   -0.113867
  76 C :   -0.018663
  77 N :   -0.034741
  78 C :   -0.018218
  79 N :   -0.031725
  80 C :   -0.078164
  81 C :    0.078951
  82 C :    0.084090
  83 O :   -0.118010
  84 F :   -0.066568
  85 F :   -0.090846
  86 F :   -0.074688
  87 H :    0.043639
  88 H :    0.041818
  89 H :    0.043577
  90 H :    0.041049
  91 H :    0.046329
  92 H :    0.044515
  93 H :    0.042708
  94 H :    0.047848
  95 H :    0.046379
  96 H :    0.046217
  97 H :    0.048755
  98 H :    0.045593
  99 H :    0.043409
 100 H :    0.037596
 101 H :    0.041138
 102 H :    0.045972

  Mayer bond orders larger than 0.100000
B(  0-C ,  1-C ) :   1.3770 B(  0-C ,  5-C ) :   1.3540 B(  0-C , 87-H ) :   0.9873
B(  1-C ,  2-C ) :   1.3741 B(  1-C , 88-H ) :   0.9880 B(  2-C ,  3-C ) :   1.3350
B(  2-C , 16-C ) :   0.9720 B(  3-C ,  4-C ) :   1.3427 B(  3-C , 89-H ) :   1.0138
B(  4-C ,  5-C ) :   1.3363 B(  4-C , 14-C ) :   0.9186 B(  5-C ,  6-C ) :   1.0031
B(  6-C ,  7-C ) :   1.6902 B(  6-C , 12-C ) :   0.9938 B(  7-C ,  8-C ) :   1.1297
B(  7-C , 10-C ) :   1.1399 B(  8-C ,  9-N ) :   2.9831 B( 10-C , 11-N ) :   2.9870
B( 12-C , 13-C ) :   1.9527 B( 12-C , 14-C ) :   0.9142 B( 13-C , 90-H ) :   0.9249
B( 13-C , 91-H ) :   0.9202 B( 14-C , 15-O ) :   2.2989 B( 16-C , 18-F ) :   1.1093
B( 16-C , 19-F ) :   1.1264 B( 16-C , 20-C ) :   0.8838 B( 17-F , 20-C ) :   1.0261
B( 20-C , 21-C ) :   0.9242 B( 20-C , 24-S ) :   1.0298 B( 21-C , 22-C ) :   1.7128
B( 21-C , 92-H ) :   0.9751 B( 22-C , 23-C ) :   1.1068 B( 22-C , 27-C ) :   0.9907
B( 23-C , 24-S ) :   1.0198 B( 23-C , 25-C ) :   1.6684 B( 25-C , 26-C ) :   1.1372
B( 25-C , 35-S ) :   0.9784 B( 26-C , 27-C ) :   1.0097 B( 26-C , 33-C ) :   1.5535
B( 27-C , 28-C ) :   1.7146 B( 28-C , 29-C ) :   1.1392 B( 28-C , 31-C ) :   1.1375
B( 29-C , 30-N ) :   2.9921 B( 31-C , 32-N ) :   2.9838 B( 33-C , 34-C ) :   1.1333
B( 33-C , 93-H ) :   0.9983 B( 34-C , 35-S ) :   1.0566 B( 34-C , 36-C ) :   1.5804
B( 36-C , 37-C ) :   1.1570 B( 36-C , 50-S ) :   1.0283 B( 37-C , 38-C ) :   1.2520
B( 37-C , 48-N ) :   1.5107 B( 38-C , 39-N ) :   1.5443 B( 38-C , 49-C ) :   1.1785
B( 39-N , 40-C ) :   1.5803 B( 40-C , 41-C ) :   0.8931 B( 40-C , 47-C ) :   1.2344
B( 41-C , 42-O ) :   2.2411 B( 41-C , 43-C ) :   1.0184 B( 43-C , 44-C ) :   1.6937
B( 43-C , 94-H ) :   0.9959 B( 44-C , 45-C ) :   1.0229 B( 44-C , 95-H ) :   0.9968
B( 45-C , 46-O ) :   2.2486 B( 45-C , 47-C ) :   0.8947 B( 47-C , 48-N ) :   1.5634
B( 49-C , 50-S ) :   1.0439 B( 49-C , 51-C ) :   1.5511 B( 51-C , 52-C ) :   1.1910
B( 51-C , 55-S ) :   1.0221 B( 52-C , 53-C ) :   1.5131 B( 52-C , 96-H ) :   0.9802
B( 53-C , 54-C ) :   1.1296 B( 53-C , 58-C ) :   1.0192 B( 54-C , 55-S ) :   1.0143
B( 54-C , 56-C ) :   1.7017 B( 56-C , 57-C ) :   1.1011 B( 56-C , 66-S ) :   1.0006
B( 57-C , 58-C ) :   0.9809 B( 57-C , 64-C ) :   1.7428 B( 58-C , 59-C ) :   1.7153
B( 59-C , 60-C ) :   1.1408 B( 59-C , 62-C ) :   1.1420 B( 60-C , 61-N ) :   2.9951
B( 62-C , 63-N ) :   2.9976 B( 64-C , 65-C ) :   0.9414 B( 64-C , 97-H ) :   0.9728
B( 65-C , 66-S ) :   1.0140 B( 65-C , 67-C ) :   0.8975 B( 65-C , 85-F ) :   1.0237
B( 67-C , 68-C ) :   0.9630 B( 67-C , 84-F ) :   1.1153 B( 67-C , 86-F ) :   1.1102
B( 68-C , 69-C ) :   1.3302 B( 68-C , 73-C ) :   1.3854 B( 69-C , 70-C ) :   1.3533
B( 69-C , 98-H ) :   1.0140 B( 70-C , 71-C ) :   1.3266 B( 70-C , 82-C ) :   0.9197
B( 71-C , 72-C ) :   1.3593 B( 71-C , 74-C ) :   1.0051 B( 72-C , 73-C ) :   1.3691
B( 72-C , 99-H ) :   0.9883 B( 73-C ,100-H ) :   0.9834 B( 74-C , 75-C ) :   1.6909
B( 74-C , 80-C ) :   0.9931 B( 75-C , 76-C ) :   1.1293 B( 75-C , 78-C ) :   1.1397
B( 76-C , 77-N ) :   2.9835 B( 78-C , 79-N ) :   2.9874 B( 80-C , 81-C ) :   1.9512
B( 80-C , 82-C ) :   0.9147 B( 81-C ,101-H ) :   0.9249 B( 81-C ,102-H ) :   0.9211
B( 82-C , 83-O ) :   2.2986

-----------------------------------------------------------------------------
         ABSORPTION SPECTRUM VIA TRANSITION ELECTRIC DIPOLE MOMENTS
-----------------------------------------------------------------------------
State   Energy  Wavelength   fosc         T2         TX        TY        TZ
        (cm-1)    (nm)                  (au**2)     (au)      (au)      (au)
-----------------------------------------------------------------------------
   0   10181.7    982.2   0.713780678  23.07908   0.53177   4.20234   2.26642
   1   13267.6    753.7   0.078179667   1.93988   0.27424  -1.01572  -0.91268
   2   15069.9    663.6   0.060694399   1.32591  -0.07151  -0.90593  -0.70717
   3   17036.9    587.0   0.124303910   2.40198  -0.81978  -1.31500   0.02629
   4   18814.5    531.5   0.771513607  13.49980   0.18609   3.08594   1.98548
   5   20492.5    488.0   0.124479313   1.99976  -1.00718  -0.43404   0.89273
   6   21711.5    460.6   0.018002846   0.27298   0.09381   0.46338   0.22240
   7   22001.6    454.5   0.000332251   0.00497  -0.03580   0.01105  -0.05973
   8   23861.8    419.1   0.145339410   2.00519   0.66712  -0.36876  -1.19338
   9   25197.2    396.9   0.000259758   0.00339   0.05319  -0.00478  -0.02329
  10   25471.5    392.6   0.000789029   0.01020   0.08767  -0.00783  -0.04951
  11   26455.4    378.0   0.047705576   0.59365  -0.52626   0.07832   0.55729
  12   27604.0    362.3   0.006217260   0.07415  -0.04216   0.21090   0.16701
  13   27775.2    360.0   0.022759726   0.26977  -0.15395  -0.49323  -0.05278
  14   27929.3    358.0   0.250437936   2.95200  -0.36171  -1.56195  -0.61764
  15   28866.5    346.4   0.008614989   0.09825  -0.11577  -0.17882  -0.22994
  16   29314.8    341.1   0.010051730   0.11288   0.31954   0.08155   0.06422
  17   29481.5    339.2   0.307475623   3.43350  -1.13089  -1.11689   0.95244
  18   29595.3    337.9   0.010648833   0.11846   0.10302   0.32759  -0.02294
  19   29809.6    335.5   0.254920666   2.81530   0.97793   1.28620  -0.45235
  20   30942.3    323.2   0.080187121   0.85315  -0.71962  -0.11690   0.56712
  21   31129.4    321.2   0.000104541   0.00111   0.02837   0.01613  -0.00637
  22   31216.6    320.3   0.000064620   0.00068  -0.01140  -0.02348   0.00028
  23   31401.3    318.5   0.047249814   0.49537  -0.18113  -0.66235  -0.15444
  24   31944.3    313.0   0.001190175   0.01227  -0.09238  -0.03694   0.04864
  25   31946.6    313.0   0.003204868   0.03303  -0.07083  -0.16310  -0.03754
  26   32409.7    308.5   0.022481603   0.22836   0.19021   0.43314  -0.06766
  27   32631.8    306.5   0.005595707   0.05645   0.02519  -0.21180  -0.10469
  28   32822.5    304.7   0.118838977   1.19196   0.24378   1.02329   0.29226
  29   33517.1    298.4   0.138656171   1.36191  -0.11782   0.91326   0.71693
  30   33754.3    296.3   0.010741674   0.10477   0.14335   0.28075   0.07344
  31   33844.2    295.5   0.203309656   1.97765  -0.54388  -1.29670   0.02043
  32   33901.0    295.0   0.509810585   4.95076  -1.50869  -0.80092   1.42588
  33   34083.9    293.4   0.032454335   0.31347  -0.45296  -0.28278   0.16833
  34   34125.4    293.0   0.025178229   0.24290  -0.08460  -0.47615  -0.09498
  35   34138.1    292.9   0.038178034   0.36817   0.29543  -0.36699  -0.38238
  36   34336.3    291.2   0.162922335   1.56208  -0.00204  -1.21384  -0.29776
  37   34787.2    287.5   0.416947225   3.94581   1.06872   0.56675  -1.57557
  38   35186.6    284.2   0.169892345   1.58954   0.74963   0.16827  -0.99964
  39   35433.9    282.2   0.005302073   0.04926   0.09696  -0.07921  -0.18326
  40   35477.3    281.9   0.061101641   0.56699  -0.63339  -0.18411   0.36319
  41   35562.2    281.2   0.326990645   3.02707   1.21047   1.14863  -0.49243
  42   35681.0    280.3   0.039989660   0.36897   0.35489  -0.27948  -0.40609
  43   35881.8    278.7   0.323655716   2.96951  -0.20359  -1.70297  -0.16715
  44   35951.9    278.1   0.039813423   0.36457  -0.02512   0.59585   0.09433
  45   36082.5    277.1   0.021694975   0.19794   0.05021   0.10722   0.42887
  46   36466.3    274.2   0.027652135   0.24964   0.21952   0.43848   0.09585
  47   37014.1    270.2   0.000084527   0.00075  -0.00672  -0.00228  -0.02649
  48   37280.3    268.2   0.092468003   0.81656   0.47782   0.66125  -0.38858
  49   38327.3    260.9   0.015251309   0.13100  -0.26812  -0.08073   0.22934
  50   38475.3    259.9   0.039633959   0.33913  -0.36010   0.05070   0.45484
  51   38520.7    259.6   0.015637902   0.13365  -0.02314   0.13051   0.34070
  52   38652.9    258.7   0.062807729   0.53494  -0.68624   0.09296   0.23533
  53   38707.1    258.4   0.006864416   0.05838  -0.15666   0.02403   0.18238
  54   38738.8    258.1   0.047233235   0.40140   0.55644  -0.05794  -0.29734
  55   38824.2    257.6   0.020907121   0.17728  -0.35564  -0.01569  -0.22485
  56   38921.6    256.9   0.184816352   1.56324  -0.11783  -0.91034  -0.84890
  57   38974.1    256.6   0.061467622   0.51921   0.41740   0.56423   0.16321
  58   39034.9    256.2   0.034842575   0.29385  -0.00332   0.44706  -0.30657
  59   39103.5    255.7   0.148219901   1.24786  -0.88365  -0.02731   0.68285
  60   39186.6    255.2   0.008230785   0.06915  -0.15121   0.00826   0.21498
  61   39345.5    254.2   0.014126517   0.11820  -0.24907  -0.23071   0.05421
  62   39626.1    252.4   0.037088584   0.30813   0.23723   0.40543   0.29576
  63   39815.4    251.2   0.011278266   0.09325  -0.15563  -0.14979  -0.21586
  64   39834.4    251.0   0.011403874   0.09425  -0.15668   0.19358   0.17951
  65   39875.8    250.8   0.004731392   0.03906   0.07445   0.14528   0.11141
  66   40054.3    249.7   0.081699955   0.67150  -0.66114  -0.42973   0.22299
  67   40187.6    248.8   0.005789851   0.04743  -0.13008  -0.03460   0.17120

FINAL SINGLE POINT ENERGY     -5805.140656502628

DIPOLE MOMENT
-------------
                                X             Y             Z
Electronic contribution:    -12.34364      -7.19158      10.30986
Nuclear contribution   :     11.00340       6.45175      -9.56868
                        -----------------------------------------
Total Dipole Moment    :     -1.34024      -0.73983       0.74118
                        -----------------------------------------
Magnitude (a.u.)       :      1.70087
Magnitude (Debye)      :      4.32326

Rotational constants in cm-1:     0.000901     0.000177     0.000151
Rotational constants in MHz :    27.014301     5.321030     4.516134

                             ****ORCA TERMINATED NORMALLY****
TOTAL RUN TIME: 0 days 0 hours 14 minutes 3 seconds 62 msec
