                         Program Version 4.2.0 -  RELEASE  -
|  1> # ORCA input file
|  2> # SCF done       -190.224058884027          0.000675768921
|  3> ! CAM-B3LYP def2-SVP def2/J RIJCOSX Grid4 TightSCF
|  4> %maxcore 5000
|  5> %tddft
|  6>     Mode sTDDFT
|  7>     Ethresh 5.0
|  8>     maxcore 5000
|  9> end
| 10>
| 11> %pal
| 12>   nprocs 6
| 13>   end
| 14> * xyz 0 1
| 15>    C       -4.69677        -1.64070         2.33712
| 16>    C       -5.67309        -2.59516         2.23772
| 17>    C       -5.47404        -3.95954         2.53628
| 18>    N       -5.36688        -5.08041         2.75937
| 19>    C       -7.01474        -2.34356         1.87671
| 20>    N       -8.12779        -2.21978         1.62506
| 21>    C       -3.34297        -1.84936         2.82683
| 22>    C       -2.71349        -0.58719         2.96532
| 23>    C       -1.42267        -0.45042         3.41727
| 24>    C       -0.71894        -1.61261         3.74524
| 25>    C       -1.35420        -2.86979         3.59795
| 26>    C       -2.65982        -3.00891         3.14340
| 27>    S       -0.29413        -4.16624         4.05315
| 28>    C        0.96177        -3.03892         4.43197
| 29>    C        0.61282        -1.74985         4.22864
| 30>    C       -3.64170         0.48326         2.55691
| 31>    O       -3.41231         1.67229         2.57860
| 32>    C       -4.86099        -0.21864         2.06603
| 33>    C       -5.84032         0.30673         1.28415
| 34>    C       -6.10753         1.68034         0.98027
| 35>    C       -5.89141         2.76494         1.82384
| 36>    C       -6.21208         4.07082         1.46288
| 37>    C       -6.77449         4.40792         0.23646
| 38>    C       -7.01537         3.32713        -0.64391
| 39>    C       -6.70760         1.98787        -0.26340
| 40>    N       -7.04436         1.19159        -1.28784
| 41>    N       -7.50276         2.00975        -2.19358
| 42>    N       -7.50224         3.27715        -1.89373
| 43>    C       -8.02564         1.53398        -3.43692
| 44>    C       -7.09223         5.77081        -0.12819
| 45>    C       -8.14724         6.07952        -1.01226
| 46>    C       -8.35356         7.41401        -1.52194
| 47>    N       -9.16049         7.57785        -2.58174
| 48>    C       -9.89722         6.58837        -2.99993
| 49>    C       -9.92035         5.34842        -2.26482
| 50>    N       -9.02946         5.12413        -1.34134
| 51>    C      -10.86143         4.33918        -2.57634
| 52>    N      -11.59702         3.51712        -2.88776
| 53>    C      -10.70085         6.76776        -4.15066
| 54>    N      -11.38975         6.90363        -5.05654
| 55>    C       -7.66955         8.53001        -0.99848
| 56>    C       -6.66555         8.23540        -0.06026
| 57>    C       -6.36947         6.87670         0.35427
| 58>    N       -5.35355         6.84494         1.22460
| 59>    S       -4.85173         8.33527         1.50799
| 60>    N       -5.86353         9.11642         0.54904
| 61>    C       -7.97960         9.87775        -1.42185
| 62>    C       -7.02166        10.88267        -1.48763
| 63>    C       -7.31116        12.16294        -1.94279
| 64>    C       -8.58582        12.56894        -2.33443
| 65>    C       -9.58170        11.56730        -2.27499
| 66>    C       -9.28433        10.25033        -1.81207
| 67>    N      -10.43452         9.55741        -1.82686
| 68>    N      -11.31246        10.39151        -2.29443
| 69>    N      -10.88624        11.58983        -2.58948
| 70>    C      -12.67846        10.01528        -2.48900
| 71>    C       -8.78915        13.90423        -2.81046
| 72>    C       -9.92145        14.64172        -2.91924
| 73>    C      -11.27317        14.44580        -2.44244
| 74>    C      -11.63216        13.79385        -1.29322
| 75>    C      -12.96358        13.56927        -0.89750
| 76>    N      -14.02920        13.29940        -0.56395
| 77>    C      -10.69657        13.29807        -0.36213
| 78>    N       -9.97308        12.91875         0.44412
| 79>    C      -12.14957        15.24989        -3.28220
| 80>    C      -11.35025        16.10852        -4.08224
| 81>    C       -9.92596        15.83169        -3.82193
| 82>    O       -8.95943        16.40124        -4.27298
| 83>    C      -11.89600        17.02153        -4.95239
| 84>    C      -13.28968        17.08269        -5.04675
| 85>    C      -14.07695        16.21385        -4.25274
| 86>    C      -13.52748        15.29724        -3.36398
| 87>    S      -15.77003        16.45935        -4.54329
| 88>    C      -15.41794        17.69973        -5.69666
| 89>    C      -14.09664        17.92436        -5.86361
| 90>    H       -0.97191         0.52514         3.51426
| 91>    H       -3.09855        -3.98754         3.04177
| 92>    H        1.89974        -3.41817         4.78845
| 93>    H        1.26417        -0.91390         4.40892
| 94>    H       -6.48385        -0.38131         0.74713
| 95>    H       -5.48684         2.59335         2.80691
| 96>    H       -6.02696         4.85839         2.17520
| 97>    H       -7.78637         0.47674        -3.52189
| 98>    H       -7.58450         2.09502        -4.26019
| 99>    H       -9.10870         1.67145        -3.45887
|100>    H       -6.01049        10.65176        -1.19374
|101>    H       -6.51245        12.88959        -1.97418
|102>    H      -12.85547         9.08499        -1.95464
|103>    H      -12.87661         9.86769        -3.55223
|104>    H      -13.33041        10.80251        -2.11044
|105>    H       -7.90033        14.38910        -3.20551
|106>    H      -11.26635        17.66890        -5.54287
|107>    H      -14.16400        14.65200        -2.78099
|108>    H      -16.23635        18.19050        -6.18649
|109>    H      -13.69085        18.65617        -6.53839
|110> *
|111>
|112>                          ****END OF INPUT****

CARTESIAN COORDINATES (ANGSTROEM)
---------------------------------
  C     -4.696770   -1.640700    2.337120
  C     -5.673090   -2.595160    2.237720
  C     -5.474040   -3.959540    2.536280
  N     -5.366880   -5.080410    2.759370
  C     -7.014740   -2.343560    1.876710
  N     -8.127790   -2.219780    1.625060
  C     -3.342970   -1.849360    2.826830
  C     -2.713490   -0.587190    2.965320
  C     -1.422670   -0.450420    3.417270
  C     -0.718940   -1.612610    3.745240
  C     -1.354200   -2.869790    3.597950
  C     -2.659820   -3.008910    3.143400
  S     -0.294130   -4.166240    4.053150
  C      0.961770   -3.038920    4.431970
  C      0.612820   -1.749850    4.228640
  C     -3.641700    0.483260    2.556910
  O     -3.412310    1.672290    2.578600
  C     -4.860990   -0.218640    2.066030
  C     -5.840320    0.306730    1.284150
  C     -6.107530    1.680340    0.980270
  C     -5.891410    2.764940    1.823840
  C     -6.212080    4.070820    1.462880
  C     -6.774490    4.407920    0.236460
  C     -7.015370    3.327130   -0.643910
  C     -6.707600    1.987870   -0.263400
  N     -7.044360    1.191590   -1.287840
  N     -7.502760    2.009750   -2.193580
  N     -7.502240    3.277150   -1.893730
  C     -8.025640    1.533980   -3.436920
  C     -7.092230    5.770810   -0.128190
  C     -8.147240    6.079520   -1.012260
  C     -8.353560    7.414010   -1.521940
  N     -9.160490    7.577850   -2.581740
  C     -9.897220    6.588370   -2.999930
  C     -9.920350    5.348420   -2.264820
  N     -9.029460    5.124130   -1.341340
  C    -10.861430    4.339180   -2.576340
  N    -11.597020    3.517120   -2.887760
  C    -10.700850    6.767760   -4.150660
  N    -11.389750    6.903630   -5.056540
  C     -7.669550    8.530010   -0.998480
  C     -6.665550    8.235400   -0.060260
  C     -6.369470    6.876700    0.354270
  N     -5.353550    6.844940    1.224600
  S     -4.851730    8.335270    1.507990
  N     -5.863530    9.116420    0.549040
  C     -7.979600    9.877750   -1.421850
  C     -7.021660   10.882670   -1.487630
  C     -7.311160   12.162940   -1.942790
  C     -8.585820   12.568940   -2.334430
  C     -9.581700   11.567300   -2.274990
  C     -9.284330   10.250330   -1.812070
  N    -10.434520    9.557410   -1.826860
  N    -11.312460   10.391510   -2.294430
  N    -10.886240   11.589830   -2.589480
  C    -12.678460   10.015280   -2.489000
  C     -8.789150   13.904230   -2.810460
  C     -9.921450   14.641720   -2.919240
  C    -11.273170   14.445800   -2.442440
  C    -11.632160   13.793850   -1.293220
  C    -12.963580   13.569270   -0.897500
  N    -14.029200   13.299400   -0.563950
  C    -10.696570   13.298070   -0.362130
  N     -9.973080   12.918750    0.444120
  C    -12.149570   15.249890   -3.282200
  C    -11.350250   16.108520   -4.082240
  C     -9.925960   15.831690   -3.821930
  O     -8.959430   16.401240   -4.272980
  C    -11.896000   17.021530   -4.952390
  C    -13.289680   17.082690   -5.046750
  C    -14.076950   16.213850   -4.252740
  C    -13.527480   15.297240   -3.363980
  S    -15.770030   16.459350   -4.543290
  C    -15.417940   17.699730   -5.696660
  C    -14.096640   17.924360   -5.863610
  H     -0.971910    0.525140    3.514260
  H     -3.098550   -3.987540    3.041770
  H      1.899740   -3.418170    4.788450
  H      1.264170   -0.913900    4.408920
  H     -6.483850   -0.381310    0.747130
  H     -5.486840    2.593350    2.806910
  H     -6.026960    4.858390    2.175200
  H     -7.786370    0.476740   -3.521890
  H     -7.584500    2.095020   -4.260190
  H     -9.108700    1.671450   -3.458870
  H     -6.010490   10.651760   -1.193740
  H     -6.512450   12.889590   -1.974180
  H    -12.855470    9.084990   -1.954640
  H    -12.876610    9.867690   -3.552230
  H    -13.330410   10.802510   -2.110440
  H     -7.900330   14.389100   -3.205510
  H    -11.266350   17.668900   -5.542870
  H    -14.164000   14.652000   -2.780990
  H    -16.236350   18.190500   -6.186490
  H    -13.690850   18.656170   -6.538390

 Total Charge           Charge          ....    0
 Multiplicity           Mult            ....    1
 Number of Electrons    NEL             ....  520
 Basis Dimension        Dim             .... 1162

ORBITAL ENERGIES
----------------

  NO   OCC          E(Eh)            E(eV)
   0   2.0000     -89.052870     -2423.2518
   1   2.0000     -88.967619     -2420.9320
   2   2.0000     -88.964732     -2420.8534
   3   2.0000     -19.217818      -522.9434
   4   2.0000     -19.212969      -522.8115
   5   2.0000     -14.550169      -395.9302
   6   2.0000     -14.547165      -395.8485
   7   2.0000     -14.458208      -393.4278
   8   2.0000     -14.458138      -393.4259
   9   2.0000     -14.456689      -393.3865
  10   2.0000     -14.456209      -393.3735
  11   2.0000     -14.449710      -393.1966
  12   2.0000     -14.445396      -393.0792
  13   2.0000     -14.444970      -393.0676
  14   2.0000     -14.443662      -393.0320
  15   2.0000     -14.431283      -392.6952
  16   2.0000     -14.431117      -392.6907
  17   2.0000     -14.416855      -392.3026
  18   2.0000     -14.414811      -392.2469
  19   2.0000     -14.412019      -392.1710
  20   2.0000     -14.408814      -392.0838
  21   2.0000     -10.376351      -282.3549
  22   2.0000     -10.375687      -282.3368
  23   2.0000     -10.369892      -282.1791
  24   2.0000     -10.363198      -281.9969
  25   2.0000     -10.348896      -281.6078
  26   2.0000     -10.348657      -281.6013
  27   2.0000     -10.347940      -281.5818
  28   2.0000     -10.347587      -281.5721
  29   2.0000     -10.342226      -281.4263
  30   2.0000     -10.339700      -281.3575
  31   2.0000     -10.337026      -281.2848
  32   2.0000     -10.332501      -281.1616
  33   2.0000     -10.325114      -280.9606
  34   2.0000     -10.324975      -280.9569
  35   2.0000     -10.323049      -280.9045
  36   2.0000     -10.322603      -280.8923
  37   2.0000     -10.321883      -280.8727
  38   2.0000     -10.321741      -280.8688
  39   2.0000     -10.321314      -280.8572
  40   2.0000     -10.319277      -280.8018
  41   2.0000     -10.318779      -280.7882
  42   2.0000     -10.317280      -280.7475
  43   2.0000     -10.315756      -280.7060
  44   2.0000     -10.315601      -280.7018
  45   2.0000     -10.314385      -280.6687
  46   2.0000     -10.311756      -280.5971
  47   2.0000     -10.311733      -280.5965
  48   2.0000     -10.310851      -280.5725
  49   2.0000     -10.310573      -280.5650
  50   2.0000     -10.310222      -280.5554
  51   2.0000     -10.309897      -280.5465
  52   2.0000     -10.309591      -280.5382
  53   2.0000     -10.309165      -280.5266
  54   2.0000     -10.307924      -280.4929
  55   2.0000     -10.307130      -280.4713
  56   2.0000     -10.304178      -280.3909
  57   2.0000     -10.303768      -280.3798
  58   2.0000     -10.303587      -280.3749
  59   2.0000     -10.303208      -280.3645
  60   2.0000     -10.300899      -280.3017
  61   2.0000     -10.300174      -280.2820
  62   2.0000     -10.300168      -280.2818
  63   2.0000     -10.300116      -280.2804
  64   2.0000     -10.298819      -280.2451
  65   2.0000     -10.297022      -280.1962
  66   2.0000     -10.295127      -280.1447
  67   2.0000     -10.294542      -280.1287
  68   2.0000     -10.291563      -280.0477
  69   2.0000     -10.290446      -280.0173
  70   2.0000     -10.288300      -279.9589
  71   2.0000     -10.288244      -279.9573
  72   2.0000     -10.287975      -279.9500
  73   2.0000     -10.286994      -279.9233
  74   2.0000     -10.285588      -279.8851
  75   2.0000      -8.144023      -221.6101
  76   2.0000      -8.063984      -219.4322
  77   2.0000      -8.060932      -219.3491
  78   2.0000      -6.114971      -166.3968
  79   2.0000      -6.107212      -166.1857
  80   2.0000      -6.107086      -166.1823
  81   2.0000      -6.033492      -164.1797
  82   2.0000      -6.030461      -164.0972
  83   2.0000      -6.029194      -164.0627
  84   2.0000      -6.026141      -163.9796
  85   2.0000      -6.025620      -163.9655
  86   2.0000      -6.022611      -163.8836
  87   2.0000      -1.226815       -33.3833
  88   2.0000      -1.223934       -33.3049
  89   2.0000      -1.148653       -31.2564
  90   2.0000      -1.133344       -30.8399
  91   2.0000      -1.127868       -30.6909
  92   2.0000      -1.119520       -30.4637
  93   2.0000      -1.046192       -28.4683
  94   2.0000      -1.019851       -27.7516
  95   2.0000      -1.018177       -27.7060
  96   2.0000      -1.015677       -27.6380
  97   2.0000      -1.008038       -27.4301
  98   2.0000      -1.007599       -27.4182
  99   2.0000      -1.006332       -27.3837
 100   2.0000      -1.002299       -27.2740
 101   2.0000      -0.999116       -27.1873
 102   2.0000      -0.997011       -27.1300
 103   2.0000      -0.995117       -27.0785
 104   2.0000      -0.991823       -26.9889
 105   2.0000      -0.990023       -26.9399
 106   2.0000      -0.986189       -26.8356
 107   2.0000      -0.983759       -26.7695
 108   2.0000      -0.980844       -26.6901
 109   2.0000      -0.973213       -26.4825
 110   2.0000      -0.934327       -25.4243
 111   2.0000      -0.933272       -25.3956
 112   2.0000      -0.928190       -25.2573
 113   2.0000      -0.925159       -25.1749
 114   2.0000      -0.914894       -24.8955
 115   2.0000      -0.908740       -24.7281
 116   2.0000      -0.901427       -24.5291
 117   2.0000      -0.892250       -24.2794
 118   2.0000      -0.882835       -24.0232
 119   2.0000      -0.881214       -23.9790
 120   2.0000      -0.878513       -23.9055
 121   2.0000      -0.866515       -23.5791
 122   2.0000      -0.844826       -22.9889
 123   2.0000      -0.829953       -22.5842
 124   2.0000      -0.828093       -22.5335
 125   2.0000      -0.823951       -22.4208
 126   2.0000      -0.820423       -22.3248
 127   2.0000      -0.819198       -22.2915
 128   2.0000      -0.817834       -22.2544
 129   2.0000      -0.800531       -21.7836
 130   2.0000      -0.784943       -21.3594
 131   2.0000      -0.774887       -21.0857
 132   2.0000      -0.757740       -20.6192
 133   2.0000      -0.754478       -20.5304
 134   2.0000      -0.747257       -20.3339
 135   2.0000      -0.740024       -20.1371
 136   2.0000      -0.734484       -19.9863
 137   2.0000      -0.732845       -19.9417
 138   2.0000      -0.727561       -19.7979
 139   2.0000      -0.714001       -19.4290
 140   2.0000      -0.706849       -19.2343
 141   2.0000      -0.704241       -19.1634
 142   2.0000      -0.701237       -19.0816
 143   2.0000      -0.689565       -18.7640
 144   2.0000      -0.687723       -18.7139
 145   2.0000      -0.682841       -18.5810
 146   2.0000      -0.681447       -18.5431
 147   2.0000      -0.675125       -18.3711
 148   2.0000      -0.662100       -18.0167
 149   2.0000      -0.658845       -17.9281
 150   2.0000      -0.655980       -17.8501
 151   2.0000      -0.654322       -17.8050
 152   2.0000      -0.638943       -17.3865
 153   2.0000      -0.634240       -17.2585
 154   2.0000      -0.629511       -17.1299
 155   2.0000      -0.625583       -17.0230
 156   2.0000      -0.623353       -16.9623
 157   2.0000      -0.620732       -16.8910
 158   2.0000      -0.616635       -16.7795
 159   2.0000      -0.614978       -16.7344
 160   2.0000      -0.610943       -16.6246
 161   2.0000      -0.607749       -16.5377
 162   2.0000      -0.597175       -16.2499
 163   2.0000      -0.595097       -16.1934
 164   2.0000      -0.593463       -16.1490
 165   2.0000      -0.592088       -16.1115
 166   2.0000      -0.590231       -16.0610
 167   2.0000      -0.582224       -15.8431
 168   2.0000      -0.576451       -15.6860
 169   2.0000      -0.571655       -15.5555
 170   2.0000      -0.568795       -15.4777
 171   2.0000      -0.560251       -15.2452
 172   2.0000      -0.558931       -15.2093
 173   2.0000      -0.550691       -14.9851
 174   2.0000      -0.548532       -14.9263
 175   2.0000      -0.545889       -14.8544
 176   2.0000      -0.541676       -14.7398
 177   2.0000      -0.540271       -14.7015
 178   2.0000      -0.535803       -14.5799
 179   2.0000      -0.534199       -14.5363
 180   2.0000      -0.532662       -14.4945
 181   2.0000      -0.529306       -14.4032
 182   2.0000      -0.524875       -14.2826
 183   2.0000      -0.521402       -14.1881
 184   2.0000      -0.520797       -14.1716
 185   2.0000      -0.514461       -13.9992
 186   2.0000      -0.511894       -13.9293
 187   2.0000      -0.509965       -13.8768
 188   2.0000      -0.507511       -13.8101
 189   2.0000      -0.506232       -13.7753
 190   2.0000      -0.503076       -13.6894
 191   2.0000      -0.500190       -13.6109
 192   2.0000      -0.498641       -13.5687
 193   2.0000      -0.497299       -13.5322
 194   2.0000      -0.494979       -13.4691
 195   2.0000      -0.492473       -13.4009
 196   2.0000      -0.490372       -13.3437
 197   2.0000      -0.488921       -13.3042
 198   2.0000      -0.488087       -13.2815
 199   2.0000      -0.485297       -13.2056
 200   2.0000      -0.483254       -13.1500
 201   2.0000      -0.483062       -13.1448
 202   2.0000      -0.480088       -13.0639
 203   2.0000      -0.471251       -12.8234
 204   2.0000      -0.467244       -12.7143
 205   2.0000      -0.464395       -12.6368
 206   2.0000      -0.459014       -12.4904
 207   2.0000      -0.457660       -12.4536
 208   2.0000      -0.456563       -12.4237
 209   2.0000      -0.455915       -12.4061
 210   2.0000      -0.454180       -12.3589
 211   2.0000      -0.452006       -12.2997
 212   2.0000      -0.450260       -12.2522
 213   2.0000      -0.447876       -12.1873
 214   2.0000      -0.446639       -12.1537
 215   2.0000      -0.444130       -12.0854
 216   2.0000      -0.443122       -12.0580
 217   2.0000      -0.441462       -12.0128
 218   2.0000      -0.440520       -11.9872
 219   2.0000      -0.439318       -11.9545
 220   2.0000      -0.434566       -11.8251
 221   2.0000      -0.433063       -11.7843
 222   2.0000      -0.432248       -11.7621
 223   2.0000      -0.430104       -11.7037
 224   2.0000      -0.429376       -11.6839
 225   2.0000      -0.426343       -11.6014
 226   2.0000      -0.425117       -11.5680
 227   2.0000      -0.424391       -11.5483
 228   2.0000      -0.420631       -11.4459
 229   2.0000      -0.419574       -11.4172
 230   2.0000      -0.417354       -11.3568
 231   2.0000      -0.413753       -11.2588
 232   2.0000      -0.411136       -11.1876
 233   2.0000      -0.409214       -11.1353
 234   2.0000      -0.406829       -11.0704
 235   2.0000      -0.404327       -11.0023
 236   2.0000      -0.397239       -10.8094
 237   2.0000      -0.394691       -10.7401
 238   2.0000      -0.391547       -10.6545
 239   2.0000      -0.388577       -10.5737
 240   2.0000      -0.384282       -10.4568
 241   2.0000      -0.381388       -10.3781
 242   2.0000      -0.376639       -10.2489
 243   2.0000      -0.374462       -10.1896
 244   2.0000      -0.364234        -9.9113
 245   2.0000      -0.352341        -9.5877
 246   2.0000      -0.346639        -9.4325
 247   2.0000      -0.344368        -9.3707
 248   2.0000      -0.342910        -9.3311
 249   2.0000      -0.338774        -9.2185
 250   2.0000      -0.332956        -9.0602
 251   2.0000      -0.326507        -8.8847
 252   2.0000      -0.323200        -8.7947
 253   2.0000      -0.319739        -8.7005
 254   2.0000      -0.314587        -8.5603
 255   2.0000      -0.308378        -8.3914
 256   2.0000      -0.297712        -8.1012
 257   2.0000      -0.291296        -7.9266
 258   2.0000      -0.288885        -7.8610
 259   2.0000      -0.264837        -7.2066
 260   0.0000      -0.125858        -3.4248
 261   0.0000      -0.087786        -2.3888
 262   0.0000      -0.085638        -2.3303
 263   0.0000      -0.060600        -1.6490
 264   0.0000      -0.054969        -1.4958

MULLIKEN ATOMIC CHARGES
-----------------------
   0 C :    0.285626
   1 C :   -0.329596
   2 C :   -0.185984
   3 N :    0.150257
   4 C :   -0.205746
   5 N :    0.168198
   6 C :    0.020353
   7 C :   -0.016167
   8 C :   -0.070999
   9 C :    0.116056
  10 C :   -0.090620
  11 C :   -0.026772
  12 S :    0.141765
  13 C :   -0.048623
  14 C :    0.025033
  15 C :    0.146830
  16 O :   -0.147223
  17 C :   -0.071531
  18 C :   -0.041747
  19 C :    0.026798
  20 C :    0.028876
  21 C :   -0.010850
  22 C :   -0.033495
  23 C :    0.016540
  24 C :   -0.018925
  25 N :   -0.050064
  26 N :   -0.068094
  27 N :   -0.062117
  28 C :    0.136668
  29 C :    0.143210
  30 C :   -0.087152
  31 C :   -0.080369
  32 N :    0.064149
  33 C :   -0.131878
  34 C :   -0.122082
  35 N :    0.065857
  36 C :   -0.191278
  37 N :    0.203244
  38 C :   -0.203534
  39 N :    0.215631
  40 C :    0.130754
  41 C :   -0.007204
  42 C :   -0.007431
  43 N :   -0.276419
  44 S :    0.558649
  45 N :   -0.275886
  46 C :   -0.035549
  47 C :    0.001829
  48 C :   -0.017332
  49 C :    0.080564
  50 C :   -0.020898
  51 C :    0.034511
  52 N :   -0.038888
  53 N :   -0.059712
  54 N :   -0.074380
  55 C :    0.138038
  56 C :   -0.008979
  57 C :   -0.110105
  58 C :    0.297911
  59 C :   -0.305867
  60 C :   -0.175366
  61 N :    0.133732
  62 C :   -0.224832
  63 N :    0.173337
  64 C :    0.015657
  65 C :   -0.001973
  66 C :    0.129887
  67 O :   -0.142267
  68 C :   -0.064885
  69 C :    0.107043
  70 C :   -0.090062
  71 C :   -0.031687
  72 S :    0.136004
  73 C :   -0.050424
  74 C :    0.027039
  75 H :   -0.013657
  76 H :   -0.005009
  77 H :    0.039051
  78 H :   -0.006702
  79 H :    0.045175
  80 H :   -0.006840
  81 H :   -0.011573
  82 H :    0.056036
  83 H :    0.050551
  84 H :    0.069458
  85 H :   -0.016121
  86 H :   -0.010521
  87 H :    0.051232
  88 H :    0.065016
  89 H :    0.060233
  90 H :    0.017234
  91 H :   -0.010781
  92 H :   -0.008629
  93 H :    0.037440
  94 H :   -0.006649
Sum of atomic charges:   -0.0000000

LOEWDIN ATOMIC CHARGES
----------------------
   0 C :    0.074307
   1 C :   -0.134282
   2 C :   -0.017483
   3 N :   -0.051366
   4 C :   -0.026921
   5 N :   -0.043316
   6 C :   -0.022430
   7 C :   -0.053475
   8 C :    0.023156
   9 C :   -0.034601
  10 C :   -0.144578
  11 C :   -0.008658
  12 S :    0.430348
  13 C :   -0.148736
  14 C :   -0.058038
  15 C :    0.083744
  16 O :   -0.136314
  17 C :   -0.083261
  18 C :    0.082842
  19 C :   -0.037248
  20 C :    0.025671
  21 C :    0.001041
  22 C :   -0.010890
  23 C :   -0.040917
  24 C :   -0.041672
  25 N :   -0.093153
  26 N :    0.163225
  27 N :   -0.087541
  28 C :    0.032283
  29 C :   -0.004251
  30 C :   -0.001685
  31 C :   -0.000125
  32 N :    0.020747
  33 C :   -0.030358
  34 C :   -0.030416
  35 N :    0.024235
  36 C :   -0.031295
  37 N :   -0.017880
  38 C :   -0.033830
  39 N :   -0.017648
  40 C :   -0.005812
  41 C :   -0.036271
  42 C :   -0.036769
  43 N :   -0.278910
  44 S :    0.692948
  45 N :   -0.279198
  46 C :   -0.002976
  47 C :    0.000169
  48 C :    0.014829
  49 C :   -0.033632
  50 C :   -0.039760
  51 C :   -0.034375
  52 N :   -0.073303
  53 N :    0.168356
  54 N :   -0.092656
  55 C :    0.033206
  56 C :    0.066048
  57 C :   -0.075184
  58 C :    0.073001
  59 C :   -0.131028
  60 C :   -0.013889
  61 N :   -0.063457
  62 C :   -0.022986
  63 N :   -0.053133
  64 C :   -0.013655
  65 C :   -0.056762
  66 C :    0.085919
  67 O :   -0.141363
  68 C :    0.024733
  69 C :   -0.037640
  70 C :   -0.143522
  71 C :   -0.015167
  72 S :    0.426252
  73 C :   -0.151061
  74 C :   -0.057439
  75 H :    0.039790
  76 H :    0.041017
  77 H :    0.029584
  78 H :    0.035304
  79 H :    0.050656
  80 H :    0.035489
  81 H :    0.032682
  82 H :    0.044228
  83 H :    0.040654
  84 H :    0.045954
  85 H :    0.031863
  86 H :    0.036336
  87 H :    0.042433
  88 H :    0.045678
  89 H :    0.043392
  90 H :    0.046641
  91 H :    0.040482
  92 H :    0.038918
  93 H :    0.028929
  94 H :    0.035223

  Mayer bond orders larger than 0.100000
B(  0-C ,  1-C ) :   1.6593 B(  0-C ,  6-C ) :   1.0100 B(  0-C , 17-C ) :   1.0383
B(  1-C ,  2-C ) :   1.1365 B(  1-C ,  4-C ) :   1.1361 B(  2-C ,  3-N ) :   2.9767
B(  4-C ,  5-N ) :   3.0018 B(  6-C ,  7-C ) :   1.2673 B(  6-C , 11-C ) :   1.4064
B(  7-C ,  8-C ) :   1.4195 B(  7-C , 15-C ) :   0.9497 B(  8-C ,  9-C ) :   1.2472
B(  8-C , 75-H ) :   1.0178 B(  9-C , 10-C ) :   1.3011 B(  9-C , 14-C ) :   1.1702
B( 10-C , 11-C ) :   1.3238 B( 10-C , 12-S ) :   1.0983 B( 11-C , 76-H ) :   0.9849
B( 12-S , 13-C ) :   1.1270 B( 13-C , 14-C ) :   1.6290 B( 13-C , 77-H ) :   0.9685
B( 14-C , 78-H ) :   0.9999 B( 15-C , 16-O ) :   2.2182 B( 15-C , 17-C ) :   0.9305
B( 17-C , 18-C ) :   1.6284 B( 18-C , 19-C ) :   1.1192 B( 18-C , 79-H ) :   0.9476
B( 19-C , 20-C ) :   1.4118 B( 19-C , 22-C ) :   0.1070 B( 19-C , 24-C ) :   1.1746
B( 20-C , 21-C ) :   1.2606 B( 20-C , 80-H ) :   0.9833 B( 21-C , 22-C ) :   1.4499
B( 21-C , 81-H ) :   0.9878 B( 22-C , 23-C ) :   1.2223 B( 22-C , 29-C ) :   1.0131
B( 23-C , 24-C ) :   1.2349 B( 23-C , 27-N ) :   1.4298 B( 24-C , 25-N ) :   1.4831
B( 25-N , 26-N ) :   1.2365 B( 25-N , 27-N ) :   0.1627 B( 26-N , 27-N ) :   1.2364
B( 26-N , 28-C ) :   0.9494 B( 28-C , 82-H ) :   0.9655 B( 28-C , 83-H ) :   0.9684
B( 28-C , 84-H ) :   0.9657 B( 29-C , 30-C ) :   1.3029 B( 29-C , 40-C ) :   0.1323
B( 29-C , 42-C ) :   1.2525 B( 30-C , 31-C ) :   1.0882 B( 30-C , 35-N ) :   1.4047
B( 31-C , 32-N ) :   1.4027 B( 31-C , 40-C ) :   1.3081 B( 32-N , 33-C ) :   1.7380
B( 33-C , 34-C ) :   1.1534 B( 33-C , 38-C ) :   1.1534 B( 34-C , 35-N ) :   1.7382
B( 34-C , 36-C ) :   1.1521 B( 36-C , 37-N ) :   3.0093 B( 38-C , 39-N ) :   3.0423
B( 40-C , 41-C ) :   1.2562 B( 40-C , 46-C ) :   1.0047 B( 41-C , 42-C ) :   1.1007
B( 41-C , 45-N ) :   1.4876 B( 42-C , 43-N ) :   1.4892 B( 43-N , 44-S ) :   1.2978
B( 43-N , 45-N ) :   0.1546 B( 44-S , 45-N ) :   1.2977 B( 46-C , 47-C ) :   1.4497
B( 46-C , 49-C ) :   0.1040 B( 46-C , 51-C ) :   1.2375 B( 47-C , 48-C ) :   1.2574
B( 47-C , 85-H ) :   0.9862 B( 48-C , 49-C ) :   1.3840 B( 48-C , 86-H ) :   0.9974
B( 49-C , 50-C ) :   1.1828 B( 49-C , 56-C ) :   1.0745 B( 50-C , 51-C ) :   1.2381
B( 50-C , 54-N ) :   1.4532 B( 51-C , 52-N ) :   1.4286 B( 52-N , 53-N ) :   1.2709
B( 52-N , 54-N ) :   0.1567 B( 53-N , 54-N ) :   1.2065 B( 53-N , 55-C ) :   0.9487
B( 55-C , 87-H ) :   0.9658 B( 55-C , 88-H ) :   0.9662 B( 55-C , 89-H ) :   0.9631
B( 56-C , 57-C ) :   1.6948 B( 56-C , 90-H ) :   0.9428 B( 57-C , 58-C ) :   1.0321
B( 57-C , 66-C ) :   0.9292 B( 58-C , 59-C ) :   1.6510 B( 58-C , 64-C ) :   1.0273
B( 59-C , 60-C ) :   1.1513 B( 59-C , 62-C ) :   1.1565 B( 60-C , 61-N ) :   2.9302
B( 62-C , 63-N ) :   3.0172 B( 64-C , 65-C ) :   1.2641 B( 64-C , 71-C ) :   1.4190
B( 65-C , 66-C ) :   0.9256 B( 65-C , 68-C ) :   1.4260 B( 66-C , 67-O ) :   2.2658
B( 68-C , 69-C ) :   1.2575 B( 68-C , 91-H ) :   1.0148 B( 69-C , 70-C ) :   1.3041
B( 69-C , 74-C ) :   1.1701 B( 70-C , 71-C ) :   1.3188 B( 70-C , 72-S ) :   1.0965
B( 71-C , 92-H ) :   0.9863 B( 72-S , 73-C ) :   1.1238 B( 73-C , 74-C ) :   1.6313
B( 73-C , 93-H ) :   0.9689 B( 74-C , 94-H ) :   0.9995

-----------------------------------------------------------------------------
         ABSORPTION SPECTRUM VIA TRANSITION ELECTRIC DIPOLE MOMENTS
-----------------------------------------------------------------------------
State   Energy  Wavelength   fosc         T2         TX        TY        TZ
        (cm-1)    (nm)                  (au**2)     (au)      (au)      (au)
-----------------------------------------------------------------------------
   0   13851.5    721.9   0.786381157  18.69017  -1.45158   3.88944  -1.20637
   1   20094.5    497.6   0.006302493   0.10325   0.01196   0.14253   0.28775
   2   22221.0    450.0   0.548149354   8.12104  -1.24704   2.51029  -0.51418
   3   22993.7    434.9   0.447712808   6.41011   0.99462  -2.12710   0.94673
   4   23420.9    427.0   0.085083821   1.19597  -0.43322   0.97503  -0.24000
   5   23623.0    423.3   0.033669948   0.46923  -0.45746   0.17268   0.47972
   6   25334.7    394.7   0.057315411   0.74479   0.62257  -0.10382   0.58857
   7   25946.4    385.4   0.013499203   0.17128  -0.37158   0.00435   0.18218
   8   26717.7    374.3   0.070866269   0.87320  -0.85221   0.23754  -0.30086
   9   27606.7    362.2   0.007042636   0.08398  -0.15864   0.12710  -0.20655
  10   27655.6    361.6   0.014993818   0.17849  -0.18789   0.35963   0.11768
  11   27850.6    359.1   0.007354807   0.08694   0.13862   0.08594   0.24564
  12   28034.8    356.7   0.006625676   0.07781  -0.12463  -0.24336  -0.05521
  13   28499.2    350.9   0.071483579   0.82575   0.23864  -0.42428   0.76733
  14   28819.2    347.0   0.013350125   0.15250   0.21204   0.32661  -0.02950
  15   29071.2    344.0   0.196872067   2.22944  -1.08955   0.52084  -0.87809
  16   29524.4    338.7   0.042519221   0.47411   0.54698   0.40695   0.09650
  17   29948.3    333.9   0.059599216   0.65515   0.14294   0.68550  -0.40598
  18   30556.6    327.3   0.079251126   0.85384  -0.77974  -0.43770  -0.23295
  19   30751.3    325.2   0.198595425   2.12609  -1.40971   0.15386  -0.33934
  20   31162.1    320.9   0.035498646   0.37503  -0.42234   0.34784  -0.27506
  21   31244.4    320.1   0.070770656   0.74569   0.63163  -0.18261   0.55980
  22   31663.7    315.8   0.013401880   0.13934   0.22852   0.17487  -0.23778
  23   31892.6    313.6   0.186567412   1.92585  -0.78587   1.04442  -0.46631
  24   31997.8    312.5   0.090993709   0.93620  -0.04550   0.94581  -0.19891
  25   32644.3    306.3   0.019333920   0.19498   0.13017  -0.27663   0.31860
  26   32950.4    303.5   0.161608852   1.61466  -0.68706  -0.52442  -0.93145
  27   33283.1    300.5   0.159474622   1.57741   0.52318   0.92018  -0.67599
  28   33412.9    299.3   0.200609505   1.97657   1.11639  -0.54194   0.66072
  29   33504.1    298.5   0.274149914   2.69380  -1.27522  -0.12561  -1.02559
  30   33788.1    296.0   0.350180614   3.41196  -1.04063   1.00318  -1.15008
  31   33921.1    294.8   0.090375977   0.87712   0.79710  -0.06589   0.48724
  32   34278.5    291.7   0.046939902   0.45081   0.40262  -0.48159  -0.23828
  33   34735.8    287.9   0.259620116   2.46057   0.44023  -0.99685   1.12830
  34   34809.0    287.3   0.006523293   0.06170   0.14070   0.20444  -0.01019
  35   34941.7    286.2   0.427833213   4.03094   1.82782   0.73103   0.39449
  36   35777.2    279.5   0.025545461   0.23506   0.46158   0.11138   0.09798
  37   35950.5    278.2   0.025977553   0.23789  -0.05595   0.41700  -0.24671
  38   36222.5    276.1   0.069609624   0.63265   0.48642  -0.26703   0.56986
  39   36403.3    274.7   0.039229177   0.35477   0.51473  -0.27354   0.12247
  40   36728.0    272.3   0.203419434   1.82335   0.88889   0.66505   0.76872
  41   36806.6    271.7   0.003237202   0.02895  -0.01490   0.12347  -0.11614
  42   37052.2    269.9   0.036980748   0.32858  -0.47712  -0.05546  -0.31282
  43   37557.1    266.3   0.044393457   0.38914   0.26309   0.16381   0.54137
  44   37871.7    264.0   0.018814430   0.16355   0.08929  -0.20970  -0.33407
  45   38129.3    262.3   0.130153362   1.12376   1.00212   0.17752   0.29665
  46   38520.4    259.6   0.032240629   0.27554  -0.40384  -0.12079  -0.31284
  47   38698.7    258.4   0.008763719   0.07455   0.17232   0.12150   0.17348
  48   38828.1    257.5   0.018142203   0.15382   0.12206   0.26922   0.25777
  49   39193.2    255.1   0.148969259   1.25130  -0.23678  -1.06962   0.22615
  50   39407.3    253.8   0.074522195   0.62257   0.76410   0.19536   0.02355
  51   39441.2    253.5   0.079896519   0.66689  -0.36294   0.54159  -0.49178
  52   39597.9    252.5   0.052306754   0.43487   0.09257   0.63694   0.14354
  53   39779.6    251.4   0.066558780   0.55083   0.48983  -0.52754   0.18055
  54   39944.2    250.3   0.076138641   0.62752  -0.76200  -0.19167   0.10071

FINAL SINGLE POINT ENERGY     -4286.404935571187

DIPOLE MOMENT
-------------
                                X             Y             Z
Electronic contribution:      1.97145      -3.34161       9.71154
Nuclear contribution   :      1.05304       5.23492     -10.30490
                        -----------------------------------------
Total Dipole Moment    :      3.02450       1.89331      -0.59336
                        -----------------------------------------
Magnitude (a.u.)       :      3.61722
Magnitude (Debye)      :      9.19424

Rotational constants in cm-1:     0.002656     0.000259     0.000244
Rotational constants in MHz :    79.626575     7.757747     7.308134

                             ****ORCA TERMINATED NORMALLY****
TOTAL RUN TIME: 0 days 0 hours 9 minutes 39 seconds 88 msec
