                         Program Version 4.2.0 -  RELEASE  -
|  1> # ORCA input file
|  2> # SCF done       -191.113497612921          0.000829557890
|  3> ! CAM-B3LYP def2-SVP def2/J RIJCOSX Grid4 TightSCF
|  4> %maxcore 5000
|  5> %tddft
|  6>     Mode sTDDFT
|  7>     Ethresh 5.0
|  8>     maxcore 5000
|  9> end
| 10>
| 11> %pal
| 12>   nprocs 6
| 13>   end
| 14> * xyz 0 1
| 15>    C       -0.59279         5.99128         5.64689
| 16>    C        0.51756         5.41057         5.08665
| 17>    C        1.78921         5.38553         5.69545
| 18>    N        2.84868         5.32641         6.13414
| 19>    C        0.56421         4.74524         3.84470
| 20>    N        0.69156         4.18522         2.84940
| 21>    C       -0.62877         6.65138         6.94867
| 22>    C       -1.95810         7.06918         7.20900
| 23>    C       -2.31836         7.72727         8.35949
| 24>    C       -1.31788         7.99113         9.30016
| 25>    C        0.00673         7.57266         9.03230
| 26>    C        0.37031         6.90368         7.86868
| 27>    S        1.07671         8.00710        10.32797
| 28>    C       -0.23130         8.73038        11.19840
| 29>    C       -1.41711         8.65389        10.55597
| 30>    C       -2.81130         6.69191         6.07148
| 31>    O       -4.01331         6.88325         5.97831
| 32>    C       -1.93024         6.05166         5.09120
| 33>    C       -2.30159         5.62710         3.83883
| 34>    C       -3.54600         5.66695         3.19867
| 35>    C       -3.70973         5.23634         1.87719
| 36>    C       -5.00494         5.37888         1.42694
| 37>    C       -5.87241         5.91332         2.40313
| 38>    S       -5.05915         6.25061         3.88435
| 39>    C       -7.16419         6.06367         1.90087
| 40>    C       -7.28688         5.64492         0.55671
| 41>    S       -5.78806         5.05660        -0.10770
| 42>    C       -8.60517         5.83982         0.18009
| 43>    C       -9.25805         6.39448         1.29212
| 44>    N       -8.37219         6.51094         2.33043
| 45>    C       -8.62607         6.84675         3.70429
| 46>    C      -10.63268         6.81760         1.29963
| 47>    C      -11.09876         8.00067         1.91675
| 48>    C      -12.47671         8.41452         1.85572
| 49>    N      -12.85338         9.54097         2.49561
| 50>    C      -11.95166        10.26646         3.09273
| 51>    C      -10.58950         9.90817         3.07136
| 52>    N      -10.18915         8.80117         2.51584
| 53>    C      -13.44325         7.68303         1.11901
| 54>    C      -12.96277         6.52517         0.47533
| 55>    C      -11.58854         6.09813         0.55942
| 56>    N      -11.38504         4.96486        -0.12096
| 57>    S      -12.75849         4.50122        -0.79913
| 58>    N      -13.69439         5.69418        -0.26988
| 59>    C      -14.80506         8.07135         0.96755
| 60>    C      -15.47117         9.13689         1.54895
| 61>    C      -16.79172         9.22545         1.12841
| 62>    C      -17.15736         8.22892         0.20959
| 63>    S      -15.84439         7.15311        -0.11142
| 64>    C      -18.47509         8.38650        -0.21814
| 65>    C      -19.12075         9.48579         0.39671
| 66>    S      -18.08207        10.34838         1.49344
| 67>    C      -20.41835         9.52443        -0.07708
| 68>    C      -20.53382         8.48720        -1.02117
| 69>    N      -19.33742         7.79467        -1.07645
| 70>    C      -19.06156         6.54038        -1.72006
| 71>    C      -21.69868         8.23242        -1.77533
| 72>    C      -21.88407         7.65572        -3.00028
| 73>    C      -20.99765         7.38102        -4.10526
| 74>    C      -19.82258         8.03575        -4.38506
| 75>    C      -19.02063         7.76705        -5.51100
| 76>    N      -18.31204         7.56587        -6.39219
| 77>    C      -19.33061         9.11861        -3.62933
| 78>    N      -18.91243        10.03645        -3.08111
| 79>    C      -21.69795         6.48441        -5.01952
| 80>    C      -23.05119         6.38388        -4.60570
| 81>    C      -23.23905         7.16572        -3.36910
| 82>    O      -24.26475         7.34387        -2.74974
| 83>    C      -23.98112         5.65229        -5.30332
| 84>    C      -23.55519         4.98061        -6.45390
| 85>    C      -22.19919         5.07389        -6.84778
| 86>    C      -21.25848         5.82115        -6.14773
| 87>    S      -21.89922         4.15816        -8.29097
| 88>    C      -23.55865         3.67448        -8.35815
| 89>    C      -24.30777         4.16827        -7.34851
| 90>    H       -3.34003         8.03153         8.52640
| 91>    H        1.39437         6.60880         7.71291
| 92>    H       -0.02727         9.17533        12.15288
| 93>    H       -2.33880         9.04842        10.94399
| 94>    H       -1.52103         5.20870         3.21505
| 95>    H       -2.89526         4.84671         1.29363
| 96>    H       -9.05691         5.64354        -0.76949
| 97>    H       -9.66839         6.65152         3.94846
| 98>    H       -8.40917         7.89827         3.89476
| 99>    H       -7.98405         6.23423         4.33886
|100>    H      -12.30071        11.15525         3.60045
|101>    H       -9.82850        10.53217         3.52022
|102>    H      -14.99141         9.80654         2.23596
|103>    H      -21.18593        10.23326         0.15829
|104>    H      -19.99339         6.04762        -1.99260
|105>    H      -18.50477         5.90194        -1.03185
|106>    H      -18.45114         6.68075        -2.61627
|107>    H      -22.62176         8.52491        -1.28203
|108>    H      -25.00725         5.60324        -4.97366
|109>    H      -20.23561         5.86216        -6.48415
|110>    H      -23.87468         3.04024        -9.16343
|111>    H      -25.35819         3.97458        -7.22761
|112> *
|113>
|114>                          ****END OF INPUT****

CARTESIAN COORDINATES (ANGSTROEM)
---------------------------------
  C     -0.592790    5.991280    5.646890
  C      0.517560    5.410570    5.086650
  C      1.789210    5.385530    5.695450
  N      2.848680    5.326410    6.134140
  C      0.564210    4.745240    3.844700
  N      0.691560    4.185220    2.849400
  C     -0.628770    6.651380    6.948670
  C     -1.958100    7.069180    7.209000
  C     -2.318360    7.727270    8.359490
  C     -1.317880    7.991130    9.300160
  C      0.006730    7.572660    9.032300
  C      0.370310    6.903680    7.868680
  S      1.076710    8.007100   10.327970
  C     -0.231300    8.730380   11.198400
  C     -1.417110    8.653890   10.555970
  C     -2.811300    6.691910    6.071480
  O     -4.013310    6.883250    5.978310
  C     -1.930240    6.051660    5.091200
  C     -2.301590    5.627100    3.838830
  C     -3.546000    5.666950    3.198670
  C     -3.709730    5.236340    1.877190
  C     -5.004940    5.378880    1.426940
  C     -5.872410    5.913320    2.403130
  S     -5.059150    6.250610    3.884350
  C     -7.164190    6.063670    1.900870
  C     -7.286880    5.644920    0.556710
  S     -5.788060    5.056600   -0.107700
  C     -8.605170    5.839820    0.180090
  C     -9.258050    6.394480    1.292120
  N     -8.372190    6.510940    2.330430
  C     -8.626070    6.846750    3.704290
  C    -10.632680    6.817600    1.299630
  C    -11.098760    8.000670    1.916750
  C    -12.476710    8.414520    1.855720
  N    -12.853380    9.540970    2.495610
  C    -11.951660   10.266460    3.092730
  C    -10.589500    9.908170    3.071360
  N    -10.189150    8.801170    2.515840
  C    -13.443250    7.683030    1.119010
  C    -12.962770    6.525170    0.475330
  C    -11.588540    6.098130    0.559420
  N    -11.385040    4.964860   -0.120960
  S    -12.758490    4.501220   -0.799130
  N    -13.694390    5.694180   -0.269880
  C    -14.805060    8.071350    0.967550
  C    -15.471170    9.136890    1.548950
  C    -16.791720    9.225450    1.128410
  C    -17.157360    8.228920    0.209590
  S    -15.844390    7.153110   -0.111420
  C    -18.475090    8.386500   -0.218140
  C    -19.120750    9.485790    0.396710
  S    -18.082070   10.348380    1.493440
  C    -20.418350    9.524430   -0.077080
  C    -20.533820    8.487200   -1.021170
  N    -19.337420    7.794670   -1.076450
  C    -19.061560    6.540380   -1.720060
  C    -21.698680    8.232420   -1.775330
  C    -21.884070    7.655720   -3.000280
  C    -20.997650    7.381020   -4.105260
  C    -19.822580    8.035750   -4.385060
  C    -19.020630    7.767050   -5.511000
  N    -18.312040    7.565870   -6.392190
  C    -19.330610    9.118610   -3.629330
  N    -18.912430   10.036450   -3.081110
  C    -21.697950    6.484410   -5.019520
  C    -23.051190    6.383880   -4.605700
  C    -23.239050    7.165720   -3.369100
  O    -24.264750    7.343870   -2.749740
  C    -23.981120    5.652290   -5.303320
  C    -23.555190    4.980610   -6.453900
  C    -22.199190    5.073890   -6.847780
  C    -21.258480    5.821150   -6.147730
  S    -21.899220    4.158160   -8.290970
  C    -23.558650    3.674480   -8.358150
  C    -24.307770    4.168270   -7.348510
  H     -3.340030    8.031530    8.526400
  H      1.394370    6.608800    7.712910
  H     -0.027270    9.175330   12.152880
  H     -2.338800    9.048420   10.943990
  H     -1.521030    5.208700    3.215050
  H     -2.895260    4.846710    1.293630
  H     -9.056910    5.643540   -0.769490
  H     -9.668390    6.651520    3.948460
  H     -8.409170    7.898270    3.894760
  H     -7.984050    6.234230    4.338860
  H    -12.300710   11.155250    3.600450
  H     -9.828500   10.532170    3.520220
  H    -14.991410    9.806540    2.235960
  H    -21.185930   10.233260    0.158290
  H    -19.993390    6.047620   -1.992600
  H    -18.504770    5.901940   -1.031850
  H    -18.451140    6.680750   -2.616270
  H    -22.621760    8.524910   -1.282030
  H    -25.007250    5.603240   -4.973660
  H    -20.235610    5.862160   -6.484150
  H    -23.874680    3.040240   -9.163430
  H    -25.358190    3.974580   -7.227610

 Total Charge           Charge          ....    0
 Multiplicity           Mult            ....    1
 Number of Electrons    NEL             ....  556
 Basis Dimension        Dim             .... 1188

ORBITAL ENERGIES
----------------

  NO   OCC          E(Eh)            E(eV)
   0   2.0000     -89.042669     -2422.9742
   1   2.0000     -88.964488     -2420.8468
   2   2.0000     -88.961814     -2420.7740
   3   2.0000     -88.961377     -2420.7621
   4   2.0000     -88.959682     -2420.7160
   5   2.0000     -88.952479     -2420.5200
   6   2.0000     -88.952195     -2420.5123
   7   2.0000     -19.212839      -522.8079
   8   2.0000     -19.208025      -522.6769
   9   2.0000     -14.479874      -394.0174
  10   2.0000     -14.474464      -393.8702
  11   2.0000     -14.450712      -393.2239
  12   2.0000     -14.449592      -393.1934
  13   2.0000     -14.438663      -392.8960
  14   2.0000     -14.438040      -392.8791
  15   2.0000     -14.411663      -392.1613
  16   2.0000     -14.408488      -392.0749
  17   2.0000     -14.407399      -392.0452
  18   2.0000     -14.405224      -391.9861
  19   2.0000     -10.360920      -281.9350
  20   2.0000     -10.359118      -281.8859
  21   2.0000     -10.337504      -281.2978
  22   2.0000     -10.336773      -281.2779
  23   2.0000     -10.336750      -281.2773
  24   2.0000     -10.335940      -281.2552
  25   2.0000     -10.335871      -281.2533
  26   2.0000     -10.335249      -281.2364
  27   2.0000     -10.334594      -281.2186
  28   2.0000     -10.333945      -281.2009
  29   2.0000     -10.332677      -281.1664
  30   2.0000     -10.330806      -281.1155
  31   2.0000     -10.322818      -280.8982
  32   2.0000     -10.319273      -280.8017
  33   2.0000     -10.319175      -280.7990
  34   2.0000     -10.319048      -280.7956
  35   2.0000     -10.317986      -280.7667
  36   2.0000     -10.314873      -280.6820
  37   2.0000     -10.314640      -280.6756
  38   2.0000     -10.314394      -280.6689
  39   2.0000     -10.314258      -280.6652
  40   2.0000     -10.313361      -280.6408
  41   2.0000     -10.312991      -280.6307
  42   2.0000     -10.312047      -280.6051
  43   2.0000     -10.311963      -280.6028
  44   2.0000     -10.311815      -280.5987
  45   2.0000     -10.309950      -280.5480
  46   2.0000     -10.309821      -280.5445
  47   2.0000     -10.309700      -280.5412
  48   2.0000     -10.309668      -280.5403
  49   2.0000     -10.309524      -280.5364
  50   2.0000     -10.308996      -280.5220
  51   2.0000     -10.308664      -280.5130
  52   2.0000     -10.303465      -280.3715
  53   2.0000     -10.302712      -280.3510
  54   2.0000     -10.302634      -280.3489
  55   2.0000     -10.301447      -280.3166
  56   2.0000     -10.300390      -280.2879
  57   2.0000     -10.299202      -280.2555
  58   2.0000     -10.298668      -280.2410
  59   2.0000     -10.296840      -280.1913
  60   2.0000     -10.296625      -280.1854
  61   2.0000     -10.296133      -280.1720
  62   2.0000     -10.295920      -280.1662
  63   2.0000     -10.295354      -280.1508
  64   2.0000     -10.293676      -280.1052
  65   2.0000     -10.293602      -280.1031
  66   2.0000     -10.289463      -279.9905
  67   2.0000     -10.287011      -279.9238
  68   2.0000     -10.286933      -279.9217
  69   2.0000     -10.285701      -279.8882
  70   2.0000     -10.285052      -279.8705
  71   2.0000     -10.283807      -279.8366
  72   2.0000     -10.282779      -279.8086
  73   2.0000     -10.279205      -279.7114
  74   2.0000     -10.269513      -279.4476
  75   2.0000      -8.133832      -221.3328
  76   2.0000      -8.060764      -219.3445
  77   2.0000      -8.058092      -219.2718
  78   2.0000      -8.053914      -219.1582
  79   2.0000      -8.053034      -219.1342
  80   2.0000      -8.047485      -218.9832
  81   2.0000      -8.047101      -218.9728
  82   2.0000      -6.104875      -166.1221
  83   2.0000      -6.097134      -165.9115
  84   2.0000      -6.096671      -165.8988
  85   2.0000      -6.030283      -164.0924
  86   2.0000      -6.027585      -164.0189
  87   2.0000      -6.025979      -163.9752
  88   2.0000      -6.023714      -163.9136
  89   2.0000      -6.023308      -163.9026
  90   2.0000      -6.022819      -163.8892
  91   2.0000      -6.022420      -163.8784
  92   2.0000      -6.019767      -163.8062
  93   2.0000      -6.019061      -163.7870
  94   2.0000      -6.018306      -163.7664
  95   2.0000      -6.017422      -163.7424
  96   2.0000      -6.017087      -163.7333
  97   2.0000      -6.015607      -163.6930
  98   2.0000      -6.014662      -163.6673
  99   2.0000      -6.013534      -163.6366
 100   2.0000      -6.013188      -163.6272
 101   2.0000      -6.008129      -163.4895
 102   2.0000      -6.007677      -163.4772
 103   2.0000      -1.139204       -30.9993
 104   2.0000      -1.127780       -30.6885
 105   2.0000      -1.122824       -30.5536
 106   2.0000      -1.104370       -30.0514
 107   2.0000      -1.101492       -29.9731
 108   2.0000      -1.093655       -29.7599
 109   2.0000      -1.020444       -27.7677
 110   2.0000      -1.015644       -27.6371
 111   2.0000      -1.012725       -27.5577
 112   2.0000      -1.004493       -27.3336
 113   2.0000      -1.003139       -27.2968
 114   2.0000      -1.002474       -27.2787
 115   2.0000      -1.001449       -27.2508
 116   2.0000      -0.991240       -26.9730
 117   2.0000      -0.988065       -26.8866
 118   2.0000      -0.985799       -26.8250
 119   2.0000      -0.980469       -26.6799
 120   2.0000      -0.978048       -26.6140
 121   2.0000      -0.968991       -26.3676
 122   2.0000      -0.945550       -25.7297
 123   2.0000      -0.941064       -25.6077
 124   2.0000      -0.927630       -25.2421
 125   2.0000      -0.922617       -25.1057
 126   2.0000      -0.911039       -24.7906
 127   2.0000      -0.902737       -24.5647
 128   2.0000      -0.892798       -24.2943
 129   2.0000      -0.887942       -24.1621
 130   2.0000      -0.880300       -23.9542
 131   2.0000      -0.878323       -23.9004
 132   2.0000      -0.876090       -23.8396
 133   2.0000      -0.874877       -23.8066
 134   2.0000      -0.869278       -23.6543
 135   2.0000      -0.865168       -23.5424
 136   2.0000      -0.852054       -23.1856
 137   2.0000      -0.842576       -22.9277
 138   2.0000      -0.820088       -22.3157
 139   2.0000      -0.818418       -22.2703
 140   2.0000      -0.816882       -22.2285
 141   2.0000      -0.813551       -22.1379
 142   2.0000      -0.808684       -22.0054
 143   2.0000      -0.796596       -21.6765
 144   2.0000      -0.795960       -21.6592
 145   2.0000      -0.780093       -21.2274
 146   2.0000      -0.774621       -21.0785
 147   2.0000      -0.772354       -21.0168
 148   2.0000      -0.762475       -20.7480
 149   2.0000      -0.753793       -20.5118
 150   2.0000      -0.751808       -20.4577
 151   2.0000      -0.746758       -20.3203
 152   2.0000      -0.733067       -19.9478
 153   2.0000      -0.715125       -19.4595
 154   2.0000      -0.711692       -19.3661
 155   2.0000      -0.700315       -19.0565
 156   2.0000      -0.687601       -18.7106
 157   2.0000      -0.684182       -18.6175
 158   2.0000      -0.682711       -18.5775
 159   2.0000      -0.679251       -18.4834
 160   2.0000      -0.677361       -18.4319
 161   2.0000      -0.672686       -18.3047
 162   2.0000      -0.664677       -18.0868
 163   2.0000      -0.657968       -17.9042
 164   2.0000      -0.655878       -17.8474
 165   2.0000      -0.650287       -17.6952
 166   2.0000      -0.647551       -17.6208
 167   2.0000      -0.641538       -17.4571
 168   2.0000      -0.636710       -17.3258
 169   2.0000      -0.632792       -17.2192
 170   2.0000      -0.631500       -17.1840
 171   2.0000      -0.624447       -16.9921
 172   2.0000      -0.615875       -16.7588
 173   2.0000      -0.614538       -16.7224
 174   2.0000      -0.612917       -16.6783
 175   2.0000      -0.603799       -16.4302
 176   2.0000      -0.598757       -16.2930
 177   2.0000      -0.592335       -16.1182
 178   2.0000      -0.589778       -16.0487
 179   2.0000      -0.587351       -15.9826
 180   2.0000      -0.580001       -15.7826
 181   2.0000      -0.578809       -15.7502
 182   2.0000      -0.570510       -15.5244
 183   2.0000      -0.568846       -15.4791
 184   2.0000      -0.565635       -15.3917
 185   2.0000      -0.562376       -15.3030
 186   2.0000      -0.561327       -15.2745
 187   2.0000      -0.558435       -15.1958
 188   2.0000      -0.552210       -15.0264
 189   2.0000      -0.546327       -14.8663
 190   2.0000      -0.543821       -14.7981
 191   2.0000      -0.539793       -14.6885
 192   2.0000      -0.537599       -14.6288
 193   2.0000      -0.535302       -14.5663
 194   2.0000      -0.533737       -14.5237
 195   2.0000      -0.530110       -14.4250
 196   2.0000      -0.529251       -14.4016
 197   2.0000      -0.527484       -14.3536
 198   2.0000      -0.525186       -14.2910
 199   2.0000      -0.519512       -14.1366
 200   2.0000      -0.515410       -14.0250
 201   2.0000      -0.514098       -13.9893
 202   2.0000      -0.510605       -13.8943
 203   2.0000      -0.509181       -13.8555
 204   2.0000      -0.507212       -13.8019
 205   2.0000      -0.506466       -13.7816
 206   2.0000      -0.503464       -13.6999
 207   2.0000      -0.502918       -13.6851
 208   2.0000      -0.501620       -13.6498
 209   2.0000      -0.496012       -13.4972
 210   2.0000      -0.494587       -13.4584
 211   2.0000      -0.493762       -13.4360
 212   2.0000      -0.488370       -13.2892
 213   2.0000      -0.487045       -13.2532
 214   2.0000      -0.486148       -13.2287
 215   2.0000      -0.485630       -13.2147
 216   2.0000      -0.484186       -13.1754
 217   2.0000      -0.483624       -13.1601
 218   2.0000      -0.480816       -13.0837
 219   2.0000      -0.476703       -12.9717
 220   2.0000      -0.473546       -12.8859
 221   2.0000      -0.470752       -12.8098
 222   2.0000      -0.466237       -12.6869
 223   2.0000      -0.462632       -12.5889
 224   2.0000      -0.461949       -12.5703
 225   2.0000      -0.460642       -12.5347
 226   2.0000      -0.458404       -12.4738
 227   2.0000      -0.451048       -12.2736
 228   2.0000      -0.448352       -12.2003
 229   2.0000      -0.446159       -12.1406
 230   2.0000      -0.444085       -12.0842
 231   2.0000      -0.443057       -12.0562
 232   2.0000      -0.441503       -12.0139
 233   2.0000      -0.437523       -11.9056
 234   2.0000      -0.436733       -11.8841
 235   2.0000      -0.435389       -11.8475
 236   2.0000      -0.429658       -11.6916
 237   2.0000      -0.429494       -11.6871
 238   2.0000      -0.428892       -11.6707
 239   2.0000      -0.428573       -11.6621
 240   2.0000      -0.424885       -11.5617
 241   2.0000      -0.422437       -11.4951
 242   2.0000      -0.419746       -11.4219
 243   2.0000      -0.419283       -11.4093
 244   2.0000      -0.417973       -11.3736
 245   2.0000      -0.417337       -11.3563
 246   2.0000      -0.415415       -11.3040
 247   2.0000      -0.411169       -11.1885
 248   2.0000      -0.407359       -11.0848
 249   2.0000      -0.404129       -10.9969
 250   2.0000      -0.402188       -10.9441
 251   2.0000      -0.398820       -10.8524
 252   2.0000      -0.396155       -10.7799
 253   2.0000      -0.394756       -10.7419
 254   2.0000      -0.390583       -10.6283
 255   2.0000      -0.389508       -10.5990
 256   2.0000      -0.375576       -10.2199
 257   2.0000      -0.375135       -10.2080
 258   2.0000      -0.366686        -9.9780
 259   2.0000      -0.364362        -9.9148
 260   2.0000      -0.360161        -9.8005
 261   2.0000      -0.346554        -9.4302
 262   2.0000      -0.342002        -9.3063
 263   2.0000      -0.336056        -9.1446
 264   2.0000      -0.334744        -9.1088
 265   2.0000      -0.333742        -9.0816
 266   2.0000      -0.329695        -8.9715
 267   2.0000      -0.327977        -8.9247
 268   2.0000      -0.319903        -8.7050
 269   2.0000      -0.310318        -8.4442
 270   2.0000      -0.308889        -8.4053
 271   2.0000      -0.295403        -8.0383
 272   2.0000      -0.291169        -7.9231
 273   2.0000      -0.286512        -7.7964
 274   2.0000      -0.278246        -7.5715
 275   2.0000      -0.277031        -7.5384
 276   2.0000      -0.254856        -6.9350
 277   2.0000      -0.227713        -6.1964
 278   0.0000      -0.112651        -3.0654
 279   0.0000      -0.082317        -2.2400
 280   0.0000      -0.079294        -2.1577
 281   0.0000      -0.052479        -1.4280
 282   0.0000      -0.051425        -1.3993

MULLIKEN ATOMIC CHARGES
-----------------------
   0 C :    0.332537
   1 C :   -0.362890
   2 C :   -0.186170
   3 N :    0.141347
   4 C :   -0.188414
   5 N :    0.139204
   6 C :    0.011119
   7 C :   -0.010672
   8 C :   -0.075340
   9 C :    0.118827
  10 C :   -0.096201
  11 C :   -0.026110
  12 S :    0.138645
  13 C :   -0.050258
  14 C :    0.023338
  15 C :    0.161946
  16 O :   -0.191290
  17 C :   -0.099460
  18 C :   -0.022857
  19 C :   -0.050763
  20 C :   -0.043549
  21 C :   -0.022622
  22 C :   -0.033948
  23 S :    0.188998
  24 C :    0.012237
  25 C :   -0.005409
  26 S :    0.147646
  27 C :   -0.095734
  28 C :   -0.007825
  29 N :   -0.143273
  30 C :    0.153115
  31 C :    0.107546
  32 C :   -0.076145
  33 C :   -0.076234
  34 N :   -0.027409
  35 C :    0.037779
  36 C :    0.028550
  37 N :   -0.031835
  38 C :    0.206827
  39 C :   -0.030229
  40 C :   -0.005724
  41 N :   -0.269283
  42 S :    0.546591
  43 N :   -0.329632
  44 C :   -0.173957
  45 C :   -0.045183
  46 C :   -0.021406
  47 C :   -0.033544
  48 S :    0.160061
  49 C :    0.029652
  50 C :    0.015217
  51 S :    0.150771
  52 C :   -0.093772
  53 C :    0.086977
  54 N :   -0.163105
  55 C :    0.120227
  56 C :    0.014111
  57 C :   -0.147834
  58 C :    0.258956
  59 C :   -0.370038
  60 C :   -0.182799
  61 N :    0.150720
  62 C :   -0.211470
  63 N :    0.180061
  64 C :    0.006469
  65 C :    0.006300
  66 C :    0.131623
  67 O :   -0.152060
  68 C :   -0.073060
  69 C :    0.109483
  70 C :   -0.092695
  71 C :   -0.027787
  72 S :    0.135970
  73 C :   -0.052413
  74 C :    0.026530
  75 H :   -0.017532
  76 H :   -0.008443
  77 H :    0.035845
  78 H :   -0.010412
  79 H :    0.006246
  80 H :    0.006567
  81 H :   -0.024649
  82 H :    0.030474
  83 H :    0.045196
  84 H :    0.040709
  85 H :    0.016447
  86 H :    0.018154
  87 H :   -0.003837
  88 H :   -0.013295
  89 H :    0.055260
  90 H :    0.043935
  91 H :    0.060948
  92 H :    0.028375
  93 H :   -0.012573
  94 H :   -0.007446
  95 H :    0.037806
  96 H :   -0.006756
Sum of atomic charges:   -0.0000000

LOEWDIN ATOMIC CHARGES
----------------------
   0 C :    0.078786
   1 C :   -0.151204
   2 C :   -0.018275
   3 N :   -0.061691
   4 C :   -0.021019
   5 N :   -0.061011
   6 C :   -0.020887
   7 C :   -0.052160
   8 C :    0.019874
   9 C :   -0.037153
  10 C :   -0.146876
  11 C :   -0.009432
  12 S :    0.427851
  13 C :   -0.152045
  14 C :   -0.058996
  15 C :    0.084000
  16 O :   -0.177436
  17 C :   -0.121058
  18 C :    0.054617
  19 C :   -0.184408
  20 C :   -0.019214
  21 C :   -0.193968
  22 C :   -0.195566
  23 S :    0.483452
  24 C :   -0.048318
  25 C :   -0.176522
  26 S :    0.385940
  27 C :   -0.061824
  28 C :    0.016809
  29 N :    0.069169
  30 C :    0.033847
  31 C :   -0.043807
  32 C :   -0.013790
  33 C :   -0.011337
  34 N :   -0.024739
  35 C :    0.011558
  36 C :    0.007280
  37 N :   -0.028922
  38 C :   -0.038049
  39 C :   -0.050030
  40 C :   -0.039604
  41 N :   -0.278060
  42 S :    0.673895
  43 N :   -0.306078
  44 C :   -0.156990
  45 C :   -0.045806
  46 C :   -0.179874
  47 C :   -0.218358
  48 S :    0.455432
  49 C :   -0.016345
  50 C :   -0.180551
  51 S :    0.393165
  52 C :   -0.034420
  53 C :   -0.017972
  54 N :    0.061095
  55 C :    0.034756
  56 C :    0.058127
  57 C :   -0.116755
  58 C :    0.063505
  59 C :   -0.151694
  60 C :   -0.022741
  61 N :   -0.059559
  62 C :   -0.027134
  63 N :   -0.046708
  64 C :   -0.021101
  65 C :   -0.055074
  66 C :    0.080781
  67 O :   -0.151296
  68 C :    0.022215
  69 C :   -0.037406
  70 C :   -0.146368
  71 C :   -0.014645
  72 S :    0.426190
  73 C :   -0.151779
  74 C :   -0.057843
  75 H :    0.038124
  76 H :    0.040409
  77 H :    0.028323
  78 H :    0.033791
  79 H :    0.050516
  80 H :    0.041805
  81 H :    0.027551
  82 H :    0.032029
  83 H :    0.029802
  84 H :    0.027296
  85 H :    0.028314
  86 H :    0.027755
  87 H :    0.031356
  88 H :    0.034367
  89 H :    0.039113
  90 H :    0.032116
  91 H :    0.032637
  92 H :    0.052693
  93 H :    0.040164
  94 H :    0.039441
  95 H :    0.028877
  96 H :    0.035075

  Mayer bond orders larger than 0.100000
B(  0-C ,  1-C ) :   1.6047 B(  0-C ,  6-C ) :   0.9936 B(  0-C , 17-C ) :   1.0937
B(  1-C ,  2-C ) :   1.1472 B(  1-C ,  4-C ) :   1.1484 B(  2-C ,  3-N ) :   2.9650
B(  4-C ,  5-N ) :   2.9571 B(  6-C ,  7-C ) :   1.2721 B(  6-C , 11-C ) :   1.4171
B(  7-C ,  8-C ) :   1.4260 B(  7-C , 15-C ) :   0.9597 B(  8-C ,  9-C ) :   1.2386
B(  8-C , 75-H ) :   1.0172 B(  9-C , 10-C ) :   1.3081 B(  9-C , 14-C ) :   1.1700
B( 10-C , 11-C ) :   1.3170 B( 10-C , 12-S ) :   1.0981 B( 11-C , 76-H ) :   0.9824
B( 12-S , 13-C ) :   1.1273 B( 13-C , 14-C ) :   1.6288 B( 13-C , 77-H ) :   0.9686
B( 14-C , 78-H ) :   0.9996 B( 15-C , 16-O ) :   2.1164 B( 15-C , 17-C ) :   0.9849
B( 17-C , 18-C ) :   1.4571 B( 18-C , 19-C ) :   1.2991 B( 18-C , 79-H ) :   0.9379
B( 19-C , 20-C ) :   1.3409 B( 19-C , 23-S ) :   1.0512 B( 20-C , 21-C ) :   1.3593
B( 20-C , 80-H ) :   1.0119 B( 21-C , 22-C ) :   1.3462 B( 21-C , 26-S ) :   1.0331
B( 22-C , 23-S ) :   1.0282 B( 22-C , 24-C ) :   1.2963 B( 24-C , 25-C ) :   1.3503
B( 24-C , 28-C ) :   0.1030 B( 24-C , 29-N ) :   1.2026 B( 25-C , 26-S ) :   1.0114
B( 25-C , 27-C ) :   1.3435 B( 27-C , 28-C ) :   1.4304 B( 27-C , 81-H ) :   1.0118
B( 28-C , 29-N ) :   1.2146 B( 28-C , 31-C ) :   0.9860 B( 29-N , 30-C ) :   0.9631
B( 30-C , 82-H ) :   0.9691 B( 30-C , 83-H ) :   0.9637 B( 30-C , 84-H ) :   0.9609
B( 31-C , 32-C ) :   1.3033 B( 31-C , 38-C ) :   0.1392 B( 31-C , 40-C ) :   1.2649
B( 32-C , 33-C ) :   1.1076 B( 32-C , 37-N ) :   1.4521 B( 33-C , 34-N ) :   1.4554
B( 33-C , 38-C ) :   1.2787 B( 34-N , 35-C ) :   1.6827 B( 35-C , 36-C ) :   1.1813
B( 35-C , 85-H ) :   0.9738 B( 36-C , 37-N ) :   1.6819 B( 36-C , 86-H ) :   0.9733
B( 38-C , 39-C ) :   1.1908 B( 38-C , 44-C ) :   1.1829 B( 39-C , 40-C ) :   1.1081
B( 39-C , 43-N ) :   1.4697 B( 40-C , 41-N ) :   1.5062 B( 41-N , 42-S ) :   1.2948
B( 41-N , 43-N ) :   0.1563 B( 42-S , 43-N ) :   1.2693 B( 44-C , 45-C ) :   1.4653
B( 44-C , 48-S ) :   1.0833 B( 45-C , 46-C ) :   1.2635 B( 45-C , 87-H ) :   0.9886
B( 46-C , 47-C ) :   1.4068 B( 46-C , 51-S ) :   1.0458 B( 47-C , 48-S ) :   1.0139
B( 47-C , 49-C ) :   1.2759 B( 49-C , 50-C ) :   1.3359 B( 49-C , 54-N ) :   1.2314
B( 50-C , 51-S ) :   1.0124 B( 50-C , 52-C ) :   1.3706 B( 52-C , 53-C ) :   1.3288
B( 52-C , 88-H ) :   1.0191 B( 53-C , 54-N ) :   1.1361 B( 53-C , 56-C ) :   1.1602
B( 54-N , 55-C ) :   0.9657 B( 55-C , 89-H ) :   0.9640 B( 55-C , 90-H ) :   0.9646
B( 55-C , 91-H ) :   0.9591 B( 56-C , 57-C ) :   1.5577 B( 56-C , 92-H ) :   0.9402
B( 57-C , 58-C ) :   1.0696 B( 57-C , 66-C ) :   0.9443 B( 58-C , 59-C ) :   1.6164
B( 58-C , 64-C ) :   1.0108 B( 59-C , 60-C ) :   1.1357 B( 59-C , 62-C ) :   1.1671
B( 60-C , 61-N ) :   2.9845 B( 62-C , 63-N ) :   3.0046 B( 64-C , 65-C ) :   1.2718
B( 64-C , 71-C ) :   1.4193 B( 65-C , 66-C ) :   0.9221 B( 65-C , 68-C ) :   1.4278
B( 66-C , 67-O ) :   2.2588 B( 68-C , 69-C ) :   1.2458 B( 68-C , 93-H ) :   1.0175
B( 69-C , 70-C ) :   1.3084 B( 69-C , 74-C ) :   1.1712 B( 70-C , 71-C ) :   1.3130
B( 70-C , 72-S ) :   1.0962 B( 71-C , 94-H ) :   0.9863 B( 72-S , 73-C ) :   1.1258
B( 73-C , 74-C ) :   1.6297 B( 73-C , 95-H ) :   0.9687 B( 74-C , 96-H ) :   0.9992

-----------------------------------------------------------------------------
         ABSORPTION SPECTRUM VIA TRANSITION ELECTRIC DIPOLE MOMENTS
-----------------------------------------------------------------------------
State   Energy  Wavelength   fosc         T2         TX        TY        TZ
        (cm-1)    (nm)                  (au**2)     (au)      (au)      (au)
-----------------------------------------------------------------------------
   0   10091.2    991.0   1.168757968  38.12934  -5.75183   0.70803  -2.13178
   1   16805.2    595.1   0.072705753   1.42430   0.09336   0.41133   1.11642
   2   18106.7    552.3   0.342363641   6.22477  -1.42200  -0.38904  -2.01279
   3   19362.4    516.5   0.801788248  13.63249  -3.19550   0.09112  -1.84743
   4   20293.6    492.8   0.005773184   0.09366  -0.07159   0.02490  -0.29650
   5   20346.1    491.5   0.024556580   0.39734   0.00662   0.42481   0.46566
   6   24416.4    409.6   0.180054530   2.42772  -1.18901  -0.17857  -0.99100
   7   24651.6    405.7   0.037014278   0.49431  -0.47379   0.04698  -0.51733
   8   24752.5    404.0   0.134623909   1.79052  -1.31363  -0.16267  -0.19604
   9   25270.9    395.7   0.042549850   0.55431  -0.00333  -0.25890  -0.69805
  10   25374.8    394.1   0.065299485   0.84719   0.74389  -0.03717   0.54077
  11   26099.9    383.1   0.043283685   0.54596   0.72955  -0.09892  -0.06270
  12   26735.8    374.0   0.070184473   0.86422  -0.65572   0.24953   0.60990
  13   27171.8    368.0   0.037000305   0.44829   0.32604   0.19065   0.55285
  14   27380.6    365.2   0.004219536   0.05073   0.08330  -0.08754  -0.19008
  15   27712.1    360.9   0.229397008   2.72517  -1.06462  -0.89475  -0.88948
  16   28051.2    356.5   0.290473712   3.40903  -0.53510  -0.74175  -1.60390
  17   29476.0    339.3   0.001924260   0.02149  -0.01594   0.02685  -0.14324
  18   29602.9    337.8   0.011207091   0.12463  -0.35124  -0.01118   0.03372
  19   30179.5    331.4   0.045588822   0.49730  -0.06692   0.36710   0.59838
  20   30404.7    328.9   0.049288294   0.53368   0.48406  -0.46070  -0.29517
  21   30768.2    325.0   0.021241342   0.22728   0.07013   0.45863   0.10960
  22   30835.9    324.3   0.004045511   0.04319   0.08833  -0.12143   0.14368
  23   31668.1    315.8   0.371342396   3.86037   1.62105   0.83863   0.72750
  24   31946.6    313.0   0.060260191   0.62099  -0.44018  -0.20112  -0.62192
  25   32361.0    309.0   0.146293105   1.48825  -1.11126   0.06433   0.49921
  26   32483.9    307.8   0.129766524   1.31514   0.36638  -0.57538  -0.92187
  27   32515.6    307.5   0.247002523   2.50084  -0.28453   1.19164   0.99994
  28   32562.9    307.1   0.062408818   0.63096   0.70687  -0.34267  -0.11776
  29   32726.7    305.6   0.012873143   0.12950   0.06969  -0.26541  -0.23280
  30   32802.0    304.9   0.028625058   0.28729   0.19120   0.06444   0.49657
  31   33504.1    298.5   0.003109066   0.03055  -0.08027  -0.09690  -0.12132
  32   33600.7    297.6   0.226246697   2.21672  -1.47362   0.21110  -0.02420
  33   33877.6    295.2   0.032277735   0.31367   0.27101  -0.24513  -0.42441
  34   33923.0    294.8   0.259682086   2.52013  -0.51096  -1.01248  -1.11083
  35   34057.7    293.6   0.022054974   0.21319   0.38266  -0.25823   0.00878
  36   34242.2    292.0   0.194799552   1.87284  -0.57947   0.48049   1.14288
  37   34609.2    288.9   0.155895658   1.48292  -0.51388  -0.54070  -0.96254
  38   34717.3    288.0   0.003617263   0.03430  -0.04200   0.02877  -0.17807
  39   34796.5    287.4   0.050402911   0.47687   0.21190   0.42053   0.50509
  40   35391.6    282.6   0.238897512   2.22222  -0.14507  -1.21216  -0.85548
  41   35529.4    281.5   0.101562191   0.94106   0.37971  -0.71289  -0.53728
  42   35642.0    280.6   0.002280257   0.02106   0.09320   0.00433   0.11116
  43   35834.7    279.1   0.023186462   0.21301   0.43099   0.16064  -0.03815
  44   36125.1    276.8   0.135503413   1.23486  -1.04212  -0.38007  -0.06624
  45   36306.7    275.4   0.302261985   2.74077  -0.95818   0.93000   0.97865
  46   37041.5    270.0   0.266826547   2.37146   0.43674   1.26563   0.76085
  47   37052.2    269.9   0.360112447   3.19963  -0.64157  -1.45110  -0.82603
  48   38109.4    262.4   0.010165719   0.08782   0.15520  -0.00336  -0.25243
  49   38245.6    261.5   0.037871732   0.32599  -0.51777   0.13992   0.19578
  50   38681.7    258.5   0.040445933   0.34423  -0.36648  -0.13826  -0.43681
  51   39014.9    256.3   0.165207403   1.39404  -0.87030  -0.22857  -0.76444
  52   39266.6    254.7   0.036133878   0.30295   0.51217  -0.12804  -0.15566
  53   39587.3    252.6   0.029402619   0.24452  -0.07314   0.30240   0.38435
  54   39914.7    250.5   0.088270423   0.72804  -0.75548   0.04060  -0.39453
  55   39974.0    250.2   0.022946672   0.18898   0.08978  -0.24847  -0.34523
  56   40058.4    249.6   0.078388244   0.64422  -0.55074   0.26245   0.52156

FINAL SINGLE POINT ENERGY     -5627.985377345137

DIPOLE MOMENT
-------------
                                X             Y             Z
Electronic contribution:     16.21662      -4.52632      -5.87829
Nuclear contribution   :    -19.53326       4.41260       7.43783
                        -----------------------------------------
Total Dipole Moment    :     -3.31664      -0.11372       1.55954
                        -----------------------------------------
Magnitude (a.u.)       :      3.66677
Magnitude (Debye)      :      9.32019

Rotational constants in cm-1:     0.002186     0.000177     0.000166
Rotational constants in MHz :    65.522319     5.317727     4.989416

                             ****ORCA TERMINATED NORMALLY****
TOTAL RUN TIME: 0 days 0 hours 9 minutes 27 seconds 381 msec
