                         Program Version 4.2.0 -  RELEASE  -
|  1> # ORCA input file
|  2> # SCF done       -159.472592330158          0.000708247409
|  3> ! CAM-B3LYP def2-SVP def2/J RIJCOSX Grid4 TightSCF
|  4> %maxcore 5000
|  5> %tddft
|  6>     Mode sTDDFT
|  7>     Ethresh 5.0
|  8>     maxcore 5000
|  9> end
| 10>
| 11> %pal
| 12>   nprocs 6
| 13>   end
| 14> * xyz 0 1
| 15>    C       -1.33987         5.21997        -6.29504
| 16>    C       -0.60527         4.74232        -5.24702
| 17>    C       -0.90380         5.05591        -3.90604
| 18>    C       -1.95684         5.86787        -3.53398
| 19>    C       -2.74210         6.38223        -4.60476
| 20>    C       -2.42718         6.05371        -5.97543
| 21>    N       -3.31653         6.66661        -6.73553
| 22>    O       -4.12125         7.32459        -5.90858
| 23>    N       -3.79834         7.17056        -4.62788
| 24>    C       -2.26203         6.19059        -2.17275
| 25>    C       -3.28199         6.99826        -1.70909
| 26>    C       -3.27977         7.09636        -0.31733
| 27>    C       -2.24655         6.35271         0.28451
| 28>    S       -1.28376         5.53803        -0.86289
| 29>    C       -2.31573         6.51229         1.68874
| 30>    C       -3.39861         7.36769         1.97651
| 31>    C       -4.04258         7.75500         0.72968
| 32>    C       -5.13787         8.55410         0.58455
| 33>    C       -5.79859         9.13104         1.69030
| 34>    N       -6.34502         9.60563         2.57973
| 35>    C       -5.69702         8.85792        -0.67536
| 36>    N       -6.16704         9.11452        -1.68900
| 37>    C       -3.55555         7.59691         3.33618
| 38>    C       -2.60683         6.91777         4.09107
| 39>    S       -1.50211         5.98074         3.10016
| 40>    C       -2.48135         6.91524         5.50301
| 41>    C       -1.49412         6.12765         6.14066
| 42>    C       -1.36100         6.07311         7.56443
| 43>    N       -0.41169         5.29600         8.11274
| 44>    C        0.37569         4.60558         7.33434
| 45>    C        0.24681         4.66188         5.93293
| 46>    N       -0.66570         5.40437         5.36849
| 47>    C       -2.20115         6.81041         8.43166
| 48>    C       -3.17454         7.61750         7.80118
| 49>    C       -3.31404         7.66671         6.36218
| 50>    N       -4.29869         8.48991         5.99614
| 51>    S       -4.97379         9.12990         7.30021
| 52>    N       -4.06586         8.40670         8.40438
| 53>    C       -2.05668         6.71219         9.83840
| 54>    C       -2.80393         7.37448        10.80502
| 55>    C       -2.41224         7.02945        12.09087
| 56>    C       -1.35649         6.09548        12.10764
| 57>    S       -0.84433         5.65087        10.53386
| 58>    C       -1.04948         5.80758        13.45850
| 59>    C       -1.90289         6.55151        14.29581
| 60>    C       -2.78497         7.34986        13.46118
| 61>    C       -3.75425         8.21865        13.86722
| 62>    C       -4.03556         8.46395        15.22844
| 63>    N       -4.27672         8.67935        16.32808
| 64>    C       -4.54691         8.94233        12.95063
| 65>    N       -5.19867         9.53598        12.21730
| 66>    C       -1.67477         6.31745        15.65220
| 67>    C       -0.65759         5.40558        15.85623
| 68>    S        0.03071         4.82840        14.34257
| 69>    C       -0.15794         4.92380        17.10864
| 70>    C        0.88293         4.02298        17.21704
| 71>    C        1.36988         3.54870        18.45134
| 72>    C        0.84617         3.94422        19.64943
| 73>    C       -0.21886         4.86230        19.60038
| 74>    C       -0.72498         5.35635        18.34121
| 75>    N       -1.70920         6.18832        18.61857
| 76>    O       -1.81309         6.21537        19.94395
| 77>    N       -0.93272         5.43065        20.55521
| 78>    H       -1.11890         4.98531        -7.32212
| 79>    H        0.24013         4.09859        -5.43820
| 80>    H       -0.27440         4.63886        -3.13291
| 81>    H       -3.97697         7.47943        -2.37323
| 82>    H       -4.30622         8.21591         3.79173
| 83>    H        1.12559         3.99398         7.81512
| 84>    H        0.89294         4.09699         5.27644
| 85>    H       -3.58681         8.06254        10.54447
| 86>    H       -2.20772         6.77144        16.46796
| 87>    H        1.35003         3.66144        16.31217
| 88>    H        2.18885         2.84539        18.43371
| 89>    H        1.21146         3.58622        20.59658
| 90> *
| 91>
| 92>                          ****END OF INPUT****

CARTESIAN COORDINATES (ANGSTROEM)
---------------------------------
  C     -1.339870    5.219970   -6.295040
  C     -0.605270    4.742320   -5.247020
  C     -0.903800    5.055910   -3.906040
  C     -1.956840    5.867870   -3.533980
  C     -2.742100    6.382230   -4.604760
  C     -2.427180    6.053710   -5.975430
  N     -3.316530    6.666610   -6.735530
  O     -4.121250    7.324590   -5.908580
  N     -3.798340    7.170560   -4.627880
  C     -2.262030    6.190590   -2.172750
  C     -3.281990    6.998260   -1.709090
  C     -3.279770    7.096360   -0.317330
  C     -2.246550    6.352710    0.284510
  S     -1.283760    5.538030   -0.862890
  C     -2.315730    6.512290    1.688740
  C     -3.398610    7.367690    1.976510
  C     -4.042580    7.755000    0.729680
  C     -5.137870    8.554100    0.584550
  C     -5.798590    9.131040    1.690300
  N     -6.345020    9.605630    2.579730
  C     -5.697020    8.857920   -0.675360
  N     -6.167040    9.114520   -1.689000
  C     -3.555550    7.596910    3.336180
  C     -2.606830    6.917770    4.091070
  S     -1.502110    5.980740    3.100160
  C     -2.481350    6.915240    5.503010
  C     -1.494120    6.127650    6.140660
  C     -1.361000    6.073110    7.564430
  N     -0.411690    5.296000    8.112740
  C      0.375690    4.605580    7.334340
  C      0.246810    4.661880    5.932930
  N     -0.665700    5.404370    5.368490
  C     -2.201150    6.810410    8.431660
  C     -3.174540    7.617500    7.801180
  C     -3.314040    7.666710    6.362180
  N     -4.298690    8.489910    5.996140
  S     -4.973790    9.129900    7.300210
  N     -4.065860    8.406700    8.404380
  C     -2.056680    6.712190    9.838400
  C     -2.803930    7.374480   10.805020
  C     -2.412240    7.029450   12.090870
  C     -1.356490    6.095480   12.107640
  S     -0.844330    5.650870   10.533860
  C     -1.049480    5.807580   13.458500
  C     -1.902890    6.551510   14.295810
  C     -2.784970    7.349860   13.461180
  C     -3.754250    8.218650   13.867220
  C     -4.035560    8.463950   15.228440
  N     -4.276720    8.679350   16.328080
  C     -4.546910    8.942330   12.950630
  N     -5.198670    9.535980   12.217300
  C     -1.674770    6.317450   15.652200
  C     -0.657590    5.405580   15.856230
  S      0.030710    4.828400   14.342570
  C     -0.157940    4.923800   17.108640
  C      0.882930    4.022980   17.217040
  C      1.369880    3.548700   18.451340
  C      0.846170    3.944220   19.649430
  C     -0.218860    4.862300   19.600380
  C     -0.724980    5.356350   18.341210
  N     -1.709200    6.188320   18.618570
  O     -1.813090    6.215370   19.943950
  N     -0.932720    5.430650   20.555210
  H     -1.118900    4.985310   -7.322120
  H      0.240130    4.098590   -5.438200
  H     -0.274400    4.638860   -3.132910
  H     -3.976970    7.479430   -2.373230
  H     -4.306220    8.215910    3.791730
  H      1.125590    3.993980    7.815120
  H      0.892940    4.096990    5.276440
  H     -3.586810    8.062540   10.544470
  H     -2.207720    6.771440   16.467960
  H      1.350030    3.661440   16.312170
  H      2.188850    2.845390   18.433710
  H      1.211460    3.586220   20.596580

 Total Charge           Charge          ....    0
 Multiplicity           Mult            ....    1
 Number of Electrons    NEL             ....  456
 Basis Dimension        Dim             ....  962

ORBITAL ENERGIES
----------------

  NO   OCC          E(Eh)            E(eV)
   0   2.0000     -89.043438     -2422.9951
   1   2.0000     -88.986152     -2421.4363
   2   2.0000     -88.986037     -2421.4332
   3   2.0000     -88.978796     -2421.2361
   4   2.0000     -88.978680     -2421.2330
   5   2.0000     -19.355009      -526.6766
   6   2.0000     -19.354963      -526.6753
   7   2.0000     -14.480306      -394.0291
   8   2.0000     -14.480208      -394.0265
   9   2.0000     -14.477888      -393.9634
  10   2.0000     -14.477836      -393.9620
  11   2.0000     -14.454317      -393.3219
  12   2.0000     -14.454183      -393.3183
  13   2.0000     -14.451216      -393.2376
  14   2.0000     -14.451121      -393.2350
  15   2.0000     -14.422462      -392.4551
  16   2.0000     -14.422339      -392.4518
  17   2.0000     -14.420461      -392.4007
  18   2.0000     -14.420375      -392.3984
  19   2.0000     -10.356646      -281.8187
  20   2.0000     -10.356602      -281.8175
  21   2.0000     -10.347970      -281.5826
  22   2.0000     -10.347690      -281.5749
  23   2.0000     -10.343509      -281.4612
  24   2.0000     -10.343508      -281.4612
  25   2.0000     -10.341882      -281.4169
  26   2.0000     -10.341625      -281.4099
  27   2.0000     -10.340930      -281.3910
  28   2.0000     -10.340652      -281.3835
  29   2.0000     -10.329343      -281.0757
  30   2.0000     -10.329243      -281.0730
  31   2.0000     -10.327165      -281.0164
  32   2.0000     -10.327129      -281.0155
  33   2.0000     -10.323881      -280.9271
  34   2.0000     -10.323860      -280.9265
  35   2.0000     -10.322813      -280.8980
  36   2.0000     -10.322711      -280.8953
  37   2.0000     -10.320909      -280.8462
  38   2.0000     -10.320881      -280.8454
  39   2.0000     -10.320223      -280.8275
  40   2.0000     -10.320100      -280.8242
  41   2.0000     -10.319147      -280.7983
  42   2.0000     -10.319090      -280.7967
  43   2.0000     -10.318092      -280.7696
  44   2.0000     -10.317920      -280.7649
  45   2.0000     -10.316921      -280.7377
  46   2.0000     -10.316787      -280.7340
  47   2.0000     -10.316569      -280.7281
  48   2.0000     -10.316552      -280.7277
  49   2.0000     -10.300890      -280.3015
  50   2.0000     -10.300888      -280.3014
  51   2.0000     -10.300593      -280.2934
  52   2.0000     -10.300586      -280.2932
  53   2.0000     -10.298370      -280.2329
  54   2.0000     -10.298301      -280.2310
  55   2.0000     -10.297526      -280.2099
  56   2.0000     -10.297454      -280.2080
  57   2.0000     -10.293998      -280.1139
  58   2.0000     -10.293968      -280.1131
  59   2.0000     -10.293127      -280.0902
  60   2.0000     -10.293052      -280.0882
  61   2.0000     -10.289864      -280.0014
  62   2.0000     -10.289781      -279.9992
  63   2.0000      -8.134411      -221.3486
  64   2.0000      -8.080632      -219.8852
  65   2.0000      -8.080586      -219.8839
  66   2.0000      -8.070954      -219.6218
  67   2.0000      -8.070898      -219.6203
  68   2.0000      -6.105462      -166.1381
  69   2.0000      -6.097555      -165.9229
  70   2.0000      -6.097400      -165.9187
  71   2.0000      -6.049868      -164.6253
  72   2.0000      -6.049769      -164.6226
  73   2.0000      -6.045689      -164.5116
  74   2.0000      -6.045688      -164.5115
  75   2.0000      -6.043115      -164.4415
  76   2.0000      -6.043043      -164.4395
  77   2.0000      -6.040583      -164.3726
  78   2.0000      -6.040551      -164.3718
  79   2.0000      -6.035708      -164.2400
  80   2.0000      -6.035615      -164.2374
  81   2.0000      -6.033463      -164.1789
  82   2.0000      -6.033393      -164.1770
  83   2.0000      -1.308791       -35.6140
  84   2.0000      -1.308667       -35.6106
  85   2.0000      -1.140364       -31.0309
  86   2.0000      -1.110877       -30.2285
  87   2.0000      -1.041012       -28.3274
  88   2.0000      -1.036911       -28.2158
  89   2.0000      -1.034043       -28.1377
  90   2.0000      -1.014688       -27.6111
  91   2.0000      -1.014638       -27.6097
  92   2.0000      -1.011498       -27.5242
  93   2.0000      -1.011239       -27.5172
  94   2.0000      -1.002482       -27.2789
  95   2.0000      -1.002268       -27.2731
  96   2.0000      -0.998674       -27.1753
  97   2.0000      -0.998630       -27.1741
  98   2.0000      -0.995793       -27.0969
  99   2.0000      -0.990580       -26.9551
 100   2.0000      -0.982043       -26.7228
 101   2.0000      -0.969909       -26.3926
 102   2.0000      -0.951025       -25.8787
 103   2.0000      -0.946376       -25.7522
 104   2.0000      -0.921433       -25.0735
 105   2.0000      -0.920973       -25.0609
 106   2.0000      -0.910887       -24.7865
 107   2.0000      -0.904233       -24.6054
 108   2.0000      -0.888896       -24.1881
 109   2.0000      -0.885727       -24.1019
 110   2.0000      -0.874818       -23.8050
 111   2.0000      -0.870576       -23.6896
 112   2.0000      -0.858448       -23.3596
 113   2.0000      -0.851212       -23.1627
 114   2.0000      -0.846152       -23.0250
 115   2.0000      -0.845280       -23.0012
 116   2.0000      -0.817154       -22.2359
 117   2.0000      -0.799586       -21.7579
 118   2.0000      -0.790047       -21.4983
 119   2.0000      -0.776219       -21.1220
 120   2.0000      -0.775593       -21.1050
 121   2.0000      -0.771386       -20.9905
 122   2.0000      -0.767240       -20.8777
 123   2.0000      -0.757931       -20.6244
 124   2.0000      -0.747011       -20.3272
 125   2.0000      -0.746441       -20.3117
 126   2.0000      -0.743980       -20.2447
 127   2.0000      -0.719575       -19.5806
 128   2.0000      -0.716723       -19.5030
 129   2.0000      -0.702487       -19.1157
 130   2.0000      -0.695861       -18.9353
 131   2.0000      -0.680287       -18.5115
 132   2.0000      -0.679033       -18.4774
 133   2.0000      -0.678162       -18.4537
 134   2.0000      -0.670540       -18.2463
 135   2.0000      -0.657354       -17.8875
 136   2.0000      -0.657144       -17.8818
 137   2.0000      -0.649722       -17.6798
 138   2.0000      -0.642241       -17.4763
 139   2.0000      -0.639886       -17.4122
 140   2.0000      -0.632045       -17.1988
 141   2.0000      -0.628993       -17.1158
 142   2.0000      -0.619678       -16.8623
 143   2.0000      -0.616751       -16.7826
 144   2.0000      -0.612347       -16.6628
 145   2.0000      -0.606687       -16.5088
 146   2.0000      -0.605964       -16.4891
 147   2.0000      -0.605898       -16.4873
 148   2.0000      -0.605869       -16.4865
 149   2.0000      -0.597819       -16.2675
 150   2.0000      -0.591919       -16.1069
 151   2.0000      -0.580452       -15.7949
 152   2.0000      -0.575814       -15.6687
 153   2.0000      -0.573327       -15.6010
 154   2.0000      -0.573034       -15.5930
 155   2.0000      -0.569106       -15.4862
 156   2.0000      -0.561717       -15.2851
 157   2.0000      -0.555406       -15.1134
 158   2.0000      -0.544963       -14.8292
 159   2.0000      -0.544707       -14.8222
 160   2.0000      -0.540160       -14.6985
 161   2.0000      -0.538743       -14.6599
 162   2.0000      -0.534782       -14.5522
 163   2.0000      -0.526548       -14.3281
 164   2.0000      -0.524711       -14.2781
 165   2.0000      -0.513196       -13.9648
 166   2.0000      -0.509289       -13.8585
 167   2.0000      -0.506076       -13.7710
 168   2.0000      -0.500476       -13.6186
 169   2.0000      -0.500428       -13.6173
 170   2.0000      -0.497404       -13.5351
 171   2.0000      -0.490567       -13.3490
 172   2.0000      -0.490464       -13.3462
 173   2.0000      -0.489117       -13.3095
 174   2.0000      -0.487553       -13.2670
 175   2.0000      -0.487181       -13.2569
 176   2.0000      -0.484250       -13.1771
 177   2.0000      -0.483882       -13.1671
 178   2.0000      -0.482218       -13.1218
 179   2.0000      -0.475582       -12.9413
 180   2.0000      -0.469118       -12.7654
 181   2.0000      -0.468647       -12.7525
 182   2.0000      -0.467836       -12.7305
 183   2.0000      -0.466287       -12.6883
 184   2.0000      -0.465523       -12.6675
 185   2.0000      -0.456400       -12.4193
 186   2.0000      -0.453136       -12.3305
 187   2.0000      -0.453045       -12.3280
 188   2.0000      -0.451126       -12.2758
 189   2.0000      -0.450566       -12.2605
 190   2.0000      -0.446772       -12.1573
 191   2.0000      -0.446615       -12.1530
 192   2.0000      -0.442479       -12.0405
 193   2.0000      -0.438153       -11.9227
 194   2.0000      -0.436211       -11.8699
 195   2.0000      -0.431610       -11.7447
 196   2.0000      -0.431576       -11.7438
 197   2.0000      -0.430176       -11.7057
 198   2.0000      -0.430165       -11.7054
 199   2.0000      -0.427026       -11.6200
 200   2.0000      -0.420462       -11.4414
 201   2.0000      -0.418577       -11.3901
 202   2.0000      -0.418321       -11.3831
 203   2.0000      -0.417948       -11.3730
 204   2.0000      -0.407533       -11.0895
 205   2.0000      -0.402077       -10.9411
 206   2.0000      -0.401994       -10.9388
 207   2.0000      -0.400385       -10.8950
 208   2.0000      -0.400206       -10.8902
 209   2.0000      -0.391877       -10.6635
 210   2.0000      -0.391751       -10.6601
 211   2.0000      -0.379797       -10.3348
 212   2.0000      -0.376928       -10.2567
 213   2.0000      -0.374410       -10.1882
 214   2.0000      -0.370338       -10.0774
 215   2.0000      -0.365369        -9.9422
 216   2.0000      -0.363324        -9.8865
 217   2.0000      -0.352519        -9.5925
 218   2.0000      -0.341987        -9.3059
 219   2.0000      -0.340866        -9.2754
 220   2.0000      -0.338102        -9.2002
 221   2.0000      -0.337676        -9.1886
 222   2.0000      -0.322774        -8.7831
 223   2.0000      -0.314638        -8.5617
 224   2.0000      -0.313573        -8.5327
 225   2.0000      -0.294067        -8.0020
 226   2.0000      -0.266342        -7.2475
 227   2.0000      -0.232258        -6.3201
 228   0.0000      -0.123425        -3.3586
 229   0.0000      -0.096642        -2.6298
 230   0.0000      -0.090490        -2.4624
 231   0.0000      -0.065288        -1.7766
 232   0.0000      -0.065166        -1.7733

MULLIKEN ATOMIC CHARGES
-----------------------
   0 C :   -0.025155
   1 C :    0.043826
   2 C :   -0.078581
   3 C :    0.173032
   4 C :   -0.073183
   5 C :    0.001591
   6 N :    0.058020
   7 O :   -0.088781
   8 N :    0.043110
   9 C :   -0.121805
  10 C :   -0.052662
  11 C :    0.024063
  12 C :   -0.094983
  13 S :    0.158313
  14 C :   -0.065935
  15 C :    0.035279
  16 C :    0.311025
  17 C :   -0.307377
  18 C :   -0.190394
  19 N :    0.174664
  20 C :   -0.194886
  21 N :    0.185508
  22 C :   -0.066442
  23 C :   -0.173106
  24 S :    0.189701
  25 C :    0.178466
  26 C :   -0.053850
  27 C :   -0.052056
  28 N :   -0.078811
  29 C :    0.043569
  30 C :    0.045012
  31 N :   -0.077332
  32 C :    0.175994
  33 C :   -0.014113
  34 C :   -0.013382
  35 N :   -0.282834
  36 S :    0.575837
  37 N :   -0.283697
  38 C :   -0.171742
  39 C :   -0.069170
  40 C :    0.036262
  41 C :   -0.065403
  42 S :    0.189689
  43 C :   -0.094071
  44 C :    0.022237
  45 C :    0.310862
  46 C :   -0.308541
  47 C :   -0.193719
  48 N :    0.184424
  49 C :   -0.190036
  50 N :    0.174399
  51 C :   -0.050222
  52 C :   -0.122086
  53 S :    0.158240
  54 C :    0.172907
  55 C :   -0.079346
  56 C :    0.039249
  57 C :   -0.023288
  58 C :    0.002267
  59 C :   -0.073344
  60 N :    0.044034
  61 O :   -0.089757
  62 N :    0.059348
  63 H :   -0.007813
  64 H :    0.001967
  65 H :   -0.007227
  66 H :    0.026770
  67 H :    0.019375
  68 H :    0.020224
  69 H :    0.020206
  70 H :    0.020921
  71 H :    0.026727
  72 H :   -0.006963
  73 H :    0.003130
  74 H :   -0.008154
Sum of atomic charges:    0.0000000

LOEWDIN ATOMIC CHARGES
----------------------
   0 C :   -0.019773
   1 C :   -0.006187
   2 C :   -0.025913
   3 C :   -0.032242
   4 C :   -0.048093
   5 C :   -0.057119
   6 N :   -0.020707
   7 O :    0.083024
   8 N :   -0.021959
   9 C :   -0.166483
  10 C :   -0.015335
  11 C :   -0.069602
  12 C :   -0.171050
  13 S :    0.467320
  14 C :   -0.188262
  15 C :   -0.071638
  16 C :    0.079582
  17 C :   -0.100733
  18 C :   -0.016076
  19 N :   -0.034325
  20 C :   -0.021487
  21 N :   -0.024737
  22 C :   -0.012877
  23 C :   -0.163633
  24 S :    0.500588
  25 C :   -0.043270
  26 C :   -0.018253
  27 C :   -0.018168
  28 N :   -0.045934
  29 C :    0.018165
  30 C :    0.018360
  31 N :   -0.045917
  32 C :   -0.043369
  33 C :   -0.039257
  34 C :   -0.039314
  35 N :   -0.275246
  36 S :    0.697861
  37 N :   -0.275392
  38 C :   -0.163776
  39 C :   -0.013082
  40 C :   -0.071732
  41 C :   -0.188282
  42 S :    0.500686
  43 C :   -0.171115
  44 C :   -0.069591
  45 C :    0.079599
  46 C :   -0.100721
  47 C :   -0.021391
  48 N :   -0.024825
  49 C :   -0.015960
  50 N :   -0.034470
  51 C :   -0.015259
  52 C :   -0.166541
  53 S :    0.467428
  54 C :   -0.032295
  55 C :   -0.025935
  56 C :   -0.006383
  57 C :   -0.019673
  58 C :   -0.057192
  59 C :   -0.048072
  60 N :   -0.021918
  61 O :    0.082806
  62 N :   -0.020628
  63 H :    0.040534
  64 H :    0.036921
  65 H :    0.024803
  66 H :    0.042213
  67 H :    0.037640
  68 H :    0.030627
  69 H :    0.030608
  70 H :    0.037816
  71 H :    0.042271
  72 H :    0.024776
  73 H :    0.037065
  74 H :    0.040501

  Mayer bond orders larger than 0.100000
B(  0-C ,  1-C ) :   1.5279 B(  0-C ,  3-C ) :   0.1057 B(  0-C ,  5-C ) :   1.1666
B(  0-C , 63-H ) :   1.0231 B(  1-C ,  2-C ) :   1.2053 B(  1-C , 64-H ) :   0.9809
B(  2-C ,  3-C ) :   1.5149 B(  2-C , 65-H ) :   0.9860 B(  3-C ,  4-C ) :   1.1460
B(  3-C ,  9-C ) :   1.1119 B(  4-C ,  5-C ) :   1.1479 B(  4-C ,  8-N ) :   1.5926
B(  5-C ,  6-N ) :   1.5931 B(  6-N ,  7-O ) :   1.0758 B(  6-N ,  8-N ) :   0.1847
B(  7-O ,  8-N ) :   1.0643 B(  9-C , 10-C ) :   1.4936 B(  9-C , 13-S ) :   1.0827
B( 10-C , 11-C ) :   1.2466 B( 10-C , 66-H ) :   0.9813 B( 11-C , 12-C ) :   1.4327
B( 11-C , 16-C ) :   0.9940 B( 12-C , 13-S ) :   1.1242 B( 12-C , 14-C ) :   1.1977
B( 14-C , 15-C ) :   1.4114 B( 14-C , 24-S ) :   1.0677 B( 15-C , 16-C ) :   0.9871
B( 15-C , 22-C ) :   1.2763 B( 16-C , 17-C ) :   1.7104 B( 17-C , 18-C ) :   1.1399
B( 17-C , 20-C ) :   1.1360 B( 18-C , 19-N ) :   2.9873 B( 20-C , 21-N ) :   2.9945
B( 22-C , 23-C ) :   1.4160 B( 22-C , 67-H ) :   0.9820 B( 23-C , 24-S ) :   1.0893
B( 23-C , 25-C ) :   1.1993 B( 25-C , 26-C ) :   1.2713 B( 25-C , 32-C ) :   0.1309
B( 25-C , 34-C ) :   1.2058 B( 26-C , 27-C ) :   1.1309 B( 26-C , 31-N ) :   1.4010
B( 27-C , 28-N ) :   1.4001 B( 27-C , 32-C ) :   1.2720 B( 28-N , 29-C ) :   1.6541
B( 29-C , 30-C ) :   1.2046 B( 29-C , 68-H ) :   0.9742 B( 30-C , 31-N ) :   1.6533
B( 30-C , 69-H ) :   0.9742 B( 32-C , 33-C ) :   1.2053 B( 32-C , 38-C ) :   1.2012
B( 33-C , 34-C ) :   1.0997 B( 33-C , 37-N ) :   1.5088 B( 34-C , 35-N ) :   1.5084
B( 35-N , 36-S ) :   1.2863 B( 35-N , 37-N ) :   0.1513 B( 36-S , 37-N ) :   1.2857
B( 38-C , 39-C ) :   1.4138 B( 38-C , 42-S ) :   1.0883 B( 39-C , 40-C ) :   1.2761
B( 39-C , 70-H ) :   0.9829 B( 40-C , 41-C ) :   1.4115 B( 40-C , 45-C ) :   0.9880
B( 41-C , 42-S ) :   1.0683 B( 41-C , 43-C ) :   1.1975 B( 43-C , 44-C ) :   1.4336
B( 43-C , 53-S ) :   1.1236 B( 44-C , 45-C ) :   0.9952 B( 44-C , 51-C ) :   1.2457
B( 45-C , 46-C ) :   1.7103 B( 46-C , 47-C ) :   1.1350 B( 46-C , 49-C ) :   1.1413
B( 47-C , 48-N ) :   2.9945 B( 49-C , 50-N ) :   2.9870 B( 51-C , 52-C ) :   1.4922
B( 51-C , 71-H ) :   0.9819 B( 52-C , 53-S ) :   1.0836 B( 52-C , 54-C ) :   1.1126
B( 54-C , 55-C ) :   1.5156 B( 54-C , 57-C ) :   0.1057 B( 54-C , 59-C ) :   1.1457
B( 55-C , 56-C ) :   1.2052 B( 55-C , 72-H ) :   0.9863 B( 56-C , 57-C ) :   1.5285
B( 56-C , 73-H ) :   0.9816 B( 57-C , 58-C ) :   1.1651 B( 57-C , 74-H ) :   1.0236
B( 58-C , 59-C ) :   1.1468 B( 58-C , 62-N ) :   1.5942 B( 59-C , 60-N ) :   1.5933
B( 60-N , 61-O ) :   1.0645 B( 60-N , 62-N ) :   0.1848 B( 61-O , 62-N ) :   1.0753

-----------------------------------------------------------------------------
         ABSORPTION SPECTRUM VIA TRANSITION ELECTRIC DIPOLE MOMENTS
-----------------------------------------------------------------------------
State   Energy  Wavelength   fosc         T2         TX        TY        TZ
        (cm-1)    (nm)                  (au**2)     (au)      (au)      (au)
-----------------------------------------------------------------------------
   0    8813.9   1134.6   0.803468813  30.01056   0.49714  -0.22388   5.45099
   1   12806.0    780.9   0.004413612   0.11346  -0.20925   0.26230   0.02961
   2   13716.4    729.1   0.002101740   0.05044   0.03075   0.00364   0.22245
   3   17467.0    572.5   0.005612161   0.10578   0.17718  -0.27125  -0.02846
   4   22049.4    453.5   0.207839281   3.10317   0.15390  -0.07867   1.75308
   5   23056.8    433.7   0.073183702   1.04494  -0.69270   0.74842   0.07046
   6   23199.5    431.0   1.086295997  15.41507  -0.30839   0.20573  -3.90866
   7   24013.7    416.4   0.001107369   0.01518   0.08145   0.08905  -0.02485
   8   24451.4    409.0   0.058812057   0.79184   0.65032  -0.60138  -0.08524
   9   24803.1    403.2   0.025497633   0.33843  -0.06065   0.01316  -0.57843
  10   26089.0    383.3   0.029741051   0.37530   0.48362  -0.37108  -0.06094
  11   26115.6    382.9   0.000879589   0.01109   0.08743  -0.02468   0.05325
  12   26435.7    378.3   0.002768939   0.03448   0.02505  -0.00700   0.18386
  13   29167.5    342.8   0.032286097   0.36441  -0.43743   0.41229   0.05549
  14   30056.3    332.7   0.000316952   0.00347   0.03553  -0.04493   0.01380
  15   30318.5    329.8   0.305557570   3.31788   0.17773  -0.06037   1.81181
  16   30815.0    324.5   0.128417914   1.37195  -0.17802  -0.03879  -1.15705
  17   31076.4    321.8   0.000526659   0.00558  -0.06663   0.03339  -0.00493
  18   31456.6    317.9   0.452906087   4.73994  -1.63938   1.41627   0.21573
  19   31668.5    315.8   0.000277683   0.00289   0.01751  -0.01575   0.04829
  20   31963.3    312.9   0.600866548   6.18874  -0.23980   0.09694  -2.47423
  21   32103.5    311.5   0.188405011   1.93204   1.10240  -0.83458  -0.14219
  22   32129.4    311.2   0.067428911   0.69091  -0.04826   0.05957  -0.82766
  23   32399.4    308.6   0.398091810   4.04504   1.56638  -1.24514  -0.20274
  24   32716.8    305.7   0.021489020   0.21623  -0.01951  -0.09979   0.45376
  25   33633.5    297.3   0.199712262   1.95483  -0.12859   0.05747  -1.39104
  26   33838.7    295.5   0.000772630   0.00752   0.01350  -0.01926  -0.08345
  27   34671.5    288.4   0.117048938   1.11140  -0.83335   0.63791   0.09997
  28   35431.5    282.2   0.055014094   0.51116   0.07641  -0.09553   0.70441
  29   35516.8    281.6   0.395224037   3.66340   1.46742  -1.21140  -0.20635
  30   35942.6    278.2   0.051347128   0.47031   0.50688  -0.46062  -0.03475
  31   36105.2    277.0   0.072711571   0.66299  -0.01266  -0.08776   0.80940
  32   36356.5    275.1   0.012888560   0.11671  -0.17418  -0.14817  -0.25380
  33   36455.7    274.3   0.003505815   0.03166  -0.14059   0.09862  -0.04656
  34   37142.9    269.2   0.000208197   0.00185  -0.03725   0.02052   0.00604
  35   37594.8    266.0   0.514534661   4.50570   1.57722  -1.40623  -0.20144
  36   37711.8    265.2   0.020663975   0.18039  -0.00347  -0.05475   0.42117
  37   37924.7    263.7   0.001622697   0.01409   0.03260  -0.11409  -0.00255
  38   38072.9    262.7   0.058630728   0.50697  -0.05276   0.03236  -0.70932
  39   38411.0    260.3   0.016008941   0.13721  -0.25807   0.26421   0.02837
  40   38501.7    259.7   0.038226615   0.32686  -0.03388   0.03344  -0.56973
  41   38914.9    257.0   0.034223827   0.28953   0.38718  -0.36997  -0.05234
  42   39501.3    253.2   0.013212532   0.11012   0.03063  -0.01150   0.33022
  43   39654.3    252.2   0.004398130   0.03651  -0.12087   0.14741   0.01315

FINAL SINGLE POINT ENERGY     -4478.306418273886

DIPOLE MOMENT
-------------
                                X             Y             Z
Electronic contribution:    -12.91223      11.67117       1.66626
Nuclear contribution   :     17.93147     -15.65191      -2.30027
                        -----------------------------------------
Total Dipole Moment    :      5.01924      -3.98074      -0.63401
                        -----------------------------------------
Magnitude (a.u.)       :      6.43747
Magnitude (Debye)      :     16.36274

Rotational constants in cm-1:     0.003697     0.000303     0.000280
Rotational constants in MHz :   110.823267     9.083519     8.403098

                             ****ORCA TERMINATED NORMALLY****
TOTAL RUN TIME: 0 days 0 hours 6 minutes 47 seconds 218 msec
