                         Program Version 4.2.0 -  RELEASE  -
|  1> # ORCA input file
|  2> # SCF done       -209.346535937095          0.000794102593
|  3> ! CAM-B3LYP def2-SVP def2/J RIJCOSX Grid4 TightSCF
|  4> %maxcore 5000
|  5> %tddft
|  6>     Mode sTDDFT
|  7>     Ethresh 5.0
|  8>     maxcore 5000
|  9> end
| 10>
| 11> %pal
| 12>   nprocs 6
| 13>   end
| 14> * xyz 0 1
| 15>    C      -12.67201         1.23870        -8.64679
| 16>    C      -12.68234         0.17486        -7.78311
| 17>    C      -12.96358        -1.15296        -8.16791
| 18>    N      -13.17413        -2.25224        -8.42243
| 19>    C      -12.44116         0.25722        -6.39554
| 20>    N      -12.27429         0.25073        -5.25953
| 21>    C      -13.01329         1.19345       -10.06227
| 22>    C      -12.98507         2.51429       -10.57915
| 23>    C      -13.27680         2.80298       -11.89043
| 24>    C      -13.61615         1.73972       -12.73256
| 25>    C      -13.63690         0.42407       -12.20984
| 26>    C      -13.33985         0.13135       -10.88377
| 27>    S      -14.07772        -0.72919       -13.42891
| 28>    C      -14.23064         0.53241       -14.60209
| 29>    C      -13.96453         1.76303       -14.11214
| 30>    C      -12.61021         3.44723        -9.50865
| 31>    O      -12.43620         4.64951        -9.61222
| 32>    C      -12.39896         2.62392        -8.30454
| 33>    C      -11.83426         3.06258        -7.13793
| 34>    C      -11.64811         4.38532        -6.69031
| 35>    S      -10.35442         4.65432        -5.54232
| 36>    C      -10.71822         6.34014        -5.41470
| 37>    C      -11.82422         6.65876        -6.20151
| 38>    C      -12.35237         5.57254        -6.91149
| 39>    S      -13.86407         5.57956        -7.78718
| 40>    C      -14.73218         7.04247        -7.26523
| 41>    O      -15.92934         7.03525        -7.33373
| 42>    C      -13.99583         8.32738        -6.96313
| 43>    O      -14.52363         9.38781        -7.15871
| 44>    S      -12.35735         8.33065        -6.31163
| 45>    C       -9.97632         7.24011        -4.61604
| 46>    C       -8.92691         6.89239        -3.83097
| 47>    C       -8.20180         7.81857        -3.04678
| 48>    O       -8.51420         9.14648        -3.05276
| 49>    C       -7.68344         9.79891        -2.23013
| 50>    C       -6.77680         8.90349        -1.66726
| 51>    C       -7.12541         7.61884        -2.18677
| 52>    O       -6.52820         6.46833        -1.91517
| 53>    C       -5.57453         9.04862        -0.84416
| 54>    O       -5.01082         8.06946        -0.40371
| 55>    O       -5.07459        10.26898        -0.63855
| 56>    C       -7.87612        11.22923        -2.08106
| 57>    C       -8.34009        11.95808        -3.18565
| 58>    C       -8.50121        13.31885        -3.07771
| 59>    C       -8.26686        13.95757        -1.84612
| 60>    C       -7.85371        13.23510        -0.73564
| 61>    C       -7.65032        11.87449        -0.85869
| 62>    C       -8.54954        15.36716        -1.99586
| 63>    C       -8.95588        15.60424        -3.32045
| 64>    C       -8.98128        14.31302        -4.11504
| 65>    C       -8.00663        14.46267        -5.30224
| 66>    C       -7.84879        13.24703        -6.20642
| 67>    C      -10.41247        13.90198        -4.52596
| 68>    C      -11.11464        14.82673        -5.51102
| 69>    C       -9.19600        16.89139        -3.73907
| 70>    C       -9.09185        17.95602        -2.82975
| 71>    C       -8.72472        17.69223        -1.50322
| 72>    C       -8.44059        16.41016        -1.08568
| 73>    C       -9.30142        19.29801        -3.31360
| 74>    C       -9.48526        20.40401        -2.56236
| 75>    C       -9.67323        21.71545        -3.08870
| 76>    C       -9.20440        22.26180        -4.24018
| 77>    C       -8.21085        21.83883        -5.20967
| 78>    C       -7.10729        21.06172        -4.97295
| 79>    C       -6.13404        20.75877        -5.94710
| 80>    N       -5.32526        20.46000        -6.70508
| 81>    C       -6.76298        20.52551        -3.71586
| 82>    N       -6.39981        20.09232        -2.71697
| 83>    C       -8.44874        22.60073        -6.43083
| 84>    C       -9.38875        23.62720        -6.15417
| 85>    C       -9.83596        23.51157        -4.75511
| 86>    O      -10.58981        24.23880        -4.15010
| 87>    C       -9.77903        24.54320        -7.10150
| 88>    C       -9.22692        24.43572        -8.38141
| 89>    C       -8.30366        23.39661        -8.65203
| 90>    C       -7.90186        22.47433        -7.69333
| 91>    S       -7.76217        23.45001       -10.29970
| 92>    C       -8.74937        24.83713       -10.60458
| 93>    C       -9.45715        25.24578        -9.52911
| 94>    H      -13.24935         3.81888       -12.25263
| 95>    H      -13.36750        -0.88722       -10.53434
| 96>    H      -14.51543         0.26976       -15.60237
| 97>    H      -14.00954         2.66566       -14.69412
| 98>    H      -11.41563         2.31643        -6.47289
| 99>    H      -10.29350         8.27344        -4.64832
|100>    H       -8.59148         5.86715        -3.76847
|101>    H       -5.80814         6.65440        -1.26830
|102>    H       -5.59416        10.97258        -1.05599
|103>    H       -8.55408        11.42850        -4.09983
|104>    H       -7.70409        13.72292         0.21480
|105>    H       -7.38168        11.29649         0.01368
|106>    H       -7.02831        14.72939        -4.89312
|107>    H       -8.34319        15.30732        -5.90487
|108>    H       -7.37657        12.42257        -5.68019
|109>    H       -7.21256        13.51090        -7.04857
|110>    H       -8.80576        12.91545        -6.59971
|111>    H      -11.01121        13.84121        -3.61306
|112>    H      -10.36776        12.89777        -4.94999
|113>    H      -11.28895        15.80509        -5.07205
|114>    H      -12.08040        14.40042        -5.77339
|115>    H      -10.54016        14.94469        -6.42578
|116>    H       -9.45569        17.10664        -4.76496
|117>    H       -8.61676        18.51069        -0.81024
|118>    H       -8.12348        16.22289        -0.07118
|119>    H       -9.34124        19.39800        -4.39271
|120>    H       -9.58449        20.31508        -1.48961
|121>    H      -10.32339        22.37090        -2.51568
|122>    H      -10.48806        25.31994        -6.86075
|123>    H       -7.20017        21.69687        -7.94679
|124>    H       -8.73816        25.26722       -11.58719
|125>    H      -10.12310        26.08953        -9.53177
|126> *
|127>
|128>                          ****END OF INPUT****

CARTESIAN COORDINATES (ANGSTROEM)
---------------------------------
  C    -12.672010    1.238700   -8.646790
  C    -12.682340    0.174860   -7.783110
  C    -12.963580   -1.152960   -8.167910
  N    -13.174130   -2.252240   -8.422430
  C    -12.441160    0.257220   -6.395540
  N    -12.274290    0.250730   -5.259530
  C    -13.013290    1.193450  -10.062270
  C    -12.985070    2.514290  -10.579150
  C    -13.276800    2.802980  -11.890430
  C    -13.616150    1.739720  -12.732560
  C    -13.636900    0.424070  -12.209840
  C    -13.339850    0.131350  -10.883770
  S    -14.077720   -0.729190  -13.428910
  C    -14.230640    0.532410  -14.602090
  C    -13.964530    1.763030  -14.112140
  C    -12.610210    3.447230   -9.508650
  O    -12.436200    4.649510   -9.612220
  C    -12.398960    2.623920   -8.304540
  C    -11.834260    3.062580   -7.137930
  C    -11.648110    4.385320   -6.690310
  S    -10.354420    4.654320   -5.542320
  C    -10.718220    6.340140   -5.414700
  C    -11.824220    6.658760   -6.201510
  C    -12.352370    5.572540   -6.911490
  S    -13.864070    5.579560   -7.787180
  C    -14.732180    7.042470   -7.265230
  O    -15.929340    7.035250   -7.333730
  C    -13.995830    8.327380   -6.963130
  O    -14.523630    9.387810   -7.158710
  S    -12.357350    8.330650   -6.311630
  C     -9.976320    7.240110   -4.616040
  C     -8.926910    6.892390   -3.830970
  C     -8.201800    7.818570   -3.046780
  O     -8.514200    9.146480   -3.052760
  C     -7.683440    9.798910   -2.230130
  C     -6.776800    8.903490   -1.667260
  C     -7.125410    7.618840   -2.186770
  O     -6.528200    6.468330   -1.915170
  C     -5.574530    9.048620   -0.844160
  O     -5.010820    8.069460   -0.403710
  O     -5.074590   10.268980   -0.638550
  C     -7.876120   11.229230   -2.081060
  C     -8.340090   11.958080   -3.185650
  C     -8.501210   13.318850   -3.077710
  C     -8.266860   13.957570   -1.846120
  C     -7.853710   13.235100   -0.735640
  C     -7.650320   11.874490   -0.858690
  C     -8.549540   15.367160   -1.995860
  C     -8.955880   15.604240   -3.320450
  C     -8.981280   14.313020   -4.115040
  C     -8.006630   14.462670   -5.302240
  C     -7.848790   13.247030   -6.206420
  C    -10.412470   13.901980   -4.525960
  C    -11.114640   14.826730   -5.511020
  C     -9.196000   16.891390   -3.739070
  C     -9.091850   17.956020   -2.829750
  C     -8.724720   17.692230   -1.503220
  C     -8.440590   16.410160   -1.085680
  C     -9.301420   19.298010   -3.313600
  C     -9.485260   20.404010   -2.562360
  C     -9.673230   21.715450   -3.088700
  C     -9.204400   22.261800   -4.240180
  C     -8.210850   21.838830   -5.209670
  C     -7.107290   21.061720   -4.972950
  C     -6.134040   20.758770   -5.947100
  N     -5.325260   20.460000   -6.705080
  C     -6.762980   20.525510   -3.715860
  N     -6.399810   20.092320   -2.716970
  C     -8.448740   22.600730   -6.430830
  C     -9.388750   23.627200   -6.154170
  C     -9.835960   23.511570   -4.755110
  O    -10.589810   24.238800   -4.150100
  C     -9.779030   24.543200   -7.101500
  C     -9.226920   24.435720   -8.381410
  C     -8.303660   23.396610   -8.652030
  C     -7.901860   22.474330   -7.693330
  S     -7.762170   23.450010  -10.299700
  C     -8.749370   24.837130  -10.604580
  C     -9.457150   25.245780   -9.529110
  H    -13.249350    3.818880  -12.252630
  H    -13.367500   -0.887220  -10.534340
  H    -14.515430    0.269760  -15.602370
  H    -14.009540    2.665660  -14.694120
  H    -11.415630    2.316430   -6.472890
  H    -10.293500    8.273440   -4.648320
  H     -8.591480    5.867150   -3.768470
  H     -5.808140    6.654400   -1.268300
  H     -5.594160   10.972580   -1.055990
  H     -8.554080   11.428500   -4.099830
  H     -7.704090   13.722920    0.214800
  H     -7.381680   11.296490    0.013680
  H     -7.028310   14.729390   -4.893120
  H     -8.343190   15.307320   -5.904870
  H     -7.376570   12.422570   -5.680190
  H     -7.212560   13.510900   -7.048570
  H     -8.805760   12.915450   -6.599710
  H    -11.011210   13.841210   -3.613060
  H    -10.367760   12.897770   -4.949990
  H    -11.288950   15.805090   -5.072050
  H    -12.080400   14.400420   -5.773390
  H    -10.540160   14.944690   -6.425780
  H     -9.455690   17.106640   -4.764960
  H     -8.616760   18.510690   -0.810240
  H     -8.123480   16.222890   -0.071180
  H     -9.341240   19.398000   -4.392710
  H     -9.584490   20.315080   -1.489610
  H    -10.323390   22.370900   -2.515680
  H    -10.488060   25.319940   -6.860750
  H     -7.200170   21.696870   -7.946790
  H     -8.738160   25.267220  -11.587190
  H    -10.123100   26.089530   -9.531770

 Total Charge           Charge          ....    0
 Multiplicity           Mult            ....    1
 Number of Electrons    NEL             ....  576
 Basis Dimension        Dim             .... 1286

ORBITAL ENERGIES
----------------

  NO   OCC          E(Eh)            E(eV)
   0   2.0000     -88.976590     -2421.1761
   1   2.0000     -88.969969     -2420.9959
   2   2.0000     -88.968113     -2420.9454
   3   2.0000     -88.966676     -2420.9063
   4   2.0000     -88.964968     -2420.8598
   5   2.0000     -19.318351      -525.6790
   6   2.0000     -19.278421      -524.5925
   7   2.0000     -19.260432      -524.1030
   8   2.0000     -19.238948      -523.5184
   9   2.0000     -19.237300      -523.4735
  10   2.0000     -19.225020      -523.1394
  11   2.0000     -19.216931      -522.9193
  12   2.0000     -19.216330      -522.9029
  13   2.0000     -14.418943      -392.3594
  14   2.0000     -14.417566      -392.3219
  15   2.0000     -14.413701      -392.2167
  16   2.0000     -14.413032      -392.1985
  17   2.0000     -10.431569      -283.8574
  18   2.0000     -10.401892      -283.0499
  19   2.0000     -10.398873      -282.9677
  20   2.0000     -10.377473      -282.3854
  21   2.0000     -10.367164      -282.1049
  22   2.0000     -10.363788      -282.0130
  23   2.0000     -10.361392      -281.9478
  24   2.0000     -10.346018      -281.5295
  25   2.0000     -10.345293      -281.5097
  26   2.0000     -10.340554      -281.3808
  27   2.0000     -10.340213      -281.3715
  28   2.0000     -10.339259      -281.3455
  29   2.0000     -10.339042      -281.3396
  30   2.0000     -10.336192      -281.2621
  31   2.0000     -10.328684      -281.0578
  32   2.0000     -10.326689      -281.0035
  33   2.0000     -10.324375      -280.9405
  34   2.0000     -10.322891      -280.9001
  35   2.0000     -10.321804      -280.8706
  36   2.0000     -10.319393      -280.8050
  37   2.0000     -10.318333      -280.7761
  38   2.0000     -10.317378      -280.7501
  39   2.0000     -10.316739      -280.7328
  40   2.0000     -10.316526      -280.7270
  41   2.0000     -10.316202      -280.7181
  42   2.0000     -10.315797      -280.7071
  43   2.0000     -10.312685      -280.6224
  44   2.0000     -10.310629      -280.5665
  45   2.0000     -10.308312      -280.5034
  46   2.0000     -10.307115      -280.4709
  47   2.0000     -10.305217      -280.4192
  48   2.0000     -10.305200      -280.4188
  49   2.0000     -10.304897      -280.4105
  50   2.0000     -10.304055      -280.3876
  51   2.0000     -10.303966      -280.3852
  52   2.0000     -10.302507      -280.3455
  53   2.0000     -10.301393      -280.3151
  54   2.0000     -10.299919      -280.2750
  55   2.0000     -10.299630      -280.2672
  56   2.0000     -10.299299      -280.2582
  57   2.0000     -10.299292      -280.2580
  58   2.0000     -10.298921      -280.2479
  59   2.0000     -10.298501      -280.2365
  60   2.0000     -10.298424      -280.2344
  61   2.0000     -10.296862      -280.1918
  62   2.0000     -10.295430      -280.1529
  63   2.0000     -10.294827      -280.1365
  64   2.0000     -10.294269      -280.1213
  65   2.0000     -10.294088      -280.1164
  66   2.0000     -10.292323      -280.0684
  67   2.0000     -10.292314      -280.0681
  68   2.0000     -10.290614      -280.0219
  69   2.0000     -10.288757      -279.9713
  70   2.0000     -10.288409      -279.9618
  71   2.0000     -10.288054      -279.9522
  72   2.0000     -10.287445      -279.9356
  73   2.0000     -10.286901      -279.9208
  74   2.0000     -10.286074      -279.8983
  75   2.0000     -10.278138      -279.6823
  76   2.0000     -10.277904      -279.6760
  77   2.0000     -10.265650      -279.3425
  78   2.0000     -10.264001      -279.2977
  79   2.0000      -8.072304      -219.6586
  80   2.0000      -8.066276      -219.4945
  81   2.0000      -8.064923      -219.4577
  82   2.0000      -8.062250      -219.3850
  83   2.0000      -8.061220      -219.3570
  84   2.0000      -6.041600      -164.4003
  85   2.0000      -6.037721      -164.2948
  86   2.0000      -6.035781      -164.2420
  87   2.0000      -6.034745      -164.2138
  88   2.0000      -6.034006      -164.1936
  89   2.0000      -6.032035      -164.1400
  90   2.0000      -6.031491      -164.1252
  91   2.0000      -6.030734      -164.1046
  92   2.0000      -6.030289      -164.0925
  93   2.0000      -6.027932      -164.0284
  94   2.0000      -6.027544      -164.0178
  95   2.0000      -6.026424      -163.9873
  96   2.0000      -6.025712      -163.9679
  97   2.0000      -6.023143      -163.8980
  98   2.0000      -6.022902      -163.8915
  99   2.0000      -1.238536       -33.7023
 100   2.0000      -1.205252       -32.7966
 101   2.0000      -1.174562       -31.9614
 102   2.0000      -1.162793       -31.6412
 103   2.0000      -1.143743       -31.1228
 104   2.0000      -1.131506       -30.7898
 105   2.0000      -1.131452       -30.7884
 106   2.0000      -1.117805       -30.4170
 107   2.0000      -1.023432       -27.8490
 108   2.0000      -1.023380       -27.8476
 109   2.0000      -1.017968       -27.7003
 110   2.0000      -1.011414       -27.5220
 111   2.0000      -1.009476       -27.4693
 112   2.0000      -1.006421       -27.3861
 113   2.0000      -0.996894       -27.1269
 114   2.0000      -0.992071       -26.9956
 115   2.0000      -0.987943       -26.8833
 116   2.0000      -0.983546       -26.7637
 117   2.0000      -0.972397       -26.4603
 118   2.0000      -0.947520       -25.7833
 119   2.0000      -0.939392       -25.5622
 120   2.0000      -0.937711       -25.5164
 121   2.0000      -0.934221       -25.4214
 122   2.0000      -0.925191       -25.1757
 123   2.0000      -0.921115       -25.0648
 124   2.0000      -0.917434       -24.9647
 125   2.0000      -0.913035       -24.8449
 126   2.0000      -0.900040       -24.4913
 127   2.0000      -0.895681       -24.3727
 128   2.0000      -0.888174       -24.1684
 129   2.0000      -0.884688       -24.0736
 130   2.0000      -0.879412       -23.9300
 131   2.0000      -0.871835       -23.7238
 132   2.0000      -0.865516       -23.5519
 133   2.0000      -0.859206       -23.3802
 134   2.0000      -0.852494       -23.1975
 135   2.0000      -0.846330       -23.0298
 136   2.0000      -0.843574       -22.9548
 137   2.0000      -0.833846       -22.6901
 138   2.0000      -0.826420       -22.4880
 139   2.0000      -0.821945       -22.3663
 140   2.0000      -0.821028       -22.3413
 141   2.0000      -0.804899       -21.9024
 142   2.0000      -0.787295       -21.4234
 143   2.0000      -0.786907       -21.4128
 144   2.0000      -0.776161       -21.1204
 145   2.0000      -0.766650       -20.8616
 146   2.0000      -0.758086       -20.6286
 147   2.0000      -0.756643       -20.5893
 148   2.0000      -0.748371       -20.3642
 149   2.0000      -0.744779       -20.2665
 150   2.0000      -0.737640       -20.0722
 151   2.0000      -0.728280       -19.8175
 152   2.0000      -0.725597       -19.7445
 153   2.0000      -0.719807       -19.5869
 154   2.0000      -0.711714       -19.3667
 155   2.0000      -0.704447       -19.1690
 156   2.0000      -0.699261       -19.0279
 157   2.0000      -0.693340       -18.8667
 158   2.0000      -0.690226       -18.7820
 159   2.0000      -0.687867       -18.7178
 160   2.0000      -0.685168       -18.6444
 161   2.0000      -0.684664       -18.6307
 162   2.0000      -0.674175       -18.3452
 163   2.0000      -0.664608       -18.0849
 164   2.0000      -0.663627       -18.0582
 165   2.0000      -0.659752       -17.9528
 166   2.0000      -0.655478       -17.8365
 167   2.0000      -0.654803       -17.8181
 168   2.0000      -0.646974       -17.6050
 169   2.0000      -0.636280       -17.3140
 170   2.0000      -0.629039       -17.1170
 171   2.0000      -0.623086       -16.9550
 172   2.0000      -0.619016       -16.8443
 173   2.0000      -0.613008       -16.6808
 174   2.0000      -0.611391       -16.6368
 175   2.0000      -0.609823       -16.5941
 176   2.0000      -0.604078       -16.4378
 177   2.0000      -0.599963       -16.3258
 178   2.0000      -0.597091       -16.2477
 179   2.0000      -0.593178       -16.1412
 180   2.0000      -0.592108       -16.1121
 181   2.0000      -0.591258       -16.0890
 182   2.0000      -0.581279       -15.8174
 183   2.0000      -0.575826       -15.6690
 184   2.0000      -0.573314       -15.6007
 185   2.0000      -0.564619       -15.3641
 186   2.0000      -0.560944       -15.2641
 187   2.0000      -0.558106       -15.1868
 188   2.0000      -0.554112       -15.0782
 189   2.0000      -0.553650       -15.0656
 190   2.0000      -0.552255       -15.0276
 191   2.0000      -0.549727       -14.9588
 192   2.0000      -0.548420       -14.9233
 193   2.0000      -0.546386       -14.8679
 194   2.0000      -0.544651       -14.8207
 195   2.0000      -0.544077       -14.8051
 196   2.0000      -0.542743       -14.7688
 197   2.0000      -0.540975       -14.7207
 198   2.0000      -0.538918       -14.6647
 199   2.0000      -0.537538       -14.6272
 200   2.0000      -0.533881       -14.5276
 201   2.0000      -0.533099       -14.5064
 202   2.0000      -0.530924       -14.4472
 203   2.0000      -0.528782       -14.3889
 204   2.0000      -0.528391       -14.3782
 205   2.0000      -0.520518       -14.1640
 206   2.0000      -0.518590       -14.1116
 207   2.0000      -0.517760       -14.0890
 208   2.0000      -0.512093       -13.9348
 209   2.0000      -0.510700       -13.8968
 210   2.0000      -0.509501       -13.8642
 211   2.0000      -0.506316       -13.7776
 212   2.0000      -0.505752       -13.7622
 213   2.0000      -0.502480       -13.6732
 214   2.0000      -0.499647       -13.5961
 215   2.0000      -0.498312       -13.5597
 216   2.0000      -0.498118       -13.5545
 217   2.0000      -0.496501       -13.5105
 218   2.0000      -0.495257       -13.4766
 219   2.0000      -0.494736       -13.4625
 220   2.0000      -0.492016       -13.3884
 221   2.0000      -0.489580       -13.3221
 222   2.0000      -0.488502       -13.2928
 223   2.0000      -0.483820       -13.1654
 224   2.0000      -0.482199       -13.1213
 225   2.0000      -0.481547       -13.1036
 226   2.0000      -0.477413       -12.9911
 227   2.0000      -0.474595       -12.9144
 228   2.0000      -0.472858       -12.8671
 229   2.0000      -0.469481       -12.7752
 230   2.0000      -0.466351       -12.6900
 231   2.0000      -0.462394       -12.5824
 232   2.0000      -0.461696       -12.5634
 233   2.0000      -0.457381       -12.4460
 234   2.0000      -0.454424       -12.3655
 235   2.0000      -0.452193       -12.3048
 236   2.0000      -0.451370       -12.2824
 237   2.0000      -0.451213       -12.2781
 238   2.0000      -0.448504       -12.2044
 239   2.0000      -0.446492       -12.1497
 240   2.0000      -0.444534       -12.0964
 241   2.0000      -0.443464       -12.0673
 242   2.0000      -0.442161       -12.0318
 243   2.0000      -0.440980       -11.9997
 244   2.0000      -0.440745       -11.9933
 245   2.0000      -0.440339       -11.9822
 246   2.0000      -0.435900       -11.8614
 247   2.0000      -0.434654       -11.8275
 248   2.0000      -0.433588       -11.7985
 249   2.0000      -0.432822       -11.7777
 250   2.0000      -0.431012       -11.7284
 251   2.0000      -0.428483       -11.6596
 252   2.0000      -0.428298       -11.6546
 253   2.0000      -0.425232       -11.5711
 254   2.0000      -0.421184       -11.4610
 255   2.0000      -0.420568       -11.4442
 256   2.0000      -0.420177       -11.4336
 257   2.0000      -0.415239       -11.2992
 258   2.0000      -0.411007       -11.1841
 259   2.0000      -0.409947       -11.1552
 260   2.0000      -0.407898       -11.0995
 261   2.0000      -0.406150       -11.0519
 262   2.0000      -0.403583       -10.9820
 263   2.0000      -0.395932       -10.7739
 264   2.0000      -0.393523       -10.7083
 265   2.0000      -0.392403       -10.6778
 266   2.0000      -0.387919       -10.5558
 267   2.0000      -0.383774       -10.4430
 268   2.0000      -0.380222       -10.3464
 269   2.0000      -0.378189       -10.2911
 270   2.0000      -0.371353       -10.1050
 271   2.0000      -0.366851        -9.9825
 272   2.0000      -0.356382        -9.6977
 273   2.0000      -0.348978        -9.4962
 274   2.0000      -0.347058        -9.4439
 275   2.0000      -0.338858        -9.2208
 276   2.0000      -0.337000        -9.1702
 277   2.0000      -0.333029        -9.0622
 278   2.0000      -0.331049        -9.0083
 279   2.0000      -0.327775        -8.9192
 280   2.0000      -0.316770        -8.6198
 281   2.0000      -0.313311        -8.5256
 282   2.0000      -0.307969        -8.3803
 283   2.0000      -0.298734        -8.1290
 284   2.0000      -0.298051        -8.1104
 285   2.0000      -0.292006        -7.9459
 286   2.0000      -0.279188        -7.5971
 287   2.0000      -0.250083        -6.8051
 288   0.0000      -0.098882        -2.6907
 289   0.0000      -0.093875        -2.5545
 290   0.0000      -0.067681        -1.8417
 291   0.0000      -0.062332        -1.6961
 292   0.0000      -0.051186        -1.3928

MULLIKEN ATOMIC CHARGES
-----------------------
   0 C :    0.297959
   1 C :   -0.336710
   2 C :   -0.183761
   3 N :    0.150098
   4 C :   -0.205334
   5 N :    0.157561
   6 C :    0.016369
   7 C :   -0.011161
   8 C :   -0.070025
   9 C :    0.117173
  10 C :   -0.093127
  11 C :   -0.027118
  12 S :    0.141052
  13 C :   -0.048025
  14 C :    0.022698
  15 C :    0.139022
  16 O :   -0.169781
  17 C :   -0.084965
  18 C :    0.012743
  19 C :   -0.132313
  20 S :    0.157357
  21 C :   -0.059489
  22 C :   -0.062759
  23 C :    0.025362
  24 S :    0.131741
  25 C :    0.061228
  26 O :   -0.129879
  27 C :    0.094860
  28 O :   -0.145328
  29 S :    0.076476
  30 C :   -0.033470
  31 C :   -0.008403
  32 C :    0.069176
  33 O :   -0.197224
  34 C :    0.163069
  35 C :   -0.112179
  36 C :    0.102758
  37 O :   -0.160044
  38 C :    0.180868
  39 O :   -0.229628
  40 O :   -0.139775
  41 C :   -0.000138
  42 C :   -0.083983
  43 C :    0.047347
  44 C :    0.100880
  45 C :   -0.043536
  46 C :   -0.059381
  47 C :    0.099616
  48 C :    0.040704
  49 C :   -0.127375
  50 C :    0.048206
  51 C :    0.028928
  52 C :    0.053722
  53 C :    0.031314
  54 C :   -0.111664
  55 C :    0.109533
  56 C :    0.013548
  57 C :   -0.042756
  58 C :    0.014593
  59 C :    0.015006
  60 C :    0.038730
  61 C :   -0.115023
  62 C :    0.267706
  63 C :   -0.344214
  64 C :   -0.179566
  65 N :    0.151473
  66 C :   -0.198095
  67 N :    0.176991
  68 C :   -0.000746
  69 C :    0.005210
  70 C :    0.131907
  71 O :   -0.144006
  72 C :   -0.070315
  73 C :    0.112011
  74 C :   -0.092153
  75 C :   -0.026213
  76 S :    0.140163
  77 C :   -0.049890
  78 C :    0.026018
  79 H :   -0.012980
  80 H :   -0.006243
  81 H :    0.038304
  82 H :   -0.006657
  83 H :    0.027594
  84 H :    0.010712
  85 H :    0.020580
  86 H :    0.207927
  87 H :    0.185620
  88 H :   -0.013210
  89 H :   -0.019289
  90 H :    0.000985
  91 H :    0.011933
  92 H :    0.008663
  93 H :    0.015528
  94 H :    0.021363
  95 H :    0.010084
  96 H :    0.009585
  97 H :    0.008770
  98 H :    0.017096
  99 H :    0.023762
 100 H :    0.007271
 101 H :   -0.030911
 102 H :   -0.012754
 103 H :   -0.028924
 104 H :    0.005067
 105 H :    0.008713
 106 H :    0.029115
 107 H :   -0.009577
 108 H :   -0.004777
 109 H :    0.039709
 110 H :   -0.004685
Sum of atomic charges:   -0.0000000

LOEWDIN ATOMIC CHARGES
----------------------
   0 C :    0.076663
   1 C :   -0.139117
   2 C :   -0.017902
   3 N :   -0.052569
   4 C :   -0.024330
   5 N :   -0.050766
   6 C :   -0.023027
   7 C :   -0.050426
   8 C :    0.022367
   9 C :   -0.034557
  10 C :   -0.146520
  11 C :   -0.007880
  12 S :    0.430097
  13 C :   -0.149467
  14 C :   -0.057816
  15 C :    0.067718
  16 O :   -0.164674
  17 C :   -0.100114
  18 C :    0.033969
  19 C :   -0.196326
  20 S :    0.464427
  21 C :   -0.153380
  22 C :   -0.231721
  23 C :   -0.173547
  24 S :    0.443508
  25 C :   -0.114044
  26 O :   -0.099375
  27 C :   -0.111218
  28 O :   -0.113214
  29 S :    0.380940
  30 C :   -0.076561
  31 C :    0.002677
  32 C :   -0.029016
  33 O :    0.028900
  34 C :    0.078265
  35 C :   -0.168862
  36 C :    0.053089
  37 O :   -0.027889
  38 C :    0.098498
  39 O :   -0.171653
  40 O :   -0.010096
  41 C :   -0.059313
  42 C :   -0.001643
  43 C :    0.014806
  44 C :   -0.001924
  45 C :   -0.010700
  46 C :   -0.033824
  47 C :   -0.013095
  48 C :    0.006650
  49 C :   -0.033175
  50 C :   -0.013657
  51 C :   -0.058079
  52 C :   -0.012651
  53 C :   -0.057281
  54 C :   -0.010457
  55 C :   -0.026003
  56 C :    0.007536
  57 C :   -0.011012
  58 C :    0.036001
  59 C :   -0.037516
  60 C :    0.068528
  61 C :   -0.090740
  62 C :    0.067628
  63 C :   -0.141672
  64 C :   -0.020251
  65 N :   -0.054177
  66 C :   -0.015748
  67 N :   -0.045176
  68 C :   -0.020843
  69 C :   -0.055340
  70 C :    0.083339
  71 O :   -0.142648
  72 C :    0.024481
  73 C :   -0.035076
  74 C :   -0.144668
  75 C :   -0.012129
  76 S :    0.429138
  77 C :   -0.148856
  78 C :   -0.057140
  79 H :    0.040135
  80 H :    0.040753
  81 H :    0.029250
  82 H :    0.035276
  83 H :    0.045344
  84 H :    0.028180
  85 H :    0.042113
  86 H :    0.088147
  87 H :    0.088013
  88 H :    0.030526
  89 H :    0.033670
  90 H :    0.033087
  91 H :    0.029841
  92 H :    0.021601
  93 H :    0.022457
  94 H :    0.032222
  95 H :    0.022513
  96 H :    0.029169
  97 H :    0.021181
  98 H :    0.023642
  99 H :    0.033061
 100 H :    0.021385
 101 H :    0.025571
 102 H :    0.032071
 103 H :    0.030030
 104 H :    0.032296
 105 H :    0.035471
 106 H :    0.047417
 107 H :    0.041277
 108 H :    0.040143
 109 H :    0.029878
 110 H :    0.035924

  Mayer bond orders larger than 0.100000
B(  0-C ,  1-C ) :   1.6407 B(  0-C ,  6-C ) :   1.0079 B(  0-C , 17-C ) :   1.0656
B(  1-C ,  2-C ) :   1.1395 B(  1-C ,  4-C ) :   1.1405 B(  2-C ,  3-N ) :   2.9720
B(  4-C ,  5-N ) :   2.9889 B(  6-C ,  7-C ) :   1.2667 B(  6-C , 11-C ) :   1.4117
B(  7-C ,  8-C ) :   1.4260 B(  7-C , 15-C ) :   0.9468 B(  8-C ,  9-C ) :   1.2423
B(  8-C , 79-H ) :   1.0177 B(  9-C , 10-C ) :   1.3051 B(  9-C , 14-C ) :   1.1692
B( 10-C , 11-C ) :   1.3197 B( 10-C , 12-S ) :   1.0978 B( 11-C , 80-H ) :   0.9838
B( 12-S , 13-C ) :   1.1278 B( 13-C , 14-C ) :   1.6277 B( 13-C , 81-H ) :   0.9685
B( 14-C , 82-H ) :   1.0005 B( 15-C , 16-O ) :   2.1569 B( 15-C , 17-C ) :   0.9752
B( 17-C , 18-C ) :   1.5672 B( 18-C , 19-C ) :   1.2227 B( 18-C , 83-H ) :   0.9261
B( 19-C , 20-S ) :   1.0910 B( 19-C , 23-C ) :   1.4768 B( 20-S , 21-C ) :   1.1424
B( 21-C , 22-C ) :   1.5045 B( 21-C , 30-C ) :   1.1635 B( 22-C , 23-C ) :   1.3120
B( 22-C , 29-S ) :   0.9729 B( 23-C , 24-S ) :   1.0211 B( 24-S , 25-C ) :   1.0374
B( 24-S , 26-O ) :   0.1232 B( 25-C , 26-O ) :   2.1627 B( 25-C , 27-C ) :   0.7661
B( 27-C , 28-O ) :   2.1458 B( 27-C , 29-S ) :   1.0475 B( 28-O , 29-S ) :   0.1378
B( 30-C , 31-C ) :   1.5876 B( 30-C , 84-H ) :   0.9716 B( 31-C , 32-C ) :   1.2042
B( 31-C , 85-H ) :   0.9667 B( 32-C , 33-O ) :   1.0663 B( 32-C , 34-C ) :   0.1085
B( 32-C , 36-C ) :   1.3748 B( 33-O , 34-C ) :   1.2277 B( 34-C , 35-C ) :   1.3860
B( 34-C , 41-C ) :   1.0171 B( 35-C , 36-C ) :   1.1616 B( 35-C , 38-C ) :   0.9312
B( 36-C , 37-O ) :   1.3610 B( 37-O , 86-H ) :   0.8912 B( 38-C , 39-O ) :   2.0230
B( 38-C , 40-O ) :   1.2942 B( 39-O , 86-H ) :   0.1177 B( 40-O , 87-H ) :   0.9365
B( 41-C , 42-C ) :   1.2998 B( 41-C , 46-C ) :   1.3408 B( 42-C , 43-C ) :   1.3809
B( 42-C , 88-H ) :   1.0034 B( 43-C , 44-C ) :   1.3765 B( 43-C , 49-C ) :   0.9270
B( 44-C , 45-C ) :   1.3438 B( 44-C , 47-C ) :   1.0024 B( 45-C , 46-C ) :   1.3784
B( 45-C , 89-H ) :   0.9942 B( 46-C , 90-H ) :   0.9883 B( 47-C , 48-C ) :   1.3926
B( 47-C , 57-C ) :   1.3214 B( 48-C , 49-C ) :   0.9302 B( 48-C , 54-C ) :   1.3799
B( 49-C , 50-C ) :   1.0077 B( 49-C , 52-C ) :   1.0034 B( 50-C , 51-C ) :   1.1132
B( 50-C , 91-H ) :   0.9393 B( 50-C , 92-H ) :   0.9393 B( 51-C , 93-H ) :   0.9610
B( 51-C , 94-H ) :   0.9595 B( 51-C , 95-H ) :   0.9625 B( 52-C , 53-C ) :   1.1146
B( 52-C , 96-H ) :   0.9371 B( 52-C , 97-H ) :   0.9395 B( 53-C , 98-H ) :   0.9610
B( 53-C , 99-H ) :   0.9598 B( 53-C ,100-H ) :   0.9623 B( 54-C , 55-C ) :   1.2890
B( 54-C ,101-H ) :   1.0034 B( 55-C , 56-C ) :   1.3451 B( 55-C , 58-C ) :   1.0903
B( 56-C , 57-C ) :   1.4070 B( 56-C ,102-H ) :   0.9823 B( 57-C ,103-H ) :   0.9910
B( 58-C , 59-C ) :   1.6770 B( 58-C ,104-H ) :   0.9762 B( 59-C , 60-C ) :   1.1251
B( 59-C ,105-H ) :   0.9539 B( 60-C , 61-C ) :   1.6989 B( 60-C ,106-H ) :   0.9275
B( 61-C , 62-C ) :   1.0243 B( 61-C , 70-C ) :   0.9382 B( 62-C , 63-C ) :   1.6529
B( 62-C , 68-C ) :   1.0140 B( 63-C , 64-C ) :   1.1271 B( 63-C , 66-C ) :   1.1665
B( 64-C , 65-N ) :   2.9881 B( 66-C , 67-N ) :   3.0059 B( 68-C , 69-C ) :   1.2693
B( 68-C , 75-C ) :   1.4115 B( 69-C , 70-C ) :   0.9223 B( 69-C , 72-C ) :   1.4223
B( 70-C , 71-O ) :   2.2663 B( 72-C , 73-C ) :   1.2518 B( 72-C ,107-H ) :   1.0174
B( 73-C , 74-C ) :   1.3010 B( 73-C , 78-C ) :   1.1714 B( 74-C , 75-C ) :   1.3236
B( 74-C , 76-S ) :   1.0977 B( 75-C ,108-H ) :   0.9865 B( 76-S , 77-C ) :   1.1262
B( 77-C , 78-C ) :   1.6294 B( 77-C ,109-H ) :   0.9686 B( 78-C ,110-H ) :   1.0001

-----------------------------------------------------------------------------
         ABSORPTION SPECTRUM VIA TRANSITION ELECTRIC DIPOLE MOMENTS
-----------------------------------------------------------------------------
State   Energy  Wavelength   fosc         T2         TX        TY        TZ
        (cm-1)    (nm)                  (au**2)     (au)      (au)      (au)
-----------------------------------------------------------------------------
   0   17783.8    562.3   1.613190674  29.86319   2.10157   4.36224   2.53328
   1   21638.2    462.1   0.495335938   7.53624  -0.15600  -2.19268   1.64440
   2   24616.3    406.2   0.071213099   0.95238  -0.44140   0.03274  -0.86976
   3   25610.4    390.5   0.036694330   0.47169  -0.46733   0.45462   0.21590
   4   25702.8    389.1   0.116701706   1.49476  -0.91440   0.80233   0.12203
   5   26941.1    371.2   0.149740449   1.82978  -0.33793  -0.35876  -1.25971
   6   27363.8    365.4   0.053096265   0.63880   0.29960   0.29896   0.67798
   7   27721.9    360.7   0.214475090   2.54700  -0.00553   1.44938  -0.66804
   8   28350.0    352.7   0.109991776   1.27727   0.11522  -0.52555  -0.99388
   9   28766.2    347.6   0.066965551   0.76638  -0.00595   0.65324  -0.58277
  10   29187.5    342.6   0.056225580   0.63418   0.13160  -0.50922   0.59796
  11   29262.3    341.7   0.011475423   0.12910  -0.11313  -0.34098  -0.00587
  12   29669.9    337.0   0.210151993   2.33181  -0.75427   0.96500  -0.91195
  13   29797.6    335.6   0.088794790   0.98103  -0.57776   0.35372  -0.72257
  14   30397.8    329.0   0.116996882   1.26709   0.35883  -1.06411  -0.07742
  15   31041.6    322.1   0.592197880   6.28055   0.92860  -2.12729   0.94493
  16   32066.8    311.8   0.095986127   0.98544   0.01128  -0.57023  -0.81249
  17   32351.4    309.1   0.114376804   1.16391   0.36103  -1.01636   0.02415
  18   33093.1    302.2   0.635879104   6.32575  -1.19054   0.65559  -2.11627
  19   33178.1    301.4   0.204436617   2.02853  -0.87233   0.96747  -0.57583
  20   33252.9    300.7   0.146665312   1.45202   0.72158   0.15387  -0.95272
  21   33835.1    295.6   0.023939207   0.23293  -0.37339  -0.30082   0.05491
  22   34147.9    292.8   0.046753057   0.45074   0.22051  -0.63405  -0.00995
  23   34373.9    290.9   0.504804240   4.83470   0.87246  -1.42343   1.43086
  24   34701.2    288.2   0.102140220   0.96901   0.29286  -0.08079  -0.93633
  25   34758.3    287.7   0.027821953   0.26351   0.05643   0.47685   0.18152
  26   35402.8    282.5   0.045380979   0.42200  -0.46908  -0.23281   0.38440
  27   35703.6    280.1   0.150608400   1.38871   0.49744  -0.90192  -0.57254
  28   36223.5    276.1   0.015002299   0.13635  -0.01458   0.23820   0.28177
  29   36626.5    273.0   0.012182078   0.10950   0.30711  -0.01488   0.12232
  30   36770.9    272.0   0.007050606   0.06312  -0.14138  -0.07473  -0.19378
  31   37291.9    268.2   0.014413632   0.12724  -0.35626  -0.00889   0.01560
  32   37565.1    266.2   0.015738472   0.13793  -0.30044   0.14262   0.16530
  33   37835.9    264.3   0.018222903   0.15856  -0.06309  -0.15672   0.36058
  34   37972.1    263.4   0.110349771   0.95671   0.17656  -0.71302   0.64587
  35   38655.8    258.7   0.154965154   1.31976  -0.21479  -1.10080  -0.24871
  36   38848.2    257.4   0.082725396   0.70104  -0.39827   0.64515   0.35526
  37   39026.3    256.2   0.045804643   0.38639   0.56167   0.22786  -0.13783
  38   39296.0    254.5   0.151967419   1.27315   0.40898   0.84379   0.62761
  39   39593.2    252.6   0.070514785   0.58632  -0.28164  -0.41832   0.57620
  40   39810.7    251.2   0.066572337   0.55052   0.57210  -0.46774  -0.06662
  41   40022.7    249.9   0.024655475   0.20281   0.07356  -0.12010  -0.42775

FINAL SINGLE POINT ENERGY     -5188.949624161710

DIPOLE MOMENT
-------------
                                X             Y             Z
Electronic contribution:    -18.00896     -64.44666     -16.66939
Nuclear contribution   :     18.11104      68.06883      14.49381
                        -----------------------------------------
Total Dipole Moment    :      0.10207       3.62217      -2.17559
                        -----------------------------------------
Magnitude (a.u.)       :      4.22655
Magnitude (Debye)      :     10.74304

Rotational constants in cm-1:     0.001022     0.000204     0.000179
Rotational constants in MHz :    30.624423     6.128763     5.378846

                             ****ORCA TERMINATED NORMALLY****
TOTAL RUN TIME: 0 days 0 hours 11 minutes 8 seconds 273 msec
