                         Program Version 4.2.0 -  RELEASE  -
|  1> # ORCA input file
|  2> # SCF done       -175.075687936086          0.000594251768
|  3> ! CAM-B3LYP def2-SVP def2/J RIJCOSX Grid4 TightSCF
|  4> %maxcore 5000
|  5> %tddft
|  6>     Mode sTDDFT
|  7>     Ethresh 5.0
|  8>     maxcore 5000
|  9> end
| 10>
| 11> %pal
| 12>   nprocs 6
| 13>   end
| 14> * xyz 0 1
| 15>    C        1.61493        -1.08631         1.75952
| 16>    C        2.24388        -0.43352         0.70800
| 17>    N        2.19119         0.87435         0.55459
| 18>    C        1.50232         1.57455         1.45857
| 19>    N        0.86847         1.03866         2.50349
| 20>    C        0.92616        -0.26999         2.64662
| 21>    C        1.43907         3.02373         1.29183
| 22>    C        2.07457         3.62671         0.20066
| 23>    C        2.00161         4.99106         0.05945
| 24>    C        1.30374         5.77156         0.99736
| 25>    C        0.67307         5.17606         2.08037
| 26>    C        0.74453         3.80382         2.21951
| 27>    C        1.39399         7.16118         0.59629
| 28>    C        2.14108         7.23697        -0.59114
| 29>    C        2.59753         5.86244        -1.02174
| 30>    C        2.04572         5.49391        -2.41085
| 31>    C        0.52562         5.57315        -2.48167
| 32>    C        4.13426         5.75929        -1.03423
| 33>    C        4.76166         6.11335         0.30856
| 34>    C        2.37062         8.44541        -1.20197
| 35>    C        1.85793         9.61881        -0.63172
| 36>    C        1.13025         9.52711         0.56109
| 37>    C        0.89017         8.31476         1.17716
| 38>    C        2.05052        10.92641        -1.22763
| 39>    C        2.53747        11.18322        -2.44870
| 40>    C        2.74629        12.52968        -2.97250
| 41>    C        2.47838        12.89672        -4.29826
| 42>    N        1.87583        12.17550        -5.31463
| 43>    C        0.90716        11.12714        -5.07217
| 44>    C       -0.51584        11.57143        -5.40289
| 45>    C        1.91391        12.94699        -6.46259
| 46>    C        2.48923        14.20496        -6.16673
| 47>    C        2.86152        14.16813        -4.78191
| 48>    C        3.45191        15.10579        -3.94657
| 49>    C        3.65859        14.76595        -2.62460
| 50>    C        3.31812        13.50399        -2.15647
| 51>    C        2.56685        15.20446        -7.12535
| 52>    C        2.04431        14.95262        -8.38028
| 53>    C        1.51119        13.71055        -8.68584
| 54>    C        1.48045        12.65842        -7.76637
| 55>    C        1.07695        11.34793        -8.22869
| 56>    C        1.74267        10.20842        -7.92534
| 57>    C        1.40295         8.90051        -8.35748
| 58>    C        0.19004         8.45490        -8.80773
| 59>    C       -0.09692         7.13105        -9.23689
| 60>    C       -1.39934         6.90751        -9.55803
| 61>    C       -2.23320         8.03627        -9.39539
| 62>    S       -1.28801         9.40912        -8.85231
| 63>    C       -3.59442         8.12869        -9.59783
| 64>    C       -4.47738         7.13378       -10.07479
| 65>    C       -5.77620         7.53329       -10.13606
| 66>    C       -6.01131         8.86578        -9.70566
| 67>    S       -4.47930         9.59583        -9.23959
| 68>    C       -7.24097         9.46504        -9.64269
| 69>    C       -7.58568        10.75994        -9.19594
| 70>    C       -8.89332        11.24221        -9.11607
| 71>    C       -8.86594        12.56384        -8.60108
| 72>    C       -9.86716        13.46224        -8.31551
| 73>    C       -9.49477        14.71352        -7.79109
| 74>    C      -10.24870        15.80718        -7.39852
| 75>    C       -9.36970        16.83695        -6.92843
| 76>    C       -8.07310        16.37347        -7.03424
| 77>    C       -8.09860        15.04575        -7.56746
| 78>    C       -7.09917        14.15609        -7.85040
| 79>    C       -7.47097        12.89592        -8.36929
| 80>    C       -6.71032        11.80313        -8.73137
| 81>    C       -9.74961        18.13495        -6.42621
| 82>    C      -10.99581        18.58277        -6.29736
| 83>    H        1.65908        -2.15596         1.87935
| 84>    H        2.81146        -0.97384        -0.04066
| 85>    H        0.40065        -0.67403         3.50391
| 86>    H        2.60441         3.00387        -0.50290
| 87>    H        0.13579         5.77347         2.80196
| 88>    H        0.26562         3.30616         3.04804
| 89>    H        2.36758         4.47974        -2.65595
| 90>    H        2.47872         6.17097        -3.15085
| 91>    H        0.07371         4.89108        -1.76503
| 92>    H        0.18164         5.30416        -3.47799
| 93>    H        0.18222         6.58132        -2.25918
| 94>    H        4.52464         6.42885        -1.80405
| 95>    H        4.41174         4.73849        -1.30500
| 96>    H        4.51824         7.13589         0.58891
| 97>    H        5.84388         6.01975         0.25243
| 98>    H        4.39842         5.44784         1.08849
| 99>    H        2.95201         8.49333        -2.11025
|100>    H        0.74167        10.43393         1.00327
|101>    H        0.32125         8.26907         2.09392
|102>    H        1.72070        11.76071        -0.62038
|103>    H        2.84306        10.37536        -3.10127
|104>    H        0.95611        10.87718        -4.01158
|105>    H        1.15420        10.23392        -5.65487
|106>    H       -0.74806        12.50284        -4.89063
|107>    H       -1.21746        10.80791        -5.07722
|108>    H       -0.64325        11.71820        -6.47200
|109>    H        3.74237        16.07302        -4.32706
|110>    H        4.11213        15.47531        -1.94844
|111>    H        3.54204        13.24420        -1.13226
|112>    H        3.01130        16.15863        -6.88719
|113>    H        2.06660        15.72095        -9.13872
|114>    H        1.14690        13.52203        -9.68557
|115>    H        0.27910        11.32348        -8.95852
|116>    H        2.65942        10.29124        -7.35262
|117>    H        2.18260         8.15163        -8.29032
|118>    H        0.67750         6.38554        -9.28817
|119>    H       -1.78692         5.96033        -9.88879
|120>    H       -4.12983         6.15657       -10.35904
|121>    H       -6.58632         6.90975       -10.47251
|122>    H       -8.07380         8.84957        -9.96366
|123>    H       -9.77959        10.69997        -9.39071
|124>    H      -10.90850        13.22368        -8.48124
|125>    H      -11.32036        15.87685        -7.43834
|126>    H       -7.18253        16.91064        -6.76261
|127>    H       -6.05713        14.39149        -7.68456
|128>    H       -5.63960        11.74041        -8.67759
|129>    H       -8.92115        18.76989        -6.13578
|130>    H      -11.85119        17.98768        -6.56769
|131>    H      -11.20436        19.56467        -5.90901
|132> *
|133>
|134>                          ****END OF INPUT****

CARTESIAN COORDINATES (ANGSTROEM)
---------------------------------
  C      1.614930   -1.086310    1.759520
  C      2.243880   -0.433520    0.708000
  N      2.191190    0.874350    0.554590
  C      1.502320    1.574550    1.458570
  N      0.868470    1.038660    2.503490
  C      0.926160   -0.269990    2.646620
  C      1.439070    3.023730    1.291830
  C      2.074570    3.626710    0.200660
  C      2.001610    4.991060    0.059450
  C      1.303740    5.771560    0.997360
  C      0.673070    5.176060    2.080370
  C      0.744530    3.803820    2.219510
  C      1.393990    7.161180    0.596290
  C      2.141080    7.236970   -0.591140
  C      2.597530    5.862440   -1.021740
  C      2.045720    5.493910   -2.410850
  C      0.525620    5.573150   -2.481670
  C      4.134260    5.759290   -1.034230
  C      4.761660    6.113350    0.308560
  C      2.370620    8.445410   -1.201970
  C      1.857930    9.618810   -0.631720
  C      1.130250    9.527110    0.561090
  C      0.890170    8.314760    1.177160
  C      2.050520   10.926410   -1.227630
  C      2.537470   11.183220   -2.448700
  C      2.746290   12.529680   -2.972500
  C      2.478380   12.896720   -4.298260
  N      1.875830   12.175500   -5.314630
  C      0.907160   11.127140   -5.072170
  C     -0.515840   11.571430   -5.402890
  C      1.913910   12.946990   -6.462590
  C      2.489230   14.204960   -6.166730
  C      2.861520   14.168130   -4.781910
  C      3.451910   15.105790   -3.946570
  C      3.658590   14.765950   -2.624600
  C      3.318120   13.503990   -2.156470
  C      2.566850   15.204460   -7.125350
  C      2.044310   14.952620   -8.380280
  C      1.511190   13.710550   -8.685840
  C      1.480450   12.658420   -7.766370
  C      1.076950   11.347930   -8.228690
  C      1.742670   10.208420   -7.925340
  C      1.402950    8.900510   -8.357480
  C      0.190040    8.454900   -8.807730
  C     -0.096920    7.131050   -9.236890
  C     -1.399340    6.907510   -9.558030
  C     -2.233200    8.036270   -9.395390
  S     -1.288010    9.409120   -8.852310
  C     -3.594420    8.128690   -9.597830
  C     -4.477380    7.133780  -10.074790
  C     -5.776200    7.533290  -10.136060
  C     -6.011310    8.865780   -9.705660
  S     -4.479300    9.595830   -9.239590
  C     -7.240970    9.465040   -9.642690
  C     -7.585680   10.759940   -9.195940
  C     -8.893320   11.242210   -9.116070
  C     -8.865940   12.563840   -8.601080
  C     -9.867160   13.462240   -8.315510
  C     -9.494770   14.713520   -7.791090
  C    -10.248700   15.807180   -7.398520
  C     -9.369700   16.836950   -6.928430
  C     -8.073100   16.373470   -7.034240
  C     -8.098600   15.045750   -7.567460
  C     -7.099170   14.156090   -7.850400
  C     -7.470970   12.895920   -8.369290
  C     -6.710320   11.803130   -8.731370
  C     -9.749610   18.134950   -6.426210
  C    -10.995810   18.582770   -6.297360
  H      1.659080   -2.155960    1.879350
  H      2.811460   -0.973840   -0.040660
  H      0.400650   -0.674030    3.503910
  H      2.604410    3.003870   -0.502900
  H      0.135790    5.773470    2.801960
  H      0.265620    3.306160    3.048040
  H      2.367580    4.479740   -2.655950
  H      2.478720    6.170970   -3.150850
  H      0.073710    4.891080   -1.765030
  H      0.181640    5.304160   -3.477990
  H      0.182220    6.581320   -2.259180
  H      4.524640    6.428850   -1.804050
  H      4.411740    4.738490   -1.305000
  H      4.518240    7.135890    0.588910
  H      5.843880    6.019750    0.252430
  H      4.398420    5.447840    1.088490
  H      2.952010    8.493330   -2.110250
  H      0.741670   10.433930    1.003270
  H      0.321250    8.269070    2.093920
  H      1.720700   11.760710   -0.620380
  H      2.843060   10.375360   -3.101270
  H      0.956110   10.877180   -4.011580
  H      1.154200   10.233920   -5.654870
  H     -0.748060   12.502840   -4.890630
  H     -1.217460   10.807910   -5.077220
  H     -0.643250   11.718200   -6.472000
  H      3.742370   16.073020   -4.327060
  H      4.112130   15.475310   -1.948440
  H      3.542040   13.244200   -1.132260
  H      3.011300   16.158630   -6.887190
  H      2.066600   15.720950   -9.138720
  H      1.146900   13.522030   -9.685570
  H      0.279100   11.323480   -8.958520
  H      2.659420   10.291240   -7.352620
  H      2.182600    8.151630   -8.290320
  H      0.677500    6.385540   -9.288170
  H     -1.786920    5.960330   -9.888790
  H     -4.129830    6.156570  -10.359040
  H     -6.586320    6.909750  -10.472510
  H     -8.073800    8.849570   -9.963660
  H     -9.779590   10.699970   -9.390710
  H    -10.908500   13.223680   -8.481240
  H    -11.320360   15.876850   -7.438340
  H     -7.182530   16.910640   -6.762610
  H     -6.057130   14.391490   -7.684560
  H     -5.639600   11.740410   -8.677590
  H     -8.921150   18.769890   -6.135780
  H    -11.851190   17.987680   -6.567690
  H    -11.204360   19.564670   -5.909010

 Total Charge           Charge          ....    0
 Multiplicity           Mult            ....    1
 Number of Electrons    NEL             ....  480
 Basis Dimension        Dim             .... 1205

ORBITAL ENERGIES
----------------

  NO   OCC          E(Eh)            E(eV)
   0   2.0000     -88.936240     -2420.0781
   1   2.0000     -88.935265     -2420.0516
   2   2.0000     -14.435167      -392.8009
   3   2.0000     -14.402493      -391.9118
   4   2.0000     -14.402075      -391.9004
   5   2.0000     -10.335057      -281.2312
   6   2.0000     -10.316492      -280.7260
   7   2.0000     -10.316223      -280.7187
   8   2.0000     -10.301925      -280.3296
   9   2.0000     -10.297142      -280.1995
  10   2.0000     -10.296450      -280.1806
  11   2.0000     -10.296112      -280.1715
  12   2.0000     -10.296094      -280.1709
  13   2.0000     -10.293969      -280.1131
  14   2.0000     -10.290438      -280.0171
  15   2.0000     -10.289792      -279.9995
  16   2.0000     -10.288750      -279.9711
  17   2.0000     -10.281048      -279.7615
  18   2.0000     -10.278997      -279.7057
  19   2.0000     -10.277731      -279.6713
  20   2.0000     -10.277702      -279.6705
  21   2.0000     -10.277482      -279.6645
  22   2.0000     -10.277148      -279.6554
  23   2.0000     -10.273974      -279.5690
  24   2.0000     -10.273851      -279.5657
  25   2.0000     -10.268845      -279.4295
  26   2.0000     -10.268829      -279.4290
  27   2.0000     -10.268287      -279.4143
  28   2.0000     -10.267484      -279.3924
  29   2.0000     -10.267007      -279.3795
  30   2.0000     -10.266479      -279.3651
  31   2.0000     -10.265493      -279.3383
  32   2.0000     -10.264584      -279.3135
  33   2.0000     -10.264162      -279.3021
  34   2.0000     -10.264032      -279.2985
  35   2.0000     -10.263500      -279.2840
  36   2.0000     -10.263033      -279.2713
  37   2.0000     -10.262030      -279.2440
  38   2.0000     -10.261993      -279.2430
  39   2.0000     -10.261865      -279.2396
  40   2.0000     -10.261778      -279.2372
  41   2.0000     -10.261736      -279.2360
  42   2.0000     -10.261371      -279.2261
  43   2.0000     -10.261125      -279.2194
  44   2.0000     -10.260599      -279.2051
  45   2.0000     -10.260337      -279.1980
  46   2.0000     -10.259868      -279.1852
  47   2.0000     -10.259650      -279.1793
  48   2.0000     -10.259412      -279.1728
  49   2.0000     -10.258827      -279.1569
  50   2.0000     -10.258473      -279.1472
  51   2.0000     -10.256186      -279.0850
  52   2.0000     -10.256083      -279.0822
  53   2.0000     -10.256028      -279.0807
  54   2.0000     -10.255852      -279.0759
  55   2.0000     -10.255271      -279.0601
  56   2.0000     -10.254340      -279.0348
  57   2.0000     -10.253753      -279.0188
  58   2.0000     -10.253651      -279.0160
  59   2.0000     -10.253611      -279.0149
  60   2.0000     -10.253354      -279.0079
  61   2.0000     -10.252052      -278.9725
  62   2.0000     -10.251619      -278.9607
  63   2.0000     -10.248929      -278.8875
  64   2.0000     -10.248375      -278.8725
  65   2.0000     -10.243180      -278.7311
  66   2.0000     -10.237329      -278.5719
  67   2.0000     -10.236890      -278.5599
  68   2.0000      -8.032155      -218.5661
  69   2.0000      -8.030951      -218.5333
  70   2.0000      -6.001963      -163.3217
  71   2.0000      -6.000714      -163.2877
  72   2.0000      -5.997903      -163.2113
  73   2.0000      -5.996632      -163.1767
  74   2.0000      -5.993019      -163.0783
  75   2.0000      -5.991924      -163.0486
  76   2.0000      -1.076081       -29.2817
  77   2.0000      -1.064797       -28.9746
  78   2.0000      -0.985455       -26.8156
  79   2.0000      -0.981725       -26.7141
  80   2.0000      -0.976841       -26.5812
  81   2.0000      -0.970095       -26.3976
  82   2.0000      -0.963478       -26.2176
  83   2.0000      -0.954915       -25.9846
  84   2.0000      -0.937271       -25.5044
  85   2.0000      -0.932315       -25.3696
  86   2.0000      -0.930622       -25.3235
  87   2.0000      -0.910259       -24.7694
  88   2.0000      -0.899459       -24.4755
  89   2.0000      -0.894158       -24.3313
  90   2.0000      -0.884521       -24.0690
  91   2.0000      -0.880716       -23.9655
  92   2.0000      -0.869936       -23.6722
  93   2.0000      -0.861764       -23.4498
  94   2.0000      -0.859096       -23.3772
  95   2.0000      -0.849991       -23.1294
  96   2.0000      -0.846969       -23.0472
  97   2.0000      -0.838446       -22.8153
  98   2.0000      -0.833912       -22.6919
  99   2.0000      -0.827689       -22.5226
 100   2.0000      -0.825364       -22.4593
 101   2.0000      -0.819537       -22.3007
 102   2.0000      -0.818195       -22.2642
 103   2.0000      -0.812922       -22.1207
 104   2.0000      -0.810987       -22.0681
 105   2.0000      -0.797715       -21.7069
 106   2.0000      -0.794409       -21.6170
 107   2.0000      -0.792361       -21.5612
 108   2.0000      -0.778373       -21.1806
 109   2.0000      -0.775525       -21.1031
 110   2.0000      -0.754604       -20.5338
 111   2.0000      -0.752685       -20.4816
 112   2.0000      -0.743060       -20.2197
 113   2.0000      -0.740135       -20.1401
 114   2.0000      -0.736305       -20.0359
 115   2.0000      -0.729122       -19.8404
 116   2.0000      -0.719284       -19.5727
 117   2.0000      -0.710445       -19.3322
 118   2.0000      -0.698774       -19.0146
 119   2.0000      -0.694877       -18.9086
 120   2.0000      -0.687522       -18.7084
 121   2.0000      -0.680402       -18.5147
 122   2.0000      -0.672315       -18.2946
 123   2.0000      -0.664926       -18.0936
 124   2.0000      -0.664779       -18.0896
 125   2.0000      -0.662280       -18.0216
 126   2.0000      -0.661311       -17.9952
 127   2.0000      -0.658133       -17.9087
 128   2.0000      -0.645843       -17.5743
 129   2.0000      -0.641001       -17.4425
 130   2.0000      -0.637332       -17.3427
 131   2.0000      -0.629905       -17.1406
 132   2.0000      -0.628573       -17.1043
 133   2.0000      -0.619817       -16.8661
 134   2.0000      -0.616473       -16.7751
 135   2.0000      -0.613735       -16.7006
 136   2.0000      -0.607278       -16.5249
 137   2.0000      -0.602353       -16.3909
 138   2.0000      -0.593053       -16.1378
 139   2.0000      -0.588567       -16.0157
 140   2.0000      -0.587603       -15.9895
 141   2.0000      -0.583436       -15.8761
 142   2.0000      -0.580307       -15.7910
 143   2.0000      -0.576086       -15.6761
 144   2.0000      -0.573784       -15.6135
 145   2.0000      -0.568752       -15.4765
 146   2.0000      -0.564858       -15.3706
 147   2.0000      -0.560062       -15.2401
 148   2.0000      -0.550950       -14.9921
 149   2.0000      -0.547085       -14.8870
 150   2.0000      -0.540274       -14.7016
 151   2.0000      -0.537203       -14.6180
 152   2.0000      -0.534753       -14.5514
 153   2.0000      -0.533273       -14.5111
 154   2.0000      -0.530997       -14.4492
 155   2.0000      -0.528674       -14.3860
 156   2.0000      -0.525631       -14.3031
 157   2.0000      -0.520377       -14.1602
 158   2.0000      -0.518454       -14.1079
 159   2.0000      -0.516011       -14.0414
 160   2.0000      -0.514780       -14.0079
 161   2.0000      -0.509854       -13.8738
 162   2.0000      -0.507620       -13.8130
 163   2.0000      -0.507237       -13.8026
 164   2.0000      -0.505330       -13.7507
 165   2.0000      -0.503481       -13.7004
 166   2.0000      -0.498069       -13.5531
 167   2.0000      -0.496060       -13.4985
 168   2.0000      -0.494209       -13.4481
 169   2.0000      -0.491460       -13.3733
 170   2.0000      -0.489319       -13.3150
 171   2.0000      -0.488474       -13.2921
 172   2.0000      -0.487753       -13.2724
 173   2.0000      -0.485160       -13.2019
 174   2.0000      -0.484379       -13.1806
 175   2.0000      -0.480961       -13.0876
 176   2.0000      -0.480585       -13.0774
 177   2.0000      -0.478155       -13.0113
 178   2.0000      -0.469836       -12.7849
 179   2.0000      -0.469589       -12.7782
 180   2.0000      -0.468703       -12.7541
 181   2.0000      -0.464903       -12.6506
 182   2.0000      -0.460979       -12.5439
 183   2.0000      -0.459684       -12.5086
 184   2.0000      -0.458254       -12.4697
 185   2.0000      -0.457617       -12.4524
 186   2.0000      -0.454508       -12.3678
 187   2.0000      -0.453441       -12.3388
 188   2.0000      -0.447680       -12.1820
 189   2.0000      -0.445619       -12.1259
 190   2.0000      -0.444227       -12.0880
 191   2.0000      -0.441736       -12.0202
 192   2.0000      -0.437839       -11.9142
 193   2.0000      -0.435176       -11.8417
 194   2.0000      -0.433438       -11.7944
 195   2.0000      -0.432652       -11.7731
 196   2.0000      -0.430980       -11.7276
 197   2.0000      -0.426554       -11.6071
 198   2.0000      -0.424864       -11.5611
 199   2.0000      -0.418951       -11.4002
 200   2.0000      -0.418131       -11.3779
 201   2.0000      -0.416564       -11.3353
 202   2.0000      -0.415339       -11.3020
 203   2.0000      -0.415254       -11.2996
 204   2.0000      -0.412762       -11.2318
 205   2.0000      -0.410471       -11.1695
 206   2.0000      -0.409260       -11.1365
 207   2.0000      -0.402784       -10.9603
 208   2.0000      -0.400073       -10.8865
 209   2.0000      -0.398368       -10.8401
 210   2.0000      -0.397631       -10.8201
 211   2.0000      -0.396453       -10.7880
 212   2.0000      -0.388992       -10.5850
 213   2.0000      -0.385712       -10.4958
 214   2.0000      -0.385328       -10.4853
 215   2.0000      -0.380155       -10.3446
 216   2.0000      -0.378553       -10.3010
 217   2.0000      -0.376794       -10.2531
 218   2.0000      -0.375068       -10.2061
 219   2.0000      -0.373224       -10.1559
 220   2.0000      -0.369755       -10.0616
 221   2.0000      -0.362155        -9.8547
 222   2.0000      -0.360380        -9.8064
 223   2.0000      -0.353778        -9.6268
 224   2.0000      -0.338939        -9.2230
 225   2.0000      -0.330156        -8.9840
 226   2.0000      -0.323571        -8.8048
 227   2.0000      -0.315494        -8.5850
 228   2.0000      -0.313549        -8.5321
 229   2.0000      -0.310943        -8.4612
 230   2.0000      -0.309511        -8.4222
 231   2.0000      -0.302894        -8.2422
 232   2.0000      -0.297605        -8.0982
 233   2.0000      -0.283256        -7.7078
 234   2.0000      -0.265167        -7.2156
 235   2.0000      -0.264298        -7.1919
 236   2.0000      -0.259322        -7.0565
 237   2.0000      -0.244834        -6.6623
 238   2.0000      -0.236997        -6.4490
 239   2.0000      -0.197190        -5.3658
 240   0.0000      -0.091733        -2.4962
 241   0.0000      -0.063063        -1.7160
 242   0.0000      -0.031018        -0.8440
 243   0.0000      -0.009517        -0.2590
 244   0.0000       0.002485         0.0676

MULLIKEN ATOMIC CHARGES
-----------------------
   0 C :   -0.028556
   1 C :    0.066751
   2 N :   -0.057887
   3 C :   -0.100830
   4 N :   -0.057872
   5 C :    0.070063
   6 C :    0.105927
   7 C :   -0.098853
   8 C :    0.024410
   9 C :    0.119019
  10 C :   -0.046168
  11 C :   -0.007939
  12 C :    0.105618
  13 C :    0.014758
  14 C :   -0.142623
  15 C :    0.070399
  16 C :    0.028249
  17 C :    0.070789
  18 C :    0.022992
  19 C :   -0.091160
  20 C :    0.117698
  21 C :   -0.020951
  22 C :   -0.048853
  23 C :   -0.009730
  24 C :   -0.047719
  25 C :    0.049494
  26 C :    0.079493
  27 N :   -0.195526
  28 C :    0.092630
  29 C :    0.021243
  30 C :    0.076802
  31 C :    0.082431
  32 C :    0.067724
  33 C :   -0.056350
  34 C :    0.036177
  35 C :   -0.053739
  36 C :   -0.057957
  37 C :    0.030740
  38 C :   -0.038436
  39 C :    0.031469
  40 C :   -0.082621
  41 C :    0.013985
  42 C :   -0.023255
  43 C :   -0.023494
  44 C :    0.035314
  45 C :    0.026541
  46 C :   -0.051302
  47 S :    0.062131
  48 C :   -0.031608
  49 C :    0.024691
  50 C :    0.037376
  51 C :   -0.026918
  52 S :    0.042445
  53 C :   -0.013453
  54 C :    0.063443
  55 C :   -0.041365
  56 C :    0.074692
  57 C :   -0.009475
  58 C :    0.050860
  59 C :   -0.025329
  60 C :    0.062913
  61 C :   -0.028906
  62 C :    0.063311
  63 C :   -0.006411
  64 C :    0.043266
  65 C :   -0.030917
  66 C :    0.010107
  67 C :   -0.025433
  68 H :    0.005367
  69 H :    0.008156
  70 H :    0.008123
  71 H :   -0.025839
  72 H :   -0.039155
  73 H :   -0.014130
  74 H :   -0.001830
  75 H :   -0.007917
  76 H :    0.021985
  77 H :    0.004998
  78 H :    0.019112
  79 H :   -0.005455
  80 H :   -0.001789
  81 H :    0.021105
  82 H :    0.007205
  83 H :    0.022722
  84 H :   -0.047024
  85 H :   -0.032475
  86 H :   -0.037343
  87 H :   -0.020963
  88 H :    0.012268
  89 H :    0.032569
  90 H :    0.024759
  91 H :    0.014463
  92 H :    0.019059
  93 H :    0.021831
  94 H :   -0.038495
  95 H :   -0.027162
  96 H :   -0.029956
  97 H :   -0.037968
  98 H :   -0.025973
  99 H :   -0.033566
 100 H :    0.013388
 101 H :    0.001961
 102 H :   -0.017400
 103 H :   -0.016233
 104 H :   -0.018088
 105 H :   -0.017843
 106 H :   -0.016068
 107 H :   -0.026604
 108 H :   -0.031963
 109 H :   -0.026751
 110 H :   -0.024366
 111 H :   -0.028193
 112 H :   -0.022233
 113 H :   -0.006842
 114 H :   -0.019613
 115 H :    0.006668
 116 H :    0.019189
Sum of atomic charges:   -0.0000000

LOEWDIN ATOMIC CHARGES
----------------------
   0 C :   -0.079021
   1 C :    0.049010
   2 N :   -0.086508
   3 C :    0.042868
   4 N :   -0.084721
   5 C :    0.049763
   6 C :   -0.049153
   7 C :   -0.001527
   8 C :   -0.002885
   9 C :   -0.008412
  10 C :   -0.025148
  11 C :    0.001872
  12 C :   -0.020682
  13 C :    0.006508
  14 C :   -0.035809
  15 C :   -0.012188
  16 C :   -0.057491
  17 C :   -0.011557
  18 C :   -0.058161
  19 C :   -0.020672
  20 C :   -0.023470
  21 C :   -0.021598
  22 C :   -0.018227
  23 C :   -0.022503
  24 C :   -0.022060
  25 C :   -0.053948
  26 C :    0.032371
  27 N :    0.012844
  28 C :    0.037821
  29 C :   -0.059747
  30 C :    0.030241
  31 C :   -0.039740
  32 C :   -0.042805
  33 C :   -0.015860
  34 C :   -0.046521
  35 C :   -0.017809
  36 C :   -0.017007
  37 C :   -0.045627
  38 C :   -0.017106
  39 C :   -0.053856
  40 C :   -0.031467
  41 C :   -0.041533
  42 C :   -0.071502
  43 C :   -0.141493
  44 C :   -0.037613
  45 C :   -0.036041
  46 C :   -0.189196
  47 S :    0.375566
  48 C :   -0.174228
  49 C :   -0.042505
  50 C :   -0.028281
  51 C :   -0.156389
  52 S :    0.368416
  53 C :   -0.044640
  54 C :   -0.062425
  55 C :    0.008632
  56 C :   -0.057866
  57 C :    0.068984
  58 C :   -0.062192
  59 C :    0.044615
  60 C :   -0.059412
  61 C :    0.013136
  62 C :   -0.058095
  63 C :    0.069568
  64 C :   -0.061043
  65 C :    0.029762
  66 C :   -0.020467
  67 C :   -0.056706
  68 H :    0.033985
  69 H :    0.024852
  70 H :    0.024976
  71 H :    0.026274
  72 H :    0.025024
  73 H :    0.028764
  74 H :    0.020398
  75 H :    0.017633
  76 H :    0.025870
  77 H :    0.022510
  78 H :    0.024716
  79 H :    0.018382
  80 H :    0.020402
  81 H :    0.025245
  82 H :    0.023067
  83 H :    0.025902
  84 H :    0.021559
  85 H :    0.024887
  86 H :    0.026192
  87 H :    0.027104
  88 H :    0.025346
  89 H :    0.033385
  90 H :    0.023354
  91 H :    0.026717
  92 H :    0.030237
  93 H :    0.024057
  94 H :    0.025297
  95 H :    0.024556
  96 H :    0.025466
  97 H :    0.025262
  98 H :    0.024784
  99 H :    0.025685
 100 H :    0.015843
 101 H :    0.030007
 102 H :    0.031582
 103 H :    0.031506
 104 H :    0.030019
 105 H :    0.030330
 106 H :    0.031981
 107 H :    0.034214
 108 H :    0.022299
 109 H :    0.033890
 110 H :    0.024550
 111 H :    0.024079
 112 H :    0.035914
 113 H :    0.014358
 114 H :    0.029325
 115 H :    0.017262
 116 H :    0.023890

  Mayer bond orders larger than 0.100000
B(  0-C ,  1-C ) :   1.3733 B(  0-C ,  5-C ) :   1.3729 B(  0-C , 68-H ) :   0.9740
B(  1-C ,  2-N ) :   1.5499 B(  1-C , 69-H ) :   0.9831 B(  2-N ,  3-C ) :   1.5799
B(  3-C ,  4-N ) :   1.5808 B(  3-C ,  6-C ) :   0.9462 B(  4-N ,  5-C ) :   1.5494
B(  5-C , 70-H ) :   0.9826 B(  6-C ,  7-C ) :   1.3257 B(  6-C , 11-C ) :   1.3840
B(  7-C ,  8-C ) :   1.3503 B(  7-C , 71-H ) :   1.0105 B(  8-C ,  9-C ) :   1.3672
B(  8-C , 14-C ) :   0.9135 B(  9-C , 10-C ) :   1.3394 B(  9-C , 12-C ) :   0.9901
B( 10-C , 11-C ) :   1.3554 B( 10-C , 72-H ) :   0.9944 B( 11-C , 73-H ) :   0.9827
B( 12-C , 13-C ) :   1.3575 B( 12-C , 22-C ) :   1.3485 B( 13-C , 14-C ) :   0.9191
B( 13-C , 19-C ) :   1.4048 B( 14-C , 15-C ) :   1.0409 B( 14-C , 17-C ) :   1.0368
B( 15-C , 16-C ) :   1.1008 B( 15-C , 74-H ) :   0.9388 B( 15-C , 75-H ) :   0.9383
B( 16-C , 76-H ) :   0.9644 B( 16-C , 77-H ) :   0.9640 B( 16-C , 78-H ) :   0.9641
B( 17-C , 18-C ) :   1.1023 B( 17-C , 79-H ) :   0.9390 B( 17-C , 80-H ) :   0.9393
B( 18-C , 81-H ) :   0.9643 B( 18-C , 82-H ) :   0.9637 B( 18-C , 83-H ) :   0.9645
B( 19-C , 20-C ) :   1.3044 B( 19-C , 84-H ) :   0.9991 B( 20-C , 21-C ) :   1.3459
B( 20-C , 23-C ) :   1.0534 B( 21-C , 22-C ) :   1.3700 B( 21-C , 85-H ) :   0.9932
B( 22-C , 86-H ) :   0.9910 B( 23-C , 24-C ) :   1.7683 B( 23-C , 87-H ) :   0.9809
B( 24-C , 25-C ) :   0.9904 B( 24-C , 88-H ) :   0.9501 B( 25-C , 26-C ) :   1.3101
B( 25-C , 35-C ) :   1.4074 B( 26-C , 27-N ) :   1.1276 B( 26-C , 32-C ) :   1.2949
B( 27-N , 28-C ) :   0.9551 B( 27-N , 30-C ) :   1.1323 B( 28-C , 29-C ) :   1.1205
B( 28-C , 89-H ) :   0.9348 B( 28-C , 90-H ) :   0.9300 B( 29-C , 91-H ) :   0.9596
B( 29-C , 92-H ) :   0.9618 B( 29-C , 93-H ) :   0.9541 B( 30-C , 31-C ) :   1.3013
B( 30-C , 39-C ) :   1.2992 B( 31-C , 32-C ) :   1.0602 B( 31-C , 36-C ) :   1.3423
B( 32-C , 33-C ) :   1.3345 B( 33-C , 34-C ) :   1.3857 B( 33-C , 94-H ) :   0.9993
B( 34-C , 35-C ) :   1.3361 B( 34-C , 95-H ) :   0.9842 B( 35-C , 96-H ) :   0.9916
B( 36-C , 37-C ) :   1.3714 B( 36-C , 97-H ) :   0.9973 B( 37-C , 38-C ) :   1.3556
B( 37-C , 98-H ) :   0.9865 B( 38-C , 39-C ) :   1.3756 B( 38-C , 99-H ) :   0.9914
B( 39-C , 40-C ) :   1.0481 B( 40-C , 41-C ) :   1.7021 B( 40-C ,100-H ) :   0.9384
B( 41-C , 42-C ) :   1.1585 B( 41-C ,101-H ) :   0.9595 B( 42-C , 43-C ) :   1.6081
B( 42-C ,102-H ) :   0.9631 B( 43-C , 44-C ) :   1.1369 B( 43-C , 47-S ) :   1.0352
B( 44-C , 45-C ) :   1.5983 B( 44-C ,103-H ) :   0.9978 B( 45-C , 46-C ) :   1.1835
B( 45-C ,104-H ) :   0.9926 B( 46-C , 47-S ) :   1.0281 B( 46-C , 48-C ) :   1.5188
B( 48-C , 49-C ) :   1.1831 B( 48-C , 52-S ) :   1.0411 B( 49-C , 50-C ) :   1.5964
B( 49-C ,105-H ) :   0.9923 B( 50-C , 51-C ) :   1.1373 B( 50-C ,106-H ) :   0.9983
B( 51-C , 52-S ) :   1.0165 B( 51-C , 53-C ) :   1.5848 B( 53-C , 54-C ) :   1.1295
B( 53-C ,107-H ) :   0.9682 B( 54-C , 55-C ) :   1.4425 B( 54-C , 65-C ) :   1.1280
B( 55-C , 56-C ) :   1.1092 B( 55-C ,108-H ) :   1.0196 B( 56-C , 57-C ) :   1.4307
B( 56-C , 64-C ) :   1.1276 B( 57-C , 58-C ) :   1.1364 B( 57-C ,109-H ) :   1.0058
B( 58-C , 59-C ) :   1.4354 B( 58-C , 62-C ) :   1.1258 B( 59-C , 60-C ) :   1.1451
B( 59-C ,110-H ) :   1.0086 B( 60-C , 61-C ) :   1.5072 B( 60-C , 66-C ) :   1.0839
B( 61-C , 62-C ) :   1.0837 B( 61-C ,111-H ) :   1.0173 B( 62-C , 63-C ) :   1.4633
B( 63-C , 64-C ) :   1.1229 B( 63-C ,112-H ) :   1.0060 B( 64-C , 65-C ) :   1.4641
B( 65-C ,113-H ) :   0.9919 B( 66-C , 67-C ) :   1.9349 B( 66-C ,114-H ) :   0.9661
B( 67-C ,115-H ) :   0.9520 B( 67-C ,116-H ) :   0.9490

-----------------------------------------------------------------------------
         ABSORPTION SPECTRUM VIA TRANSITION ELECTRIC DIPOLE MOMENTS
-----------------------------------------------------------------------------
State   Energy  Wavelength   fosc         T2         TX        TY        TZ
        (cm-1)    (nm)                  (au**2)     (au)      (au)      (au)
-----------------------------------------------------------------------------
   0    6480.8   1543.0   0.016296767   0.82785  -0.85076   0.32252  -0.00519
   1   15104.4    662.1   0.267105002   5.82175  -2.37738   0.29423  -0.28849
   2   15340.0    651.9   1.011753646  21.71327  -4.52440   1.03253  -0.42069
   3   22400.0    446.4   0.061836989   0.90881   0.30191  -0.87612  -0.22380
   4   22829.1    438.0   0.118615589   1.71052   0.70490  -0.98716  -0.48902
   5   24243.0    412.5   0.155328332   2.10931   0.01023  -1.26091  -0.72064
   6   25242.9    396.2   0.207624533   2.70779  -0.08035  -1.35371  -0.93209
   7   26274.7    380.6   0.293777316   3.68091  -0.77061   1.36297   1.10877
   8   26407.1    378.7   0.112744382   1.40556  -0.17496   1.13416  -0.29771
   9   27683.0    361.2   0.664646107   7.90412   0.13006   2.68550   0.82177
  10   28560.1    350.1   0.089055982   1.02655   0.15494  -0.90018  -0.43842
  11   28755.4    347.8   0.004037034   0.04622   0.03686   0.15113   0.14839
  12   29365.5    340.5   0.272077885   3.05022  -0.68482   1.40505   0.77915
  13   29998.4    333.4   0.322620929   3.54054  -0.61629  -1.54365   0.88197
  14   30211.5    331.0   1.428869503  15.57025   0.02958  -3.67599   1.43403
  15   31533.8    317.1   0.022977774   0.23989  -0.19141  -0.13529  -0.43005
  16   31720.9    315.2   0.081784429   0.84879  -0.27544  -0.87020  -0.12524
  17   32423.5    308.4   0.067938671   0.68982   0.03165  -0.82163  -0.11718
  18   33190.1    301.3   0.246909625   2.44909   0.57616  -1.34457  -0.55611
  19   33677.8    296.9   0.034552534   0.33776   0.17816   0.55319   0.00196
  20   33724.5    296.5   0.270212864   2.63776   0.11621   1.61913   0.05167
  21   34358.0    291.1   0.109661171   1.05075  -0.19167   0.99362  -0.16348
  22   35220.1    283.9   0.003034509   0.02836   0.02314  -0.00070   0.16682
  23   35465.8    282.0   0.022344198   0.20741  -0.01105  -0.40963  -0.19872
  24   35584.9    281.0   0.036186080   0.33477   0.02073   0.57822  -0.00255
  25   36380.8    274.9   0.023251654   0.21041  -0.39451  -0.20242   0.11745
  26   36877.0    271.2   0.061118411   0.54562   0.23603  -0.69740   0.05950
  27   36955.3    270.6   0.030000482   0.26726  -0.27982   0.40904  -0.14711
  28   37001.3    270.3   0.020782538   0.18491   0.36217  -0.21758   0.07999
  29   37008.7    270.2   0.002413306   0.02147   0.13660  -0.04739   0.02370
  30   37459.6    267.0   0.020717928   0.18208   0.25761   0.30678   0.14697
  31   37774.6    264.7   0.016073323   0.14008   0.00858  -0.35288   0.12443
  32   37813.6    264.5   0.010960280   0.09542  -0.25256  -0.03602  -0.17418
  33   38054.0    262.8   0.063511628   0.54945  -0.36940   0.63895  -0.06880
  34   38481.7    259.9   0.018350012   0.15698   0.17690   0.16452   0.31404
  35   38797.7    257.7   0.243071242   2.06254   0.33083  -0.86587  -1.09698
  36   38852.7    257.4   0.006305868   0.05343   0.09524  -0.10837  -0.18060
  37   39023.8    256.3   0.030019095   0.25325   0.27725   0.09960  -0.40800
  38   39091.1    255.8   0.026103746   0.21984   0.20752   0.41262   0.08073
  39   39998.2    250.0   0.018825151   0.15494   0.12639   0.06986  -0.36618
  40   40113.2    249.3   0.052585910   0.43158  -0.44989  -0.22665   0.42167
  41   40273.4    248.3   0.004234832   0.03462   0.02013  -0.17445  -0.06148

FINAL SINGLE POINT ENERGY     -3387.163998647506

DIPOLE MOMENT
-------------
                                X             Y             Z
Electronic contribution:    -21.22620       3.13367     -24.67829
Nuclear contribution   :     20.28501      -4.70212      24.53046
                        -----------------------------------------
Total Dipole Moment    :     -0.94119      -1.56844      -0.14782
                        -----------------------------------------
Magnitude (a.u.)       :      1.83513
Magnitude (Debye)      :      4.66453

Rotational constants in cm-1:     0.001010     0.000395     0.000357
Rotational constants in MHz :    30.284410    11.833897    10.702756

                             ****ORCA TERMINATED NORMALLY****
TOTAL RUN TIME: 0 days 0 hours 12 minutes 12 seconds 597 msec
