                         Program Version 4.2.0 -  RELEASE  -
|  1> # ORCA input file
|  2> # SCF done       -143.736679597471          0.000304171372
|  3> ! CAM-B3LYP def2-SVP def2/J RIJCOSX Grid4 TightSCF
|  4> %maxcore 5000
|  5> %tddft
|  6>     Mode sTDDFT
|  7>     Ethresh 5.0
|  8>     maxcore 5000
|  9> end
| 10>
| 11> %pal
| 12>   nprocs 6
| 13>   end
| 14> * xyz 0 1
| 15>    C        4.21258       -12.74278        15.61449
| 16>    C        4.80898       -11.93338        14.72412
| 17>    C        5.37679       -10.63993        14.95069
| 18>    C        5.91841       -10.06725        13.84642
| 19>    C        5.82333       -10.85468        12.67406
| 20>    S        5.00803       -12.36324        13.01799
| 21>    C        6.30213       -10.54397        11.41082
| 22>    C        6.99012        -9.38758        11.00525
| 23>    C        7.36308        -9.40263         9.68538
| 24>    C        6.98541       -10.56130         8.99366
| 25>    S        6.12328       -11.64530        10.06249
| 26>    C        7.27094       -10.87270         7.66492
| 27>    C        6.88992       -12.03022         7.03319
| 28>    C        7.26907       -12.39176         5.73844
| 29>    C        6.95196       -13.57722         5.07001
| 30>    C        7.55419       -13.70541         3.83823
| 31>    C        8.36336       -12.61958         3.49526
| 32>    S        8.32332       -11.40747         4.74981
| 33>    C        9.19678       -12.48678         2.37878
| 34>    C        9.49284       -13.45646         1.41508
| 35>    C       10.47270       -13.07352         0.53235
| 36>    C       10.97089       -11.77913         0.75076
| 37>    S       10.13259       -11.04092         2.09887
| 38>    C       12.04957       -11.21083         0.08833
| 39>    C       12.53791        -9.91655         0.20907
| 40>    S       14.14476        -9.54486        -0.40724
| 41>    C       14.00969        -7.85970         0.04426
| 42>    C       12.72694        -7.61976         0.61900
| 43>    C       11.95130        -8.76437         0.73080
| 44>    C       12.25136        -6.32548         1.07137
| 45>    O       11.17014        -6.12383         1.57451
| 46>    C       15.03915        -6.95982        -0.13338
| 47>    C       16.36144        -7.25190        -0.46989
| 48>    C       17.39622        -6.32274        -0.63356
| 49>    C       18.63859        -6.88867        -0.81695
| 50>    C       18.62271        -8.28347        -0.79431
| 51>    S       16.99196        -8.87458        -0.59916
| 52>    C       19.70653        -9.17301        -0.81741
| 53>    C       21.06417        -8.89126        -0.96592
| 54>    C       21.87576        -9.99928        -0.83370
| 55>    C       21.18445       -11.18351        -0.57469
| 56>    S       19.46294       -10.87616        -0.53567
| 57>    C       21.72556       -12.44585        -0.30978
| 58>    C       20.97898       -13.55773        -0.01439
| 59>    C       21.49401       -14.80286         0.34825
| 60>    C       20.75546       -15.94766         0.67383
| 61>    C       21.51983       -17.02547         1.04364
| 62>    C       22.90087       -16.77006         1.02541
| 63>    S       23.20509       -15.12505         0.50931
| 64>    C       23.93135       -17.63219         1.36940
| 65>    C       23.81584       -18.97038         1.81524
| 66>    C       24.99949       -19.56965         2.10028
| 67>    C       26.14415       -18.73643         1.89668
| 68>    S       25.61128       -17.15034         1.31674
| 69>    C       27.43652       -19.04293         2.09616
| 70>    H        4.11332       -12.44662        16.64364
| 71>    H        3.82137       -13.70269        15.33224
| 72>    H        5.35812       -10.19354        15.92878
| 73>    H        6.38837        -9.09983        13.83629
| 74>    H        7.20179        -8.57926        11.68149
| 75>    H        7.90339        -8.60837         9.20087
| 76>    H        7.85716       -10.14819         7.11325
| 77>    H        6.27945       -12.74185         7.57517
| 78>    H        6.30501       -14.31818         5.50553
| 79>    H        7.42919       -14.55669         3.19368
| 80>    H        9.01489       -14.41926         1.40228
| 81>    H       10.84987       -13.69604        -0.25968
| 82>    H       12.60016       -11.87483        -0.56615
| 83>    H       10.95999        -8.73966         1.14715
| 84>    H       12.96251        -5.49040         0.92066
| 85>    H       14.82912        -5.91601         0.05829
| 86>    H       17.21691        -5.26253        -0.59795
| 87>    H       19.54500        -6.32261        -0.93552
| 88>    H       21.42866        -7.89799        -1.15673
| 89>    H       22.94884        -9.97184        -0.90533
| 90>    H       22.80545       -12.52446        -0.31202
| 91>    H       19.89914       -13.47492        -0.03732
| 92>    H       19.68027       -15.95451         0.63519
| 93>    H       21.11621       -17.98000         1.32901
| 94>    H       22.85764       -19.44900         1.91394
| 95>    H       25.10828       -20.57967         2.45294
| 96>    H       27.71957       -20.01788         2.45127
| 97>    H       28.22112       -18.33300         1.91039
| 98> *
| 99>
|100>                          ****END OF INPUT****

CARTESIAN COORDINATES (ANGSTROEM)
---------------------------------
  C      4.212580  -12.742780   15.614490
  C      4.808980  -11.933380   14.724120
  C      5.376790  -10.639930   14.950690
  C      5.918410  -10.067250   13.846420
  C      5.823330  -10.854680   12.674060
  S      5.008030  -12.363240   13.017990
  C      6.302130  -10.543970   11.410820
  C      6.990120   -9.387580   11.005250
  C      7.363080   -9.402630    9.685380
  C      6.985410  -10.561300    8.993660
  S      6.123280  -11.645300   10.062490
  C      7.270940  -10.872700    7.664920
  C      6.889920  -12.030220    7.033190
  C      7.269070  -12.391760    5.738440
  C      6.951960  -13.577220    5.070010
  C      7.554190  -13.705410    3.838230
  C      8.363360  -12.619580    3.495260
  S      8.323320  -11.407470    4.749810
  C      9.196780  -12.486780    2.378780
  C      9.492840  -13.456460    1.415080
  C     10.472700  -13.073520    0.532350
  C     10.970890  -11.779130    0.750760
  S     10.132590  -11.040920    2.098870
  C     12.049570  -11.210830    0.088330
  C     12.537910   -9.916550    0.209070
  S     14.144760   -9.544860   -0.407240
  C     14.009690   -7.859700    0.044260
  C     12.726940   -7.619760    0.619000
  C     11.951300   -8.764370    0.730800
  C     12.251360   -6.325480    1.071370
  O     11.170140   -6.123830    1.574510
  C     15.039150   -6.959820   -0.133380
  C     16.361440   -7.251900   -0.469890
  C     17.396220   -6.322740   -0.633560
  C     18.638590   -6.888670   -0.816950
  C     18.622710   -8.283470   -0.794310
  S     16.991960   -8.874580   -0.599160
  C     19.706530   -9.173010   -0.817410
  C     21.064170   -8.891260   -0.965920
  C     21.875760   -9.999280   -0.833700
  C     21.184450  -11.183510   -0.574690
  S     19.462940  -10.876160   -0.535670
  C     21.725560  -12.445850   -0.309780
  C     20.978980  -13.557730   -0.014390
  C     21.494010  -14.802860    0.348250
  C     20.755460  -15.947660    0.673830
  C     21.519830  -17.025470    1.043640
  C     22.900870  -16.770060    1.025410
  S     23.205090  -15.125050    0.509310
  C     23.931350  -17.632190    1.369400
  C     23.815840  -18.970380    1.815240
  C     24.999490  -19.569650    2.100280
  C     26.144150  -18.736430    1.896680
  S     25.611280  -17.150340    1.316740
  C     27.436520  -19.042930    2.096160
  H      4.113320  -12.446620   16.643640
  H      3.821370  -13.702690   15.332240
  H      5.358120  -10.193540   15.928780
  H      6.388370   -9.099830   13.836290
  H      7.201790   -8.579260   11.681490
  H      7.903390   -8.608370    9.200870
  H      7.857160  -10.148190    7.113250
  H      6.279450  -12.741850    7.575170
  H      6.305010  -14.318180    5.505530
  H      7.429190  -14.556690    3.193680
  H      9.014890  -14.419260    1.402280
  H     10.849870  -13.696040   -0.259680
  H     12.600160  -11.874830   -0.566150
  H     10.959990   -8.739660    1.147150
  H     12.962510   -5.490400    0.920660
  H     14.829120   -5.916010    0.058290
  H     17.216910   -5.262530   -0.597950
  H     19.545000   -6.322610   -0.935520
  H     21.428660   -7.897990   -1.156730
  H     22.948840   -9.971840   -0.905330
  H     22.805450  -12.524460   -0.312020
  H     19.899140  -13.474920   -0.037320
  H     19.680270  -15.954510    0.635190
  H     21.116210  -17.980000    1.329010
  H     22.857640  -19.449000    1.913940
  H     25.108280  -20.579670    2.452940
  H     27.719570  -20.017880    2.451270
  H     28.221120  -18.333000    1.910390

 Total Charge           Charge          ....    0
 Multiplicity           Mult            ....    1
 Number of Electrons    NEL             ....  450
 Basis Dimension        Dim             ....  946

ORBITAL ENERGIES
----------------

  NO   OCC          E(Eh)            E(eV)
   0   2.0000     -88.946671     -2420.3620
   1   2.0000     -88.945632     -2420.3337
   2   2.0000     -88.945543     -2420.3313
   3   2.0000     -88.945086     -2420.3188
   4   2.0000     -88.942366     -2420.2448
   5   2.0000     -88.939437     -2420.1651
   6   2.0000     -88.938661     -2420.1440
   7   2.0000     -88.937550     -2420.1138
   8   2.0000     -88.933131     -2419.9935
   9   2.0000     -19.190687      -522.2051
  10   2.0000     -10.338108      -281.3142
  11   2.0000     -10.313421      -280.6424
  12   2.0000     -10.310228      -280.5556
  13   2.0000     -10.310098      -280.5520
  14   2.0000     -10.308765      -280.5158
  15   2.0000     -10.307508      -280.4816
  16   2.0000     -10.305790      -280.4348
  17   2.0000     -10.304556      -280.4012
  18   2.0000     -10.303211      -280.3646
  19   2.0000     -10.302904      -280.3563
  20   2.0000     -10.302843      -280.3546
  21   2.0000     -10.302129      -280.3352
  22   2.0000     -10.301905      -280.3291
  23   2.0000     -10.300736      -280.2973
  24   2.0000     -10.300277      -280.2848
  25   2.0000     -10.298482      -280.2359
  26   2.0000     -10.297664      -280.2137
  27   2.0000     -10.296730      -280.1883
  28   2.0000     -10.294681      -280.1325
  29   2.0000     -10.290581      -280.0210
  30   2.0000     -10.286790      -279.9178
  31   2.0000     -10.286204      -279.9018
  32   2.0000     -10.282576      -279.8031
  33   2.0000     -10.282481      -279.8005
  34   2.0000     -10.282370      -279.7975
  35   2.0000     -10.281687      -279.7789
  36   2.0000     -10.281235      -279.7666
  37   2.0000     -10.280721      -279.7526
  38   2.0000     -10.278924      -279.7037
  39   2.0000     -10.278691      -279.6974
  40   2.0000     -10.277723      -279.6711
  41   2.0000     -10.277606      -279.6679
  42   2.0000     -10.276987      -279.6510
  43   2.0000     -10.276273      -279.6316
  44   2.0000     -10.276212      -279.6299
  45   2.0000     -10.275957      -279.6230
  46   2.0000     -10.274834      -279.5925
  47   2.0000     -10.274035      -279.5707
  48   2.0000     -10.273823      -279.5649
  49   2.0000     -10.273547      -279.5574
  50   2.0000     -10.272552      -279.5303
  51   2.0000     -10.271508      -279.5019
  52   2.0000     -10.267717      -279.3988
  53   2.0000     -10.267105      -279.3821
  54   2.0000     -10.263970      -279.2968
  55   2.0000      -8.042955      -218.8599
  56   2.0000      -8.041881      -218.8307
  57   2.0000      -8.041201      -218.8122
  58   2.0000      -8.041145      -218.8107
  59   2.0000      -8.039054      -218.7538
  60   2.0000      -8.035512      -218.6574
  61   2.0000      -8.034836      -218.6390
  62   2.0000      -8.033815      -218.6112
  63   2.0000      -8.029829      -218.5028
  64   2.0000      -6.012546      -163.6097
  65   2.0000      -6.011418      -163.5790
  66   2.0000      -6.010778      -163.5616
  67   2.0000      -6.010598      -163.5567
  68   2.0000      -6.008815      -163.5082
  69   2.0000      -6.008623      -163.5029
  70   2.0000      -6.007421      -163.4702
  71   2.0000      -6.006572      -163.4471
  72   2.0000      -6.006506      -163.4453
  73   2.0000      -6.005146      -163.4083
  74   2.0000      -6.004888      -163.4013
  75   2.0000      -6.004410      -163.3883
  76   2.0000      -6.004072      -163.3791
  77   2.0000      -6.003447      -163.3621
  78   2.0000      -6.003160      -163.3543
  79   2.0000      -6.002963      -163.3489
  80   2.0000      -6.002424      -163.3343
  81   2.0000      -6.001022      -163.2961
  82   2.0000      -6.000399      -163.2791
  83   2.0000      -5.999726      -163.2608
  84   2.0000      -5.999621      -163.2580
  85   2.0000      -5.999496      -163.2546
  86   2.0000      -5.996710      -163.1788
  87   2.0000      -5.996125      -163.1629
  88   2.0000      -5.995688      -163.1510
  89   2.0000      -5.994899      -163.1295
  90   2.0000      -5.990454      -163.0085
  91   2.0000      -1.102700       -30.0060
  92   2.0000      -0.995433       -27.0871
  93   2.0000      -0.993852       -27.0441
  94   2.0000      -0.988292       -26.8928
  95   2.0000      -0.985667       -26.8214
  96   2.0000      -0.979028       -26.6407
  97   2.0000      -0.972193       -26.4547
  98   2.0000      -0.968746       -26.3609
  99   2.0000      -0.964080       -26.2340
 100   2.0000      -0.961576       -26.1658
 101   2.0000      -0.905368       -24.6363
 102   2.0000      -0.898403       -24.4468
 103   2.0000      -0.890827       -24.2406
 104   2.0000      -0.876340       -23.8464
 105   2.0000      -0.868656       -23.6373
 106   2.0000      -0.861366       -23.4389
 107   2.0000      -0.848263       -23.0824
 108   2.0000      -0.845271       -23.0010
 109   2.0000      -0.843875       -22.9630
 110   2.0000      -0.836776       -22.7698
 111   2.0000      -0.835840       -22.7444
 112   2.0000      -0.833536       -22.6817
 113   2.0000      -0.826787       -22.4980
 114   2.0000      -0.820174       -22.3181
 115   2.0000      -0.817550       -22.2467
 116   2.0000      -0.812339       -22.1049
 117   2.0000      -0.811777       -22.0896
 118   2.0000      -0.808355       -21.9965
 119   2.0000      -0.794345       -21.6152
 120   2.0000      -0.782839       -21.3021
 121   2.0000      -0.764777       -20.8106
 122   2.0000      -0.752582       -20.4788
 123   2.0000      -0.736931       -20.0529
 124   2.0000      -0.730162       -19.8687
 125   2.0000      -0.707004       -19.2386
 126   2.0000      -0.702738       -19.1225
 127   2.0000      -0.686905       -18.6916
 128   2.0000      -0.680373       -18.5139
 129   2.0000      -0.673960       -18.3394
 130   2.0000      -0.668626       -18.1942
 131   2.0000      -0.666007       -18.1230
 132   2.0000      -0.651712       -17.7340
 133   2.0000      -0.638099       -17.3636
 134   2.0000      -0.635193       -17.2845
 135   2.0000      -0.631211       -17.1761
 136   2.0000      -0.625277       -17.0147
 137   2.0000      -0.623608       -16.9692
 138   2.0000      -0.621581       -16.9141
 139   2.0000      -0.617353       -16.7990
 140   2.0000      -0.613397       -16.6914
 141   2.0000      -0.609702       -16.5908
 142   2.0000      -0.606500       -16.5037
 143   2.0000      -0.600015       -16.3272
 144   2.0000      -0.599269       -16.3069
 145   2.0000      -0.594165       -16.1681
 146   2.0000      -0.593157       -16.1406
 147   2.0000      -0.590774       -16.0758
 148   2.0000      -0.586430       -15.9576
 149   2.0000      -0.583140       -15.8680
 150   2.0000      -0.565804       -15.3963
 151   2.0000      -0.557625       -15.1737
 152   2.0000      -0.548274       -14.9193
 153   2.0000      -0.542777       -14.7697
 154   2.0000      -0.532413       -14.4877
 155   2.0000      -0.524221       -14.2648
 156   2.0000      -0.521751       -14.1976
 157   2.0000      -0.515222       -14.0199
 158   2.0000      -0.512910       -13.9570
 159   2.0000      -0.511866       -13.9286
 160   2.0000      -0.505570       -13.7573
 161   2.0000      -0.500217       -13.6116
 162   2.0000      -0.498791       -13.5728
 163   2.0000      -0.496997       -13.5240
 164   2.0000      -0.496325       -13.5057
 165   2.0000      -0.495278       -13.4772
 166   2.0000      -0.492210       -13.3937
 167   2.0000      -0.491653       -13.3786
 168   2.0000      -0.489260       -13.3134
 169   2.0000      -0.488606       -13.2957
 170   2.0000      -0.487458       -13.2644
 171   2.0000      -0.486226       -13.2309
 172   2.0000      -0.483845       -13.1661
 173   2.0000      -0.482822       -13.1382
 174   2.0000      -0.479841       -13.0571
 175   2.0000      -0.473873       -12.8948
 176   2.0000      -0.471029       -12.8173
 177   2.0000      -0.468477       -12.7479
 178   2.0000      -0.464841       -12.6490
 179   2.0000      -0.462502       -12.5853
 180   2.0000      -0.458846       -12.4858
 181   2.0000      -0.457939       -12.4612
 182   2.0000      -0.456795       -12.4300
 183   2.0000      -0.455482       -12.3943
 184   2.0000      -0.452196       -12.3049
 185   2.0000      -0.450777       -12.2663
 186   2.0000      -0.448095       -12.1933
 187   2.0000      -0.443460       -12.0672
 188   2.0000      -0.440277       -11.9806
 189   2.0000      -0.437055       -11.8929
 190   2.0000      -0.432841       -11.7782
 191   2.0000      -0.427565       -11.6346
 192   2.0000      -0.424997       -11.5647
 193   2.0000      -0.424359       -11.5474
 194   2.0000      -0.422605       -11.4997
 195   2.0000      -0.417850       -11.3703
 196   2.0000      -0.411911       -11.2087
 197   2.0000      -0.410314       -11.1652
 198   2.0000      -0.410152       -11.1608
 199   2.0000      -0.400945       -10.9103
 200   2.0000      -0.398757       -10.8507
 201   2.0000      -0.394426       -10.7329
 202   2.0000      -0.388721       -10.5776
 203   2.0000      -0.386849       -10.5267
 204   2.0000      -0.382547       -10.4096
 205   2.0000      -0.372279       -10.1302
 206   2.0000      -0.358624        -9.7586
 207   2.0000      -0.341695        -9.2980
 208   2.0000      -0.337540        -9.1849
 209   2.0000      -0.333244        -9.0680
 210   2.0000      -0.329366        -8.9625
 211   2.0000      -0.328452        -8.9376
 212   2.0000      -0.325578        -8.8594
 213   2.0000      -0.322677        -8.7805
 214   2.0000      -0.319268        -8.6877
 215   2.0000      -0.315504        -8.5853
 216   2.0000      -0.312182        -8.4949
 217   2.0000      -0.311533        -8.4772
 218   2.0000      -0.310425        -8.4471
 219   2.0000      -0.297662        -8.0998
 220   2.0000      -0.278523        -7.5790
 221   2.0000      -0.250140        -6.8067
 222   2.0000      -0.231151        -6.2899
 223   2.0000      -0.196349        -5.3429
 224   2.0000      -0.168022        -4.5721
 225   0.0000      -0.109762        -2.9868
 226   0.0000      -0.083819        -2.2808
 227   0.0000      -0.047740        -1.2991
 228   0.0000      -0.031236        -0.8500
 229   0.0000      -0.007265        -0.1977

MULLIKEN ATOMIC CHARGES
-----------------------
   0 C :   -0.031097
   1 C :   -0.062720
   2 C :    0.045002
   3 C :    0.029141
   4 C :   -0.065037
   5 S :    0.080462
   6 C :   -0.042527
   7 C :    0.013431
   8 C :    0.030010
   9 C :   -0.030145
  10 S :    0.077432
  11 C :   -0.008478
  12 C :   -0.007230
  13 C :   -0.030688
  14 C :    0.024880
  15 C :    0.013148
  16 C :   -0.042823
  17 S :    0.089091
  18 C :   -0.045277
  19 C :    0.021434
  20 C :    0.024709
  21 C :   -0.042622
  22 S :    0.093054
  23 C :    0.032240
  24 C :   -0.068956
  25 S :    0.092161
  26 C :   -0.050239
  27 C :    0.016711
  28 C :   -0.008387
  29 C :    0.134337
  30 O :   -0.193066
  31 C :   -0.021107
  32 C :   -0.043130
  33 C :    0.011346
  34 C :    0.027059
  35 C :   -0.038542
  36 S :    0.080093
  37 C :   -0.034020
  38 C :    0.010931
  39 C :    0.024887
  40 C :   -0.033146
  41 S :    0.084984
  42 C :    0.002570
  43 C :   -0.014893
  44 C :   -0.023618
  45 C :    0.024905
  46 C :    0.019094
  47 C :   -0.045677
  48 S :    0.085424
  49 C :   -0.060482
  50 C :    0.023241
  51 C :    0.054564
  52 C :   -0.069020
  53 S :    0.087573
  54 C :   -0.024694
  55 H :    0.018525
  56 H :    0.019867
  57 H :   -0.014065
  58 H :   -0.013423
  59 H :   -0.016621
  60 H :   -0.011930
  61 H :   -0.004449
  62 H :   -0.007094
  63 H :   -0.014850
  64 H :   -0.016954
  65 H :   -0.018414
  66 H :   -0.016469
  67 H :   -0.014032
  68 H :    0.004253
  69 H :   -0.028412
  70 H :   -0.014369
  71 H :   -0.013346
  72 H :   -0.016705
  73 H :   -0.015677
  74 H :   -0.011823
  75 H :   -0.004914
  76 H :   -0.003653
  77 H :   -0.010872
  78 H :   -0.015362
  79 H :   -0.010692
  80 H :   -0.011020
  81 H :    0.021978
  82 H :    0.024226
Sum of atomic charges:    0.0000000

LOEWDIN ATOMIC CHARGES
----------------------
   0 C :   -0.079803
   1 C :   -0.139407
   2 C :   -0.037146
   3 C :   -0.027604
   4 C :   -0.180170
   5 S :    0.355153
   6 C :   -0.179533
   7 C :   -0.039472
   8 C :   -0.037603
   9 C :   -0.148139
  10 S :    0.377445
  11 C :   -0.062185
  12 C :   -0.058718
  13 C :   -0.151597
  14 C :   -0.039994
  15 C :   -0.041854
  16 C :   -0.178178
  17 S :    0.389747
  18 C :   -0.182843
  19 C :   -0.041384
  20 C :   -0.040925
  21 C :   -0.151586
  22 S :    0.401299
  23 C :   -0.077136
  24 C :   -0.170652
  25 S :    0.410583
  26 C :   -0.142768
  27 C :   -0.118408
  28 C :   -0.023486
  29 C :    0.100044
  30 O :   -0.148669
  31 C :   -0.089702
  32 C :   -0.151071
  33 C :   -0.047418
  34 C :   -0.036944
  35 C :   -0.190567
  36 S :    0.390648
  37 C :   -0.169760
  38 C :   -0.045224
  39 C :   -0.035412
  40 C :   -0.155731
  41 S :    0.392050
  42 C :   -0.048997
  43 C :   -0.066526
  44 C :   -0.143601
  45 C :   -0.039783
  46 C :   -0.034603
  47 C :   -0.181729
  48 S :    0.382086
  49 C :   -0.173983
  50 C :   -0.028380
  51 C :   -0.031401
  52 C :   -0.140571
  53 S :    0.360789
  54 C :   -0.071112
  55 H :    0.027800
  56 H :    0.025204
  57 H :    0.032151
  58 H :    0.032071
  59 H :    0.030048
  60 H :    0.033936
  61 H :    0.028959
  62 H :    0.027993
  63 H :    0.032416
  64 H :    0.030088
  65 H :    0.030019
  66 H :    0.031324
  67 H :    0.032909
  68 H :    0.026641
  69 H :   -0.008448
  70 H :    0.035456
  71 H :    0.032054
  72 H :    0.030877
  73 H :    0.030980
  74 H :    0.033447
  75 H :    0.029587
  76 H :    0.028334
  77 H :    0.034192
  78 H :    0.030887
  79 H :    0.032953
  80 H :    0.033630
  81 H :    0.029434
  82 H :    0.026987

  Mayer bond orders larger than 0.100000
B(  0-C ,  1-C ) :   1.8442 B(  0-C , 55-H ) :   0.9510 B(  0-C , 56-H ) :   0.9417
B(  1-C ,  2-C ) :   1.0939 B(  1-C ,  5-S ) :   1.0105 B(  2-C ,  3-C ) :   1.6281
B(  2-C , 57-H ) :   0.9937 B(  3-C ,  4-C ) :   1.1853 B(  3-C , 58-H ) :   0.9920
B(  4-C ,  5-S ) :   1.0517 B(  4-C ,  6-C ) :   1.4815 B(  6-C ,  7-C ) :   1.2267
B(  6-C , 10-S ) :   1.0495 B(  7-C ,  8-C ) :   1.5238 B(  7-C , 59-H ) :   0.9940
B(  8-C ,  9-C ) :   1.2127 B(  8-C , 60-H ) :   1.0001 B(  9-C , 10-S ) :   1.0515
B(  9-C , 11-C ) :   1.4591 B( 11-C , 12-C ) :   1.2804 B( 11-C , 61-H ) :   0.9716
B( 12-C , 13-C ) :   1.4396 B( 12-C , 62-H ) :   0.9725 B( 13-C , 14-C ) :   1.2365
B( 13-C , 17-S ) :   1.0570 B( 14-C , 15-C ) :   1.4818 B( 14-C , 63-H ) :   1.0011
B( 15-C , 16-C ) :   1.2770 B( 15-C , 64-H ) :   0.9955 B( 16-C , 17-S ) :   1.0681
B( 16-C , 18-C ) :   1.3795 B( 18-C , 19-C ) :   1.2658 B( 18-C , 22-S ) :   1.0644
B( 19-C , 20-C ) :   1.5022 B( 19-C , 65-H ) :   0.9938 B( 20-C , 21-C ) :   1.2142
B( 20-C , 66-H ) :   0.9994 B( 21-C , 22-S ) :   1.0552 B( 21-C , 23-C ) :   1.4941
B( 23-C , 24-C ) :   1.2510 B( 23-C , 67-H ) :   0.9528 B( 24-C , 25-S ) :   1.0602
B( 24-C , 28-C ) :   1.3621 B( 25-S , 26-C ) :   1.1042 B( 26-C , 27-C ) :   1.2564
B( 26-C , 31-C ) :   1.3262 B( 27-C , 28-C ) :   1.3577 B( 27-C , 29-C ) :   1.0059
B( 28-C , 68-H ) :   0.9821 B( 29-C , 30-O ) :   2.1637 B( 29-C , 69-H ) :   0.9593
B( 31-C , 32-C ) :   1.4219 B( 31-C , 70-H ) :   0.9608 B( 32-C , 33-C ) :   1.2367
B( 32-C , 36-S ) :   1.0656 B( 33-C , 34-C ) :   1.4822 B( 33-C , 71-H ) :   1.0003
B( 34-C , 35-C ) :   1.2837 B( 34-C , 72-H ) :   0.9948 B( 35-C , 36-S ) :   1.0602
B( 35-C , 37-C ) :   1.3564 B( 37-C , 38-C ) :   1.2935 B( 37-C , 41-S ) :   1.0777
B( 38-C , 39-C ) :   1.4634 B( 38-C , 73-H ) :   0.9967 B( 39-C , 40-C ) :   1.2518
B( 39-C , 74-H ) :   1.0010 B( 40-C , 41-S ) :   1.0551 B( 40-C , 42-C ) :   1.4231
B( 42-C , 43-C ) :   1.2959 B( 42-C , 75-H ) :   0.9745 B( 43-C , 44-C ) :   1.4430
B( 43-C , 76-H ) :   0.9708 B( 44-C , 45-C ) :   1.2187 B( 44-C , 48-S ) :   1.0578
B( 45-C , 46-C ) :   1.5168 B( 45-C , 77-H ) :   1.0011 B( 46-C , 47-C ) :   1.2314
B( 46-C , 78-H ) :   0.9940 B( 47-C , 48-S ) :   1.0497 B( 47-C , 49-C ) :   1.4753
B( 49-C , 50-C ) :   1.1830 B( 49-C , 53-S ) :   1.0584 B( 50-C , 51-C ) :   1.6283
B( 50-C , 79-H ) :   0.9934 B( 51-C , 52-C ) :   1.0945 B( 51-C , 80-H ) :   0.9931
B( 52-C , 53-S ) :   1.0101 B( 52-C , 54-C ) :   1.8437 B( 54-C , 81-H ) :   0.9509
B( 54-C , 82-H ) :   0.9422

-----------------------------------------------------------------------------
         ABSORPTION SPECTRUM VIA TRANSITION ELECTRIC DIPOLE MOMENTS
-----------------------------------------------------------------------------
State   Energy  Wavelength   fosc         T2         TX        TY        TZ
        (cm-1)    (nm)                  (au**2)     (au)      (au)      (au)
-----------------------------------------------------------------------------
   0    2789.2   3585.2   0.419929486  49.56437  -6.04090   1.75671   3.16004
   1    7539.3   1326.4   0.057822278   2.52489   0.92754  -0.23537  -1.26853
   2    9688.4   1032.2   1.200719203  40.80035   0.58659  -3.59232   5.24895
   3   13962.1    716.2   0.007467539   0.17608   0.03715  -0.14117  -0.39341
   4   15003.0    666.5   0.172955364   3.79516   0.54679   1.70931   0.75792
   5   17016.5    587.7   0.065193383   1.26127  -0.14178   1.10120  -0.16889
   6   17942.2    557.3   0.599077528  10.99216  -0.12031  -3.21026  -0.81969
   7   21059.9    474.8   0.096832344   1.51370  -0.22636   0.06043  -1.20781
   8   21447.0    466.3   0.021177664   0.32508   0.25401   0.39587   0.32225
   9   22395.6    446.5   0.088233549   1.29702   0.15269  -0.13660  -1.12029
  10   22803.0    438.5   0.022977336   0.33173  -0.18545   0.52858  -0.13394
  11   24754.5    404.0   0.014961421   0.19897   0.21104  -0.08930   0.38270
  12   25598.8    390.6   0.023389730   0.30080   0.30125  -0.42823  -0.16331
  13   26314.8    380.0   0.027566454   0.34487  -0.27204   0.52043   0.00402
  14   27167.2    368.1   0.233953495   2.83505  -1.07145  -1.29232   0.13019
  15   28539.3    350.4   0.044063204   0.50829  -0.30595  -0.63997   0.07154
  16   28836.0    346.8   0.002479022   0.02830  -0.00357   0.15170   0.07265
  17   29252.5    341.9   0.025125707   0.28277  -0.12663   0.51465   0.04318
  18   29549.6    338.4   0.005082567   0.05662   0.04222   0.23309   0.02265
  19   29733.0    336.3   0.100660454   1.11454  -0.70726  -0.78331   0.02757
  20   29918.9    334.2   0.025755399   0.28340  -0.07847  -0.47853   0.21965
  21   30131.3    331.9   0.144474286   1.57851   1.18336   0.34518  -0.24296
  22   30443.9    328.5   0.049897916   0.53958  -0.66617  -0.30556  -0.04929
  23   30591.5    326.9   0.012686041   0.13652   0.23789   0.28271   0.00240
  24   30795.2    324.7   0.007542689   0.08063   0.18042   0.15976  -0.15020
  25   31637.5    316.1   0.049707901   0.51725   0.00177  -0.71682   0.05844
  26   31792.8    314.5   0.051864773   0.53706   0.14464   0.70969   0.11169
  27   31889.8    313.6   0.025126147   0.25939   0.05071   0.50514   0.04057
  28   32053.6    312.0   0.049918153   0.51269  -0.31908  -0.63733  -0.06852
  29   32308.9    309.5   0.009732216   0.09917  -0.12537  -0.28848  -0.01516
  30   32852.7    304.4   0.046789555   0.46887  -0.53090   0.15849   0.40237
  31   32989.1    303.1   0.063729017   0.63598  -0.68689  -0.38817   0.11612
  32   33237.2    300.9   0.035284556   0.34949   0.05747   0.58715  -0.03806
  33   33666.3    297.0   0.011564487   0.11309  -0.24063   0.22058   0.08078
  34   33916.4    294.8   0.052081023   0.50553  -0.22126   0.62573   0.25502
  35   34010.3    294.0   0.069048722   0.66838   0.36974   0.72320   0.09301
  36   34216.5    292.3   0.001707462   0.01643  -0.07959  -0.04591  -0.08936
  37   34363.8    291.0   0.011099946   0.10634  -0.25806   0.17978   0.08617
  38   35007.0    285.7   0.003561514   0.03349   0.09932  -0.14733   0.04383
  39   35182.7    284.2   0.027982616   0.26184   0.14574  -0.48113   0.09546
  40   35343.8    282.9   0.061755157   0.57522   0.71919   0.22586   0.08351
  41   35738.7    279.8   0.008151995   0.07509   0.16256   0.22006  -0.01543
  42   36006.7    277.7   0.079573812   0.72755   0.03193  -0.58349   0.62134
  43   36505.4    273.9   0.036649809   0.33051  -0.32859  -0.24464   0.40335
  44   36798.2    271.8   0.020886007   0.18685   0.26915   0.29443  -0.16651
  45   37183.6    268.9   0.014862165   0.13158  -0.33355   0.08485   0.11458
  46   37580.3    266.1   0.004445090   0.03894   0.17308  -0.08355   0.04475
  47   38144.6    262.2   0.057825406   0.49907   0.69529  -0.11053  -0.05853
  48   38242.4    261.5   0.086796328   0.74719   0.76483   0.00427  -0.40276
  49   38855.5    257.4   0.016341934   0.13846   0.35007   0.06359  -0.10892
  50   39079.4    255.9   0.019749022   0.16637  -0.00579   0.40722   0.02248
  51   39268.2    254.7   0.024747034   0.20747  -0.28132   0.31160   0.17674
  52   39726.8    251.7   0.010588528   0.08775  -0.08204  -0.06576  -0.27693
  53   40096.8    249.4   0.030122474   0.24732  -0.16868   0.35930   0.29962

FINAL SINGLE POINT ENERGY     -5386.976285925656

DIPOLE MOMENT
-------------
                                X             Y             Z
Electronic contribution:     -2.33896       9.09702     -16.88949
Nuclear contribution   :      4.47469     -10.81438      17.26563
                        -----------------------------------------
Total Dipole Moment    :      2.13573      -1.71735       0.37614
                        -----------------------------------------
Magnitude (a.u.)       :      2.76625
Magnitude (Debye)      :      7.03125

Rotational constants in cm-1:     0.001041     0.000282     0.000242
Rotational constants in MHz :    31.220965     8.440779     7.263852

                             ****ORCA TERMINATED NORMALLY****
TOTAL RUN TIME: 0 days 0 hours 6 minutes 50 seconds 963 msec
