                         Program Version 4.2.0 -  RELEASE  -
|  1> # ORCA input file
|  2> # SCF done       -188.482923759709          0.000444586048
|  3> ! CAM-B3LYP def2-SVP def2/J RIJCOSX Grid4 TightSCF
|  4> %maxcore 5000
|  5> %tddft
|  6>     Mode sTDDFT
|  7>     Ethresh 5.0
|  8>     maxcore 5000
|  9> end
| 10>
| 11> %pal
| 12>   nprocs 6
| 13>   end
| 14> * xyz 0 1
| 15>    C      -12.89879       -11.10547        -3.16306
| 16>    C      -11.80128       -11.48220        -3.83225
| 17>    C      -11.70006       -12.48361        -4.85650
| 18>    C      -10.45572       -12.64598        -5.35433
| 19>    C       -9.47393       -11.79117        -4.77316
| 20>    S      -10.20200       -10.77055        -3.55508
| 21>    C       -8.13582       -11.73061        -5.08210
| 22>    C       -7.43652       -12.48806        -6.05878
| 23>    C       -6.11596       -12.19127        -6.12423
| 24>    C       -5.69266       -11.17329        -5.21876
| 25>    S       -7.04917       -10.60789        -4.29028
| 26>    C       -4.37786       -10.80466        -5.06389
| 27>    C       -3.78694        -9.86038        -4.21000
| 28>    S       -2.09329       -10.11246        -3.82060
| 29>    C       -2.06084        -8.73613        -2.76885
| 30>    C       -3.31430        -8.15279        -2.66270
| 31>    C       -4.27395        -8.72746        -3.54614
| 32>    C       -5.46597        -7.98415        -3.90504
| 33>    O       -6.21659        -8.29830        -4.81382
| 34>    C       -5.63626        -6.68356        -3.14823
| 35>    C       -5.16380        -6.77900        -1.70615
| 36>    C       -3.73192        -7.25377        -1.58324
| 37>    O       -3.06048        -7.01048        -0.60272
| 38>    C       -0.83104        -8.28228        -2.20540
| 39>    C        0.22445        -9.16885        -1.92156
| 40>    C        1.46021        -8.72557        -1.31643
| 41>    N        2.45013        -9.61694        -1.12903
| 42>    C        2.26232       -10.87077        -1.45774
| 43>    C        1.01098       -11.31687        -2.00050
| 44>    N        0.04363       -10.46373        -2.22275
| 45>    C        0.81787       -12.68369        -2.31557
| 46>    N        0.69620       -13.79735        -2.55667
| 47>    C        3.31392       -11.80412        -1.28486
| 48>    N        4.13373       -12.59569        -1.16383
| 49>    C        1.68118        -7.37171        -0.98144
| 50>    C        0.65735        -6.47727        -1.35275
| 51>    C       -0.57188        -6.91991        -1.97219
| 52>    N       -1.36125        -5.89820        -2.30361
| 53>    S       -0.67499        -4.53563        -1.81719
| 54>    N        0.67200        -5.14752        -1.20632
| 55>    C        2.90409        -6.91779        -0.34436
| 56>    C        3.55749        -7.71737         0.60686
| 57>    C        4.73029        -7.27913         1.17125
| 58>    C        5.25077        -6.01457         0.83759
| 59>    C        4.60771        -5.21351        -0.09689
| 60>    C        3.44764        -5.67041        -0.68291
| 61>    C        6.42951        -5.77233         1.63434
| 62>    C        6.64702        -6.88782         2.46219
| 63>    C        5.61589        -7.96281         2.18821
| 64>    C        4.84646        -8.36702         3.45373
| 65>    C        4.19894        -7.17208         4.14442
| 66>    C        6.36641        -9.16517         1.56710
| 67>    C        5.48610       -10.27565         1.01171
| 68>    C        7.70363        -6.91659         3.33743
| 69>    C        8.57344        -5.81712         3.41537
| 70>    C        8.33423        -4.70957         2.58648
| 71>    C        7.27940        -4.67626         1.70006
| 72>    C        9.70742        -5.77275         4.30676
| 73>    C       10.14446        -6.76556         5.10563
| 74>    C       11.28604        -6.68868         5.96690
| 75>    C       12.14462        -5.56530         6.17138
| 76>    C       13.13553        -5.91179         7.08197
| 77>    C       14.21111        -5.17725         7.61222
| 78>    C       15.03684        -5.81300         8.50721
| 79>    C       16.19401        -5.36681         9.21465
| 80>    C       16.66603        -6.40784         9.99936
| 81>    C       15.81057        -7.53023         9.79869
| 82>    C       14.81095        -7.18883         8.89297
| 83>    C       13.73628        -7.92268         8.36574
| 84>    C       12.90848        -7.28700         7.46962
| 85>    C       11.75604        -7.72935         6.76036
| 86>    C       17.80953        -6.42293        10.88138
| 87>    C       18.63061        -5.40018        11.10232
| 88>    H      -13.85037       -11.56494        -3.36494
| 89>    H      -12.86673       -10.33975        -2.40997
| 90>    H      -12.56809       -13.03428        -5.17289
| 91>    H      -10.19737       -13.34951        -6.12550
| 92>    H       -7.92680       -13.21770        -6.67762
| 93>    H       -5.41776       -12.66016        -6.79509
| 94>    H       -3.66980       -11.39711        -5.63286
| 95>    H       -5.04988        -5.92590        -3.67789
| 96>    H       -6.68513        -6.38691        -3.20034
| 97>    H       -5.78183        -7.49987        -1.16069
| 98>    H       -5.25686        -5.81908        -1.19518
| 99>    H        3.10907        -8.64893         0.91026
|100>    H        5.01011        -4.24781        -0.36380
|101>    H        2.94883        -5.06703        -1.42376
|102>    H        5.53593        -8.85693         4.14465
|103>    H        4.07248        -9.08718         3.18603
|104>    H        4.95221        -6.44817         4.44796
|105>    H        3.65772        -7.49769         5.03001
|106>    H        3.49849        -6.67663         3.47552
|107>    H        7.02602        -9.57715         2.33442
|108>    H        6.99825        -8.78398         0.76044
|109>    H        4.83456       -10.68922         1.77708
|110>    H        6.11029       -11.08250         0.63487
|111>    H        4.87811        -9.91338         0.18804
|112>    H        7.86058        -7.77573         3.97093
|113>    H        9.00350        -3.86275         2.64735
|114>    H        7.11777        -3.81424         1.06998
|115>    H       10.25162        -4.83728         4.29996
|116>    H        9.62938        -7.71662         5.12194
|117>    H       12.04086        -4.60548         5.69901
|118>    H       14.37403        -4.14942         7.31850
|119>    H       16.61473        -4.38167         9.13708
|120>    H       15.93039        -8.48597        10.27820
|121>    H       13.57352        -8.95061         8.65879
|122>    H       11.32574        -8.71203         6.82993
|123>    H       17.98155        -7.36389        11.38979
|124>    H       18.49817        -4.44591        10.62202
|125>    H       19.46506        -5.48278        11.77682
|126> *
|127>
|128>                          ****END OF INPUT****

CARTESIAN COORDINATES (ANGSTROEM)
---------------------------------
  C    -12.898790  -11.105470   -3.163060
  C    -11.801280  -11.482200   -3.832250
  C    -11.700060  -12.483610   -4.856500
  C    -10.455720  -12.645980   -5.354330
  C     -9.473930  -11.791170   -4.773160
  S    -10.202000  -10.770550   -3.555080
  C     -8.135820  -11.730610   -5.082100
  C     -7.436520  -12.488060   -6.058780
  C     -6.115960  -12.191270   -6.124230
  C     -5.692660  -11.173290   -5.218760
  S     -7.049170  -10.607890   -4.290280
  C     -4.377860  -10.804660   -5.063890
  C     -3.786940   -9.860380   -4.210000
  S     -2.093290  -10.112460   -3.820600
  C     -2.060840   -8.736130   -2.768850
  C     -3.314300   -8.152790   -2.662700
  C     -4.273950   -8.727460   -3.546140
  C     -5.465970   -7.984150   -3.905040
  O     -6.216590   -8.298300   -4.813820
  C     -5.636260   -6.683560   -3.148230
  C     -5.163800   -6.779000   -1.706150
  C     -3.731920   -7.253770   -1.583240
  O     -3.060480   -7.010480   -0.602720
  C     -0.831040   -8.282280   -2.205400
  C      0.224450   -9.168850   -1.921560
  C      1.460210   -8.725570   -1.316430
  N      2.450130   -9.616940   -1.129030
  C      2.262320  -10.870770   -1.457740
  C      1.010980  -11.316870   -2.000500
  N      0.043630  -10.463730   -2.222750
  C      0.817870  -12.683690   -2.315570
  N      0.696200  -13.797350   -2.556670
  C      3.313920  -11.804120   -1.284860
  N      4.133730  -12.595690   -1.163830
  C      1.681180   -7.371710   -0.981440
  C      0.657350   -6.477270   -1.352750
  C     -0.571880   -6.919910   -1.972190
  N     -1.361250   -5.898200   -2.303610
  S     -0.674990   -4.535630   -1.817190
  N      0.672000   -5.147520   -1.206320
  C      2.904090   -6.917790   -0.344360
  C      3.557490   -7.717370    0.606860
  C      4.730290   -7.279130    1.171250
  C      5.250770   -6.014570    0.837590
  C      4.607710   -5.213510   -0.096890
  C      3.447640   -5.670410   -0.682910
  C      6.429510   -5.772330    1.634340
  C      6.647020   -6.887820    2.462190
  C      5.615890   -7.962810    2.188210
  C      4.846460   -8.367020    3.453730
  C      4.198940   -7.172080    4.144420
  C      6.366410   -9.165170    1.567100
  C      5.486100  -10.275650    1.011710
  C      7.703630   -6.916590    3.337430
  C      8.573440   -5.817120    3.415370
  C      8.334230   -4.709570    2.586480
  C      7.279400   -4.676260    1.700060
  C      9.707420   -5.772750    4.306760
  C     10.144460   -6.765560    5.105630
  C     11.286040   -6.688680    5.966900
  C     12.144620   -5.565300    6.171380
  C     13.135530   -5.911790    7.081970
  C     14.211110   -5.177250    7.612220
  C     15.036840   -5.813000    8.507210
  C     16.194010   -5.366810    9.214650
  C     16.666030   -6.407840    9.999360
  C     15.810570   -7.530230    9.798690
  C     14.810950   -7.188830    8.892970
  C     13.736280   -7.922680    8.365740
  C     12.908480   -7.287000    7.469620
  C     11.756040   -7.729350    6.760360
  C     17.809530   -6.422930   10.881380
  C     18.630610   -5.400180   11.102320
  H    -13.850370  -11.564940   -3.364940
  H    -12.866730  -10.339750   -2.409970
  H    -12.568090  -13.034280   -5.172890
  H    -10.197370  -13.349510   -6.125500
  H     -7.926800  -13.217700   -6.677620
  H     -5.417760  -12.660160   -6.795090
  H     -3.669800  -11.397110   -5.632860
  H     -5.049880   -5.925900   -3.677890
  H     -6.685130   -6.386910   -3.200340
  H     -5.781830   -7.499870   -1.160690
  H     -5.256860   -5.819080   -1.195180
  H      3.109070   -8.648930    0.910260
  H      5.010110   -4.247810   -0.363800
  H      2.948830   -5.067030   -1.423760
  H      5.535930   -8.856930    4.144650
  H      4.072480   -9.087180    3.186030
  H      4.952210   -6.448170    4.447960
  H      3.657720   -7.497690    5.030010
  H      3.498490   -6.676630    3.475520
  H      7.026020   -9.577150    2.334420
  H      6.998250   -8.783980    0.760440
  H      4.834560  -10.689220    1.777080
  H      6.110290  -11.082500    0.634870
  H      4.878110   -9.913380    0.188040
  H      7.860580   -7.775730    3.970930
  H      9.003500   -3.862750    2.647350
  H      7.117770   -3.814240    1.069980
  H     10.251620   -4.837280    4.299960
  H      9.629380   -7.716620    5.121940
  H     12.040860   -4.605480    5.699010
  H     14.374030   -4.149420    7.318500
  H     16.614730   -4.381670    9.137080
  H     15.930390   -8.485970   10.278200
  H     13.573520   -8.950610    8.658790
  H     11.325740   -8.712030    6.829930
  H     17.981550   -7.363890   11.389790
  H     18.498170   -4.445910   10.622020
  H     19.465060   -5.482780   11.776820

 Total Charge           Charge          ....    0
 Multiplicity           Mult            ....    1
 Number of Electrons    NEL             ....  526
 Basis Dimension        Dim             .... 1228

ORBITAL ENERGIES
----------------

  NO   OCC          E(Eh)            E(eV)
   0   2.0000     -89.039976     -2422.9009
   1   2.0000     -88.958658     -2420.6881
   2   2.0000     -88.943589     -2420.2781
   3   2.0000     -88.942703     -2420.2540
   4   2.0000     -19.194830      -522.3179
   5   2.0000     -19.190578      -522.2022
   6   2.0000     -14.459306      -393.4577
   7   2.0000     -14.458470      -393.4350
   8   2.0000     -14.445742      -393.0886
   9   2.0000     -14.444222      -393.0473
  10   2.0000     -14.426691      -392.5702
  11   2.0000     -14.425047      -392.5255
  12   2.0000     -10.378242      -282.4063
  13   2.0000     -10.375676      -282.3365
  14   2.0000     -10.351329      -281.6740
  15   2.0000     -10.343365      -281.4573
  16   2.0000     -10.342461      -281.4327
  17   2.0000     -10.341925      -281.4181
  18   2.0000     -10.335614      -281.2464
  19   2.0000     -10.334746      -281.2227
  20   2.0000     -10.320046      -280.8227
  21   2.0000     -10.318644      -280.7846
  22   2.0000     -10.317969      -280.7662
  23   2.0000     -10.313332      -280.6400
  24   2.0000     -10.313114      -280.6341
  25   2.0000     -10.311933      -280.6020
  26   2.0000     -10.311697      -280.5955
  27   2.0000     -10.311613      -280.5933
  28   2.0000     -10.310222      -280.5554
  29   2.0000     -10.305486      -280.4265
  30   2.0000     -10.296777      -280.1896
  31   2.0000     -10.294685      -280.1326
  32   2.0000     -10.293991      -280.1137
  33   2.0000     -10.291511      -280.0463
  34   2.0000     -10.286407      -279.9074
  35   2.0000     -10.282386      -279.7979
  36   2.0000     -10.280762      -279.7538
  37   2.0000     -10.280562      -279.7483
  38   2.0000     -10.279681      -279.7243
  39   2.0000     -10.278594      -279.6948
  40   2.0000     -10.278304      -279.6869
  41   2.0000     -10.277589      -279.6674
  42   2.0000     -10.275435      -279.6088
  43   2.0000     -10.270888      -279.4851
  44   2.0000     -10.270626      -279.4779
  45   2.0000     -10.269206      -279.4393
  46   2.0000     -10.269048      -279.4350
  47   2.0000     -10.268914      -279.4314
  48   2.0000     -10.268415      -279.4178
  49   2.0000     -10.267753      -279.3998
  50   2.0000     -10.266732      -279.3720
  51   2.0000     -10.266560      -279.3673
  52   2.0000     -10.265262      -279.3320
  53   2.0000     -10.264650      -279.3153
  54   2.0000     -10.264493      -279.3110
  55   2.0000     -10.263845      -279.2934
  56   2.0000     -10.262370      -279.2533
  57   2.0000     -10.261945      -279.2417
  58   2.0000     -10.261666      -279.2341
  59   2.0000     -10.261222      -279.2221
  60   2.0000     -10.260901      -279.2133
  61   2.0000     -10.260626      -279.2058
  62   2.0000     -10.260537      -279.2034
  63   2.0000     -10.259772      -279.1826
  64   2.0000     -10.258852      -279.1575
  65   2.0000     -10.258711      -279.1537
  66   2.0000     -10.256896      -279.1043
  67   2.0000     -10.256666      -279.0981
  68   2.0000     -10.256035      -279.0809
  69   2.0000     -10.253105      -279.0012
  70   2.0000     -10.252316      -278.9797
  71   2.0000     -10.240314      -278.6531
  72   2.0000     -10.236321      -278.5445
  73   2.0000      -8.131080      -221.2579
  74   2.0000      -8.053503      -219.1470
  75   2.0000      -8.040346      -218.7889
  76   2.0000      -8.038136      -218.7288
  77   2.0000      -6.102001      -166.0439
  78   2.0000      -6.094285      -165.8339
  79   2.0000      -6.094195      -165.8315
  80   2.0000      -6.022788      -163.8884
  81   2.0000      -6.018508      -163.7719
  82   2.0000      -6.015669      -163.6947
  83   2.0000      -6.010154      -163.5446
  84   2.0000      -6.007791      -163.4803
  85   2.0000      -6.006195      -163.4369
  86   2.0000      -6.003534      -163.3645
  87   2.0000      -6.000908      -163.2930
  88   2.0000      -5.999366      -163.2511
  89   2.0000      -1.135721       -30.9045
  90   2.0000      -1.116865       -30.3915
  91   2.0000      -1.112754       -30.2796
  92   2.0000      -1.107251       -30.1298
  93   2.0000      -1.044593       -28.4248
  94   2.0000      -1.010755       -27.5040
  95   2.0000      -1.000638       -27.2288
  96   2.0000      -0.995408       -27.0864
  97   2.0000      -0.993038       -27.0220
  98   2.0000      -0.987566       -26.8730
  99   2.0000      -0.981038       -26.6954
 100   2.0000      -0.980133       -26.6708
 101   2.0000      -0.972020       -26.4500
 102   2.0000      -0.967538       -26.3281
 103   2.0000      -0.955169       -25.9915
 104   2.0000      -0.937758       -25.5177
 105   2.0000      -0.914175       -24.8760
 106   2.0000      -0.905259       -24.6334
 107   2.0000      -0.902771       -24.5657
 108   2.0000      -0.896640       -24.3988
 109   2.0000      -0.894088       -24.3294
 110   2.0000      -0.883974       -24.0542
 111   2.0000      -0.874682       -23.8013
 112   2.0000      -0.862273       -23.4636
 113   2.0000      -0.857648       -23.3378
 114   2.0000      -0.851416       -23.1682
 115   2.0000      -0.847472       -23.0609
 116   2.0000      -0.838629       -22.8203
 117   2.0000      -0.833832       -22.6897
 118   2.0000      -0.831365       -22.6226
 119   2.0000      -0.827340       -22.5131
 120   2.0000      -0.824829       -22.4447
 121   2.0000      -0.823364       -22.4049
 122   2.0000      -0.822061       -22.3694
 123   2.0000      -0.817073       -22.2337
 124   2.0000      -0.804530       -21.8924
 125   2.0000      -0.791906       -21.5489
 126   2.0000      -0.789575       -21.4854
 127   2.0000      -0.779458       -21.2101
 128   2.0000      -0.765987       -20.8436
 129   2.0000      -0.755959       -20.5707
 130   2.0000      -0.754965       -20.5436
 131   2.0000      -0.742095       -20.1934
 132   2.0000      -0.741030       -20.1645
 133   2.0000      -0.727731       -19.8026
 134   2.0000      -0.724410       -19.7122
 135   2.0000      -0.711413       -19.3585
 136   2.0000      -0.706304       -19.2195
 137   2.0000      -0.700022       -19.0486
 138   2.0000      -0.693267       -18.8648
 139   2.0000      -0.686029       -18.6678
 140   2.0000      -0.683600       -18.6017
 141   2.0000      -0.680524       -18.5180
 142   2.0000      -0.675620       -18.3845
 143   2.0000      -0.668849       -18.2003
 144   2.0000      -0.663936       -18.0666
 145   2.0000      -0.661740       -18.0069
 146   2.0000      -0.659712       -17.9517
 147   2.0000      -0.646425       -17.5901
 148   2.0000      -0.644810       -17.5462
 149   2.0000      -0.639129       -17.3916
 150   2.0000      -0.631636       -17.1877
 151   2.0000      -0.628267       -17.0960
 152   2.0000      -0.620881       -16.8950
 153   2.0000      -0.617636       -16.8067
 154   2.0000      -0.615514       -16.7490
 155   2.0000      -0.610564       -16.6143
 156   2.0000      -0.606879       -16.5140
 157   2.0000      -0.603501       -16.4221
 158   2.0000      -0.599368       -16.3096
 159   2.0000      -0.593143       -16.1402
 160   2.0000      -0.585594       -15.9348
 161   2.0000      -0.577338       -15.7102
 162   2.0000      -0.574562       -15.6346
 163   2.0000      -0.571352       -15.5473
 164   2.0000      -0.570217       -15.5164
 165   2.0000      -0.566904       -15.4262
 166   2.0000      -0.559904       -15.2358
 167   2.0000      -0.558108       -15.1869
 168   2.0000      -0.553450       -15.0601
 169   2.0000      -0.548278       -14.9194
 170   2.0000      -0.546231       -14.8637
 171   2.0000      -0.542931       -14.7739
 172   2.0000      -0.532550       -14.4914
 173   2.0000      -0.532034       -14.4774
 174   2.0000      -0.530993       -14.4490
 175   2.0000      -0.530236       -14.4285
 176   2.0000      -0.525949       -14.3118
 177   2.0000      -0.522026       -14.2050
 178   2.0000      -0.520980       -14.1766
 179   2.0000      -0.512423       -13.9437
 180   2.0000      -0.511958       -13.9311
 181   2.0000      -0.510785       -13.8992
 182   2.0000      -0.509433       -13.8624
 183   2.0000      -0.507981       -13.8229
 184   2.0000      -0.506475       -13.7819
 185   2.0000      -0.500059       -13.6073
 186   2.0000      -0.498489       -13.5646
 187   2.0000      -0.495682       -13.4882
 188   2.0000      -0.493368       -13.4252
 189   2.0000      -0.491521       -13.3750
 190   2.0000      -0.489681       -13.3249
 191   2.0000      -0.489210       -13.3121
 192   2.0000      -0.488536       -13.2937
 193   2.0000      -0.487778       -13.2731
 194   2.0000      -0.483379       -13.1534
 195   2.0000      -0.480651       -13.0792
 196   2.0000      -0.480170       -13.0661
 197   2.0000      -0.478134       -13.0107
 198   2.0000      -0.476156       -12.9569
 199   2.0000      -0.474735       -12.9182
 200   2.0000      -0.469455       -12.7745
 201   2.0000      -0.464938       -12.6516
 202   2.0000      -0.464441       -12.6381
 203   2.0000      -0.462110       -12.5747
 204   2.0000      -0.460722       -12.5369
 205   2.0000      -0.457527       -12.4500
 206   2.0000      -0.453114       -12.3299
 207   2.0000      -0.452666       -12.3177
 208   2.0000      -0.451173       -12.2770
 209   2.0000      -0.450887       -12.2693
 210   2.0000      -0.450182       -12.2501
 211   2.0000      -0.449827       -12.2404
 212   2.0000      -0.447343       -12.1728
 213   2.0000      -0.445325       -12.1179
 214   2.0000      -0.444275       -12.0893
 215   2.0000      -0.441997       -12.0273
 216   2.0000      -0.439458       -11.9583
 217   2.0000      -0.434883       -11.8338
 218   2.0000      -0.434392       -11.8204
 219   2.0000      -0.430750       -11.7213
 220   2.0000      -0.430493       -11.7143
 221   2.0000      -0.427907       -11.6439
 222   2.0000      -0.424654       -11.5554
 223   2.0000      -0.424047       -11.5389
 224   2.0000      -0.422887       -11.5073
 225   2.0000      -0.421158       -11.4603
 226   2.0000      -0.418578       -11.3901
 227   2.0000      -0.415116       -11.2959
 228   2.0000      -0.414849       -11.2886
 229   2.0000      -0.413410       -11.2495
 230   2.0000      -0.410912       -11.1815
 231   2.0000      -0.409475       -11.1424
 232   2.0000      -0.404540       -11.0081
 233   2.0000      -0.399493       -10.8707
 234   2.0000      -0.398734       -10.8501
 235   2.0000      -0.397974       -10.8294
 236   2.0000      -0.393146       -10.6980
 237   2.0000      -0.388482       -10.5711
 238   2.0000      -0.386601       -10.5199
 239   2.0000      -0.384438       -10.4611
 240   2.0000      -0.377979       -10.2853
 241   2.0000      -0.372429       -10.1343
 242   2.0000      -0.371156       -10.0997
 243   2.0000      -0.366485        -9.9726
 244   2.0000      -0.360063        -9.7978
 245   2.0000      -0.355330        -9.6690
 246   2.0000      -0.350220        -9.5300
 247   2.0000      -0.342600        -9.3226
 248   2.0000      -0.340587        -9.2678
 249   2.0000      -0.339652        -9.2424
 250   2.0000      -0.327132        -8.9017
 251   2.0000      -0.321413        -8.7461
 252   2.0000      -0.316108        -8.6017
 253   2.0000      -0.314102        -8.5471
 254   2.0000      -0.309125        -8.4117
 255   2.0000      -0.306270        -8.3340
 256   2.0000      -0.299712        -8.1556
 257   2.0000      -0.297224        -8.0879
 258   2.0000      -0.275748        -7.5035
 259   2.0000      -0.260832        -7.0976
 260   2.0000      -0.255939        -6.9645
 261   2.0000      -0.225135        -6.1262
 262   2.0000      -0.220456        -5.9989
 263   0.0000      -0.115918        -3.1543
 264   0.0000      -0.091733        -2.4962
 265   0.0000      -0.073513        -2.0004
 266   0.0000      -0.048277        -1.3137
 267   0.0000      -0.037192        -1.0121

MULLIKEN ATOMIC CHARGES
-----------------------
   0 C :   -0.022814
   1 C :   -0.066804
   2 C :    0.059964
   3 C :    0.029607
   4 C :   -0.060347
   5 S :    0.094334
   6 C :   -0.065968
   7 C :    0.039884
   8 C :    0.023276
   9 C :    0.004616
  10 S :    0.148333
  11 C :    0.000086
  12 C :   -0.100862
  13 S :    0.184542
  14 C :   -0.225766
  15 C :    0.058413
  16 C :    0.005520
  17 C :   -0.023332
  18 O :   -0.196101
  19 C :    0.074065
  20 C :    0.058294
  21 C :    0.007085
  22 O :   -0.188726
  23 C :    0.148156
  24 C :   -0.057294
  25 C :   -0.071206
  26 N :    0.061978
  27 C :   -0.145474
  28 C :   -0.126442
  29 N :    0.035253
  30 C :   -0.215192
  31 N :    0.240690
  32 C :   -0.209131
  33 N :    0.231393
  34 C :    0.109224
  35 C :    0.002037
  36 C :    0.003840
  37 N :   -0.268475
  38 S :    0.549843
  39 N :   -0.282181
  40 C :   -0.002861
  41 C :   -0.043139
  42 C :   -0.001958
  43 C :    0.115793
  44 C :   -0.064657
  45 C :    0.027010
  46 C :    0.090621
  47 C :    0.023619
  48 C :   -0.128752
  49 C :    0.052142
  50 C :    0.026408
  51 C :    0.087173
  52 C :    0.014639
  53 C :   -0.091314
  54 C :    0.135990
  55 C :   -0.027689
  56 C :   -0.041393
  57 C :   -0.026524
  58 C :    0.037966
  59 C :    0.075130
  60 C :   -0.025451
  61 C :    0.043214
  62 C :    0.003922
  63 C :    0.042636
  64 C :   -0.023555
  65 C :    0.057708
  66 C :   -0.024797
  67 C :    0.048224
  68 C :    0.000610
  69 C :    0.057325
  70 C :   -0.033683
  71 C :    0.009100
  72 C :   -0.017841
  73 H :    0.023975
  74 H :    0.026929
  75 H :   -0.007358
  76 H :   -0.007158
  77 H :   -0.014448
  78 H :   -0.010461
  79 H :   -0.013673
  80 H :    0.037770
  81 H :    0.016738
  82 H :    0.041039
  83 H :    0.016307
  84 H :   -0.032428
  85 H :   -0.037517
  86 H :   -0.020352
  87 H :   -0.003031
  88 H :    0.005282
  89 H :    0.021207
  90 H :    0.007143
  91 H :    0.019470
  92 H :   -0.008192
  93 H :    0.002648
  94 H :   -0.002323
  95 H :    0.018711
  96 H :    0.031642
  97 H :   -0.045519
  98 H :   -0.032540
  99 H :   -0.038592
 100 H :   -0.037426
 101 H :   -0.030891
 102 H :   -0.024859
 103 H :   -0.026722
 104 H :   -0.031878
 105 H :   -0.025571
 106 H :   -0.027950
 107 H :   -0.031365
 108 H :   -0.023355
 109 H :    0.006767
 110 H :    0.018055
Sum of atomic charges:    0.0000000

LOEWDIN ATOMIC CHARGES
----------------------
   0 C :   -0.063981
   1 C :   -0.140436
   2 C :   -0.021772
   3 C :   -0.026257
   4 C :   -0.160132
   5 S :    0.363651
   6 C :   -0.188945
   7 C :   -0.028151
   8 C :   -0.034114
   9 C :   -0.120692
  10 S :    0.450024
  11 C :   -0.100366
  12 C :   -0.123912
  13 S :    0.487212
  14 C :   -0.140821
  15 C :   -0.077989
  16 C :   -0.117586
  17 C :    0.054785
  18 O :   -0.172891
  19 C :   -0.051027
  20 C :   -0.051880
  21 C :    0.080743
  22 O :   -0.158949
  23 C :   -0.037317
  24 C :   -0.008020
  25 C :   -0.012394
  26 N :    0.012632
  27 C :   -0.036341
  28 C :   -0.027028
  29 N :   -0.012514
  30 C :   -0.035863
  31 N :   -0.006211
  32 C :   -0.034356
  33 N :   -0.009206
  34 C :    0.005385
  35 C :   -0.038427
  36 C :   -0.030371
  37 N :   -0.271178
  38 S :    0.687500
  39 N :   -0.277850
  40 C :   -0.029498
  41 C :    0.002666
  42 C :   -0.003473
  43 C :    0.001313
  44 C :   -0.027725
  45 C :    0.003317
  46 C :   -0.026607
  47 C :    0.011886
  48 C :   -0.034447
  49 C :   -0.015335
  50 C :   -0.056992
  51 C :   -0.008924
  52 C :   -0.061139
  53 C :   -0.020552
  54 C :   -0.015669
  55 C :   -0.024510
  56 C :   -0.016582
  57 C :   -0.033816
  58 C :   -0.014252
  59 C :   -0.063656
  60 C :    0.044402
  61 C :   -0.067354
  62 C :    0.076827
  63 C :   -0.061843
  64 C :    0.022406
  65 C :   -0.066712
  66 C :    0.041133
  67 C :   -0.073635
  68 C :    0.073951
  69 C :   -0.067289
  70 C :    0.014417
  71 C :   -0.024556
  72 C :   -0.050560
  73 H :    0.030641
  74 H :    0.028452
  75 H :    0.035323
  76 H :    0.034052
  77 H :    0.031024
  78 H :    0.033549
  79 H :    0.032237
  80 H :    0.045075
  81 H :    0.038765
  82 H :    0.048236
  83 H :    0.039331
  84 H :    0.023525
  85 H :    0.026370
  86 H :    0.025510
  87 H :    0.019880
  88 H :    0.019614
  89 H :    0.025273
  90 H :    0.023117
  91 H :    0.024873
  92 H :    0.018402
  93 H :    0.026036
  94 H :    0.018165
  95 H :    0.030152
  96 H :    0.023322
  97 H :    0.021664
  98 H :    0.024083
  99 H :    0.025832
 100 H :    0.021766
 101 H :    0.025527
 102 H :    0.023406
 103 H :    0.034043
 104 H :    0.022141
 105 H :    0.024196
 106 H :    0.033855
 107 H :    0.022443
 108 H :    0.026520
 109 H :    0.018258
 110 H :    0.023195

  Mayer bond orders larger than 0.100000
B(  0-C ,  1-C ) :   1.8664 B(  0-C , 73-H ) :   0.9508 B(  0-C , 74-H ) :   0.9424
B(  1-C ,  2-C ) :   1.0763 B(  1-C ,  5-S ) :   1.0058 B(  2-C ,  3-C ) :   1.6655
B(  2-C , 75-H ) :   0.9932 B(  3-C ,  4-C ) :   1.1458 B(  3-C , 76-H ) :   0.9930
B(  4-C ,  5-S ) :   1.0594 B(  4-C ,  6-C ) :   1.5517 B(  6-C ,  7-C ) :   1.1555
B(  6-C , 10-S ) :   1.0562 B(  7-C ,  8-C ) :   1.6145 B(  7-C , 77-H ) :   0.9920
B(  8-C ,  9-C ) :   1.1318 B(  8-C , 78-H ) :   0.9985 B(  9-C , 10-S ) :   1.0948
B(  9-C , 11-C ) :   1.5680 B( 11-C , 12-C ) :   1.2065 B( 11-C , 79-H ) :   0.9410
B( 12-C , 13-S ) :   1.1134 B( 12-C , 16-C ) :   1.3922 B( 13-S , 14-C ) :   1.1492
B( 14-C , 15-C ) :   1.4977 B( 14-C , 23-C ) :   1.1102 B( 15-C , 16-C ) :   1.2041
B( 15-C , 21-C ) :   0.9545 B( 16-C , 17-C ) :   0.9982 B( 17-C , 18-O ) :   2.1002
B( 17-C , 19-C ) :   1.0176 B( 19-C , 20-C ) :   1.0788 B( 19-C , 80-H ) :   0.9119
B( 19-C , 81-H ) :   0.9130 B( 20-C , 21-C ) :   1.0139 B( 20-C , 82-H ) :   0.9094
B( 20-C , 83-H ) :   0.9135 B( 21-C , 22-O ) :   2.1655 B( 23-C , 24-C ) :   1.2853
B( 23-C , 34-C ) :   0.1311 B( 23-C , 36-C ) :   1.2389 B( 24-C , 25-C ) :   1.0948
B( 24-C , 29-N ) :   1.4189 B( 25-C , 26-N ) :   1.4323 B( 25-C , 34-C ) :   1.2953
B( 26-N , 27-C ) :   1.7528 B( 27-C , 28-C ) :   1.1968 B( 27-C , 32-C ) :   1.1613
B( 28-C , 29-N ) :   1.7299 B( 28-C , 30-C ) :   1.1547 B( 30-C , 31-N ) :   3.0455
B( 32-C , 33-N ) :   3.0044 B( 34-C , 35-C ) :   1.2339 B( 34-C , 40-C ) :   1.0272
B( 35-C , 36-C ) :   1.0979 B( 35-C , 39-N ) :   1.4870 B( 36-C , 37-N ) :   1.5022
B( 37-N , 38-S ) :   1.2943 B( 37-N , 39-N ) :   0.1550 B( 38-S , 39-N ) :   1.2991
B( 40-C , 41-C ) :   1.2983 B( 40-C , 45-C ) :   1.3514 B( 41-C , 42-C ) :   1.4169
B( 41-C , 84-H ) :   0.9914 B( 42-C , 43-C ) :   1.3705 B( 42-C , 48-C ) :   0.9159
B( 43-C , 44-C ) :   1.3292 B( 43-C , 46-C ) :   0.9994 B( 44-C , 45-C ) :   1.3918
B( 44-C , 85-H ) :   0.9922 B( 45-C , 86-H ) :   0.9767 B( 46-C , 47-C ) :   1.3624
B( 46-C , 56-C ) :   1.3380 B( 47-C , 48-C ) :   0.9250 B( 47-C , 53-C ) :   1.4098
B( 48-C , 49-C ) :   1.0301 B( 48-C , 51-C ) :   1.0124 B( 49-C , 50-C ) :   1.1049
B( 49-C , 87-H ) :   0.9392 B( 49-C , 88-H ) :   0.9383 B( 50-C , 89-H ) :   0.9630
B( 50-C , 90-H ) :   0.9643 B( 50-C , 91-H ) :   0.9647 B( 51-C , 52-C ) :   1.1121
B( 51-C , 92-H ) :   0.9342 B( 51-C , 93-H ) :   0.9379 B( 52-C , 94-H ) :   0.9616
B( 52-C , 95-H ) :   0.9566 B( 52-C , 96-H ) :   0.9577 B( 53-C , 54-C ) :   1.3029
B( 53-C , 97-H ) :   0.9972 B( 54-C , 55-C ) :   1.3322 B( 54-C , 57-C ) :   1.0638
B( 55-C , 56-C ) :   1.3808 B( 55-C , 98-H ) :   0.9921 B( 56-C , 99-H ) :   0.9892
B( 57-C , 58-C ) :   1.6885 B( 57-C ,100-H ) :   0.9821 B( 58-C , 59-C ) :   1.0875
B( 58-C ,101-H ) :   0.9710 B( 59-C , 60-C ) :   1.1728 B( 59-C , 70-C ) :   1.4515
B( 60-C , 61-C ) :   1.3989 B( 60-C ,102-H ) :   1.0073 B( 61-C , 62-C ) :   1.1457
B( 61-C , 69-C ) :   1.1442 B( 62-C , 63-C ) :   1.4280 B( 62-C ,103-H ) :   1.0029
B( 63-C , 64-C ) :   1.1176 B( 63-C , 67-C ) :   1.1425 B( 64-C , 65-C ) :   1.4851
B( 64-C ,104-H ) :   1.0102 B( 65-C , 66-C ) :   1.1770 B( 65-C , 71-C ) :   1.0736
B( 66-C , 67-C ) :   1.3809 B( 66-C ,105-H ) :   1.0118 B( 67-C , 68-C ) :   1.1566
B( 68-C , 69-C ) :   1.4202 B( 68-C ,106-H ) :   1.0043 B( 69-C , 70-C ) :   1.1073
B( 70-C ,107-H ) :   1.0178 B( 71-C , 72-C ) :   1.9494 B( 71-C ,108-H ) :   0.9647
B( 72-C ,109-H ) :   0.9518 B( 72-C ,110-H ) :   0.9488

-----------------------------------------------------------------------------
         ABSORPTION SPECTRUM VIA TRANSITION ELECTRIC DIPOLE MOMENTS
-----------------------------------------------------------------------------
State   Energy  Wavelength   fosc         T2         TX        TY        TZ
        (cm-1)    (nm)                  (au**2)     (au)      (au)      (au)
-----------------------------------------------------------------------------
   0    7626.0   1311.3   0.003099515   0.13381   0.29857  -0.02097   0.21029
   1    9411.7   1062.5   0.605479080  21.17909  -4.18911  -1.05295  -1.58799
   2   13238.6    755.4   0.187709032   4.66786  -1.63123  -0.48304  -1.33177
   3   17455.7    572.9   0.062470849   1.17819  -0.96607  -0.48581  -0.09432
   4   18780.8    532.5   1.061931679  18.61478   4.17003   1.09505   0.16275
   5   21583.6    463.3   0.015654663   0.23878   0.09259  -0.43073   0.21137
   6   21979.5    455.0   0.073320427   1.09820   0.88487   0.43865   0.35040
   7   22565.1    443.2   0.346023078   5.04829   1.72023  -0.07081   1.44364
   8   22677.0    441.0   0.003352891   0.04868  -0.14609   0.16492   0.01159
   9   23303.5    429.1   0.008687131   0.12272   0.12517   0.00589   0.32714
  10   23953.6    417.5   0.023315219   0.32044  -0.19548  -0.53079   0.02212
  11   24036.4    416.0   0.002177818   0.02983   0.02213   0.17092  -0.01123
  12   24398.6    409.9   0.041136972   0.55506   0.48795   0.50956   0.23941
  13   24757.6    403.9   0.000172361   0.00229  -0.00100   0.04391  -0.01904
  14   25354.3    394.4   0.256524797   3.33084   1.32438   0.31753   1.21492
  15   25686.8    389.3   0.149785804   1.91971   1.11161   0.04333   0.82593
  16   25834.7    387.1   0.047078171   0.59992  -0.76558   0.11690   0.01184
  17   26899.2    371.8   0.441263558   5.40051   1.87404   0.12576   1.36846
  18   27257.0    366.9   1.010223614  12.20153   2.60709  -0.06770   2.32380
  19   27647.1    361.7   0.018568207   0.22110   0.46845   0.03493   0.02102
  20   28041.0    356.6   0.279747625   3.28434   1.42479   0.26668   1.08775
  21   28228.9    354.2   0.113565930   1.32443   0.96853  -0.16105   0.60037
  22   28661.2    348.9   0.012200169   0.14014   0.14952  -0.25193  -0.23304
  23   29036.2    344.4   0.028867940   0.32730   0.56642  -0.05627   0.05754
  24   29448.7    339.6   0.003584812   0.04008   0.17798   0.01006   0.09109
  25   29688.7    336.8   0.152048879   1.68604   0.92579  -0.26989   0.86955
  26   30346.7    329.5   0.042755008   0.46382   0.27113  -0.58410  -0.22167
  27   30406.8    328.9   0.228763177   2.47680  -0.79027   1.17857  -0.68062
  28   30695.5    325.8   0.118928105   1.27551  -0.95706   0.48866  -0.34750
  29   31067.2    321.9   0.074310974   0.78746   0.34627  -0.47477   0.66494
  30   31546.0    317.0   0.012948116   0.13513   0.19420   0.21877   0.22260
  31   31726.4    315.2   0.080116494   0.83134  -0.34910   0.25083   0.80408
  32   32633.7    306.4   0.011107448   0.11205  -0.23982   0.13251  -0.19231
  33   32928.9    303.7   0.234371076   2.34316  -1.19056   0.96183  -0.02472
  34   33310.3    300.2   0.097951109   0.96807   0.36304  -0.77607  -0.48372
  35   33503.8    298.5   0.037505132   0.36853   0.25880  -0.53379  -0.12894
  36   33782.6    296.0   0.362770245   3.53520   0.24474   1.79003   0.52066
  37   34328.4    291.3   0.208995992   2.00429  -0.84413   1.10927  -0.24749
  38   34570.4    289.3   0.068847876   0.65563  -0.16959   0.19836  -0.76650
  39   34714.4    288.1   0.009773695   0.09269  -0.05178  -0.29599   0.04899
  40   34844.6    287.0   0.237731273   2.24608   0.28762  -1.45124  -0.23930
  41   35422.7    282.3   0.032676119   0.30369  -0.24082   0.47423  -0.14421
  42   36217.7    276.1   0.050942340   0.46306  -0.14454   0.59738   0.29207
  43   36368.8    275.0   0.001220470   0.01105  -0.07400   0.07294  -0.01587
  44   36463.9    274.2   0.044842759   0.40486  -0.43101   0.46206  -0.07479
  45   36729.4    272.3   0.215284985   1.92964  -1.11897   0.34933  -0.74532
  46   36835.6    271.5   0.055908370   0.49967  -0.14388   0.40479   0.56135
  47   37297.6    268.1   0.023208749   0.20486   0.40743   0.18122   0.07755
  48   37423.1    267.2   0.033952496   0.29868   0.50313   0.18862   0.09983
  49   37481.1    266.8   0.025737474   0.22606  -0.24283   0.39060  -0.12052
  50   37624.2    265.8   0.072466986   0.63409  -0.25179  -0.73922  -0.15570
  51   38001.8    263.1   0.016856146   0.14603  -0.09915  -0.32062   0.18274
  52   38078.5    262.6   0.003930614   0.03398   0.08701  -0.04832   0.15517
  53   38262.5    261.4   0.292226346   2.51433   1.12111  -1.12112   0.02337
  54   38648.1    258.7   0.046472838   0.39587   0.58109   0.23957  -0.02847
  55   38861.0    257.3   0.002613052   0.02214  -0.07724   0.12703   0.00575
  56   39247.3    254.8   0.005777499   0.04846  -0.17781   0.05309  -0.11843
  57   39261.5    254.7   0.047302510   0.39664  -0.11544  -0.52001  -0.33600
  58   39454.1    253.5   0.006790616   0.05666   0.14926   0.15296  -0.10482
  59   39598.5    252.5   0.017993443   0.14959  -0.29083   0.18685   0.17349
  60   39695.6    251.9   0.000870479   0.00722  -0.00557  -0.08168   0.02271
  61   39810.4    251.2   0.004940518   0.04086   0.13920   0.06945   0.12906
  62   39946.4    250.3   0.018868746   0.15550  -0.01772   0.39269   0.03131

FINAL SINGLE POINT ENERGY     -4414.833190822038

DIPOLE MOMENT
-------------
                                X             Y             Z
Electronic contribution:    -80.39203     -12.15571     -66.80377
Nuclear contribution   :     78.90449      13.39592      66.57640
                        -----------------------------------------
Total Dipole Moment    :     -1.48755       1.24022      -0.22738
                        -----------------------------------------
Magnitude (a.u.)       :      1.95003
Magnitude (Debye)      :      4.95659

Rotational constants in cm-1:     0.002893     0.000191     0.000186
Rotational constants in MHz :    86.715244     5.716935     5.590423

                             ****ORCA TERMINATED NORMALLY****
TOTAL RUN TIME: 0 days 0 hours 12 minutes 22 seconds 71 msec
