                         Program Version 4.2.0 -  RELEASE  -
|  1> # ORCA input file
|  2> # SCF done       -174.316124575223          0.000814842555
|  3> ! CAM-B3LYP def2-SVP def2/J RIJCOSX Grid4 TightSCF
|  4> %maxcore 5000
|  5> %tddft
|  6>     Mode sTDDFT
|  7>     Ethresh 5.0
|  8>     maxcore 5000
|  9> end
| 10>
| 11> %pal
| 12>   nprocs 6
| 13>   end
| 14> * xyz 0 1
| 15>    C       -3.70006        -0.25599        -2.35284
| 16>    S       -2.03828        -0.16563        -2.76687
| 17>    C       -1.81417        -1.87689        -2.56885
| 18>    C       -3.01210        -2.49163        -2.20613
| 19>    C       -4.08720        -1.53848        -2.06097
| 20>    C       -5.37528        -1.98941        -1.68475
| 21>    C       -5.59465        -3.32471        -1.48525
| 22>    C       -6.87391        -3.78964        -1.10299
| 23>    N       -7.91242        -4.15476        -0.78468
| 24>    C       -4.53480        -4.27672        -1.67314
| 25>    C       -4.77417        -5.65370        -1.48147
| 26>    N       -4.91543        -6.78029        -1.31888
| 27>    C       -3.27663        -3.86302        -2.03137
| 28>    N       -0.59272        -2.46064        -2.75154
| 29>    C        0.34806        -1.84106        -3.66584
| 30>    C       -0.07129        -2.01226        -5.12266
| 31>    C       -0.21187        -3.56594        -1.98372
| 32>    C       -0.56473        -3.64064        -0.63301
| 33>    C       -0.23231        -4.75199         0.10826
| 34>    C        0.47455        -5.80558        -0.46436
| 35>    C        0.88463        -5.72164        -1.80182
| 36>    C        0.53036        -4.59955        -2.54414
| 37>    C        1.69960        -6.78346        -2.39031
| 38>    C        1.66108        -7.16055        -3.66022
| 39>    N        0.71045        -6.97948         0.29043
| 40>    C       -0.01960        -8.18134        -0.09385
| 41>    C        0.86227        -9.42150        -0.18701
| 42>    C        1.31251        -6.92996         1.49258
| 43>    C        2.03604        -5.88510         1.97656
| 44>    C        2.66318        -5.90981         3.24481
| 45>    O        3.35566        -4.82794         3.66638
| 46>    C        3.86912        -5.06249         4.91211
| 47>    C        3.48942        -6.34507         5.29028
| 48>    C        2.73079        -6.87657         4.24244
| 49>    F        2.17855        -8.09423         4.20219
| 50>    F        3.79575        -6.97731         6.41975
| 51>    C        4.64223        -4.01749         5.47137
| 52>    S        4.94011        -2.65805         4.43723
| 53>    C        5.86066        -1.81878         5.64580
| 54>    C        5.96240        -2.58992         6.80465
| 55>    C        5.24924        -3.83822         6.72224
| 56>    C        5.26434        -4.70620         7.82809
| 57>    C        5.98856        -4.38251         8.94598
| 58>    N        6.11077        -5.38787         9.98203
| 59>    O        7.21608        -5.54994        10.44530
| 60>    O        5.12304        -6.02852        10.24735
| 61>    C        6.72639        -3.17157         9.00822
| 62>    N        7.39673        -2.75145        10.22174
| 63>    O        6.86814        -3.04699        11.26629
| 64>    O        8.39037        -2.07509        10.08929
| 65>    C        6.71934        -2.29866         7.95553
| 66>    C        6.42149        -0.54020         5.36768
| 67>    S        7.09833        -0.20644         3.80477
| 68>    C        7.56598         1.36883         4.24995
| 69>    C        7.20874         1.67100         5.54633
| 70>    C        6.52915         0.58056         6.19557
| 71>    C        5.98594         0.77490         7.48077
| 72>    C        6.17238         1.97380         8.12246
| 73>    C        5.60927         2.18609         9.40226
| 74>    N        5.13683         2.34926        10.43302
| 75>    C        6.91601         3.03294         7.50343
| 76>    C        7.10327         4.24771         8.20459
| 77>    N        7.26274         5.24163         8.75111
| 78>    C        7.41332         2.88678         6.23585
| 79>    H       -4.29444         0.63431        -2.35769
| 80>    H       -6.17531        -1.27542        -1.55974
| 81>    H       -2.50042        -4.59646        -2.18634
| 82>    H        1.32901        -2.28673        -3.49414
| 83>    H        0.41525        -0.77285        -3.42613
| 84>    H        0.65526        -1.53504        -5.77401
| 85>    H       -1.04255        -1.55500        -5.29522
| 86>    H       -0.13700        -3.06564        -5.38399
| 87>    H       -1.11307        -2.83115        -0.17698
| 88>    H       -0.52838        -4.81826         1.14400
| 89>    H        0.84220        -4.54217        -3.57486
| 90>    H        2.37284        -7.27260        -1.69843
| 91>    H        0.98070        -6.72033        -4.37002
| 92>    H        2.29695        -7.94316        -4.03582
| 93>    H       -0.48308        -7.98807        -1.06288
| 94>    H       -0.82109        -8.36079         0.63320
| 95>    H        1.63636        -9.29376        -0.93850
| 96>    H        0.24749       -10.27134        -0.46994
| 97>    H        1.33501        -9.64528         0.76528
| 98>    H        1.22292        -7.83174         2.07958
| 99>    H        2.16389        -4.97851         1.40598
|100>    H        4.73918        -5.64561         7.81353
|101>    H        7.30022        -1.39203         8.02209
|102>    H        8.07472         1.99826         3.54767
|103>    H        5.40037        -0.00113         7.94980
|104>    H        7.94708         3.69344         5.75673
|105> *
|106>
|107>                          ****END OF INPUT****

CARTESIAN COORDINATES (ANGSTROEM)
---------------------------------
  C     -3.700060   -0.255990   -2.352840
  S     -2.038280   -0.165630   -2.766870
  C     -1.814170   -1.876890   -2.568850
  C     -3.012100   -2.491630   -2.206130
  C     -4.087200   -1.538480   -2.060970
  C     -5.375280   -1.989410   -1.684750
  C     -5.594650   -3.324710   -1.485250
  C     -6.873910   -3.789640   -1.102990
  N     -7.912420   -4.154760   -0.784680
  C     -4.534800   -4.276720   -1.673140
  C     -4.774170   -5.653700   -1.481470
  N     -4.915430   -6.780290   -1.318880
  C     -3.276630   -3.863020   -2.031370
  N     -0.592720   -2.460640   -2.751540
  C      0.348060   -1.841060   -3.665840
  C     -0.071290   -2.012260   -5.122660
  C     -0.211870   -3.565940   -1.983720
  C     -0.564730   -3.640640   -0.633010
  C     -0.232310   -4.751990    0.108260
  C      0.474550   -5.805580   -0.464360
  C      0.884630   -5.721640   -1.801820
  C      0.530360   -4.599550   -2.544140
  C      1.699600   -6.783460   -2.390310
  C      1.661080   -7.160550   -3.660220
  N      0.710450   -6.979480    0.290430
  C     -0.019600   -8.181340   -0.093850
  C      0.862270   -9.421500   -0.187010
  C      1.312510   -6.929960    1.492580
  C      2.036040   -5.885100    1.976560
  C      2.663180   -5.909810    3.244810
  O      3.355660   -4.827940    3.666380
  C      3.869120   -5.062490    4.912110
  C      3.489420   -6.345070    5.290280
  C      2.730790   -6.876570    4.242440
  F      2.178550   -8.094230    4.202190
  F      3.795750   -6.977310    6.419750
  C      4.642230   -4.017490    5.471370
  S      4.940110   -2.658050    4.437230
  C      5.860660   -1.818780    5.645800
  C      5.962400   -2.589920    6.804650
  C      5.249240   -3.838220    6.722240
  C      5.264340   -4.706200    7.828090
  C      5.988560   -4.382510    8.945980
  N      6.110770   -5.387870    9.982030
  O      7.216080   -5.549940   10.445300
  O      5.123040   -6.028520   10.247350
  C      6.726390   -3.171570    9.008220
  N      7.396730   -2.751450   10.221740
  O      6.868140   -3.046990   11.266290
  O      8.390370   -2.075090   10.089290
  C      6.719340   -2.298660    7.955530
  C      6.421490   -0.540200    5.367680
  S      7.098330   -0.206440    3.804770
  C      7.565980    1.368830    4.249950
  C      7.208740    1.671000    5.546330
  C      6.529150    0.580560    6.195570
  C      5.985940    0.774900    7.480770
  C      6.172380    1.973800    8.122460
  C      5.609270    2.186090    9.402260
  N      5.136830    2.349260   10.433020
  C      6.916010    3.032940    7.503430
  C      7.103270    4.247710    8.204590
  N      7.262740    5.241630    8.751110
  C      7.413320    2.886780    6.235850
  H     -4.294440    0.634310   -2.357690
  H     -6.175310   -1.275420   -1.559740
  H     -2.500420   -4.596460   -2.186340
  H      1.329010   -2.286730   -3.494140
  H      0.415250   -0.772850   -3.426130
  H      0.655260   -1.535040   -5.774010
  H     -1.042550   -1.555000   -5.295220
  H     -0.137000   -3.065640   -5.383990
  H     -1.113070   -2.831150   -0.176980
  H     -0.528380   -4.818260    1.144000
  H      0.842200   -4.542170   -3.574860
  H      2.372840   -7.272600   -1.698430
  H      0.980700   -6.720330   -4.370020
  H      2.296950   -7.943160   -4.035820
  H     -0.483080   -7.988070   -1.062880
  H     -0.821090   -8.360790    0.633200
  H      1.636360   -9.293760   -0.938500
  H      0.247490  -10.271340   -0.469940
  H      1.335010   -9.645280    0.765280
  H      1.222920   -7.831740    2.079580
  H      2.163890   -4.978510    1.405980
  H      4.739180   -5.645610    7.813530
  H      7.300220   -1.392030    8.022090
  H      8.074720    1.998260    3.547670
  H      5.400370   -0.001130    7.949800
  H      7.947080    3.693440    5.756730

 Total Charge           Charge          ....    0
 Multiplicity           Mult            ....    1
 Number of Electrons    NEL             ....  464
 Basis Dimension        Dim             .... 1038

ORBITAL ENERGIES
----------------

  NO   OCC          E(Eh)            E(eV)
   0   2.0000     -89.000501     -2421.8268
   1   2.0000     -88.996772     -2421.7253
   2   2.0000     -88.994527     -2421.6642
   3   2.0000     -24.825222      -675.5286
   4   2.0000     -24.814490      -675.2366
   5   2.0000     -19.319077      -525.6988
   6   2.0000     -19.245521      -523.6973
   7   2.0000     -19.243930      -523.6540
   8   2.0000     -19.242715      -523.6209
   9   2.0000     -19.242313      -523.6099
  10   2.0000     -14.651509      -398.6878
  11   2.0000     -14.649202      -398.6250
  12   2.0000     -14.473482      -393.8435
  13   2.0000     -14.465146      -393.6166
  14   2.0000     -14.410998      -392.1432
  15   2.0000     -14.410940      -392.1416
  16   2.0000     -14.410073      -392.1180
  17   2.0000     -14.409459      -392.1013
  18   2.0000     -10.390409      -282.7374
  19   2.0000     -10.372200      -282.2419
  20   2.0000     -10.367977      -282.1270
  21   2.0000     -10.365926      -282.0712
  22   2.0000     -10.362232      -281.9707
  23   2.0000     -10.349952      -281.6365
  24   2.0000     -10.347422      -281.5677
  25   2.0000     -10.345936      -281.5272
  26   2.0000     -10.342741      -281.4403
  27   2.0000     -10.341653      -281.4107
  28   2.0000     -10.339821      -281.3608
  29   2.0000     -10.337301      -281.2923
  30   2.0000     -10.335950      -281.2555
  31   2.0000     -10.335933      -281.2550
  32   2.0000     -10.335599      -281.2459
  33   2.0000     -10.333272      -281.1826
  34   2.0000     -10.331978      -281.1474
  35   2.0000     -10.329194      -281.0717
  36   2.0000     -10.326709      -281.0040
  37   2.0000     -10.324305      -280.9386
  38   2.0000     -10.320126      -280.8249
  39   2.0000     -10.319384      -280.8047
  40   2.0000     -10.319259      -280.8013
  41   2.0000     -10.318434      -280.7789
  42   2.0000     -10.317878      -280.7637
  43   2.0000     -10.317085      -280.7421
  44   2.0000     -10.316986      -280.7395
  45   2.0000     -10.316702      -280.7317
  46   2.0000     -10.315962      -280.7116
  47   2.0000     -10.315301      -280.6936
  48   2.0000     -10.313623      -280.6479
  49   2.0000     -10.310163      -280.5538
  50   2.0000     -10.309949      -280.5480
  51   2.0000     -10.309495      -280.5356
  52   2.0000     -10.309261      -280.5292
  53   2.0000     -10.308798      -280.5167
  54   2.0000     -10.307529      -280.4821
  55   2.0000     -10.305172      -280.4180
  56   2.0000     -10.300313      -280.2858
  57   2.0000     -10.299359      -280.2598
  58   2.0000     -10.298215      -280.2287
  59   2.0000     -10.297482      -280.2087
  60   2.0000     -10.290295      -280.0132
  61   2.0000     -10.286584      -279.9122
  62   2.0000     -10.284148      -279.8459
  63   2.0000     -10.278969      -279.7050
  64   2.0000      -8.095769      -220.2971
  65   2.0000      -8.091629      -220.1844
  66   2.0000      -8.089757      -220.1335
  67   2.0000      -6.064650      -165.0275
  68   2.0000      -6.060788      -164.9224
  69   2.0000      -6.060286      -164.9088
  70   2.0000      -6.059018      -164.8743
  71   2.0000      -6.058870      -164.8702
  72   2.0000      -6.056457      -164.8046
  73   2.0000      -6.054534      -164.7522
  74   2.0000      -6.054226      -164.7439
  75   2.0000      -6.052511      -164.6972
  76   2.0000      -1.340764       -36.4840
  77   2.0000      -1.329912       -36.1887
  78   2.0000      -1.324304       -36.0361
  79   2.0000      -1.322679       -35.9919
  80   2.0000      -1.237669       -33.6787
  81   2.0000      -1.150152       -31.2972
  82   2.0000      -1.144262       -31.1370
  83   2.0000      -1.098246       -29.8848
  84   2.0000      -1.083803       -29.4918
  85   2.0000      -1.038934       -28.2708
  86   2.0000      -1.024497       -27.8780
  87   2.0000      -1.019070       -27.7303
  88   2.0000      -1.004501       -27.3339
  89   2.0000      -1.000290       -27.2193
  90   2.0000      -0.991423       -26.9780
  91   2.0000      -0.990629       -26.9564
  92   2.0000      -0.988531       -26.8993
  93   2.0000      -0.976618       -26.5751
  94   2.0000      -0.965315       -26.2676
  95   2.0000      -0.959329       -26.1047
  96   2.0000      -0.933900       -25.4127
  97   2.0000      -0.927418       -25.2363
  98   2.0000      -0.915762       -24.9191
  99   2.0000      -0.911176       -24.7944
 100   2.0000      -0.903472       -24.5847
 101   2.0000      -0.899611       -24.4797
 102   2.0000      -0.898045       -24.4371
 103   2.0000      -0.888178       -24.1686
 104   2.0000      -0.885852       -24.1053
 105   2.0000      -0.877592       -23.8805
 106   2.0000      -0.872845       -23.7513
 107   2.0000      -0.869262       -23.6538
 108   2.0000      -0.858912       -23.3722
 109   2.0000      -0.844152       -22.9705
 110   2.0000      -0.834256       -22.7012
 111   2.0000      -0.825686       -22.4681
 112   2.0000      -0.812068       -22.0975
 113   2.0000      -0.793497       -21.5921
 114   2.0000      -0.785997       -21.3881
 115   2.0000      -0.767034       -20.8721
 116   2.0000      -0.765475       -20.8296
 117   2.0000      -0.762046       -20.7363
 118   2.0000      -0.755820       -20.5669
 119   2.0000      -0.748654       -20.3719
 120   2.0000      -0.739510       -20.1231
 121   2.0000      -0.738755       -20.1025
 122   2.0000      -0.733957       -19.9720
 123   2.0000      -0.723988       -19.7007
 124   2.0000      -0.721412       -19.6306
 125   2.0000      -0.712811       -19.3966
 126   2.0000      -0.709247       -19.2996
 127   2.0000      -0.692210       -18.8360
 128   2.0000      -0.686649       -18.6847
 129   2.0000      -0.681725       -18.5507
 130   2.0000      -0.675780       -18.3889
 131   2.0000      -0.672593       -18.3022
 132   2.0000      -0.657503       -17.8916
 133   2.0000      -0.647864       -17.6293
 134   2.0000      -0.645598       -17.5676
 135   2.0000      -0.643453       -17.5092
 136   2.0000      -0.639757       -17.4087
 137   2.0000      -0.636441       -17.3184
 138   2.0000      -0.633254       -17.2317
 139   2.0000      -0.630177       -17.1480
 140   2.0000      -0.623683       -16.9713
 141   2.0000      -0.619054       -16.8453
 142   2.0000      -0.617501       -16.8031
 143   2.0000      -0.615195       -16.7403
 144   2.0000      -0.614217       -16.7137
 145   2.0000      -0.613558       -16.6957
 146   2.0000      -0.605771       -16.4839
 147   2.0000      -0.602198       -16.3866
 148   2.0000      -0.596631       -16.2352
 149   2.0000      -0.588747       -16.0206
 150   2.0000      -0.586773       -15.9669
 151   2.0000      -0.582995       -15.8641
 152   2.0000      -0.575134       -15.6502
 153   2.0000      -0.568452       -15.4684
 154   2.0000      -0.567612       -15.4455
 155   2.0000      -0.564489       -15.3605
 156   2.0000      -0.561925       -15.2908
 157   2.0000      -0.561309       -15.2740
 158   2.0000      -0.560540       -15.2531
 159   2.0000      -0.558656       -15.2018
 160   2.0000      -0.556378       -15.1398
 161   2.0000      -0.553875       -15.0717
 162   2.0000      -0.552930       -15.0460
 163   2.0000      -0.542857       -14.7719
 164   2.0000      -0.542085       -14.7509
 165   2.0000      -0.538806       -14.6616
 166   2.0000      -0.537318       -14.6212
 167   2.0000      -0.534605       -14.5473
 168   2.0000      -0.532643       -14.4940
 169   2.0000      -0.530382       -14.4324
 170   2.0000      -0.529850       -14.4180
 171   2.0000      -0.526683       -14.3318
 172   2.0000      -0.525763       -14.3067
 173   2.0000      -0.525059       -14.2876
 174   2.0000      -0.519463       -14.1353
 175   2.0000      -0.516112       -14.0441
 176   2.0000      -0.509627       -13.8677
 177   2.0000      -0.501984       -13.6597
 178   2.0000      -0.496357       -13.5066
 179   2.0000      -0.490559       -13.3488
 180   2.0000      -0.487983       -13.2787
 181   2.0000      -0.487078       -13.2541
 182   2.0000      -0.482702       -13.1350
 183   2.0000      -0.481608       -13.1052
 184   2.0000      -0.475429       -12.9371
 185   2.0000      -0.470199       -12.7948
 186   2.0000      -0.469217       -12.7681
 187   2.0000      -0.466249       -12.6873
 188   2.0000      -0.462275       -12.5791
 189   2.0000      -0.461138       -12.5482
 190   2.0000      -0.459045       -12.4913
 191   2.0000      -0.457049       -12.4369
 192   2.0000      -0.455465       -12.3938
 193   2.0000      -0.452317       -12.3082
 194   2.0000      -0.448960       -12.2168
 195   2.0000      -0.447488       -12.1768
 196   2.0000      -0.447166       -12.1680
 197   2.0000      -0.446163       -12.1407
 198   2.0000      -0.440715       -11.9925
 199   2.0000      -0.438785       -11.9399
 200   2.0000      -0.437851       -11.9145
 201   2.0000      -0.437675       -11.9098
 202   2.0000      -0.435943       -11.8626
 203   2.0000      -0.432209       -11.7610
 204   2.0000      -0.418849       -11.3975
 205   2.0000      -0.417883       -11.3712
 206   2.0000      -0.417640       -11.3646
 207   2.0000      -0.415255       -11.2997
 208   2.0000      -0.413212       -11.2441
 209   2.0000      -0.411536       -11.1985
 210   2.0000      -0.406864       -11.0713
 211   2.0000      -0.403878       -10.9901
 212   2.0000      -0.396937       -10.8012
 213   2.0000      -0.394486       -10.7345
 214   2.0000      -0.388316       -10.5666
 215   2.0000      -0.384097       -10.4518
 216   2.0000      -0.383776       -10.4431
 217   2.0000      -0.380328       -10.3493
 218   2.0000      -0.377107       -10.2616
 219   2.0000      -0.374891       -10.2013
 220   2.0000      -0.367472        -9.9994
 221   2.0000      -0.366848        -9.9825
 222   2.0000      -0.356260        -9.6943
 223   2.0000      -0.342919        -9.3313
 224   2.0000      -0.338829        -9.2200
 225   2.0000      -0.337427        -9.1819
 226   2.0000      -0.336573        -9.1586
 227   2.0000      -0.322407        -8.7731
 228   2.0000      -0.313725        -8.5369
 229   2.0000      -0.285400        -7.7661
 230   2.0000      -0.263380        -7.1669
 231   2.0000      -0.239014        -6.5039
 232   0.0000      -0.091322        -2.4850
 233   0.0000      -0.068151        -1.8545
 234   0.0000      -0.066683        -1.8145
 235   0.0000      -0.050045        -1.3618
 236   0.0000      -0.030215        -0.8222

MULLIKEN ATOMIC CHARGES
-----------------------
   0 C :   -0.142241
   1 S :    0.132217
   2 C :   -0.104925
   3 C :    0.109903
   4 C :    0.116072
   5 C :   -0.024295
   6 C :   -0.061467
   7 C :   -0.180502
   8 N :    0.170027
   9 C :   -0.081711
  10 C :   -0.174328
  11 N :    0.157050
  12 C :   -0.029386
  13 N :   -0.211172
  14 C :    0.080664
  15 C :    0.021854
  16 C :    0.158749
  17 C :   -0.026209
  18 C :    0.011502
  19 C :    0.055177
  20 C :    0.084233
  21 C :   -0.113306
  22 C :   -0.044094
  23 C :   -0.009825
  24 N :   -0.222614
  25 C :    0.113606
  26 C :    0.002378
  27 C :    0.073048
  28 C :   -0.062107
  29 C :    0.149233
  30 O :   -0.226557
  31 C :    0.107427
  32 C :    0.152326
  33 C :    0.134778
  34 F :   -0.173412
  35 F :   -0.151415
  36 C :   -0.115636
  37 S :    0.216098
  38 C :   -0.161935
  39 C :    0.157772
  40 C :    0.094601
  41 C :   -0.066575
  42 C :    0.098141
  43 N :    0.254323
  44 O :   -0.224068
  45 O :   -0.226066
  46 C :    0.132330
  47 N :    0.253938
  48 O :   -0.215609
  49 O :   -0.227686
  50 C :   -0.106415
  51 C :   -0.190865
  52 S :    0.198784
  53 C :   -0.120801
  54 C :    0.089971
  55 C :    0.174578
  56 C :   -0.068295
  57 C :   -0.069993
  58 C :   -0.173461
  59 N :    0.182762
  60 C :   -0.065947
  61 C :   -0.176300
  62 N :    0.172897
  63 C :   -0.017575
  64 H :    0.023748
  65 H :   -0.006341
  66 H :    0.007659
  67 H :    0.033925
  68 H :    0.031509
  69 H :    0.027301
  70 H :    0.026113
  71 H :    0.021408
  72 H :   -0.002760
  73 H :   -0.008354
  74 H :   -0.038220
  75 H :    0.018358
  76 H :    0.023086
  77 H :    0.033931
  78 H :    0.040847
  79 H :    0.029097
  80 H :    0.018231
  81 H :    0.030587
  82 H :    0.022080
  83 H :    0.023359
  84 H :    0.002799
  85 H :   -0.002550
  86 H :    0.015228
  87 H :    0.031503
  88 H :    0.011153
  89 H :   -0.003339
Sum of atomic charges:    0.0000000

LOEWDIN ATOMIC CHARGES
----------------------
   0 C :   -0.212095
   1 S :    0.472974
   2 C :   -0.116444
   3 C :   -0.091132
   4 C :   -0.044760
   5 C :    0.033146
   6 C :   -0.056108
   7 C :   -0.032330
   8 N :   -0.038231
   9 C :   -0.070682
  10 C :   -0.032423
  11 N :   -0.052352
  12 C :    0.038825
  13 N :   -0.029116
  14 C :    0.036171
  15 C :   -0.061913
  16 C :    0.018780
  17 C :   -0.034695
  18 C :   -0.009161
  19 C :    0.005920
  20 C :   -0.023821
  21 C :   -0.036326
  22 C :   -0.021943
  23 C :   -0.031490
  24 N :   -0.007898
  25 C :    0.045867
  26 C :   -0.060013
  27 C :    0.064292
  28 C :   -0.138755
  29 C :    0.038055
  30 O :    0.000002
  31 C :   -0.040865
  32 C :    0.036857
  33 C :   -0.007883
  34 F :   -0.048440
  35 F :   -0.024936
  36 C :   -0.164425
  37 S :    0.501954
  38 C :   -0.212505
  39 C :   -0.040216
  40 C :   -0.054002
  41 C :    0.024529
  42 C :   -0.031244
  43 N :    0.281395
  44 O :   -0.192255
  45 O :   -0.191140
  46 C :   -0.020739
  47 N :    0.281954
  48 O :   -0.182791
  49 O :   -0.194508
  50 C :    0.014086
  51 C :   -0.196465
  52 S :    0.507806
  53 C :   -0.186523
  54 C :   -0.049605
  55 C :   -0.049706
  56 C :    0.027857
  57 C :   -0.052213
  58 C :   -0.034154
  59 N :   -0.029429
  60 C :   -0.053656
  61 C :   -0.032234
  62 N :   -0.032701
  63 C :    0.036658
  64 H :    0.026886
  65 H :    0.044595
  66 H :    0.044727
  67 H :    0.032039
  68 H :    0.016776
  69 H :    0.032604
  70 H :    0.025495
  71 H :    0.025576
  72 H :    0.035934
  73 H :    0.038126
  74 H :    0.028477
  75 H :    0.032019
  76 H :    0.023231
  77 H :    0.029831
  78 H :    0.035699
  79 H :    0.026258
  80 H :    0.025291
  81 H :    0.036298
  82 H :    0.025180
  83 H :    0.029518
  84 H :    0.036391
  85 H :    0.038414
  86 H :    0.046133
  87 H :    0.030246
  88 H :    0.045724
  89 H :    0.045726

  Mayer bond orders larger than 0.100000
B(  0-C ,  1-S ) :   1.1387 B(  0-C ,  4-C ) :   1.4525 B(  0-C , 64-H ) :   0.9721
B(  1-S ,  2-C ) :   1.1847 B(  2-C ,  3-C ) :   1.3221 B(  2-C , 13-N ) :   1.1432
B(  3-C ,  4-C ) :   1.1838 B(  3-C , 12-C ) :   1.1772 B(  4-C ,  5-C ) :   1.1417
B(  5-C ,  6-C ) :   1.5911 B(  5-C , 65-H ) :   1.0078 B(  6-C ,  7-C ) :   1.0769
B(  6-C ,  9-C ) :   1.2089 B(  7-C ,  8-N ) :   3.0458 B(  9-C , 10-C ) :   1.0833
B(  9-C , 12-C ) :   1.5783 B( 10-C , 11-N ) :   3.0419 B( 12-C , 66-H ) :   0.9944
B( 13-N , 14-C ) :   0.9485 B( 13-N , 16-C ) :   0.9967 B( 14-C , 15-C ) :   1.1112
B( 14-C , 67-H ) :   0.9475 B( 14-C , 68-H ) :   0.9399 B( 15-C , 69-H ) :   0.9643
B( 15-C , 70-H ) :   0.9585 B( 15-C , 71-H ) :   0.9682 B( 16-C , 17-C ) :   1.3550
B( 16-C , 21-C ) :   1.3525 B( 17-C , 18-C ) :   1.3628 B( 17-C , 72-H ) :   0.9921
B( 18-C , 19-C ) :   1.3695 B( 18-C , 73-H ) :   0.9971 B( 19-C , 20-C ) :   1.3993
B( 19-C , 24-N ) :   0.9891 B( 20-C , 21-C ) :   1.3269 B( 20-C , 22-C ) :   1.0293
B( 21-C , 74-H ) :   0.9963 B( 22-C , 23-C ) :   1.9636 B( 22-C , 75-H ) :   0.9560
B( 23-C , 76-H ) :   0.9568 B( 23-C , 77-H ) :   0.9525 B( 24-N , 25-C ) :   0.9252
B( 24-N , 27-C ) :   1.1954 B( 25-C , 26-C ) :   1.1103 B( 25-C , 78-H ) :   0.9476
B( 25-C , 79-H ) :   0.9484 B( 26-C , 80-H ) :   0.9659 B( 26-C , 81-H ) :   0.9614
B( 26-C , 82-H ) :   0.9661 B( 27-C , 28-C ) :   1.5738 B( 27-C , 83-H ) :   0.9629
B( 28-C , 29-C ) :   1.1651 B( 28-C , 84-H ) :   0.9566 B( 29-C , 30-O ) :   1.1250
B( 29-C , 31-C ) :   0.1304 B( 29-C , 33-C ) :   1.3643 B( 30-O , 31-C ) :   1.1111
B( 31-C , 32-C ) :   1.3556 B( 31-C , 36-C ) :   1.1088 B( 32-C , 33-C ) :   1.2385
B( 32-C , 35-F ) :   1.1469 B( 33-C , 34-F ) :   1.1200 B( 36-C , 37-S ) :   1.1759
B( 36-C , 38-C ) :   0.1251 B( 36-C , 40-C ) :   1.3998 B( 37-S , 38-C ) :   1.1362
B( 38-C , 39-C ) :   1.4011 B( 38-C , 51-C ) :   1.1137 B( 39-C , 40-C ) :   1.1856
B( 39-C , 50-C ) :   1.1293 B( 40-C , 41-C ) :   1.1556 B( 41-C , 42-C ) :   1.5514
B( 41-C , 85-H ) :   0.9860 B( 42-C , 43-N ) :   0.8689 B( 42-C , 46-C ) :   1.2206
B( 43-N , 44-O ) :   1.5561 B( 43-N , 45-O ) :   1.5440 B( 44-O , 45-O ) :   0.2751
B( 46-C , 47-N ) :   0.8670 B( 46-C , 50-C ) :   1.5670 B( 47-N , 48-O ) :   1.5643
B( 47-N , 49-O ) :   1.5440 B( 48-O , 49-O ) :   0.2766 B( 50-C , 86-H ) :   0.9925
B( 51-C , 52-S ) :   1.2029 B( 51-C , 53-C ) :   0.1156 B( 51-C , 55-C ) :   1.3580
B( 52-S , 53-C ) :   1.1998 B( 53-C , 54-C ) :   1.4215 B( 53-C , 87-H ) :   0.9700
B( 54-C , 55-C ) :   1.1880 B( 54-C , 63-C ) :   1.1493 B( 55-C , 56-C ) :   1.1761
B( 56-C , 57-C ) :   1.5802 B( 56-C , 88-H ) :   0.9965 B( 57-C , 58-C ) :   1.0828
B( 57-C , 60-C ) :   1.2214 B( 58-C , 59-N ) :   3.0438 B( 60-C , 61-C ) :   1.0760
B( 60-C , 63-C ) :   1.5863 B( 61-C , 62-N ) :   3.0480 B( 63-C , 89-H ) :   1.0056

-----------------------------------------------------------------------------
         ABSORPTION SPECTRUM VIA TRANSITION ELECTRIC DIPOLE MOMENTS
-----------------------------------------------------------------------------
State   Energy  Wavelength   fosc         T2         TX        TY        TZ
        (cm-1)    (nm)                  (au**2)     (au)      (au)      (au)
-----------------------------------------------------------------------------
   0   16471.9    607.1   0.786972222  15.72866   2.16306   2.86366   1.68799
   1   21481.1    465.5   0.155120777   2.37733   0.62858  -0.45305   1.33303
   2   23086.9    433.1   0.269179266   3.83841   1.58686  -0.99214   0.57960
   3   24936.8    401.0   0.358744438   4.73609   0.64965  -0.09082   2.07504
   4   26083.7    383.4   0.058276831   0.73553   0.23366  -0.78719   0.24753
   5   26329.9    379.8   0.047547209   0.59450   0.46907   0.43012  -0.43528
   6   28026.4    356.8   0.006056245   0.07114   0.07592  -0.22090   0.12876
   7   29798.4    335.6   0.182133064   2.01220  -0.51817  -0.61266  -1.16977
   8   31033.2    322.2   0.134976979   1.43189   0.65733   0.81319   0.58183
   9   31582.5    316.6   0.048853797   0.50925  -0.50990  -0.47295  -0.15990
  10   32708.1    305.7   0.005907672   0.05946   0.07081   0.01343   0.23295
  11   32937.2    303.6   0.014405932   0.14399  -0.27178  -0.24541  -0.09950
  12   33045.5    302.6   0.083648755   0.83334   0.68603  -0.33357   0.50142
  13   34032.9    293.8   0.017095589   0.16537  -0.39792   0.06731  -0.05003
  14   34272.3    291.8   0.101572377   0.97568  -0.04023  -0.98546  -0.05406
  15   35000.2    285.7   0.050536012   0.47534   0.29738   0.35466  -0.51100
  16   35402.1    282.5   0.045439684   0.42255  -0.23867  -0.35439  -0.48990
  17   35876.3    278.7   0.066337708   0.60874   0.45628  -0.49914   0.38911
  18   36089.4    277.1   0.062007356   0.56564   0.33452  -0.39478   0.54578
  19   36722.3    272.3   0.207900293   1.86381  -0.41392  -0.32779  -1.25898
  20   37063.3    269.8   0.103435041   0.91875   0.53170  -0.44967  -0.65867
  21   37387.9    267.5   0.040935170   0.36045  -0.34532   0.46381  -0.16150
  22   37946.6    263.5   0.006693239   0.05807  -0.04034   0.23393  -0.04146
  23   38138.1    262.2   0.029703286   0.25640  -0.48398  -0.09712  -0.11285
  24   38356.7    260.7   0.044444731   0.38146  -0.18061  -0.39568   0.43850
  25   38560.6    259.3   0.076062485   0.64938  -0.07286   0.78964   0.14334
  26   38758.0    258.0   0.049538294   0.42078   0.32654  -0.55681   0.06411
  27   38999.3    256.4   0.015960993   0.13473  -0.15596  -0.08521  -0.32117
  28   39233.4    254.9   0.029613592   0.24849  -0.49081  -0.07943  -0.03591
  29   39889.2    250.7   0.016779929   0.13849   0.25553   0.14493  -0.22845
  30   40177.4    248.9   0.038290402   0.31375  -0.05275  -0.54555   0.11549

FINAL SINGLE POINT ENERGY     -3972.820069239433

DIPOLE MOMENT
-------------
                                X             Y             Z
Electronic contribution:     31.97091      18.55442      78.46740
Nuclear contribution   :    -31.47884     -18.39587     -87.03984
                        -----------------------------------------
Total Dipole Moment    :      0.49207       0.15854      -8.57243
                        -----------------------------------------
Magnitude (a.u.)       :      8.58801
Magnitude (Debye)      :     21.82898

Rotational constants in cm-1:     0.001471     0.000448     0.000391
Rotational constants in MHz :    44.107980    13.442384    11.726530

                             ****ORCA TERMINATED NORMALLY****
TOTAL RUN TIME: 0 days 0 hours 8 minutes 21 seconds 146 msec
