                         Program Version 4.2.0 -  RELEASE  -
|  1> # ORCA input file
|  2> # SCF done       -152.282320846884          0.000819780190
|  3> ! CAM-B3LYP def2-SVP def2/J RIJCOSX Grid4 TightSCF
|  4> %maxcore 5000
|  5> %tddft
|  6>     Mode sTDDFT
|  7>     Ethresh 5.0
|  8>     maxcore 5000
|  9> end
| 10>
| 11> %pal
| 12>   nprocs 6
| 13>   end
| 14> * xyz 0 1
| 15>    C       14.33607        -6.77611        15.44295
| 16>    C       15.39200        -6.82040        16.29893
| 17>    S       16.88754        -6.91919        15.44209
| 18>    C       16.07579        -6.89986        13.89409
| 19>   Cl       16.94308        -6.97357        12.44135
| 20>    C       14.72624        -6.82117        14.06573
| 21>    C       13.53511        -6.76705        13.21625
| 22>    O       13.49495        -6.78528        12.00119
| 23>    C       12.39220        -6.68574        14.15063
| 24>    C       12.88934        -6.69457        15.51889
| 25>    C       12.18235        -6.63906        16.69073
| 26>    C       12.83865        -6.65541        17.94013
| 27>    N       13.35553        -6.66597        18.96451
| 28>    C       10.78147        -6.56164        16.81976
| 29>    N        9.64919        -6.49953        17.00074
| 30>    C       11.07277        -6.60991        13.79560
| 31>    C       10.46666        -6.58531        12.52506
| 32>    S       11.26492        -6.64926        10.97158
| 33>    C        9.75409        -6.55529        10.13148
| 34>    C        8.67197        -6.47947        11.02542
| 35>    C        9.09180        -6.49759        12.35710
| 36>    C        7.26252        -6.38496        10.66179
| 37>    O        6.35572        -6.31576        11.45266
| 38>    C        9.70332        -6.55434         8.71452
| 39>    C       10.81041        -6.59817         7.93271
| 40>    C       10.81685        -6.58659         6.51331
| 41>    S       12.34973        -6.58251         5.67539
| 42>    C       11.57715        -6.54834         4.12543
| 43>    C       10.18464        -6.54768         4.26761
| 44>    C        9.77593        -6.56745         5.61328
| 45>    C        9.23230        -6.52767         3.16626
| 46>    O        9.49035        -6.52168         1.98735
| 47>    C       12.30811        -6.50716         2.90814
| 48>    C       13.65493        -6.48968         2.84393
| 49>    C       14.44812        -6.42036         1.64157
| 50>    C       15.84069        -6.33671         1.74135
| 51>    C       16.61602        -6.24609         0.59201
| 52>    C       15.94400        -6.21320        -0.63777
| 53>    N       14.63486        -6.30852        -0.74412
| 54>    C       13.90585        -6.41398         0.34743
| 55>    C       18.06517        -6.13275         0.61807
| 56>    N       18.90501        -6.93607         1.35021
| 57>    C       18.55792        -8.14499         2.05802
| 58>    C       18.05648        -9.23384         1.11392
| 59>    C       20.25969        -6.57521         1.16202
| 60>    O       21.17884        -7.16432         1.69732
| 61>    C       20.20900        -5.44809         0.26668
| 62>    C       18.83428        -5.21842        -0.06140
| 63>    C       18.76886        -4.06963        -0.93549
| 64>    O       17.84469        -3.49373        -1.46743
| 65>    N       20.11733        -3.67857        -1.08242
| 66>    C       20.47550        -2.57919        -1.94440
| 67>    C       20.99070        -3.06182        -3.29837
| 68>    C       20.97335        -4.49055        -0.37568
| 69>    C       22.39685        -4.29757        -0.34439
| 70>    C       23.22179        -5.10576         0.32300
| 71>    H       15.40292        -6.80251        17.37054
| 72>    H       10.35271        -6.55624        14.60396
| 73>    H        8.39988        -6.44547        13.17983
| 74>    H        7.06412        -6.38097         9.57326
| 75>    H        8.72646        -6.50894         8.25556
| 76>    H       11.78136        -6.63584         8.40989
| 77>    H        8.74167        -6.56930         5.90709
| 78>    H        8.18138        -6.52190         3.51483
| 79>    H       11.70014        -6.47838         2.01567
| 80>    H       14.21656        -6.51750         3.77233
| 81>    H       16.30283        -6.30155         2.71810
| 82>    H       16.49393        -6.11518        -1.56249
| 83>    H       12.84032        -6.48928         0.18425
| 84>    H       17.80975        -7.93641         2.82666
| 85>    H       19.48116        -8.47019         2.54703
| 86>    H       17.13813        -8.92555         0.61807
| 87>    H       17.86035       -10.14366         1.67445
| 88>    H       18.80661        -9.44702         0.35611
| 89>    H       21.21652        -1.94629        -1.44777
| 90>    H       19.55824        -2.00051        -2.08766
| 91>    H       21.87797        -3.68032        -3.18110
| 92>    H       21.23772        -2.20856        -3.92401
| 93>    H       20.22366        -3.64842        -3.79791
| 94>    H       22.78672        -3.45073        -0.89202
| 95>    H       22.85520        -5.95477         0.87522
| 96>    H       24.28425        -4.93347         0.33179
| 97> *
| 98>
| 99>                          ****END OF INPUT****

CARTESIAN COORDINATES (ANGSTROEM)
---------------------------------
  C     14.336070   -6.776110   15.442950
  C     15.392000   -6.820400   16.298930
  S     16.887540   -6.919190   15.442090
  C     16.075790   -6.899860   13.894090
  Cl    16.943080   -6.973570   12.441350
  C     14.726240   -6.821170   14.065730
  C     13.535110   -6.767050   13.216250
  O     13.494950   -6.785280   12.001190
  C     12.392200   -6.685740   14.150630
  C     12.889340   -6.694570   15.518890
  C     12.182350   -6.639060   16.690730
  C     12.838650   -6.655410   17.940130
  N     13.355530   -6.665970   18.964510
  C     10.781470   -6.561640   16.819760
  N      9.649190   -6.499530   17.000740
  C     11.072770   -6.609910   13.795600
  C     10.466660   -6.585310   12.525060
  S     11.264920   -6.649260   10.971580
  C      9.754090   -6.555290   10.131480
  C      8.671970   -6.479470   11.025420
  C      9.091800   -6.497590   12.357100
  C      7.262520   -6.384960   10.661790
  O      6.355720   -6.315760   11.452660
  C      9.703320   -6.554340    8.714520
  C     10.810410   -6.598170    7.932710
  C     10.816850   -6.586590    6.513310
  S     12.349730   -6.582510    5.675390
  C     11.577150   -6.548340    4.125430
  C     10.184640   -6.547680    4.267610
  C      9.775930   -6.567450    5.613280
  C      9.232300   -6.527670    3.166260
  O      9.490350   -6.521680    1.987350
  C     12.308110   -6.507160    2.908140
  C     13.654930   -6.489680    2.843930
  C     14.448120   -6.420360    1.641570
  C     15.840690   -6.336710    1.741350
  C     16.616020   -6.246090    0.592010
  C     15.944000   -6.213200   -0.637770
  N     14.634860   -6.308520   -0.744120
  C     13.905850   -6.413980    0.347430
  C     18.065170   -6.132750    0.618070
  N     18.905010   -6.936070    1.350210
  C     18.557920   -8.144990    2.058020
  C     18.056480   -9.233840    1.113920
  C     20.259690   -6.575210    1.162020
  O     21.178840   -7.164320    1.697320
  C     20.209000   -5.448090    0.266680
  C     18.834280   -5.218420   -0.061400
  C     18.768860   -4.069630   -0.935490
  O     17.844690   -3.493730   -1.467430
  N     20.117330   -3.678570   -1.082420
  C     20.475500   -2.579190   -1.944400
  C     20.990700   -3.061820   -3.298370
  C     20.973350   -4.490550   -0.375680
  C     22.396850   -4.297570   -0.344390
  C     23.221790   -5.105760    0.323000
  H     15.402920   -6.802510   17.370540
  H     10.352710   -6.556240   14.603960
  H      8.399880   -6.445470   13.179830
  H      7.064120   -6.380970    9.573260
  H      8.726460   -6.508940    8.255560
  H     11.781360   -6.635840    8.409890
  H      8.741670   -6.569300    5.907090
  H      8.181380   -6.521900    3.514830
  H     11.700140   -6.478380    2.015670
  H     14.216560   -6.517500    3.772330
  H     16.302830   -6.301550    2.718100
  H     16.493930   -6.115180   -1.562490
  H     12.840320   -6.489280    0.184250
  H     17.809750   -7.936410    2.826660
  H     19.481160   -8.470190    2.547030
  H     17.138130   -8.925550    0.618070
  H     17.860350  -10.143660    1.674450
  H     18.806610   -9.447020    0.356110
  H     21.216520   -1.946290   -1.447770
  H     19.558240   -2.000510   -2.087660
  H     21.877970   -3.680320   -3.181100
  H     21.237720   -2.208560   -3.924010
  H     20.223660   -3.648420   -3.797910
  H     22.786720   -3.450730   -0.892020
  H     22.855200   -5.954770    0.875220
  H     24.284250   -4.933470    0.331790

 Total Charge           Charge          ....    0
 Multiplicity           Mult            ....    1
 Number of Electrons    NEL             ....  418
 Basis Dimension        Dim             ....  930

ORBITAL ENERGIES
----------------

  NO   OCC          E(Eh)            E(eV)
   0   2.0000    -101.621029     -2765.2488
   1   2.0000     -88.995289     -2421.6849
   2   2.0000     -88.981313     -2421.3046
   3   2.0000     -88.974756     -2421.1262
   4   2.0000     -19.229247      -523.2544
   5   2.0000     -19.223034      -523.0854
   6   2.0000     -19.217321      -522.9299
   7   2.0000     -19.188987      -522.1589
   8   2.0000     -19.188075      -522.1341
   9   2.0000     -14.453730      -393.3060
  10   2.0000     -14.452277      -393.2664
  11   2.0000     -14.422390      -392.4532
  12   2.0000     -14.419554      -392.3760
  13   2.0000     -14.408546      -392.0765
  14   2.0000     -10.383733      -282.5557
  15   2.0000     -10.379073      -282.4289
  16   2.0000     -10.373022      -282.2643
  17   2.0000     -10.372163      -282.2409
  18   2.0000     -10.369237      -282.1613
  19   2.0000     -10.364581      -282.0346
  20   2.0000     -10.350402      -281.6487
  21   2.0000     -10.347536      -281.5708
  22   2.0000     -10.340599      -281.3820
  23   2.0000     -10.337942      -281.3097
  24   2.0000     -10.334895      -281.2268
  25   2.0000     -10.332908      -281.1727
  26   2.0000     -10.332222      -281.1540
  27   2.0000     -10.331402      -281.1317
  28   2.0000     -10.326338      -280.9939
  29   2.0000     -10.325073      -280.9595
  30   2.0000     -10.324706      -280.9495
  31   2.0000     -10.322112      -280.8789
  32   2.0000     -10.316187      -280.7177
  33   2.0000     -10.314408      -280.6693
  34   2.0000     -10.313899      -280.6555
  35   2.0000     -10.312554      -280.6189
  36   2.0000     -10.308268      -280.5022
  37   2.0000     -10.308128      -280.4984
  38   2.0000     -10.307873      -280.4915
  39   2.0000     -10.307093      -280.4703
  40   2.0000     -10.304783      -280.4074
  41   2.0000     -10.304281      -280.3938
  42   2.0000     -10.303711      -280.3782
  43   2.0000     -10.302599      -280.3480
  44   2.0000     -10.301847      -280.3275
  45   2.0000     -10.301222      -280.3105
  46   2.0000     -10.299128      -280.2535
  47   2.0000     -10.298003      -280.2229
  48   2.0000     -10.293945      -280.1125
  49   2.0000     -10.293260      -280.0938
  50   2.0000     -10.289325      -279.9868
  51   2.0000     -10.281690      -279.7790
  52   2.0000     -10.264267      -279.3049
  53   2.0000     -10.263947      -279.2962
  54   2.0000     -10.260058      -279.1904
  55   2.0000     -10.257092      -279.1097
  56   2.0000      -9.575823      -260.5714
  57   2.0000      -8.091087      -220.1697
  58   2.0000      -8.077072      -219.7883
  59   2.0000      -8.068503      -219.5551
  60   2.0000      -7.346453      -199.9071
  61   2.0000      -7.335854      -199.6187
  62   2.0000      -7.335337      -199.6047
  63   2.0000      -6.060502      -164.9146
  64   2.0000      -6.055861      -164.7884
  65   2.0000      -6.053275      -164.7180
  66   2.0000      -6.046089      -164.5224
  67   2.0000      -6.042123      -164.4145
  68   2.0000      -6.039488      -164.3428
  69   2.0000      -6.037918      -164.3001
  70   2.0000      -6.033332      -164.1753
  71   2.0000      -6.030692      -164.1035
  72   2.0000      -1.146486       -31.1975
  73   2.0000      -1.136298       -30.9202
  74   2.0000      -1.131818       -30.7983
  75   2.0000      -1.130836       -30.7716
  76   2.0000      -1.125053       -30.6143
  77   2.0000      -1.063001       -28.9257
  78   2.0000      -1.055277       -28.7155
  79   2.0000      -1.044368       -28.4187
  80   2.0000      -1.040834       -28.3225
  81   2.0000      -1.019074       -27.7304
  82   2.0000      -1.012035       -27.5389
  83   2.0000      -1.006822       -27.3970
  84   2.0000      -0.999750       -27.2046
  85   2.0000      -0.990564       -26.9546
  86   2.0000      -0.957522       -26.0555
  87   2.0000      -0.938931       -25.5496
  88   2.0000      -0.928214       -25.2580
  89   2.0000      -0.927583       -25.2408
  90   2.0000      -0.912347       -24.8262
  91   2.0000      -0.907379       -24.6910
  92   2.0000      -0.898255       -24.4428
  93   2.0000      -0.892773       -24.2936
  94   2.0000      -0.875303       -23.8182
  95   2.0000      -0.871793       -23.7227
  96   2.0000      -0.868855       -23.6428
  97   2.0000      -0.858644       -23.3649
  98   2.0000      -0.839777       -22.8515
  99   2.0000      -0.834748       -22.7147
 100   2.0000      -0.820252       -22.3202
 101   2.0000      -0.811935       -22.0939
 102   2.0000      -0.802350       -21.8331
 103   2.0000      -0.786457       -21.4006
 104   2.0000      -0.776395       -21.1268
 105   2.0000      -0.761076       -20.7099
 106   2.0000      -0.759036       -20.6544
 107   2.0000      -0.754699       -20.5364
 108   2.0000      -0.750417       -20.4199
 109   2.0000      -0.724501       -19.7147
 110   2.0000      -0.721469       -19.6322
 111   2.0000      -0.719176       -19.5698
 112   2.0000      -0.709347       -19.3023
 113   2.0000      -0.695863       -18.9354
 114   2.0000      -0.690170       -18.7805
 115   2.0000      -0.684177       -18.6174
 116   2.0000      -0.679031       -18.4774
 117   2.0000      -0.669942       -18.2301
 118   2.0000      -0.658488       -17.9184
 119   2.0000      -0.657976       -17.9044
 120   2.0000      -0.646917       -17.6035
 121   2.0000      -0.644960       -17.5502
 122   2.0000      -0.632103       -17.2004
 123   2.0000      -0.624280       -16.9875
 124   2.0000      -0.619858       -16.8672
 125   2.0000      -0.617126       -16.7929
 126   2.0000      -0.613280       -16.6882
 127   2.0000      -0.605854       -16.4861
 128   2.0000      -0.599725       -16.3193
 129   2.0000      -0.598692       -16.2912
 130   2.0000      -0.586340       -15.9551
 131   2.0000      -0.583711       -15.8836
 132   2.0000      -0.576957       -15.6998
 133   2.0000      -0.572132       -15.5685
 134   2.0000      -0.565171       -15.3791
 135   2.0000      -0.554770       -15.0961
 136   2.0000      -0.552921       -15.0458
 137   2.0000      -0.551681       -15.0120
 138   2.0000      -0.548837       -14.9346
 139   2.0000      -0.547428       -14.8963
 140   2.0000      -0.546098       -14.8601
 141   2.0000      -0.544361       -14.8128
 142   2.0000      -0.531899       -14.4737
 143   2.0000      -0.529173       -14.3995
 144   2.0000      -0.528840       -14.3905
 145   2.0000      -0.523179       -14.2364
 146   2.0000      -0.522475       -14.2173
 147   2.0000      -0.521493       -14.1906
 148   2.0000      -0.519896       -14.1471
 149   2.0000      -0.516504       -14.0548
 150   2.0000      -0.514369       -13.9967
 151   2.0000      -0.512177       -13.9370
 152   2.0000      -0.509637       -13.8679
 153   2.0000      -0.507703       -13.8153
 154   2.0000      -0.507403       -13.8071
 155   2.0000      -0.502256       -13.6671
 156   2.0000      -0.499875       -13.6023
 157   2.0000      -0.497115       -13.5272
 158   2.0000      -0.495868       -13.4933
 159   2.0000      -0.494229       -13.4487
 160   2.0000      -0.492791       -13.4095
 161   2.0000      -0.489949       -13.3322
 162   2.0000      -0.481626       -13.1057
 163   2.0000      -0.476686       -12.9713
 164   2.0000      -0.476329       -12.9616
 165   2.0000      -0.475651       -12.9431
 166   2.0000      -0.469913       -12.7870
 167   2.0000      -0.467155       -12.7119
 168   2.0000      -0.465620       -12.6702
 169   2.0000      -0.462784       -12.5930
 170   2.0000      -0.457094       -12.4381
 171   2.0000      -0.456457       -12.4208
 172   2.0000      -0.454753       -12.3745
 173   2.0000      -0.453850       -12.3499
 174   2.0000      -0.451357       -12.2820
 175   2.0000      -0.448300       -12.1989
 176   2.0000      -0.447978       -12.1901
 177   2.0000      -0.442275       -12.0349
 178   2.0000      -0.441737       -12.0203
 179   2.0000      -0.440313       -11.9815
 180   2.0000      -0.438945       -11.9443
 181   2.0000      -0.435673       -11.8553
 182   2.0000      -0.432497       -11.7688
 183   2.0000      -0.429701       -11.6928
 184   2.0000      -0.422946       -11.5089
 185   2.0000      -0.421808       -11.4780
 186   2.0000      -0.421484       -11.4692
 187   2.0000      -0.414658       -11.2834
 188   2.0000      -0.409611       -11.1461
 189   2.0000      -0.405919       -11.0456
 190   2.0000      -0.404567       -11.0088
 191   2.0000      -0.379039       -10.3142
 192   2.0000      -0.359503        -9.7826
 193   2.0000      -0.350588        -9.5400
 194   2.0000      -0.349050        -9.4981
 195   2.0000      -0.348738        -9.4896
 196   2.0000      -0.346635        -9.4324
 197   2.0000      -0.345004        -9.3880
 198   2.0000      -0.340755        -9.2724
 199   2.0000      -0.339214        -9.2305
 200   2.0000      -0.336414        -9.1543
 201   2.0000      -0.332876        -9.0580
 202   2.0000      -0.332000        -9.0342
 203   2.0000      -0.327605        -8.9146
 204   2.0000      -0.316712        -8.6182
 205   2.0000      -0.314240        -8.5509
 206   2.0000      -0.297756        -8.1024
 207   2.0000      -0.261519        -7.1163
 208   2.0000      -0.249675        -6.7940
 209   0.0000      -0.105843        -2.8801
 210   0.0000      -0.075888        -2.0650
 211   0.0000      -0.063023        -1.7150
 212   0.0000      -0.056547        -1.5387
 213   0.0000      -0.049037        -1.3344

MULLIKEN ATOMIC CHARGES
-----------------------
   0 C :    0.028340
   1 C :   -0.130708
   2 S :    0.185271
   3 C :   -0.171553
   4 Cl:   -0.003907
   5 C :    0.080880
   6 C :    0.169104
   7 O :   -0.169179
   8 C :   -0.109380
   9 C :    0.305796
  10 C :   -0.334539
  11 C :   -0.196768
  12 N :    0.154758
  13 C :   -0.187783
  14 N :    0.157079
  15 C :   -0.006304
  16 C :   -0.043857
  17 S :    0.175198
  18 C :   -0.029789
  19 C :    0.020603
  20 C :   -0.006358
  21 C :    0.146760
  22 O :   -0.174258
  23 C :   -0.017782
  24 C :    0.076707
  25 C :   -0.076172
  26 S :    0.143892
  27 C :   -0.080663
  28 C :    0.009866
  29 C :    0.003433
  30 C :    0.154115
  31 O :   -0.177521
  32 C :    0.015436
  33 C :    0.002913
  34 C :    0.067755
  35 C :   -0.008399
  36 C :   -0.054506
  37 C :    0.041634
  38 N :   -0.046195
  39 C :   -0.005498
  40 C :    0.099226
  41 N :   -0.261149
  42 C :    0.110300
  43 C :   -0.005921
  44 C :    0.162644
  45 O :   -0.207030
  46 C :   -0.083311
  47 C :   -0.023288
  48 C :    0.133655
  49 O :   -0.183684
  50 N :   -0.269198
  51 C :    0.095860
  52 C :    0.003921
  53 C :    0.121430
  54 C :   -0.035810
  55 C :    0.014225
  56 H :    0.056100
  57 H :    0.013438
  58 H :    0.022398
  59 H :   -0.023976
  60 H :   -0.011468
  61 H :    0.012217
  62 H :   -0.009232
  63 H :   -0.013401
  64 H :    0.021555
  65 H :   -0.013144
  66 H :   -0.005179
  67 H :    0.012929
  68 H :    0.014771
  69 H :    0.010437
  70 H :    0.045227
  71 H :    0.028320
  72 H :    0.021835
  73 H :    0.026974
  74 H :    0.023451
  75 H :    0.045299
  76 H :    0.015436
  77 H :    0.023425
  78 H :    0.030184
  79 H :   -0.017557
  80 H :    0.057390
  81 H :    0.032285
Sum of atomic charges:   -0.0000000

LOEWDIN ATOMIC CHARGES
----------------------
   0 C :   -0.058132
   1 C :   -0.147740
   2 S :    0.474151
   3 C :   -0.272888
   4 Cl:    0.189458
   5 C :   -0.116424
   6 C :    0.082716
   7 O :   -0.161362
   8 C :   -0.105745
   9 C :    0.075708
  10 C :   -0.140421
  11 C :   -0.015133
  12 N :   -0.053573
  13 C :   -0.024595
  14 N :   -0.045895
  15 C :    0.061915
  16 C :   -0.185301
  17 S :    0.510143
  18 C :   -0.127783
  19 C :   -0.128989
  20 C :    0.025454
  21 C :    0.103891
  22 O :   -0.131053
  23 C :   -0.049056
  24 C :   -0.010532
  25 C :   -0.174950
  26 S :    0.462179
  27 C :   -0.120431
  28 C :   -0.120362
  29 C :   -0.024812
  30 C :    0.110388
  31 O :   -0.134222
  32 C :   -0.036016
  33 C :   -0.002494
  34 C :   -0.049868
  35 C :    0.019175
  36 C :   -0.056908
  37 C :    0.051329
  38 N :   -0.055149
  39 C :    0.042950
  40 C :    0.073724
  41 N :   -0.002731
  42 C :    0.035269
  43 C :   -0.061529
  44 C :    0.080554
  45 O :   -0.201027
  46 C :   -0.133140
  47 C :   -0.120514
  48 C :    0.080049
  49 O :   -0.190065
  50 N :   -0.005445
  51 C :    0.035272
  52 C :   -0.061364
  53 C :    0.088331
  54 C :   -0.054855
  55 C :    0.028492
  56 H :    0.038301
  57 H :    0.053530
  58 H :    0.045697
  59 H :   -0.006484
  60 H :    0.029981
  61 H :    0.029116
  62 H :    0.032146
  63 H :   -0.000182
  64 H :    0.038270
  65 H :    0.020779
  66 H :    0.031213
  67 H :    0.029569
  68 H :    0.027429
  69 H :    0.017604
  70 H :    0.037004
  71 H :    0.024684
  72 H :    0.030754
  73 H :    0.030663
  74 H :    0.022523
  75 H :    0.038078
  76 H :    0.022000
  77 H :    0.030601
  78 H :    0.032398
  79 H :    0.029928
  80 H :    0.033361
  81 H :    0.030389

  Mayer bond orders larger than 0.100000
B(  0-C ,  1-C ) :   1.5489 B(  0-C ,  5-C ) :   1.2256 B(  0-C ,  9-C ) :   0.9940
B(  1-C ,  2-S ) :   1.1584 B(  1-C , 56-H ) :   0.9538 B(  2-S ,  3-C ) :   1.1488
B(  3-C ,  4-Cl) :   1.1254 B(  3-C ,  5-C ) :   1.4743 B(  5-C ,  6-C ) :   0.9678
B(  6-C ,  7-O ) :   2.1490 B(  6-C ,  8-C ) :   0.9641 B(  8-C ,  9-C ) :   1.0842
B(  8-C , 15-C ) :   1.5285 B(  9-C , 10-C ) :   1.6395 B( 10-C , 11-C ) :   1.1502
B( 10-C , 13-C ) :   1.1404 B( 11-C , 12-N ) :   2.9885 B( 13-C , 14-N ) :   2.9622
B( 15-C , 16-C ) :   1.2468 B( 15-C , 57-H ) :   0.9413 B( 16-C , 17-S ) :   1.0705
B( 16-C , 20-C ) :   1.3850 B( 17-S , 18-C ) :   1.1429 B( 18-C , 19-C ) :   1.3208
B( 18-C , 23-C ) :   1.1887 B( 19-C , 20-C ) :   1.2812 B( 19-C , 21-C ) :   0.9883
B( 20-C , 58-H ) :   1.0086 B( 21-C , 22-O ) :   2.1917 B( 21-C , 59-H ) :   0.9605
B( 23-C , 24-C ) :   1.6621 B( 23-C , 60-H ) :   0.9719 B( 24-C , 25-C ) :   1.1290
B( 24-C , 61-H ) :   0.9606 B( 25-C , 26-S ) :   1.1021 B( 25-C , 29-C ) :   1.5025
B( 26-S , 27-C ) :   1.1600 B( 27-C , 28-C ) :   1.4153 B( 27-C , 32-C ) :   1.1680
B( 28-C , 29-C ) :   1.2315 B( 28-C , 30-C ) :   0.9973 B( 29-C , 62-H ) :   0.9912
B( 30-C , 31-O ) :   2.1250 B( 30-C , 63-H ) :   0.9626 B( 32-C , 33-C ) :   1.6532
B( 32-C , 64-H ) :   0.9528 B( 33-C , 34-C ) :   1.0676 B( 33-C , 65-H ) :   0.9809
B( 34-C , 35-C ) :   1.3448 B( 34-C , 39-C ) :   1.3219 B( 35-C , 36-C ) :   1.3738
B( 35-C , 66-H ) :   0.9982 B( 36-C , 37-C ) :   1.3534 B( 36-C , 40-C ) :   0.9656
B( 37-C , 38-N ) :   1.5480 B( 37-C , 67-H ) :   0.9876 B( 38-N , 39-C ) :   1.5732
B( 39-C , 68-H ) :   0.9845 B( 40-C , 41-N ) :   1.2005 B( 40-C , 47-C ) :   1.4766
B( 41-N , 42-C ) :   0.9508 B( 41-N , 44-C ) :   1.0368 B( 42-C , 43-C ) :   1.1167
B( 42-C , 69-H ) :   0.9481 B( 42-C , 70-H ) :   0.9273 B( 43-C , 71-H ) :   0.9680
B( 43-C , 72-H ) :   0.9668 B( 43-C , 73-H ) :   0.9651 B( 44-C , 45-O ) :   2.0449
B( 44-C , 46-C ) :   1.0000 B( 46-C , 47-C ) :   1.1889 B( 46-C , 53-C ) :   1.3929
B( 47-C , 48-C ) :   0.9589 B( 48-C , 49-O ) :   2.1609 B( 48-C , 50-N ) :   1.0257
B( 50-N , 51-C ) :   0.9460 B( 50-N , 53-C ) :   1.1675 B( 51-C , 52-C ) :   1.1211
B( 51-C , 74-H ) :   0.9507 B( 51-C , 75-H ) :   0.9273 B( 52-C , 76-H ) :   0.9686
B( 52-C , 77-H ) :   0.9677 B( 52-C , 78-H ) :   0.9638 B( 53-C , 54-C ) :   1.1225
B( 54-C , 55-C ) :   1.8910 B( 54-C , 79-H ) :   0.9544 B( 55-C , 80-H ) :   0.9275
B( 55-C , 81-H ) :   0.9450

-----------------------------------------------------------------------------
         ABSORPTION SPECTRUM VIA TRANSITION ELECTRIC DIPOLE MOMENTS
-----------------------------------------------------------------------------
State   Energy  Wavelength   fosc         T2         TX        TY        TZ
        (cm-1)    (nm)                  (au**2)     (au)      (au)      (au)
-----------------------------------------------------------------------------
   0   18736.5    533.7   1.447148195  25.42731   0.02000  -0.21186   5.03806
   1   22093.3    452.6   0.016161658   0.24082  -0.22333  -0.33421   0.28152
   2   23391.2    427.5   0.472603073   6.65149  -1.99035  -1.39978   0.85476
   3   25752.0    388.3   0.555351475   7.09959   2.40714  -0.20730  -1.12351
   4   27021.1    370.1   0.021539141   0.26242  -0.43550   0.17003  -0.20942
   5   27550.9    363.0   0.020854709   0.24920   0.38749   0.00455   0.31469
   6   28063.6    356.3   0.001105885   0.01297  -0.01780  -0.11234  -0.00597
   7   28625.7    349.3   0.050822156   0.58448   0.21898  -0.01887  -0.73224
   8   29861.6    334.9   0.001343179   0.01481   0.07710  -0.01565  -0.09284
   9   30008.4    333.2   0.090416862   0.99193   0.84235  -0.08370  -0.52477
  10   30582.6    327.0   0.218232617   2.34921  -1.46644   0.01267  -0.44566
  11   31321.0    319.3   0.026568008   0.27925  -0.47908   0.11148  -0.19315
  12   31397.7    318.5   0.000298064   0.00313  -0.04476  -0.02761  -0.01897
  13   31931.4    313.2   0.004781354   0.04930   0.17783   0.00817   0.13268
  14   31934.2    313.1   0.003511155   0.03620  -0.14996   0.00422  -0.11701
  15   32297.3    309.6   0.040425849   0.41207   0.45368  -0.01199   0.45398
  16   33385.1    299.5   0.061358130   0.60506   0.64150  -0.03807  -0.43827
  17   33575.5    297.8   0.049185180   0.48227  -0.57643  -0.00356   0.38727
  18   33970.5    294.4   0.000029815   0.00029  -0.00663  -0.01561   0.00113
  19   34252.4    292.0   0.001209433   0.01162  -0.02410  -0.02113   0.10294
  20   34465.8    290.1   0.013756317   0.13140   0.35668  -0.06323  -0.01341
  21   34888.7    286.6   0.032662939   0.30821   0.15551   0.06223  -0.52930
  22   35293.3    283.3   0.006055778   0.05649   0.15280   0.00299  -0.18202
  23   35443.4    282.1   0.002680590   0.02490  -0.15506  -0.01158  -0.02683
  24   35483.6    281.8   0.000937053   0.00869   0.08495  -0.02974   0.02436
  25   36305.7    275.4   0.000550332   0.00499   0.06864  -0.01661  -0.00163
  26   36836.3    271.5   0.094247775   0.84231   0.61740  -0.06409  -0.67603
  27   37419.8    267.2   0.003488584   0.03069  -0.11741  -0.09274  -0.09114
  28   37490.0    266.7   0.562563607   4.94005   2.05254  -0.13319  -0.84226
  29   37866.1    264.1   0.000050160   0.00044  -0.00942   0.00158   0.01857
  30   38412.3    260.3   0.182665867   1.56553  -1.23387  -0.00585   0.20753
  31   38785.9    257.8   0.033292728   0.28259   0.23394  -0.00810  -0.47728
  32   39235.9    254.9   0.034175017   0.28675   0.37215  -0.01673  -0.38467
  33   39761.8    251.5   0.034420489   0.28499  -0.27263   0.06324   0.45460
  34   39859.0    250.9   0.002204216   0.01821  -0.03081  -0.11795  -0.05784
  35   40214.2    248.7   0.040259219   0.32958   0.52620   0.07294  -0.21764

FINAL SINGLE POINT ENERGY     -3917.355985525281

DIPOLE MOMENT
-------------
                                X             Y             Z
Electronic contribution:    -30.36735      -6.74204     101.76984
Nuclear contribution   :     32.78429       6.68119    -103.18720
                        -----------------------------------------
Total Dipole Moment    :      2.41693      -0.06085      -1.41736
                        -----------------------------------------
Magnitude (a.u.)       :      2.80253
Magnitude (Debye)      :      7.12346

Rotational constants in cm-1:     0.001723     0.000413     0.000344
Rotational constants in MHz :    51.651113    12.391616    10.313292

                             ****ORCA TERMINATED NORMALLY****
TOTAL RUN TIME: 0 days 0 hours 5 minutes 39 seconds 759 msec
