                         Program Version 4.2.0 -  RELEASE  -
|  1> # ORCA input file
|  2> # SCF done       -141.152496934231          0.000583954439
|  3> ! CAM-B3LYP def2-SVP def2/J RIJCOSX Grid4 TightSCF
|  4> %maxcore 5000
|  5> %tddft
|  6>     Mode sTDDFT
|  7>     Ethresh 5.0
|  8>     maxcore 5000
|  9> end
| 10>
| 11> %pal
| 12>   nprocs 6
| 13>   end
| 14> * xyz 0 1
| 15>    C        8.34777         1.94937        -3.56625
| 16>    C        8.44888         0.70442        -2.97368
| 17>    C        7.41563        -0.22008        -3.14364
| 18>    C        6.32655         0.19369        -3.91849
| 19>    N        6.22594         1.37910        -4.48513
| 20>    C        7.21514         2.23989        -4.31356
| 21>    C        7.40892        -1.55394        -2.56515
| 22>    C        8.38594        -2.09748        -1.84593
| 23>    C        8.32813        -3.48565        -1.26375
| 24>    C        9.10175        -4.46384        -2.17048
| 25>    N        6.93833        -3.95742        -1.25410
| 26>    N        6.43747        -4.65590        -0.41156
| 27>    C        7.12832        -5.18524         0.78637
| 28>    C        8.27061        -4.30547         1.12326
| 29>    C        8.87258        -3.49585         0.11520
| 30>    N        9.80848        -2.78893         0.68047
| 31>    O        9.80950        -3.13645         1.97776
| 32>    N        8.86837        -4.05138         2.25138
| 33>    C        6.10247        -5.26264         1.92158
| 34>    C        7.62497        -6.55556         0.41309
| 35>    S        9.20107        -7.06673         0.87482
| 36>    C        8.96397        -8.66271         0.24314
| 37>    C        7.70802        -8.77198        -0.34727
| 38>    C        6.94042        -7.56329        -0.24712
| 39>    C        5.65062        -7.51331        -0.81539
| 40>    C        5.11475        -8.60761        -1.44495
| 41>    C        3.75090        -8.46999        -1.96231
| 42>    C        2.78920        -9.38081        -1.91392
| 43>    C        5.90241        -9.79342        -1.60370
| 44>    C        5.40112       -10.96116        -2.39883
| 45>    C        7.15956        -9.85307        -1.07130
| 46>    C       10.02647        -9.60679         0.43129
| 47>    C        9.89457       -10.93320         0.48293
| 48>    C       11.03127       -11.88501         0.73270
| 49>    C       11.09742       -12.21541         2.24016
| 50>    N       10.66295       -13.14772         0.06790
| 51>    N       11.43188       -13.94256        -0.40781
| 52>    C       12.90065       -13.81526        -0.40812
| 53>    C       13.26836       -12.38592        -0.30695
| 54>    C       12.35824       -11.43543         0.25107
| 55>    N       12.91311       -10.26063         0.16049
| 56>    O       14.10865       -10.44918        -0.42262
| 57>    N       14.32262       -11.73984        -0.71410
| 58>    C       13.42981       -14.46245        -1.69075
| 59>    C       13.38045       -14.60554         0.80023
| 60>    C       12.74006       -15.78122         1.16674
| 61>    C       13.18599       -16.50089         2.27601
| 62>    C       14.28063       -15.97133         2.96691
| 63>    N       14.89950       -14.86355         2.61448
| 64>    C       14.47080       -14.19418         1.55980
| 65>    C       12.50379       -17.73065         2.65478
| 66>    C       12.86110       -18.55795         3.62906
| 67>    H        9.13109         2.68263        -3.44961
| 68>    H        9.31728         0.45568        -2.38241
| 69>    H        5.49146        -0.47535        -4.08701
| 70>    H        7.08951         3.20068        -4.79494
| 71>    H        6.51407        -2.13394        -2.74815
| 72>    H        9.30572        -1.57956        -1.61925
| 73>    H        8.62949        -4.48860        -3.14912
| 74>    H        9.09433        -5.46715        -1.74688
| 75>    H       10.12982        -4.12568        -2.27065
| 76>    H        5.69411        -4.27399         2.11766
| 77>    H        6.59137        -5.62847         2.82051
| 78>    H        5.29506        -5.93303         1.64341
| 79>    H        5.09176        -6.59213        -0.75137
| 80>    H        3.52492        -7.48685        -2.35829
| 81>    H        2.93166       -10.35491        -1.48033
| 82>    H        1.80147        -9.16875        -2.28734
| 83>    H        4.74716       -10.63560        -3.20384
| 84>    H        4.84205       -11.64645        -1.76179
| 85>    H        6.23818       -11.51310        -2.82138
| 86>    H        7.76564       -10.73028        -1.23583
| 87>    H       11.00561        -9.17217         0.58809
| 88>    H        8.93756       -11.42345         0.40242
| 89>    H       10.15094       -12.64861         2.55351
| 90>    H       11.27851       -11.29946         2.79640
| 91>    H       11.89813       -12.92544         2.44561
| 92>    H       13.05684       -13.92586        -2.56010
| 93>    H       13.09641       -15.49501        -1.74294
| 94>    H       14.51589       -14.42577        -1.69210
| 95>    H       11.89100       -16.13073         0.59667
| 96>    H       14.67895       -16.45614         3.84675
| 97>    H       15.02810       -13.30023         1.31498
| 98>    H       11.62916       -17.95960         2.05745
| 99>    H       13.72323       -18.38874         4.25062
|100>    H       12.29481       -19.44862         3.83904
|101> *
|102>
|103>                          ****END OF INPUT****

CARTESIAN COORDINATES (ANGSTROEM)
---------------------------------
  C      8.347770    1.949370   -3.566250
  C      8.448880    0.704420   -2.973680
  C      7.415630   -0.220080   -3.143640
  C      6.326550    0.193690   -3.918490
  N      6.225940    1.379100   -4.485130
  C      7.215140    2.239890   -4.313560
  C      7.408920   -1.553940   -2.565150
  C      8.385940   -2.097480   -1.845930
  C      8.328130   -3.485650   -1.263750
  C      9.101750   -4.463840   -2.170480
  N      6.938330   -3.957420   -1.254100
  N      6.437470   -4.655900   -0.411560
  C      7.128320   -5.185240    0.786370
  C      8.270610   -4.305470    1.123260
  C      8.872580   -3.495850    0.115200
  N      9.808480   -2.788930    0.680470
  O      9.809500   -3.136450    1.977760
  N      8.868370   -4.051380    2.251380
  C      6.102470   -5.262640    1.921580
  C      7.624970   -6.555560    0.413090
  S      9.201070   -7.066730    0.874820
  C      8.963970   -8.662710    0.243140
  C      7.708020   -8.771980   -0.347270
  C      6.940420   -7.563290   -0.247120
  C      5.650620   -7.513310   -0.815390
  C      5.114750   -8.607610   -1.444950
  C      3.750900   -8.469990   -1.962310
  C      2.789200   -9.380810   -1.913920
  C      5.902410   -9.793420   -1.603700
  C      5.401120  -10.961160   -2.398830
  C      7.159560   -9.853070   -1.071300
  C     10.026470   -9.606790    0.431290
  C      9.894570  -10.933200    0.482930
  C     11.031270  -11.885010    0.732700
  C     11.097420  -12.215410    2.240160
  N     10.662950  -13.147720    0.067900
  N     11.431880  -13.942560   -0.407810
  C     12.900650  -13.815260   -0.408120
  C     13.268360  -12.385920   -0.306950
  C     12.358240  -11.435430    0.251070
  N     12.913110  -10.260630    0.160490
  O     14.108650  -10.449180   -0.422620
  N     14.322620  -11.739840   -0.714100
  C     13.429810  -14.462450   -1.690750
  C     13.380450  -14.605540    0.800230
  C     12.740060  -15.781220    1.166740
  C     13.185990  -16.500890    2.276010
  C     14.280630  -15.971330    2.966910
  N     14.899500  -14.863550    2.614480
  C     14.470800  -14.194180    1.559800
  C     12.503790  -17.730650    2.654780
  C     12.861100  -18.557950    3.629060
  H      9.131090    2.682630   -3.449610
  H      9.317280    0.455680   -2.382410
  H      5.491460   -0.475350   -4.087010
  H      7.089510    3.200680   -4.794940
  H      6.514070   -2.133940   -2.748150
  H      9.305720   -1.579560   -1.619250
  H      8.629490   -4.488600   -3.149120
  H      9.094330   -5.467150   -1.746880
  H     10.129820   -4.125680   -2.270650
  H      5.694110   -4.273990    2.117660
  H      6.591370   -5.628470    2.820510
  H      5.295060   -5.933030    1.643410
  H      5.091760   -6.592130   -0.751370
  H      3.524920   -7.486850   -2.358290
  H      2.931660  -10.354910   -1.480330
  H      1.801470   -9.168750   -2.287340
  H      4.747160  -10.635600   -3.203840
  H      4.842050  -11.646450   -1.761790
  H      6.238180  -11.513100   -2.821380
  H      7.765640  -10.730280   -1.235830
  H     11.005610   -9.172170    0.588090
  H      8.937560  -11.423450    0.402420
  H     10.150940  -12.648610    2.553510
  H     11.278510  -11.299460    2.796400
  H     11.898130  -12.925440    2.445610
  H     13.056840  -13.925860   -2.560100
  H     13.096410  -15.495010   -1.742940
  H     14.515890  -14.425770   -1.692100
  H     11.891000  -16.130730    0.596670
  H     14.678950  -16.456140    3.846750
  H     15.028100  -13.300230    1.314980
  H     11.629160  -17.959600    2.057450
  H     13.723230  -18.388740    4.250620
  H     12.294810  -19.448620    3.839040

 Total Charge           Charge          ....    0
 Multiplicity           Mult            ....    1
 Number of Electrons    NEL             ....  370
 Basis Dimension        Dim             ....  902

ORBITAL ENERGIES
----------------

  NO   OCC          E(Eh)            E(eV)
   0   2.0000     -88.969181     -2420.9745
   1   2.0000     -19.345546      -526.4191
   2   2.0000     -19.342378      -526.3329
   3   2.0000     -14.485544      -394.1717
   4   2.0000     -14.485272      -394.1643
   5   2.0000     -14.482903      -394.0998
   6   2.0000     -14.481073      -394.0500
   7   2.0000     -14.473285      -393.8381
   8   2.0000     -14.472730      -393.8230
   9   2.0000     -14.471550      -393.7909
  10   2.0000     -14.470414      -393.7600
  11   2.0000     -14.406071      -392.0091
  12   2.0000     -14.392572      -391.6418
  13   2.0000     -10.343146      -281.4513
  14   2.0000     -10.341700      -281.4120
  15   2.0000     -10.338852      -281.3345
  16   2.0000     -10.336134      -281.2605
  17   2.0000     -10.331062      -281.1225
  18   2.0000     -10.329708      -281.0856
  19   2.0000     -10.326530      -280.9992
  20   2.0000     -10.325693      -280.9764
  21   2.0000     -10.307498      -280.4813
  22   2.0000     -10.306972      -280.4670
  23   2.0000     -10.306412      -280.4517
  24   2.0000     -10.299808      -280.2720
  25   2.0000     -10.299181      -280.2549
  26   2.0000     -10.294755      -280.1345
  27   2.0000     -10.294609      -280.1306
  28   2.0000     -10.292574      -280.0752
  29   2.0000     -10.291189      -280.0375
  30   2.0000     -10.283657      -279.8325
  31   2.0000     -10.282521      -279.8016
  32   2.0000     -10.282337      -279.7966
  33   2.0000     -10.282208      -279.7931
  34   2.0000     -10.279253      -279.7127
  35   2.0000     -10.278785      -279.7000
  36   2.0000     -10.278574      -279.6942
  37   2.0000     -10.278219      -279.6846
  38   2.0000     -10.278113      -279.6817
  39   2.0000     -10.277762      -279.6721
  40   2.0000     -10.276558      -279.6394
  41   2.0000     -10.276534      -279.6387
  42   2.0000     -10.274505      -279.5835
  43   2.0000     -10.273706      -279.5618
  44   2.0000     -10.273369      -279.5526
  45   2.0000     -10.272926      -279.5405
  46   2.0000     -10.271521      -279.5023
  47   2.0000     -10.269051      -279.4351
  48   2.0000     -10.265945      -279.3506
  49   2.0000     -10.264681      -279.3162
  50   2.0000     -10.260201      -279.1943
  51   2.0000     -10.257401      -279.1181
  52   2.0000      -8.063424      -219.4169
  53   2.0000      -6.032321      -164.1478
  54   2.0000      -6.028176      -164.0350
  55   2.0000      -6.026620      -163.9927
  56   2.0000      -1.302071       -35.4312
  57   2.0000      -1.298855       -35.3436
  58   2.0000      -1.159116       -31.5411
  59   2.0000      -1.156535       -31.4709
  60   2.0000      -1.042556       -28.3694
  61   2.0000      -1.027569       -27.9616
  62   2.0000      -1.016413       -27.6580
  63   2.0000      -1.014676       -27.6107
  64   2.0000      -0.999589       -27.2002
  65   2.0000      -0.989539       -26.9267
  66   2.0000      -0.983294       -26.7568
  67   2.0000      -0.956505       -26.0278
  68   2.0000      -0.949283       -25.8313
  69   2.0000      -0.937034       -25.4980
  70   2.0000      -0.919578       -25.0230
  71   2.0000      -0.911461       -24.8021
  72   2.0000      -0.906067       -24.6553
  73   2.0000      -0.892727       -24.2923
  74   2.0000      -0.870843       -23.6969
  75   2.0000      -0.868680       -23.6380
  76   2.0000      -0.859881       -23.3985
  77   2.0000      -0.857547       -23.3350
  78   2.0000      -0.849016       -23.1029
  79   2.0000      -0.828294       -22.5390
  80   2.0000      -0.817709       -22.2510
  81   2.0000      -0.816073       -22.2065
  82   2.0000      -0.793020       -21.5792
  83   2.0000      -0.782318       -21.2880
  84   2.0000      -0.777344       -21.1526
  85   2.0000      -0.777098       -21.1459
  86   2.0000      -0.772818       -21.0294
  87   2.0000      -0.764790       -20.8110
  88   2.0000      -0.759941       -20.6791
  89   2.0000      -0.751167       -20.4403
  90   2.0000      -0.736878       -20.0515
  91   2.0000      -0.726785       -19.7768
  92   2.0000      -0.721404       -19.6304
  93   2.0000      -0.711803       -19.3691
  94   2.0000      -0.707865       -19.2620
  95   2.0000      -0.701186       -19.0803
  96   2.0000      -0.685111       -18.6428
  97   2.0000      -0.678993       -18.4763
  98   2.0000      -0.674582       -18.3563
  99   2.0000      -0.664865       -18.0919
 100   2.0000      -0.655416       -17.8348
 101   2.0000      -0.653794       -17.7906
 102   2.0000      -0.653344       -17.7784
 103   2.0000      -0.633076       -17.2269
 104   2.0000      -0.626140       -17.0381
 105   2.0000      -0.621110       -16.9013
 106   2.0000      -0.617826       -16.8119
 107   2.0000      -0.612148       -16.6574
 108   2.0000      -0.601753       -16.3745
 109   2.0000      -0.600371       -16.3369
 110   2.0000      -0.597174       -16.2499
 111   2.0000      -0.585141       -15.9225
 112   2.0000      -0.582606       -15.8535
 113   2.0000      -0.579753       -15.7759
 114   2.0000      -0.570291       -15.5184
 115   2.0000      -0.566316       -15.4102
 116   2.0000      -0.564382       -15.3576
 117   2.0000      -0.549954       -14.9650
 118   2.0000      -0.547750       -14.9050
 119   2.0000      -0.546380       -14.8678
 120   2.0000      -0.544152       -14.8071
 121   2.0000      -0.540541       -14.7089
 122   2.0000      -0.536722       -14.6049
 123   2.0000      -0.530521       -14.4362
 124   2.0000      -0.527364       -14.3503
 125   2.0000      -0.521056       -14.1787
 126   2.0000      -0.518505       -14.1092
 127   2.0000      -0.513718       -13.9790
 128   2.0000      -0.509534       -13.8651
 129   2.0000      -0.507049       -13.7975
 130   2.0000      -0.505198       -13.7471
 131   2.0000      -0.504105       -13.7174
 132   2.0000      -0.502661       -13.6781
 133   2.0000      -0.499106       -13.5814
 134   2.0000      -0.491526       -13.3751
 135   2.0000      -0.490099       -13.3363
 136   2.0000      -0.488465       -13.2918
 137   2.0000      -0.486656       -13.2426
 138   2.0000      -0.485404       -13.2085
 139   2.0000      -0.482507       -13.1297
 140   2.0000      -0.482180       -13.1208
 141   2.0000      -0.478923       -13.0322
 142   2.0000      -0.475712       -12.9448
 143   2.0000      -0.474410       -12.9094
 144   2.0000      -0.471223       -12.8226
 145   2.0000      -0.466341       -12.6898
 146   2.0000      -0.466053       -12.6819
 147   2.0000      -0.460181       -12.5222
 148   2.0000      -0.458439       -12.4748
 149   2.0000      -0.456177       -12.4132
 150   2.0000      -0.453282       -12.3344
 151   2.0000      -0.447591       -12.1796
 152   2.0000      -0.444779       -12.1030
 153   2.0000      -0.441841       -12.0231
 154   2.0000      -0.439368       -11.9558
 155   2.0000      -0.433474       -11.7954
 156   2.0000      -0.431312       -11.7366
 157   2.0000      -0.429766       -11.6945
 158   2.0000      -0.425603       -11.5813
 159   2.0000      -0.418532       -11.3888
 160   2.0000      -0.412611       -11.2277
 161   2.0000      -0.405816       -11.0428
 162   2.0000      -0.402949       -10.9648
 163   2.0000      -0.401358       -10.9215
 164   2.0000      -0.400380       -10.8949
 165   2.0000      -0.394908       -10.7460
 166   2.0000      -0.394611       -10.7379
 167   2.0000      -0.391205       -10.6452
 168   2.0000      -0.388209       -10.5637
 169   2.0000      -0.387961       -10.5569
 170   2.0000      -0.379267       -10.3204
 171   2.0000      -0.376443       -10.2435
 172   2.0000      -0.370355       -10.0779
 173   2.0000      -0.356544        -9.7021
 174   2.0000      -0.351496        -9.5647
 175   2.0000      -0.344596        -9.3769
 176   2.0000      -0.329144        -8.9565
 177   2.0000      -0.324142        -8.8204
 178   2.0000      -0.317658        -8.6439
 179   2.0000      -0.306472        -8.3395
 180   2.0000      -0.296811        -8.0767
 181   2.0000      -0.295764        -8.0481
 182   2.0000      -0.295360        -8.0372
 183   2.0000      -0.292836        -7.9685
 184   2.0000      -0.245852        -6.6900
 185   0.0000      -0.042466        -1.1556
 186   0.0000      -0.020235        -0.5506
 187   0.0000      -0.014076        -0.3830
 188   0.0000      -0.009585        -0.2608
 189   0.0000      -0.007578        -0.2062

MULLIKEN ATOMIC CHARGES
-----------------------
   0 C :    0.013111
   1 C :    0.023070
   2 C :    0.052814
   3 C :   -0.019643
   4 N :   -0.063777
   5 C :    0.020994
   6 C :    0.043151
   7 C :   -0.047103
   8 C :   -0.064160
   9 C :    0.152532
  10 N :   -0.092309
  11 N :   -0.089733
  12 C :   -0.005074
  13 C :   -0.145138
  14 C :   -0.063571
  15 N :    0.044957
  16 O :   -0.125312
  17 N :    0.057313
  18 C :    0.161909
  19 C :   -0.219672
  20 S :    0.178184
  21 C :   -0.134789
  22 C :    0.132233
  23 C :    0.127939
  24 C :   -0.107941
  25 C :    0.083812
  26 C :   -0.048853
  27 C :   -0.015667
  28 C :   -0.058792
  29 C :    0.083597
  30 C :   -0.113843
  31 C :    0.082065
  32 C :   -0.059493
  33 C :   -0.087027
  34 C :    0.152121
  35 N :   -0.106227
  36 N :   -0.097413
  37 C :   -0.021123
  38 C :   -0.099334
  39 C :   -0.062183
  40 N :    0.046301
  41 O :   -0.120855
  42 N :    0.039362
  43 C :    0.162728
  44 C :   -0.061792
  45 C :   -0.014405
  46 C :    0.069801
  47 C :   -0.016160
  48 N :   -0.042922
  49 C :    0.010663
  50 C :   -0.000407
  51 C :   -0.006771
  52 H :   -0.006331
  53 H :   -0.011796
  54 H :   -0.004382
  55 H :    0.002135
  56 H :    0.003279
  57 H :    0.013500
  58 H :    0.032741
  59 H :    0.031388
  60 H :    0.026941
  61 H :    0.018550
  62 H :    0.031435
  63 H :    0.024853
  64 H :   -0.012830
  65 H :    0.008470
  66 H :    0.014134
  67 H :    0.022746
  68 H :    0.029933
  69 H :    0.031405
  70 H :    0.012911
  71 H :   -0.038397
  72 H :    0.011672
  73 H :    0.010103
  74 H :    0.029948
  75 H :    0.032786
  76 H :    0.032752
  77 H :    0.021951
  78 H :    0.019724
  79 H :    0.033796
  80 H :    0.005786
  81 H :   -0.004972
  82 H :    0.008463
  83 H :   -0.009956
  84 H :    0.021771
  85 H :    0.028325
Sum of atomic charges:    0.0000000

LOEWDIN ATOMIC CHARGES
----------------------
   0 C :   -0.042788
   1 C :    0.013426
   2 C :   -0.048966
   3 C :    0.019517
   4 N :   -0.070483
   5 C :    0.017373
   6 C :   -0.013179
   7 C :   -0.018624
   8 C :   -0.038247
   9 C :   -0.020815
  10 N :    0.003634
  11 N :   -0.002683
  12 C :   -0.045204
  13 C :   -0.083556
  14 C :   -0.061124
  15 N :   -0.015552
  16 O :    0.046244
  17 N :   -0.010225
  18 C :   -0.024306
  19 C :   -0.198939
  20 S :    0.497912
  21 C :   -0.185996
  22 C :   -0.040256
  23 C :   -0.048427
  24 C :   -0.013367
  25 C :   -0.026829
  26 C :   -0.018814
  27 C :   -0.043143
  28 C :   -0.012353
  29 C :   -0.046379
  30 C :   -0.029949
  31 C :   -0.041054
  32 C :   -0.028353
  33 C :   -0.040360
  34 C :   -0.019535
  35 N :   -0.005018
  36 N :   -0.010977
  37 C :   -0.032716
  38 C :   -0.063625
  39 C :   -0.053232
  40 N :   -0.012108
  41 O :    0.045908
  42 N :   -0.011557
  43 C :   -0.022789
  44 C :   -0.044883
  45 C :    0.009618
  46 C :   -0.042640
  47 C :    0.029675
  48 N :   -0.060733
  49 C :    0.009531
  50 C :   -0.023117
  51 C :   -0.029617
  52 H :    0.031931
  53 H :    0.030248
  54 H :    0.019947
  55 H :    0.020515
  56 H :    0.031006
  57 H :    0.027742
  58 H :    0.035599
  59 H :    0.026617
  60 H :    0.036501
  61 H :    0.030514
  62 H :    0.036615
  63 H :    0.033922
  64 H :    0.026265
  65 H :    0.032843
  66 H :    0.020587
  67 H :    0.025347
  68 H :    0.032758
  69 H :    0.034495
  70 H :    0.030393
  71 H :    0.025913
  72 H :    0.029113
  73 H :    0.028252
  74 H :    0.035027
  75 H :    0.038304
  76 H :    0.028928
  77 H :    0.031564
  78 H :    0.032423
  79 H :    0.037829
  80 H :    0.033003
  81 H :    0.020451
  82 H :    0.022600
  83 H :    0.030269
  84 H :    0.023233
  85 H :    0.028926

  Mayer bond orders larger than 0.100000
B(  0-C ,  1-C ) :   1.4376 B(  0-C ,  5-C ) :   1.3701 B(  0-C , 52-H ) :   0.9726
B(  1-C ,  2-C ) :   1.3836 B(  1-C , 53-H ) :   0.9832 B(  2-C ,  3-C ) :   1.3365
B(  2-C ,  6-C ) :   1.0316 B(  3-C ,  4-N ) :   1.5648 B(  3-C , 54-H ) :   0.9873
B(  4-N ,  5-C ) :   1.5496 B(  5-C , 55-H ) :   0.9813 B(  6-C ,  7-C ) :   1.8557
B(  6-C , 56-H ) :   0.9672 B(  7-C ,  8-C ) :   0.9743 B(  7-C , 57-H ) :   0.9644
B(  8-C ,  9-C ) :   1.0551 B(  8-C , 10-N ) :   0.9592 B(  8-C , 14-C ) :   0.9181
B(  9-C , 58-H ) :   0.9548 B(  9-C , 59-H ) :   0.9464 B(  9-C , 60-H ) :   0.9534
B( 10-N , 11-N ) :   1.8716 B( 11-N , 12-C ) :   0.9213 B( 12-C , 13-C ) :   0.9401
B( 12-C , 18-C ) :   1.0671 B( 12-C , 19-C ) :   0.9245 B( 13-C , 14-C ) :   1.2088
B( 13-C , 17-N ) :   1.7175 B( 14-C , 15-N ) :   1.7343 B( 15-N , 16-O ) :   1.0341
B( 15-N , 17-N ) :   0.1501 B( 16-O , 17-N ) :   1.0422 B( 18-C , 61-H ) :   0.9511
B( 18-C , 62-H ) :   0.9528 B( 18-C , 63-H ) :   0.9559 B( 19-C , 20-S ) :   1.1864
B( 19-C , 21-C ) :   0.1322 B( 19-C , 23-C ) :   1.4261 B( 20-S , 21-C ) :   1.1526
B( 21-C , 22-C ) :   1.3946 B( 21-C , 31-C ) :   1.0739 B( 22-C , 23-C ) :   1.2003
B( 22-C , 30-C ) :   1.1676 B( 23-C , 24-C ) :   1.1761 B( 24-C , 25-C ) :   1.5029
B( 24-C , 64-H ) :   0.9862 B( 25-C , 26-C ) :   1.0230 B( 25-C , 28-C ) :   1.1943
B( 26-C , 27-C ) :   1.9667 B( 26-C , 65-H ) :   0.9649 B( 27-C , 66-H ) :   0.9624
B( 27-C , 67-H ) :   0.9499 B( 28-C , 29-C ) :   1.0728 B( 28-C , 30-C ) :   1.5651
B( 29-C , 68-H ) :   0.9469 B( 29-C , 69-H ) :   0.9470 B( 29-C , 70-H ) :   0.9539
B( 30-C , 71-H ) :   0.9924 B( 31-C , 32-C ) :   1.8053 B( 31-C , 72-H ) :   0.9249
B( 32-C , 33-C ) :   0.9664 B( 32-C , 73-H ) :   0.9806 B( 33-C , 34-C ) :   1.0354
B( 33-C , 35-N ) :   0.9115 B( 33-C , 39-C ) :   0.9445 B( 34-C , 74-H ) :   0.9493
B( 34-C , 75-H ) :   0.9587 B( 34-C , 76-H ) :   0.9475 B( 35-N , 36-N ) :   1.8549
B( 36-N , 37-C ) :   0.9412 B( 37-C , 38-C ) :   0.9499 B( 37-C , 43-C ) :   1.0575
B( 37-C , 44-C ) :   0.9134 B( 38-C , 39-C ) :   1.2038 B( 38-C , 42-N ) :   1.6831
B( 39-C , 40-N ) :   1.7186 B( 40-N , 41-O ) :   1.0354 B( 40-N , 42-N ) :   0.1498
B( 41-O , 42-N ) :   1.0384 B( 43-C , 77-H ) :   0.9534 B( 43-C , 78-H ) :   0.9537
B( 43-C , 79-H ) :   0.9546 B( 44-C , 45-C ) :   1.4077 B( 44-C , 49-C ) :   1.4017
B( 45-C , 46-C ) :   1.3606 B( 45-C , 80-H ) :   0.9913 B( 46-C , 47-C ) :   1.3279
B( 46-C , 50-C ) :   1.0555 B( 47-C , 48-N ) :   1.5857 B( 47-C , 81-H ) :   0.9859
B( 48-N , 49-C ) :   1.5439 B( 49-C , 82-H ) :   0.9730 B( 50-C , 51-C ) :   1.9562
B( 50-C , 83-H ) :   0.9704 B( 51-C , 84-H ) :   0.9508 B( 51-C , 85-H ) :   0.9489

-----------------------------------------------------------------------------
         ABSORPTION SPECTRUM VIA TRANSITION ELECTRIC DIPOLE MOMENTS
-----------------------------------------------------------------------------
State   Energy  Wavelength   fosc         T2         TX        TY        TZ
        (cm-1)    (nm)                  (au**2)     (au)      (au)      (au)
-----------------------------------------------------------------------------
   0   26788.7    373.3   0.170432153   2.09448  -0.66971   1.27345  -0.15584
   1   28443.0    351.6   0.195116581   2.25836   0.80458  -1.26901  -0.02537
   2   29667.4    337.1   0.006421355   0.07126  -0.07990  -0.21785   0.13196
   3   32351.4    309.1   0.002571372   0.02617   0.02100  -0.15088  -0.05441
   4   33179.3    301.4   0.007677651   0.07618   0.14975   0.05735   0.22464
   5   33712.7    296.6   0.002543199   0.02483   0.07795  -0.13590  -0.01701
   6   34438.4    290.4   0.002420625   0.02314  -0.01112   0.14698   0.03758
   7   34992.4    285.8   0.051242715   0.48210   0.47786   0.41833   0.28061
   8   35485.0    281.8   0.010284265   0.09541  -0.03956  -0.04953  -0.30231
   9   37634.4    265.7   0.020023646   0.17516   0.20253   0.12697  -0.34354
  10   38481.4    259.9   0.005222811   0.04468   0.16801   0.11494   0.05695
  11   38992.3    256.5   0.018791812   0.15866   0.26032   0.29888  -0.03955
  12   39077.5    255.9   0.055754049   0.46971   0.41533  -0.32607   0.43690
  13   39499.4    253.2   0.128270104   1.06908  -0.89382  -0.18086  -0.48730
  14   40209.5    248.7   0.383982605   3.14382   1.52127   0.52409   0.74490

FINAL SINGLE POINT ENERGY     -2599.518930663257

DIPOLE MOMENT
-------------
                                X             Y             Z
Electronic contribution:     17.75662      24.87028       7.80621
Nuclear contribution   :    -18.14516     -26.83635      -7.72926
                        -----------------------------------------
Total Dipole Moment    :     -0.38854      -1.96608       0.07695
                        -----------------------------------------
Magnitude (a.u.)       :      2.00558
Magnitude (Debye)      :      5.09778

Rotational constants in cm-1:     0.003382     0.000646     0.000598
Rotational constants in MHz :   101.401118    19.359716    17.925830

                             ****ORCA TERMINATED NORMALLY****
TOTAL RUN TIME: 0 days 0 hours 6 minutes 2 seconds 614 msec
