                         Program Version 4.2.0 -  RELEASE  -
|  1> # ORCA input file
|  2> # SCF done       -143.775298981853          0.000190272619
|  3> ! CAM-B3LYP def2-SVP def2/J RIJCOSX Grid4 TightSCF
|  4> %maxcore 5000
|  5> %tddft
|  6>     Mode sTDDFT
|  7>     Ethresh 5.0
|  8>     maxcore 5000
|  9> end
| 10>
| 11> %pal
| 12>   nprocs 6
| 13>   end
| 14> * xyz 0 1
| 15>    C        0.24036        11.25837         6.07339
| 16>    S        0.12430         9.67406         5.44648
| 17>    C        1.27328        10.04977         4.18145
| 18>    C        1.70757        11.35965         4.28298
| 19>    C        1.10669        12.04213         5.36916
| 20>    C        1.42015        13.46717         5.69560
| 21>    S       -0.07239        14.37962         6.26259
| 22>    C        2.07932        14.16771         4.51418
| 23>    C        3.23268        13.31278         3.99990
| 24>    C        2.70239        12.01839         3.38486
| 25>    C        1.62377         9.04433         3.24186
| 26>    S        2.51520         9.40764         1.76517
| 27>    C        2.50934         7.75303         1.25538
| 28>    C        1.87096         6.97177         2.15242
| 29>    C        1.35174         7.69086         3.28063
| 30>    C        0.72907         6.75476         4.15516
| 31>    C        0.85083         5.48095         3.64878
| 32>    C        1.56571         5.53385         2.33135
| 33>    O        1.82500         4.62198         1.58266
| 34>    C        0.40888         4.30212         4.29696
| 35>    C        0.72575         3.03636         3.90887
| 36>    C        0.32767         1.91499         4.67408
| 37>    N       -0.41697         2.02561         5.77031
| 38>    C       -0.46058         0.80231         6.31960
| 39>    C        0.34099        -0.15945         5.54556
| 40>    C        0.29735        -1.49576         6.16352
| 41>    O        0.85387        -2.51055         5.80693
| 42>    C       -0.59290        -1.27754         7.31938
| 43>    C       -1.02326         0.13319         7.38306
| 44>    N       -1.85579         0.33367         8.43214
| 45>    C       -1.97509        -0.84270         9.00310
| 46>    C       -1.22301        -1.89355         8.35461
| 47>    C        0.80529         0.52480         4.45758
| 48>    C        1.62511         0.06399         3.38825
| 49>    S        2.86812        -1.14374         3.70765
| 50>    C        3.37759        -1.14633         2.05892
| 51>    C        2.62986        -0.30478         1.30626
| 52>    C        1.62040         0.38836         2.05123
| 53>    C        0.82045         1.14906         1.13691
| 54>    C        1.29657         0.98364        -0.13606
| 55>    C        2.50149         0.08456        -0.11091
| 56>    O        3.18353        -0.24099        -1.05275
| 57>    C        0.80131         1.46460        -1.37753
| 58>    C       -0.36688         2.12301        -1.55519
| 59>    C       -0.88257         2.50510        -2.82272
| 60>    S        0.02555         2.26506        -4.29218
| 61>    C       -1.27209         2.87052        -5.23622
| 62>    C       -2.34871         3.24020        -4.48596
| 63>    C       -2.12768         3.04362        -3.10135
| 64>    C       -3.17160         3.33894        -2.08314
| 65>    S       -3.79719         1.75719        -1.33519
| 66>    C       -4.32273         4.15942        -2.65837
| 67>    C       -4.75441         3.63948        -4.02531
| 68>    C       -3.61889         3.81478        -5.03031
| 69>    H       -0.34388        11.53839         6.92775
| 70>    H        2.07808        13.50719         6.57046
| 71>    H       -0.75875        14.24190         5.12957
| 72>    H        2.43413        15.15067         4.82605
| 73>    H        1.34594        14.30920         3.71603
| 74>    H        3.90501        13.07794         4.82783
| 75>    H        3.80120        13.86380         3.25024
| 76>    H        3.53258        11.33764         3.18196
| 77>    H        2.22430        12.23573         2.42367
| 78>    H        2.98863         7.48486         0.33464
| 79>    H        0.25648         6.99830         5.08990
| 80>    H       -0.18574         4.42094         5.19433
| 81>    H        1.34317         2.86863         3.03967
| 82>    H       -2.58850        -0.95964         9.87979
| 83>    H       -1.19269        -2.92059         8.66059
| 84>    H        4.18686        -1.78100         1.75462
| 85>    H       -0.03686         1.73325         1.41962
| 86>    H        1.41196         1.22032        -2.23898
| 87>    H       -0.99153         2.34421        -0.70112
| 88>    H       -1.17013         2.91997        -6.30241
| 89>    H       -2.74382         3.85025        -1.21638
| 90>    H       -4.04793         1.13992        -2.48630
| 91>    H       -3.99283         5.19736        -2.75644
| 92>    H       -5.16097         4.13527        -1.96014
| 93>    H       -5.63768         4.18186        -4.36565
| 94>    H       -5.02221         2.58295        -3.94965
| 95>    H       -3.46988         4.88197        -5.22563
| 96>    H       -3.86634         3.33954        -5.98167
| 97> *
| 98>
| 99>                          ****END OF INPUT****

CARTESIAN COORDINATES (ANGSTROEM)
---------------------------------
  C      0.240360   11.258370    6.073390
  S      0.124300    9.674060    5.446480
  C      1.273280   10.049770    4.181450
  C      1.707570   11.359650    4.282980
  C      1.106690   12.042130    5.369160
  C      1.420150   13.467170    5.695600
  S     -0.072390   14.379620    6.262590
  C      2.079320   14.167710    4.514180
  C      3.232680   13.312780    3.999900
  C      2.702390   12.018390    3.384860
  C      1.623770    9.044330    3.241860
  S      2.515200    9.407640    1.765170
  C      2.509340    7.753030    1.255380
  C      1.870960    6.971770    2.152420
  C      1.351740    7.690860    3.280630
  C      0.729070    6.754760    4.155160
  C      0.850830    5.480950    3.648780
  C      1.565710    5.533850    2.331350
  O      1.825000    4.621980    1.582660
  C      0.408880    4.302120    4.296960
  C      0.725750    3.036360    3.908870
  C      0.327670    1.914990    4.674080
  N     -0.416970    2.025610    5.770310
  C     -0.460580    0.802310    6.319600
  C      0.340990   -0.159450    5.545560
  C      0.297350   -1.495760    6.163520
  O      0.853870   -2.510550    5.806930
  C     -0.592900   -1.277540    7.319380
  C     -1.023260    0.133190    7.383060
  N     -1.855790    0.333670    8.432140
  C     -1.975090   -0.842700    9.003100
  C     -1.223010   -1.893550    8.354610
  C      0.805290    0.524800    4.457580
  C      1.625110    0.063990    3.388250
  S      2.868120   -1.143740    3.707650
  C      3.377590   -1.146330    2.058920
  C      2.629860   -0.304780    1.306260
  C      1.620400    0.388360    2.051230
  C      0.820450    1.149060    1.136910
  C      1.296570    0.983640   -0.136060
  C      2.501490    0.084560   -0.110910
  O      3.183530   -0.240990   -1.052750
  C      0.801310    1.464600   -1.377530
  C     -0.366880    2.123010   -1.555190
  C     -0.882570    2.505100   -2.822720
  S      0.025550    2.265060   -4.292180
  C     -1.272090    2.870520   -5.236220
  C     -2.348710    3.240200   -4.485960
  C     -2.127680    3.043620   -3.101350
  C     -3.171600    3.338940   -2.083140
  S     -3.797190    1.757190   -1.335190
  C     -4.322730    4.159420   -2.658370
  C     -4.754410    3.639480   -4.025310
  C     -3.618890    3.814780   -5.030310
  H     -0.343880   11.538390    6.927750
  H      2.078080   13.507190    6.570460
  H     -0.758750   14.241900    5.129570
  H      2.434130   15.150670    4.826050
  H      1.345940   14.309200    3.716030
  H      3.905010   13.077940    4.827830
  H      3.801200   13.863800    3.250240
  H      3.532580   11.337640    3.181960
  H      2.224300   12.235730    2.423670
  H      2.988630    7.484860    0.334640
  H      0.256480    6.998300    5.089900
  H     -0.185740    4.420940    5.194330
  H      1.343170    2.868630    3.039670
  H     -2.588500   -0.959640    9.879790
  H     -1.192690   -2.920590    8.660590
  H      4.186860   -1.781000    1.754620
  H     -0.036860    1.733250    1.419620
  H      1.411960    1.220320   -2.238980
  H     -0.991530    2.344210   -0.701120
  H     -1.170130    2.919970   -6.302410
  H     -2.743820    3.850250   -1.216380
  H     -4.047930    1.139920   -2.486300
  H     -3.992830    5.197360   -2.756440
  H     -5.160970    4.135270   -1.960140
  H     -5.637680    4.181860   -4.365650
  H     -5.022210    2.582950   -3.949650
  H     -3.469880    4.881970   -5.225630
  H     -3.866340    3.339540   -5.981670

 Total Charge           Charge          ....    0
 Multiplicity           Mult            ....    1
 Number of Electrons    NEL             ....  420
 Basis Dimension        Dim             ....  920

ORBITAL ENERGIES
----------------

  NO   OCC          E(Eh)            E(eV)
   0   2.0000     -88.978247     -2421.2212
   1   2.0000     -88.969546     -2420.9844
   2   2.0000     -88.949506     -2420.4391
   3   2.0000     -88.941633     -2420.2249
   4   2.0000     -88.920703     -2419.6553
   5   2.0000     -88.905112     -2419.2311
   6   2.0000     -19.223856      -523.1077
   7   2.0000     -19.202387      -522.5235
   8   2.0000     -19.195401      -522.3334
   9   2.0000     -14.396191      -391.7403
  10   2.0000     -14.390977      -391.5984
  11   2.0000     -10.372601      -282.2528
  12   2.0000     -10.357113      -281.8314
  13   2.0000     -10.348793      -281.6050
  14   2.0000     -10.337203      -281.2896
  15   2.0000     -10.332746      -281.1683
  16   2.0000     -10.322579      -280.8916
  17   2.0000     -10.320723      -280.8412
  18   2.0000     -10.317626      -280.7569
  19   2.0000     -10.316595      -280.7288
  20   2.0000     -10.315407      -280.6965
  21   2.0000     -10.309009      -280.5224
  22   2.0000     -10.307336      -280.4769
  23   2.0000     -10.304561      -280.4014
  24   2.0000     -10.303836      -280.3816
  25   2.0000     -10.301563      -280.3198
  26   2.0000     -10.301476      -280.3174
  27   2.0000     -10.299739      -280.2702
  28   2.0000     -10.299070      -280.2519
  29   2.0000     -10.296413      -280.1796
  30   2.0000     -10.295562      -280.1565
  31   2.0000     -10.294242      -280.1206
  32   2.0000     -10.288808      -279.9727
  33   2.0000     -10.287515      -279.9375
  34   2.0000     -10.286538      -279.9109
  35   2.0000     -10.286279      -279.9039
  36   2.0000     -10.282367      -279.7974
  37   2.0000     -10.279357      -279.7155
  38   2.0000     -10.279322      -279.7146
  39   2.0000     -10.279317      -279.7144
  40   2.0000     -10.279166      -279.7103
  41   2.0000     -10.279117      -279.7090
  42   2.0000     -10.277555      -279.6665
  43   2.0000     -10.274318      -279.5784
  44   2.0000     -10.273291      -279.5505
  45   2.0000     -10.272988      -279.5422
  46   2.0000     -10.272064      -279.5171
  47   2.0000     -10.268885      -279.4306
  48   2.0000     -10.266416      -279.3634
  49   2.0000     -10.266286      -279.3598
  50   2.0000     -10.264321      -279.3064
  51   2.0000     -10.263019      -279.2709
  52   2.0000     -10.262606      -279.2597
  53   2.0000     -10.262493      -279.2566
  54   2.0000      -8.073279      -219.6851
  55   2.0000      -8.065140      -219.4636
  56   2.0000      -8.044912      -218.9132
  57   2.0000      -8.037402      -218.7088
  58   2.0000      -8.016176      -218.1312
  59   2.0000      -8.000455      -217.7035
  60   2.0000      -6.042946      -164.4369
  61   2.0000      -6.038197      -164.3077
  62   2.0000      -6.035232      -164.2270
  63   2.0000      -6.034473      -164.2063
  64   2.0000      -6.030139      -164.0884
  65   2.0000      -6.027371      -164.0131
  66   2.0000      -6.014513      -163.6632
  67   2.0000      -6.009852      -163.5364
  68   2.0000      -6.006797      -163.4532
  69   2.0000      -6.006549      -163.4465
  70   2.0000      -6.002445      -163.3348
  71   2.0000      -5.999751      -163.2615
  72   2.0000      -5.986711      -162.9067
  73   2.0000      -5.982656      -162.7963
  74   2.0000      -5.975751      -162.6085
  75   2.0000      -5.970900      -162.4764
  76   2.0000      -5.967045      -162.3715
  77   2.0000      -5.960040      -162.1809
  78   2.0000      -1.136765       -30.9330
  79   2.0000      -1.114763       -30.3342
  80   2.0000      -1.110426       -30.2162
  81   2.0000      -1.065554       -28.9952
  82   2.0000      -1.044849       -28.4318
  83   2.0000      -1.018869       -27.7248
  84   2.0000      -0.997798       -27.1515
  85   2.0000      -0.989014       -26.9124
  86   2.0000      -0.979051       -26.6413
  87   2.0000      -0.951745       -25.8983
  88   2.0000      -0.936938       -25.4954
  89   2.0000      -0.928128       -25.2557
  90   2.0000      -0.924177       -25.1481
  91   2.0000      -0.916957       -24.9517
  92   2.0000      -0.896403       -24.3924
  93   2.0000      -0.891628       -24.2624
  94   2.0000      -0.883968       -24.0540
  95   2.0000      -0.877385       -23.8749
  96   2.0000      -0.866809       -23.5871
  97   2.0000      -0.856951       -23.3188
  98   2.0000      -0.845685       -23.0122
  99   2.0000      -0.838947       -22.8289
 100   2.0000      -0.821002       -22.3406
 101   2.0000      -0.815645       -22.1948
 102   2.0000      -0.810075       -22.0433
 103   2.0000      -0.809024       -22.0147
 104   2.0000      -0.805012       -21.9055
 105   2.0000      -0.786282       -21.3958
 106   2.0000      -0.781620       -21.2690
 107   2.0000      -0.765789       -20.8382
 108   2.0000      -0.757872       -20.6228
 109   2.0000      -0.752095       -20.4656
 110   2.0000      -0.744937       -20.2708
 111   2.0000      -0.730622       -19.8812
 112   2.0000      -0.718628       -19.5549
 113   2.0000      -0.715181       -19.4611
 114   2.0000      -0.705279       -19.1916
 115   2.0000      -0.701630       -19.0923
 116   2.0000      -0.700706       -19.0672
 117   2.0000      -0.683227       -18.5916
 118   2.0000      -0.670367       -18.2416
 119   2.0000      -0.663801       -18.0629
 120   2.0000      -0.662015       -18.0144
 121   2.0000      -0.652540       -17.7565
 122   2.0000      -0.641076       -17.4446
 123   2.0000      -0.638638       -17.3782
 124   2.0000      -0.628930       -17.1140
 125   2.0000      -0.624751       -17.0003
 126   2.0000      -0.616661       -16.7802
 127   2.0000      -0.607177       -16.5221
 128   2.0000      -0.604489       -16.4490
 129   2.0000      -0.595605       -16.2072
 130   2.0000      -0.590140       -16.0585
 131   2.0000      -0.584584       -15.9073
 132   2.0000      -0.579361       -15.7652
 133   2.0000      -0.572541       -15.5796
 134   2.0000      -0.571328       -15.5466
 135   2.0000      -0.562132       -15.2964
 136   2.0000      -0.555464       -15.1150
 137   2.0000      -0.548198       -14.9172
 138   2.0000      -0.542954       -14.7745
 139   2.0000      -0.540400       -14.7050
 140   2.0000      -0.534741       -14.5510
 141   2.0000      -0.533061       -14.5053
 142   2.0000      -0.530365       -14.4320
 143   2.0000      -0.528611       -14.3842
 144   2.0000      -0.525692       -14.3048
 145   2.0000      -0.521459       -14.1896
 146   2.0000      -0.513364       -13.9693
 147   2.0000      -0.511132       -13.9086
 148   2.0000      -0.510369       -13.8879
 149   2.0000      -0.507049       -13.7975
 150   2.0000      -0.505595       -13.7579
 151   2.0000      -0.504089       -13.7169
 152   2.0000      -0.502003       -13.6602
 153   2.0000      -0.501369       -13.6430
 154   2.0000      -0.499353       -13.5881
 155   2.0000      -0.495596       -13.4859
 156   2.0000      -0.493693       -13.4341
 157   2.0000      -0.491166       -13.3653
 158   2.0000      -0.487770       -13.2729
 159   2.0000      -0.482904       -13.1405
 160   2.0000      -0.481882       -13.1127
 161   2.0000      -0.480917       -13.0864
 162   2.0000      -0.477232       -12.9861
 163   2.0000      -0.474922       -12.9233
 164   2.0000      -0.469858       -12.7855
 165   2.0000      -0.467372       -12.7178
 166   2.0000      -0.465334       -12.6624
 167   2.0000      -0.463487       -12.6121
 168   2.0000      -0.462595       -12.5878
 169   2.0000      -0.457730       -12.4555
 170   2.0000      -0.450521       -12.2593
 171   2.0000      -0.447712       -12.1829
 172   2.0000      -0.446689       -12.1550
 173   2.0000      -0.446046       -12.1375
 174   2.0000      -0.442624       -12.0444
 175   2.0000      -0.439079       -11.9479
 176   2.0000      -0.435866       -11.8605
 177   2.0000      -0.435301       -11.8451
 178   2.0000      -0.426272       -11.5995
 179   2.0000      -0.424574       -11.5533
 180   2.0000      -0.421069       -11.4579
 181   2.0000      -0.412739       -11.2312
 182   2.0000      -0.411953       -11.2098
 183   2.0000      -0.411791       -11.2054
 184   2.0000      -0.402888       -10.9631
 185   2.0000      -0.401777       -10.9329
 186   2.0000      -0.396326       -10.7846
 187   2.0000      -0.393071       -10.6960
 188   2.0000      -0.388663       -10.5761
 189   2.0000      -0.380589       -10.3564
 190   2.0000      -0.377936       -10.2842
 191   2.0000      -0.363727        -9.8975
 192   2.0000      -0.358292        -9.7496
 193   2.0000      -0.356690        -9.7060
 194   2.0000      -0.343974        -9.3600
 195   2.0000      -0.340213        -9.2577
 196   2.0000      -0.336542        -9.1578
 197   2.0000      -0.327247        -8.9048
 198   2.0000      -0.326676        -8.8893
 199   2.0000      -0.319175        -8.6852
 200   2.0000      -0.318265        -8.6604
 201   2.0000      -0.315712        -8.5910
 202   2.0000      -0.309951        -8.4342
 203   2.0000      -0.307716        -8.3734
 204   2.0000      -0.298050        -8.1103
 205   2.0000      -0.292761        -7.9664
 206   2.0000      -0.288007        -7.8371
 207   2.0000      -0.281792        -7.6679
 208   2.0000      -0.259702        -7.0669
 209   2.0000      -0.235774        -6.4157
 210   0.0000      -0.110469        -3.0060
 211   0.0000      -0.068923        -1.8755
 212   0.0000      -0.054260        -1.4765
 213   0.0000      -0.031806        -0.8655
 214   0.0000      -0.026614        -0.7242

MULLIKEN ATOMIC CHARGES
-----------------------
   0 C :   -0.084808
   1 S :    0.116346
   2 C :   -0.141457
   3 C :   -0.072017
   4 C :    0.011919
   5 C :   -0.142753
   6 S :   -0.034572
   7 C :    0.086296
   8 C :    0.031910
   9 C :    0.099581
  10 C :   -0.104959
  11 S :    0.110488
  12 C :   -0.110682
  13 C :    0.021709
  14 C :    0.063866
  15 C :    0.004349
  16 C :   -0.017015
  17 C :    0.168346
  18 O :   -0.127244
  19 C :    0.017202
  20 C :   -0.071506
  21 C :    0.046184
  22 N :   -0.051088
  23 C :    0.057642
  24 C :   -0.165475
  25 C :    0.201502
  26 O :   -0.127623
  27 C :   -0.043452
  28 C :   -0.023158
  29 N :   -0.061073
  30 C :    0.083337
  31 C :   -0.094494
  32 C :    0.045944
  33 C :   -0.236994
  34 S :    0.181298
  35 C :   -0.122583
  36 C :    0.005180
  37 C :    0.132329
  38 C :   -0.002593
  39 C :   -0.041819
  40 C :    0.155092
  41 O :   -0.132979
  42 C :   -0.002528
  43 C :    0.037750
  44 C :   -0.110264
  45 S :    0.117344
  46 C :   -0.128402
  47 C :   -0.064767
  48 C :    0.050409
  49 C :   -0.187161
  50 S :   -0.044662
  51 C :    0.109557
  52 C :    0.003203
  53 C :    0.145501
  54 H :    0.026871
  55 H :    0.058460
  56 H :    0.049129
  57 H :    0.013617
  58 H :    0.000698
  59 H :    0.010370
  60 H :    0.008367
  61 H :    0.027395
  62 H :    0.024995
  63 H :    0.039420
  64 H :    0.010472
  65 H :    0.013845
  66 H :    0.026777
  67 H :    0.002194
  68 H :   -0.011495
  69 H :    0.032295
  70 H :   -0.007879
  71 H :   -0.002291
  72 H :   -0.016761
  73 H :    0.007807
  74 H :    0.045862
  75 H :    0.054689
  76 H :    0.003483
  77 H :    0.009610
  78 H :    0.002888
  79 H :   -0.003232
  80 H :    0.013594
  81 H :    0.002667
Sum of atomic charges:    0.0000000

LOEWDIN ATOMIC CHARGES
----------------------
   0 C :   -0.172398
   1 S :    0.453084
   2 C :   -0.199993
   3 C :   -0.044483
   4 C :   -0.088789
   5 C :   -0.120667
   6 S :    0.169331
   7 C :   -0.039166
   8 C :   -0.026572
   9 C :   -0.040725
  10 C :   -0.150390
  11 S :    0.453250
  12 C :   -0.128939
  13 C :   -0.090217
  14 C :   -0.081497
  15 C :    0.054010
  16 C :   -0.075106
  17 C :    0.091419
  18 O :   -0.118680
  19 C :    0.056116
  20 C :   -0.051062
  21 C :    0.073545
  22 N :   -0.114177
  23 C :    0.046302
  24 C :   -0.049202
  25 C :    0.060186
  26 O :   -0.143297
  27 C :   -0.044140
  28 C :    0.011981
  29 N :   -0.102152
  30 C :    0.063932
  31 C :   -0.043970
  32 C :   -0.044408
  33 C :   -0.174276
  34 S :    0.464640
  35 C :   -0.126807
  36 C :   -0.103498
  37 C :   -0.045330
  38 C :    0.019214
  39 C :   -0.049420
  40 C :    0.089113
  41 O :   -0.127214
  42 C :   -0.030674
  43 C :   -0.013704
  44 C :   -0.171743
  45 S :    0.441905
  46 C :   -0.192358
  47 C :   -0.068377
  48 C :   -0.080814
  49 C :   -0.113378
  50 S :    0.156564
  51 C :   -0.038904
  52 C :   -0.031592
  53 C :   -0.024233
  54 H :    0.023828
  55 H :    0.035820
  56 H :   -0.034873
  57 H :    0.028430
  58 H :    0.020497
  59 H :    0.024919
  60 H :    0.028519
  61 H :    0.025618
  62 H :    0.031768
  63 H :    0.036431
  64 H :    0.027006
  65 H :    0.042048
  66 H :    0.036979
  67 H :    0.020422
  68 H :    0.031836
  69 H :    0.033244
  70 H :    0.028268
  71 H :    0.025727
  72 H :    0.026025
  73 H :    0.020041
  74 H :    0.030116
  75 H :   -0.036020
  76 H :    0.023407
  77 H :    0.024385
  78 H :    0.025531
  79 H :    0.016276
  80 H :    0.031443
  81 H :    0.030068

  Mayer bond orders larger than 0.100000
B(  0-C ,  1-S ) :   1.1654 B(  0-C ,  4-C ) :   1.5655 B(  0-C , 54-H ) :   0.9624
B(  1-S ,  2-C ) :   1.1327 B(  2-C ,  3-C ) :   1.5038 B(  2-C , 10-C ) :   1.1577
B(  3-C ,  4-C ) :   1.3204 B(  3-C ,  9-C ) :   1.0537 B(  4-C ,  5-C ) :   0.9407
B(  5-C ,  6-S ) :   1.0483 B(  5-C ,  7-C ) :   1.0348 B(  5-C , 55-H ) :   0.9044
B(  6-S , 56-H ) :   0.9556 B(  7-C ,  8-C ) :   1.0636 B(  7-C , 57-H ) :   0.9332
B(  7-C , 58-H ) :   0.9420 B(  8-C ,  9-C ) :   1.0819 B(  8-C , 59-H ) :   0.9445
B(  8-C , 60-H ) :   0.9316 B(  9-C , 61-H ) :   0.9084 B(  9-C , 62-H ) :   0.9093
B( 10-C , 11-S ) :   1.1198 B( 10-C , 14-C ) :   1.4553 B( 11-S , 12-C ) :   1.1224
B( 12-C , 13-C ) :   1.6156 B( 12-C , 63-H ) :   0.9691 B( 13-C , 14-C ) :   1.1977
B( 13-C , 17-C ) :   0.9183 B( 14-C , 15-C ) :   1.0590 B( 15-C , 16-C ) :   1.5566
B( 15-C , 64-H ) :   1.0053 B( 16-C , 17-C ) :   0.9420 B( 16-C , 19-C ) :   1.1056
B( 17-C , 18-O ) :   2.2205 B( 19-C , 20-C ) :   1.5967 B( 19-C , 65-H ) :   0.9875
B( 20-C , 21-C ) :   1.1415 B( 20-C , 66-H ) :   0.9625 B( 21-C , 22-N ) :   1.5712
B( 21-C , 23-C ) :   0.1002 B( 21-C , 32-C ) :   1.0194 B( 22-N , 23-C ) :   1.3762
B( 23-C , 24-C ) :   1.0418 B( 23-C , 28-C ) :   1.3949 B( 24-C , 25-C ) :   0.8834
B( 24-C , 32-C ) :   1.6104 B( 25-C , 26-O ) :   2.2962 B( 25-C , 27-C ) :   0.9022
B( 27-C , 28-C ) :   1.0642 B( 27-C , 31-C ) :   1.5950 B( 28-C , 29-N ) :   1.3258
B( 29-N , 30-C ) :   1.6416 B( 30-C , 31-C ) :   1.0895 B( 30-C , 67-H ) :   0.9893
B( 31-C , 68-H ) :   1.0101 B( 32-C , 33-C ) :   1.0825 B( 33-C , 34-S ) :   1.1245
B( 33-C , 37-C ) :   1.4743 B( 34-S , 35-C ) :   1.1640 B( 35-C , 36-C ) :   1.5853
B( 35-C , 69-H ) :   0.9700 B( 36-C , 37-C ) :   1.2012 B( 36-C , 40-C ) :   0.9086
B( 37-C , 38-C ) :   1.0451 B( 38-C , 39-C ) :   1.6220 B( 38-C , 70-H ) :   0.9984
B( 39-C , 40-C ) :   0.9393 B( 39-C , 42-C ) :   1.1257 B( 40-C , 41-O ) :   2.2553
B( 42-C , 43-C ) :   1.6450 B( 42-C , 71-H ) :   0.9703 B( 43-C , 44-C ) :   1.1625
B( 43-C , 72-H ) :   0.9616 B( 44-C , 45-S ) :   1.1332 B( 44-C , 48-C ) :   1.4825
B( 45-S , 46-C ) :   1.1552 B( 46-C , 47-C ) :   1.5725 B( 46-C , 73-H ) :   0.9702
B( 47-C , 48-C ) :   1.3045 B( 47-C , 53-C ) :   1.0258 B( 48-C , 49-C ) :   0.9624
B( 49-C , 50-S ) :   1.0371 B( 49-C , 51-C ) :   1.0269 B( 49-C , 74-H ) :   0.9139
B( 50-S , 75-H ) :   0.9526 B( 51-C , 52-C ) :   1.0699 B( 51-C , 76-H ) :   0.9346
B( 51-C , 77-H ) :   0.9295 B( 52-C , 53-C ) :   1.0861 B( 52-C , 78-H ) :   0.9356
B( 52-C , 79-H ) :   0.9462 B( 53-C , 80-H ) :   0.9174 B( 53-C , 81-H ) :   0.9238

-----------------------------------------------------------------------------
         ABSORPTION SPECTRUM VIA TRANSITION ELECTRIC DIPOLE MOMENTS
-----------------------------------------------------------------------------
State   Energy  Wavelength   fosc         T2         TX        TY        TZ
        (cm-1)    (nm)                  (au**2)     (au)      (au)      (au)
-----------------------------------------------------------------------------
   0   12696.1    787.6   0.066475463   1.72372  -0.00219  -0.06061   1.31150
   1   17637.4    567.0   1.058604699  19.75945   1.00708   4.22875  -0.92893
   2   20289.3    492.9   0.026616466   0.43188  -0.59652  -0.24365  -0.12911
   3   20955.4    477.2   0.419440198   6.58947   0.24914  -1.24969   2.22838
   4   21486.8    465.4   0.041680450   0.63861   0.17882  -0.14264   0.76569
   5   22798.6    438.6   0.187852562   2.71259   0.43244  -0.55901   1.48765
   6   24205.1    413.1   0.148603999   2.02115  -0.56024   0.19795   1.29155
   7   24834.6    402.7   0.006352874   0.08421   0.10184   0.02159  -0.27088
   8   25348.9    394.5   0.106927637   1.38869   0.48280   0.42336  -0.98811
   9   25569.7    391.1   0.001028755   0.01325   0.09970   0.02733  -0.05058
  10   25742.3    388.5   0.021691517   0.27741  -0.08396  -0.13860   0.50115
  11   26986.7    370.6   0.003979862   0.04855  -0.11348  -0.17738  -0.06489
  12   27308.9    366.2   0.005707887   0.06881  -0.02866  -0.19525  -0.17282
  13   28377.1    352.4   0.047780803   0.55432  -0.14803   0.36210   0.63347
  14   28450.4    351.5   0.173351699   2.00593   0.01606  -0.23685   1.39627
  15   28594.9    349.7   0.022013648   0.25344  -0.02487  -0.20237   0.46029
  16   28956.6    345.3   0.138901658   1.57919   0.36403  -1.19712   0.11656
  17   30490.3    328.0   0.195455627   2.11039  -0.04700   0.67181  -1.28719
  18   30554.6    327.3   0.052371359   0.56428  -0.08715  -0.57401   0.47665
  19   30810.9    324.6   0.073983668   0.79051   0.66260   0.39279  -0.44407
  20   30943.9    323.2   0.170136111   1.81007   0.44785   0.53852  -1.14869
  21   31227.3    320.2   0.056597114   0.59667  -0.17249  -0.38336   0.64804
  22   31244.4    320.1   0.025651888   0.27029   0.20582   0.19562  -0.43550
  23   31719.0    315.3   0.204848527   2.12613   0.87223  -0.15398   1.15829
  24   32021.5    312.3   0.009172475   0.09430  -0.26642  -0.02070  -0.15131
  25   32150.2    311.0   0.039027444   0.39963   0.48839  -0.12310   0.38204
  26   32313.5    309.5   0.137580802   1.40168  -0.75031   0.59886  -0.69287
  27   32907.8    303.9   0.149036427   1.49097   0.13279   0.99302   0.69803
  28   33373.5    299.6   0.057076532   0.56303  -0.05883   0.73134  -0.15718
  29   33598.8    297.6   0.213395187   2.09091   0.46759  -1.25625  -0.54232
  30   33816.7    295.7   0.063819933   0.62130   0.00639  -0.78133  -0.10387
  31   34229.6    292.1   0.037967784   0.36517   0.05571   0.11776  -0.59008
  32   34700.1    288.2   0.099570903   0.94466   0.35718  -0.60762  -0.66924
  33   35278.5    283.5   0.039413223   0.36780   0.04680  -0.51270   0.32054
  34   35475.9    281.9   0.007173147   0.06657  -0.07029   0.18268  -0.16809
  35   36902.9    271.0   0.036693878   0.32735  -0.53321   0.09149  -0.18619
  36   37563.1    266.2   0.047798721   0.41892   0.16049  -0.57283   0.25501
  37   37740.7    265.0   0.173332684   1.51198  -0.35361  -0.96279   0.67822
  38   38288.7    261.2   0.060786990   0.52266   0.68284   0.08292  -0.22249
  39   38511.4    259.7   0.061114240   0.52243  -0.42168  -0.14430   0.56903
  40   38792.3    257.8   0.005300096   0.04498   0.14774  -0.11463  -0.10006
  41   39039.0    256.2   0.064399454   0.54307   0.46555   0.06743  -0.56726
  42   39578.2    252.7   0.020334954   0.16915  -0.30814   0.03269   0.27042
  43   39608.3    252.5   0.013529874   0.11246   0.18595  -0.07756  -0.26807
  44   39973.7    250.2   0.028079170   0.23125   0.09201   0.28967  -0.37266
  45   40163.5    249.0   0.032640689   0.26755   0.09748   0.47798   0.17198

FINAL SINGLE POINT ENERGY     -4376.406389856305

DIPOLE MOMENT
-------------
                                X             Y             Z
Electronic contribution:     19.44286     -41.12579      25.29773
Nuclear contribution   :    -19.57400      45.26093     -25.89711
                        -----------------------------------------
Total Dipole Moment    :     -0.13114       4.13515      -0.59938
                        -----------------------------------------
Magnitude (a.u.)       :      4.18042
Magnitude (Debye)      :     10.62578

Rotational constants in cm-1:     0.001216     0.000718     0.000534
Rotational constants in MHz :    36.455945    21.513021    16.000764

                             ****ORCA TERMINATED NORMALLY****
TOTAL RUN TIME: 0 days 0 hours 6 minutes 25 seconds 279 msec
