                         Program Version 4.2.0 -  RELEASE  -
|  1> # ORCA input file
|  2> # SCF done       -118.832416818463          0.000911915796
|  3> ! CAM-B3LYP def2-SVP def2/J RIJCOSX Grid4 TightSCF
|  4> %maxcore 5000
|  5> %tddft
|  6>     Mode sTDDFT
|  7>     Ethresh 5.0
|  8>     maxcore 5000
|  9> end
| 10>
| 11> %pal
| 12>   nprocs 6
| 13>   end
| 14> * xyz 0 1
| 15>    C        7.83067        -6.23754         3.97113
| 16>    S        6.98013        -7.50248         3.14621
| 17>    C        5.92221        -6.21265         2.56654
| 18>    N        6.27914        -5.04787         3.01113
| 19>    N        7.33677        -5.06561         3.78947
| 20>    C        4.81851        -6.47146         1.69893
| 21>    C        4.00874        -5.48329         1.26873
| 22>    C        2.90083        -5.65891         0.38682
| 23>    S        1.92542        -4.28975        -0.03325
| 24>    C        0.92224        -5.25294        -1.06400
| 25>    C       -0.26595        -4.68199        -1.64961
| 26>    O       -1.06633        -5.28231        -2.32809
| 27>    C        1.34846        -6.57931        -1.08461
| 28>    C        2.44902        -6.80009        -0.24423
| 29>    C        0.71340        -7.66035        -1.81613
| 30>    N        0.52818        -7.71288        -3.16558
| 31>    C        1.00308        -6.77384        -4.15139
| 32>    C        2.52643        -6.70090        -4.18521
| 33>    C       -0.12490        -8.90898        -3.55001
| 34>    O       -0.37275        -9.18662        -4.70340
| 35>    C       -0.34591        -9.61115        -2.30622
| 36>    C        0.21467        -8.82046        -1.26106
| 37>    C       -0.00208        -9.50601        -0.00697
| 38>    O        0.31703        -9.24254         1.13319
| 39>    N       -0.68914       -10.67829        -0.37823
| 40>    C       -1.15689       -11.61444         0.61484
| 41>    C       -2.64449       -11.43408         0.90792
| 42>    C       -0.90485       -10.74676        -1.73776
| 43>    C       -1.57653       -11.83016        -2.37085
| 44>    C       -1.80136       -11.88843        -3.70165
| 45>    C       -2.48994       -12.99941        -4.30370
| 46>    N       -2.92049       -14.01175        -3.51937
| 47>    C       -3.55057       -14.98676        -4.11902
| 48>    C       -3.76399       -14.94395        -5.51291
| 49>    N       -3.29091       -13.91525        -6.22132
| 50>    N       -2.66022       -12.96324        -5.62769
| 51>    C       -4.46970       -15.97229        -6.22112
| 52>    S       -4.72099       -15.90312        -7.95128
| 53>    C       -5.55840       -17.43331        -7.74494
| 54>    N       -5.57780       -17.83600        -6.50909
| 55>    N       -4.97901       -17.03243        -5.66990
| 56>    C       -6.14313       -18.13549        -8.85607
| 57>    C       -6.76962       -19.30114        -8.72243
| 58>    H        8.69250        -6.43296         4.57589
| 59>    H        4.66414        -7.49904         1.40735
| 60>    H        4.20602        -4.47656         1.60984
| 61>    H       -0.40061        -3.61113        -1.40617
| 62>    H        2.89539        -7.76896        -0.11817
| 63>    H        0.57105        -5.78913        -3.96256
| 64>    H        0.62436        -7.14217        -5.10899
| 65>    H        2.92337        -6.33305        -3.24111
| 66>    H        2.84100        -6.02753        -4.97742
| 67>    H        2.94682        -7.68506        -4.37946
| 68>    H       -0.57722       -11.40731         1.51904
| 69>    H       -0.94611       -12.63579         0.28599
| 70>    H       -2.83191       -10.42496         1.26684
| 71>    H       -2.95686       -12.13891         1.67344
| 72>    H       -3.24126       -11.59997         0.01394
| 73>    H       -1.92353       -12.64868        -1.75598
| 74>    H       -1.48212       -11.10686        -4.37582
| 75>    H       -3.90042       -15.81750        -3.52196
| 76>    H       -6.03970       -17.65416        -9.81776
| 77>    H       -6.86252       -19.76651        -7.75666
| 78>    H       -7.20010       -19.80914        -9.56745
| 79> *
| 80>
| 81>                          ****END OF INPUT****

CARTESIAN COORDINATES (ANGSTROEM)
---------------------------------
  C      7.830670   -6.237540    3.971130
  S      6.980130   -7.502480    3.146210
  C      5.922210   -6.212650    2.566540
  N      6.279140   -5.047870    3.011130
  N      7.336770   -5.065610    3.789470
  C      4.818510   -6.471460    1.698930
  C      4.008740   -5.483290    1.268730
  C      2.900830   -5.658910    0.386820
  S      1.925420   -4.289750   -0.033250
  C      0.922240   -5.252940   -1.064000
  C     -0.265950   -4.681990   -1.649610
  O     -1.066330   -5.282310   -2.328090
  C      1.348460   -6.579310   -1.084610
  C      2.449020   -6.800090   -0.244230
  C      0.713400   -7.660350   -1.816130
  N      0.528180   -7.712880   -3.165580
  C      1.003080   -6.773840   -4.151390
  C      2.526430   -6.700900   -4.185210
  C     -0.124900   -8.908980   -3.550010
  O     -0.372750   -9.186620   -4.703400
  C     -0.345910   -9.611150   -2.306220
  C      0.214670   -8.820460   -1.261060
  C     -0.002080   -9.506010   -0.006970
  O      0.317030   -9.242540    1.133190
  N     -0.689140  -10.678290   -0.378230
  C     -1.156890  -11.614440    0.614840
  C     -2.644490  -11.434080    0.907920
  C     -0.904850  -10.746760   -1.737760
  C     -1.576530  -11.830160   -2.370850
  C     -1.801360  -11.888430   -3.701650
  C     -2.489940  -12.999410   -4.303700
  N     -2.920490  -14.011750   -3.519370
  C     -3.550570  -14.986760   -4.119020
  C     -3.763990  -14.943950   -5.512910
  N     -3.290910  -13.915250   -6.221320
  N     -2.660220  -12.963240   -5.627690
  C     -4.469700  -15.972290   -6.221120
  S     -4.720990  -15.903120   -7.951280
  C     -5.558400  -17.433310   -7.744940
  N     -5.577800  -17.836000   -6.509090
  N     -4.979010  -17.032430   -5.669900
  C     -6.143130  -18.135490   -8.856070
  C     -6.769620  -19.301140   -8.722430
  H      8.692500   -6.432960    4.575890
  H      4.664140   -7.499040    1.407350
  H      4.206020   -4.476560    1.609840
  H     -0.400610   -3.611130   -1.406170
  H      2.895390   -7.768960   -0.118170
  H      0.571050   -5.789130   -3.962560
  H      0.624360   -7.142170   -5.108990
  H      2.923370   -6.333050   -3.241110
  H      2.841000   -6.027530   -4.977420
  H      2.946820   -7.685060   -4.379460
  H     -0.577220  -11.407310    1.519040
  H     -0.946110  -12.635790    0.285990
  H     -2.831910  -10.424960    1.266840
  H     -2.956860  -12.138910    1.673440
  H     -3.241260  -11.599970    0.013940
  H     -1.923530  -12.648680   -1.755980
  H     -1.482120  -11.106860   -4.375820
  H     -3.900420  -15.817500   -3.521960
  H     -6.039700  -17.654160   -9.817760
  H     -6.862520  -19.766510   -7.756660
  H     -7.200100  -19.809140   -9.567450

 Total Charge           Charge          ....    0
 Multiplicity           Mult            ....    1
 Number of Electrons    NEL             ....  324
 Basis Dimension        Dim             ....  719

ORBITAL ENERGIES
----------------

  NO   OCC          E(Eh)            E(eV)
   0   2.0000     -88.981868     -2421.3197
   1   2.0000     -88.976765     -2421.1809
   2   2.0000     -88.974293     -2421.1136
   3   2.0000     -19.218463      -522.9610
   4   2.0000     -19.189935      -522.1847
   5   2.0000     -19.184610      -522.0398
   6   2.0000     -14.464488      -393.5987
   7   2.0000     -14.450385      -393.2150
   8   2.0000     -14.449287      -393.1851
   9   2.0000     -14.449234      -393.1836
  10   2.0000     -14.443698      -393.0330
  11   2.0000     -14.439063      -392.9069
  12   2.0000     -14.438785      -392.8993
  13   2.0000     -14.436482      -392.8366
  14   2.0000     -14.434401      -392.7800
  15   2.0000     -10.371289      -282.2171
  16   2.0000     -10.370640      -282.1995
  17   2.0000     -10.368317      -282.1363
  18   2.0000     -10.353813      -281.7416
  19   2.0000     -10.346537      -281.5436
  20   2.0000     -10.343753      -281.4678
  21   2.0000     -10.341794      -281.4145
  22   2.0000     -10.341487      -281.4062
  23   2.0000     -10.341167      -281.3975
  24   2.0000     -10.338397      -281.3221
  25   2.0000     -10.337383      -281.2945
  26   2.0000     -10.336325      -281.2657
  27   2.0000     -10.329168      -281.0710
  28   2.0000     -10.315964      -280.7117
  29   2.0000     -10.315140      -280.6892
  30   2.0000     -10.305837      -280.4361
  31   2.0000     -10.305280      -280.4209
  32   2.0000     -10.303669      -280.3771
  33   2.0000     -10.296826      -280.1909
  34   2.0000     -10.296424      -280.1799
  35   2.0000     -10.292820      -280.0819
  36   2.0000     -10.290929      -280.0304
  37   2.0000     -10.284524      -279.8561
  38   2.0000     -10.282076      -279.7895
  39   2.0000     -10.260565      -279.2042
  40   2.0000     -10.259837      -279.1844
  41   2.0000     -10.259316      -279.1702
  42   2.0000     -10.258783      -279.1557
  43   2.0000      -8.077555      -219.8014
  44   2.0000      -8.073587      -219.6935
  45   2.0000      -8.070247      -219.6026
  46   2.0000      -6.046499      -164.5336
  47   2.0000      -6.042526      -164.4255
  48   2.0000      -6.042242      -164.4178
  49   2.0000      -6.040171      -164.3614
  50   2.0000      -6.038951      -164.3282
  51   2.0000      -6.038708      -164.3216
  52   2.0000      -6.036080      -164.2501
  53   2.0000      -6.035453      -164.2330
  54   2.0000      -6.032666      -164.1572
  55   2.0000      -1.153195       -31.3800
  56   2.0000      -1.142649       -31.0930
  57   2.0000      -1.142422       -31.0869
  58   2.0000      -1.132849       -30.8264
  59   2.0000      -1.129707       -30.7409
  60   2.0000      -1.122981       -30.5579
  61   2.0000      -1.061803       -28.8931
  62   2.0000      -1.052713       -28.6458
  63   2.0000      -1.036422       -28.2025
  64   2.0000      -1.007850       -27.4250
  65   2.0000      -0.967522       -26.3276
  66   2.0000      -0.945712       -25.7341
  67   2.0000      -0.934158       -25.4197
  68   2.0000      -0.925046       -25.1718
  69   2.0000      -0.912467       -24.8295
  70   2.0000      -0.910286       -24.7701
  71   2.0000      -0.898491       -24.4492
  72   2.0000      -0.887363       -24.1464
  73   2.0000      -0.876422       -23.8486
  74   2.0000      -0.864673       -23.5290
  75   2.0000      -0.856832       -23.3156
  76   2.0000      -0.839199       -22.8358
  77   2.0000      -0.817967       -22.2580
  78   2.0000      -0.816546       -22.2194
  79   2.0000      -0.792193       -21.5567
  80   2.0000      -0.785554       -21.3760
  81   2.0000      -0.759184       -20.6584
  82   2.0000      -0.757305       -20.6073
  83   2.0000      -0.754862       -20.5408
  84   2.0000      -0.726437       -19.7673
  85   2.0000      -0.720748       -19.6126
  86   2.0000      -0.712390       -19.3851
  87   2.0000      -0.706277       -19.2188
  88   2.0000      -0.702723       -19.1221
  89   2.0000      -0.690298       -18.7840
  90   2.0000      -0.666751       -18.1432
  91   2.0000      -0.660889       -17.9837
  92   2.0000      -0.657439       -17.8898
  93   2.0000      -0.653734       -17.7890
  94   2.0000      -0.643430       -17.5086
  95   2.0000      -0.640979       -17.4419
  96   2.0000      -0.619314       -16.8524
  97   2.0000      -0.610893       -16.6232
  98   2.0000      -0.601252       -16.3609
  99   2.0000      -0.592012       -16.1095
 100   2.0000      -0.586320       -15.9546
 101   2.0000      -0.582283       -15.8447
 102   2.0000      -0.571690       -15.5565
 103   2.0000      -0.567787       -15.4503
 104   2.0000      -0.563295       -15.3280
 105   2.0000      -0.560964       -15.2646
 106   2.0000      -0.557598       -15.1730
 107   2.0000      -0.553790       -15.0694
 108   2.0000      -0.545264       -14.8374
 109   2.0000      -0.539225       -14.6731
 110   2.0000      -0.535573       -14.5737
 111   2.0000      -0.530601       -14.4384
 112   2.0000      -0.527361       -14.3502
 113   2.0000      -0.524504       -14.2725
 114   2.0000      -0.520910       -14.1747
 115   2.0000      -0.520031       -14.1508
 116   2.0000      -0.513490       -13.9728
 117   2.0000      -0.511549       -13.9200
 118   2.0000      -0.509340       -13.8599
 119   2.0000      -0.508367       -13.8334
 120   2.0000      -0.499102       -13.5812
 121   2.0000      -0.497268       -13.5314
 122   2.0000      -0.495710       -13.4889
 123   2.0000      -0.492272       -13.3954
 124   2.0000      -0.478565       -13.0224
 125   2.0000      -0.475943       -12.9511
 126   2.0000      -0.472963       -12.8700
 127   2.0000      -0.470071       -12.7913
 128   2.0000      -0.463469       -12.6116
 129   2.0000      -0.461846       -12.5675
 130   2.0000      -0.456503       -12.4221
 131   2.0000      -0.455004       -12.3813
 132   2.0000      -0.451315       -12.2809
 133   2.0000      -0.446996       -12.1634
 134   2.0000      -0.444442       -12.0939
 135   2.0000      -0.441371       -12.0103
 136   2.0000      -0.431121       -11.7314
 137   2.0000      -0.428623       -11.6634
 138   2.0000      -0.427237       -11.6257
 139   2.0000      -0.426078       -11.5942
 140   2.0000      -0.418627       -11.3914
 141   2.0000      -0.414685       -11.2842
 142   2.0000      -0.401833       -10.9344
 143   2.0000      -0.398477       -10.8431
 144   2.0000      -0.392207       -10.6725
 145   2.0000      -0.389480       -10.5983
 146   2.0000      -0.387487       -10.5440
 147   2.0000      -0.373145       -10.1538
 148   2.0000      -0.366789        -9.9808
 149   2.0000      -0.357680        -9.7330
 150   2.0000      -0.346021        -9.4157
 151   2.0000      -0.344035        -9.3617
 152   2.0000      -0.340253        -9.2587
 153   2.0000      -0.336486        -9.1562
 154   2.0000      -0.327615        -8.9149
 155   2.0000      -0.327086        -8.9004
 156   2.0000      -0.326911        -8.8957
 157   2.0000      -0.311208        -8.4684
 158   2.0000      -0.304776        -8.2934
 159   2.0000      -0.301491        -8.2040
 160   2.0000      -0.287825        -7.8321
 161   2.0000      -0.245299        -6.6749
 162   0.0000      -0.088106        -2.3975
 163   0.0000      -0.072825        -1.9817
 164   0.0000      -0.044563        -1.2126
 165   0.0000      -0.025395        -0.6910
 166   0.0000      -0.017934        -0.4880

MULLIKEN ATOMIC CHARGES
-----------------------
   0 C :   -0.003115
   1 S :    0.088713
   2 C :   -0.140985
   3 N :   -0.060364
   4 N :   -0.048502
   5 C :    0.076461
   6 C :    0.076683
   7 C :   -0.075603
   8 S :    0.172578
   9 C :   -0.170461
  10 C :    0.183305
  11 O :   -0.186246
  12 C :    0.015842
  13 C :    0.030761
  14 C :    0.074019
  15 N :   -0.236306
  16 C :    0.117452
  17 C :   -0.010768
  18 C :    0.170938
  19 O :   -0.189068
  20 C :   -0.071537
  21 C :   -0.017126
  22 C :    0.125914
  23 O :   -0.193705
  24 N :   -0.268893
  25 C :    0.101165
  26 C :    0.003186
  27 C :    0.150848
  28 C :    0.000806
  29 C :    0.044183
  30 C :   -0.071960
  31 N :   -0.029901
  32 C :    0.042035
  33 C :    0.007342
  34 N :   -0.046422
  35 N :   -0.031214
  36 C :   -0.097644
  37 S :    0.152543
  38 C :   -0.097726
  39 N :   -0.056010
  40 N :   -0.036012
  41 C :    0.025327
  42 C :    0.028674
  43 H :    0.048583
  44 H :   -0.002386
  45 H :    0.019820
  46 H :   -0.013233
  47 H :   -0.002031
  48 H :    0.026622
  49 H :    0.044857
  50 H :    0.022189
  51 H :    0.022132
  52 H :    0.020882
  53 H :    0.040260
  54 H :    0.023863
  55 H :    0.028796
  56 H :    0.022832
  57 H :    0.019060
  58 H :   -0.004116
  59 H :    0.022196
  60 H :    0.029940
  61 H :   -0.002026
  62 H :    0.049867
  63 H :    0.032688
Sum of atomic charges:   -0.0000000

LOEWDIN ATOMIC CHARGES
----------------------
   0 C :   -0.145365
   1 S :    0.387303
   2 C :   -0.145603
   3 N :   -0.084186
   4 N :   -0.066890
   5 C :   -0.040808
   6 C :   -0.000535
   7 C :   -0.152856
   8 S :    0.483823
   9 C :   -0.234868
  10 C :    0.083336
  11 O :   -0.136314
  12 C :   -0.027152
  13 C :   -0.022072
  14 C :    0.081415
  15 N :    0.014216
  16 C :    0.036780
  17 C :   -0.063068
  18 C :    0.086338
  19 O :   -0.180244
  20 C :   -0.114277
  21 C :   -0.121502
  22 C :    0.077276
  23 O :   -0.201289
  24 N :   -0.006250
  25 C :    0.035825
  26 C :   -0.060803
  27 C :    0.075571
  28 C :   -0.012222
  29 C :    0.010188
  30 C :    0.005457
  31 N :   -0.051616
  32 C :    0.061817
  33 C :   -0.063948
  34 N :   -0.023099
  35 N :   -0.042491
  36 C :   -0.169180
  37 S :    0.432671
  38 C :   -0.142201
  39 N :   -0.081658
  40 N :   -0.069268
  41 C :   -0.061967
  42 C :    0.015089
  43 H :    0.025297
  44 H :    0.033724
  45 H :    0.041170
  46 H :   -0.003176
  47 H :    0.037626
  48 H :    0.022666
  49 H :    0.037704
  50 H :    0.021629
  51 H :    0.031208
  52 H :    0.027434
  53 H :    0.036557
  54 H :    0.023356
  55 H :    0.032080
  56 H :    0.030481
  57 H :    0.023536
  58 H :    0.032760
  59 H :    0.044355
  60 H :    0.037106
  61 H :    0.032300
  62 H :    0.035985
  63 H :    0.030830

  Mayer bond orders larger than 0.100000
B(  0-C ,  1-S ) :   1.1387 B(  0-C ,  4-N ) :   1.7259 B(  0-C , 43-H ) :   0.9713
B(  1-S ,  2-C ) :   1.1086 B(  1-S ,  4-N ) :   0.1005 B(  2-C ,  3-N ) :   1.7246
B(  2-C ,  5-C ) :   1.0930 B(  3-N ,  4-N ) :   1.2021 B(  5-C ,  6-C ) :   1.7613
B(  5-C , 44-H ) :   0.9521 B(  6-C ,  7-C ) :   1.0794 B(  6-C , 45-H ) :   0.9652
B(  7-C ,  8-S ) :   1.1637 B(  7-C , 13-C ) :   1.4498 B(  8-S ,  9-C ) :   1.1105
B(  9-C , 10-C ) :   1.0155 B(  9-C , 12-C ) :   1.4520 B( 10-C , 11-O ) :   2.1119
B( 10-C , 46-H ) :   0.9543 B( 12-C , 13-C ) :   1.3360 B( 12-C , 14-C ) :   0.9675
B( 13-C , 47-H ) :   0.9983 B( 14-C , 15-N ) :   1.2314 B( 14-C , 21-C ) :   1.4538
B( 15-N , 16-C ) :   0.9427 B( 15-N , 18-C ) :   1.0294 B( 16-C , 17-C ) :   1.1108
B( 16-C , 48-H ) :   0.9453 B( 16-C , 49-H ) :   0.9294 B( 17-C , 50-H ) :   0.9703
B( 17-C , 51-H ) :   0.9666 B( 17-C , 52-H ) :   0.9650 B( 18-C , 19-O ) :   2.0615
B( 18-C , 20-C ) :   0.9868 B( 20-C , 21-C ) :   1.2020 B( 20-C , 27-C ) :   1.3896
B( 21-C , 22-C ) :   0.9577 B( 22-C , 23-O ) :   2.1598 B( 22-C , 24-N ) :   1.0328
B( 24-N , 25-C ) :   0.9469 B( 24-N , 27-C ) :   1.1546 B( 25-C , 26-C ) :   1.1212
B( 25-C , 53-H ) :   0.9271 B( 25-C , 54-H ) :   0.9504 B( 26-C , 55-H ) :   0.9637
B( 26-C , 56-H ) :   0.9678 B( 26-C , 57-H ) :   0.9687 B( 27-C , 28-C ) :   1.1082
B( 28-C , 29-C ) :   1.6145 B( 28-C , 58-H ) :   0.9634 B( 29-C , 30-C ) :   1.0621
B( 29-C , 59-H ) :   0.9635 B( 30-C , 31-N ) :   1.4480 B( 30-C , 35-N ) :   1.5514
B( 31-N , 32-C ) :   1.6192 B( 32-C , 33-C ) :   1.2661 B( 32-C , 60-H ) :   0.9751
B( 33-C , 34-N ) :   1.5706 B( 33-C , 36-C ) :   1.0292 B( 34-N , 35-N ) :   1.3506
B( 36-C , 37-S ) :   1.1096 B( 36-C , 40-N ) :   1.7629 B( 37-S , 38-C ) :   1.1029
B( 37-S , 40-N ) :   0.1012 B( 38-C , 39-N ) :   1.6926 B( 38-C , 41-C ) :   1.0779
B( 39-N , 40-N ) :   1.2215 B( 41-C , 42-C ) :   1.9629 B( 41-C , 61-H ) :   0.9480
B( 42-C , 62-H ) :   0.9501 B( 42-C , 63-H ) :   0.9460

-----------------------------------------------------------------------------
         ABSORPTION SPECTRUM VIA TRANSITION ELECTRIC DIPOLE MOMENTS
-----------------------------------------------------------------------------
State   Energy  Wavelength   fosc         T2         TX        TY        TZ
        (cm-1)    (nm)                  (au**2)     (au)      (au)      (au)
-----------------------------------------------------------------------------
   0   17584.6    568.7   0.505782439   9.46908  -1.48809  -2.65399  -0.45938
   1   21000.3    476.2   0.121703249   1.90788   0.90838   0.95187   0.42034
   2   22484.6    444.7   0.001394153   0.02041  -0.13188   0.05115   0.02011
   3   27037.7    369.9   0.023034853   0.28047  -0.41558  -0.27362  -0.18139
   4   27441.7    364.4   0.012005465   0.14403   0.33044  -0.18030  -0.04827
   5   28443.5    351.6   0.034529452   0.39965  -0.21702   0.04179   0.59229
   6   29007.2    344.7   0.247512269   2.80910   1.39504  -0.34139   0.86395
   7   29148.4    343.1   0.149115581   1.68416   1.01941  -0.24449   0.76498
   8   30503.7    327.8   0.258973403   2.79497   0.92544   0.91807   1.04675
   9   30681.4    325.9   0.069713079   0.74802   0.53979   0.48175   0.47389
  10   30741.2    325.3   0.593252629   6.35323  -1.47503  -1.46661  -1.42358
  11   31321.4    319.3   0.004622737   0.04859   0.20034   0.06468   0.06535
  12   31401.7    318.5   0.315900442   3.31187   0.29964   1.43421   1.07941
  13   31788.5    314.6   0.840112165   8.70047   2.20636  -0.37060   1.92227
  14   32789.5    305.0   0.003327939   0.03341   0.12013   0.10793   0.08564
  15   33390.6    299.5   0.113703175   1.12105   0.30192   0.34360   0.95490
  16   34543.5    289.5   0.029856598   0.28454   0.00947   0.11000   0.52188
  17   36570.9    273.4   0.000085964   0.00077   0.00279  -0.00643  -0.02692
  18   37425.1    267.2   0.018928292   0.16650  -0.05464   0.40162   0.04716
  19   37708.5    265.2   0.006673773   0.05827   0.07962  -0.22687   0.02133
  20   39172.6    255.3   0.152513295   1.28174   0.08085   0.77534   0.82101
  21   39288.1    254.5   0.064415953   0.53977   0.07373   0.68997  -0.24140
  22   39702.8    251.9   0.038764868   0.32144   0.25237   0.12388   0.49234
  23   40015.3    249.9   0.108972283   0.89653  -0.59379  -0.38579  -0.62858
  24   40316.8    248.0   0.009065459   0.07403  -0.25414  -0.05405  -0.08071

FINAL SINGLE POINT ENERGY     -2989.935578804861

DIPOLE MOMENT
-------------
                                X             Y             Z
Electronic contribution:      6.61849       4.35192       1.00504
Nuclear contribution   :     -5.83639      -5.30895      -0.91761
                        -----------------------------------------
Total Dipole Moment    :      0.78210      -0.95703       0.08743
                        -----------------------------------------
Magnitude (a.u.)       :      1.23904
Magnitude (Debye)      :      3.14940

Rotational constants in cm-1:     0.005231     0.000623     0.000593
Rotational constants in MHz :   156.816571    18.672314    17.765768

                             ****ORCA TERMINATED NORMALLY****
TOTAL RUN TIME: 0 days 0 hours 3 minutes 40 seconds 54 msec
