                         Program Version 4.2.0 -  RELEASE  -
|  1> # ORCA input file
|  2> # SCF done       -174.297272395492          0.000844930426
|  3> ! CAM-B3LYP def2-SVP def2/J RIJCOSX Grid4 TightSCF
|  4> %maxcore 5000
|  5> %tddft
|  6>     Mode sTDDFT
|  7>     Ethresh 5.0
|  8>     maxcore 5000
|  9> end
| 10>
| 11> %pal
| 12>   nprocs 6
| 13>   end
| 14> * xyz 0 1
| 15>    C        2.02907         0.95628         0.21308
| 16>    C        0.97176         0.14937        -0.19263
| 17>    C        0.88520        -1.23546         0.19736
| 18>    N       -0.18371        -1.97314        -0.19497
| 19>    C       -1.08739        -1.40606        -0.93489
| 20>    C       -0.98474        -0.05114        -1.34217
| 21>    N        0.00811         0.69929        -0.97699
| 22>    C        1.86655        -1.83099         1.01153
| 23>    C        2.91939        -1.00271         1.42671
| 24>    C        3.00173         0.38614         1.01990
| 25>    N        4.09816         0.98279         1.51340
| 26>    S        4.92003        -0.08070         2.37411
| 27>    N        3.96797        -1.34940         2.18824
| 28>    C        1.79820        -3.22988         1.42512
| 29>    C        2.22394        -3.60428         2.69631
| 30>    C        2.16356        -4.92749         3.09843
| 31>    N        2.70801        -5.25458         4.38962
| 32>    O        2.77178        -4.36658         5.21256
| 33>    O        3.10448        -6.38846         4.56566
| 34>    C        1.66208        -5.93578         2.25824
| 35>    C        1.26075        -5.54332         0.97719
| 36>    C        1.32762        -4.22994         0.56688
| 37>    C        1.49653        -7.30035         2.70787
| 38>    C        1.74094        -8.38005         1.93883
| 39>    C        1.54021        -9.70664         2.41882
| 40>    N        1.95790       -10.83590         1.75339
| 41>    C        2.72130       -10.88212         0.53090
| 42>    C        4.18688       -10.52222         0.76297
| 43>    C        1.64890       -12.00959         2.46357
| 44>    O        1.93180       -13.12465         2.06773
| 45>    C        0.96456       -11.54273         3.64627
| 46>    C        0.91364       -10.12286         3.58550
| 47>    C        0.21688        -9.65199         4.75896
| 48>    O       -0.08402        -8.53765         5.14032
| 49>    N       -0.09537       -10.82414         5.46938
| 50>    C       -0.83982       -10.76783         6.70286
| 51>    C       -2.31229       -11.11601         6.49532
| 52>    C        0.34096       -11.95673         4.81808
| 53>    C        0.16976       -13.27094         5.33293
| 54>    C        0.61726       -14.36884         4.68172
| 55>    C        0.51188       -15.72858         5.14212
| 56>    C        1.14934       -16.73404         4.40571
| 57>    C        1.10350       -18.05299         4.81269
| 58>    N        1.93713       -18.98367         4.08520
| 59>    O        1.92205       -18.91665         2.87658
| 60>    O        2.64165       -19.72384         4.73619
| 61>    C        0.37559       -18.45184         5.94692
| 62>    C       -0.23424       -17.43272         6.69088
| 63>    C       -0.16976       -16.11446         6.30682
| 64>    C        0.18092       -19.82746         6.34043
| 65>    C        0.06808       -20.85893         5.48254
| 66>    C       -0.13125       -22.22863         5.85665
| 67>    C       -0.20605       -23.20979         4.84120
| 68>    C       -0.34628       -24.60840         5.14251
| 69>    N       -0.38848       -25.52326         4.13798
| 70>    C       -0.29843       -25.08995         2.91794
| 71>    C       -0.17893       -23.70884         2.61832
| 72>    N       -0.13826       -22.80511         3.55065
| 73>    C       -0.43688       -25.05864         6.45547
| 74>    C       -0.38609       -24.11079         7.46775
| 75>    C       -0.23149       -22.69722         7.18102
| 76>    N       -0.20621       -21.97431         8.30721
| 77>    S       -0.35339       -22.95748         9.56495
| 78>    N       -0.46251       -24.34552         8.78651
| 79>    H        2.07934         1.98624        -0.09650
| 80>    H       -1.93177        -2.01737        -1.22454
| 81>    H       -1.74095         0.40519        -1.96675
| 82>    H        2.61755        -2.87285         3.38450
| 83>    H        0.86214        -6.29164         0.30919
| 84>    H        1.01356        -3.96414        -0.42902
| 85>    H        1.15591        -7.44841         3.72465
| 86>    H        2.14869        -8.25963         0.94462
| 87>    H        2.26924       -10.21597        -0.20995
| 88>    H        2.64797       -11.91158         0.16877
| 89>    H        4.28137        -9.52122         1.17826
| 90>    H        4.73134       -10.56702        -0.17632
| 91>    H        4.63491       -11.22720         1.45869
| 92>    H       -0.75465        -9.73688         7.05801
| 93>    H       -0.38082       -11.43155         7.44139
| 94>    H       -2.76289       -10.41345         5.79870
| 95>    H       -2.84299       -11.05539         7.44156
| 96>    H       -2.42462       -12.12039         6.09228
| 97>    H       -0.32314       -13.35989         6.28972
| 98>    H        1.11586       -14.23574         3.73077
| 99>    H        1.71286       -16.47551         3.52072
|100>    H       -0.78752       -17.70765         7.57649
|101>    H       -0.66504       -15.37088         6.91123
|102>    H        0.05288       -20.00926         7.39824
|103>    H        0.10833       -20.70724         4.41212
|104>    H       -0.32622       -25.83275         2.13184
|105>    H       -0.12268       -23.35707         1.59704
|106>    H       -0.53652       -26.10931         6.66855
|107> *
|108>
|109>                          ****END OF INPUT****

CARTESIAN COORDINATES (ANGSTROEM)
---------------------------------
  C      2.029070    0.956280    0.213080
  C      0.971760    0.149370   -0.192630
  C      0.885200   -1.235460    0.197360
  N     -0.183710   -1.973140   -0.194970
  C     -1.087390   -1.406060   -0.934890
  C     -0.984740   -0.051140   -1.342170
  N      0.008110    0.699290   -0.976990
  C      1.866550   -1.830990    1.011530
  C      2.919390   -1.002710    1.426710
  C      3.001730    0.386140    1.019900
  N      4.098160    0.982790    1.513400
  S      4.920030   -0.080700    2.374110
  N      3.967970   -1.349400    2.188240
  C      1.798200   -3.229880    1.425120
  C      2.223940   -3.604280    2.696310
  C      2.163560   -4.927490    3.098430
  N      2.708010   -5.254580    4.389620
  O      2.771780   -4.366580    5.212560
  O      3.104480   -6.388460    4.565660
  C      1.662080   -5.935780    2.258240
  C      1.260750   -5.543320    0.977190
  C      1.327620   -4.229940    0.566880
  C      1.496530   -7.300350    2.707870
  C      1.740940   -8.380050    1.938830
  C      1.540210   -9.706640    2.418820
  N      1.957900  -10.835900    1.753390
  C      2.721300  -10.882120    0.530900
  C      4.186880  -10.522220    0.762970
  C      1.648900  -12.009590    2.463570
  O      1.931800  -13.124650    2.067730
  C      0.964560  -11.542730    3.646270
  C      0.913640  -10.122860    3.585500
  C      0.216880   -9.651990    4.758960
  O     -0.084020   -8.537650    5.140320
  N     -0.095370  -10.824140    5.469380
  C     -0.839820  -10.767830    6.702860
  C     -2.312290  -11.116010    6.495320
  C      0.340960  -11.956730    4.818080
  C      0.169760  -13.270940    5.332930
  C      0.617260  -14.368840    4.681720
  C      0.511880  -15.728580    5.142120
  C      1.149340  -16.734040    4.405710
  C      1.103500  -18.052990    4.812690
  N      1.937130  -18.983670    4.085200
  O      1.922050  -18.916650    2.876580
  O      2.641650  -19.723840    4.736190
  C      0.375590  -18.451840    5.946920
  C     -0.234240  -17.432720    6.690880
  C     -0.169760  -16.114460    6.306820
  C      0.180920  -19.827460    6.340430
  C      0.068080  -20.858930    5.482540
  C     -0.131250  -22.228630    5.856650
  C     -0.206050  -23.209790    4.841200
  C     -0.346280  -24.608400    5.142510
  N     -0.388480  -25.523260    4.137980
  C     -0.298430  -25.089950    2.917940
  C     -0.178930  -23.708840    2.618320
  N     -0.138260  -22.805110    3.550650
  C     -0.436880  -25.058640    6.455470
  C     -0.386090  -24.110790    7.467750
  C     -0.231490  -22.697220    7.181020
  N     -0.206210  -21.974310    8.307210
  S     -0.353390  -22.957480    9.564950
  N     -0.462510  -24.345520    8.786510
  H      2.079340    1.986240   -0.096500
  H     -1.931770   -2.017370   -1.224540
  H     -1.740950    0.405190   -1.966750
  H      2.617550   -2.872850    3.384500
  H      0.862140   -6.291640    0.309190
  H      1.013560   -3.964140   -0.429020
  H      1.155910   -7.448410    3.724650
  H      2.148690   -8.259630    0.944620
  H      2.269240  -10.215970   -0.209950
  H      2.647970  -11.911580    0.168770
  H      4.281370   -9.521220    1.178260
  H      4.731340  -10.567020   -0.176320
  H      4.634910  -11.227200    1.458690
  H     -0.754650   -9.736880    7.058010
  H     -0.380820  -11.431550    7.441390
  H     -2.762890  -10.413450    5.798700
  H     -2.842990  -11.055390    7.441560
  H     -2.424620  -12.120390    6.092280
  H     -0.323140  -13.359890    6.289720
  H      1.115860  -14.235740    3.730770
  H      1.712860  -16.475510    3.520720
  H     -0.787520  -17.707650    7.576490
  H     -0.665040  -15.370880    6.911230
  H      0.052880  -20.009260    7.398240
  H      0.108330  -20.707240    4.412120
  H     -0.326220  -25.832750    2.131840
  H     -0.122680  -23.357070    1.597040
  H     -0.536520  -26.109310    6.668550

 Total Charge           Charge          ....    0
 Multiplicity           Mult            ....    1
 Number of Electrons    NEL             ....  456
 Basis Dimension        Dim             .... 1044

ORBITAL ENERGIES
----------------

  NO   OCC          E(Eh)            E(eV)
   0   2.0000     -89.038683     -2422.8657
   1   2.0000     -89.031487     -2422.6699
   2   2.0000     -19.234660      -523.4017
   3   2.0000     -19.234594      -523.3999
   4   2.0000     -19.232930      -523.3546
   5   2.0000     -19.232819      -523.3516
   6   2.0000     -19.183415      -522.0073
   7   2.0000     -19.181305      -521.9498
   8   2.0000     -14.638880      -398.3442
   9   2.0000     -14.637537      -398.3076
  10   2.0000     -14.445841      -393.0913
  11   2.0000     -14.445344      -393.0778
  12   2.0000     -14.443594      -393.0302
  13   2.0000     -14.442660      -393.0048
  14   2.0000     -14.438568      -392.8934
  15   2.0000     -14.437590      -392.8668
  16   2.0000     -14.434078      -392.7712
  17   2.0000     -14.432072      -392.7166
  18   2.0000     -14.424553      -392.5120
  19   2.0000     -14.422868      -392.4662
  20   2.0000     -10.365821      -282.0683
  21   2.0000     -10.364377      -282.0290
  22   2.0000     -10.332268      -281.1553
  23   2.0000     -10.330871      -281.1173
  24   2.0000     -10.330822      -281.1160
  25   2.0000     -10.330509      -281.1074
  26   2.0000     -10.330112      -281.0966
  27   2.0000     -10.329564      -281.0817
  28   2.0000     -10.328779      -281.0604
  29   2.0000     -10.327746      -281.0322
  30   2.0000     -10.324603      -280.9467
  31   2.0000     -10.322943      -280.9016
  32   2.0000     -10.322451      -280.8882
  33   2.0000     -10.322067      -280.8777
  34   2.0000     -10.320286      -280.8293
  35   2.0000     -10.319924      -280.8194
  36   2.0000     -10.319810      -280.8163
  37   2.0000     -10.318711      -280.7864
  38   2.0000     -10.307735      -280.4877
  39   2.0000     -10.303761      -280.3796
  40   2.0000     -10.303294      -280.3669
  41   2.0000     -10.302962      -280.3578
  42   2.0000     -10.300423      -280.2888
  43   2.0000     -10.297023      -280.1962
  44   2.0000     -10.296190      -280.1736
  45   2.0000     -10.292581      -280.0754
  46   2.0000     -10.291843      -280.0553
  47   2.0000     -10.290643      -280.0226
  48   2.0000     -10.289216      -279.9838
  49   2.0000     -10.288069      -279.9526
  50   2.0000     -10.287170      -279.9281
  51   2.0000     -10.285718      -279.8886
  52   2.0000     -10.285491      -279.8824
  53   2.0000     -10.284983      -279.8686
  54   2.0000     -10.284611      -279.8585
  55   2.0000     -10.283917      -279.8396
  56   2.0000     -10.283843      -279.8376
  57   2.0000     -10.282730      -279.8073
  58   2.0000     -10.272550      -279.5303
  59   2.0000     -10.271520      -279.5023
  60   2.0000     -10.260698      -279.2078
  61   2.0000     -10.257909      -279.1319
  62   2.0000     -10.251296      -278.9519
  63   2.0000     -10.250133      -278.9203
  64   2.0000      -8.129969      -221.2277
  65   2.0000      -8.123005      -221.0382
  66   2.0000      -6.100784      -166.0108
  67   2.0000      -6.093954      -165.8249
  68   2.0000      -6.093284      -165.8067
  69   2.0000      -6.093050      -165.8003
  70   2.0000      -6.086141      -165.6123
  71   2.0000      -6.086075      -165.6105
  72   2.0000      -1.314532       -35.7702
  73   2.0000      -1.314396       -35.7665
  74   2.0000      -1.133350       -30.8400
  75   2.0000      -1.133265       -30.8377
  76   2.0000      -1.133080       -30.8327
  77   2.0000      -1.126212       -30.6458
  78   2.0000      -1.125253       -30.6197
  79   2.0000      -1.118519       -30.4365
  80   2.0000      -1.088875       -29.6298
  81   2.0000      -1.079431       -29.3728
  82   2.0000      -1.055444       -28.7201
  83   2.0000      -1.047519       -28.5045
  84   2.0000      -1.014197       -27.5977
  85   2.0000      -1.004110       -27.3232
  86   2.0000      -0.989437       -26.9239
  87   2.0000      -0.982665       -26.7397
  88   2.0000      -0.979955       -26.6659
  89   2.0000      -0.977941       -26.6111
  90   2.0000      -0.959734       -26.1157
  91   2.0000      -0.952301       -25.9134
  92   2.0000      -0.923135       -25.1198
  93   2.0000      -0.917623       -24.9698
  94   2.0000      -0.909178       -24.7400
  95   2.0000      -0.896725       -24.4011
  96   2.0000      -0.890228       -24.2243
  97   2.0000      -0.883247       -24.0344
  98   2.0000      -0.872885       -23.7524
  99   2.0000      -0.870849       -23.6970
 100   2.0000      -0.864691       -23.5294
 101   2.0000      -0.863743       -23.5036
 102   2.0000      -0.857721       -23.3398
 103   2.0000      -0.837256       -22.7829
 104   2.0000      -0.822185       -22.3728
 105   2.0000      -0.814309       -22.1585
 106   2.0000      -0.797859       -21.7109
 107   2.0000      -0.791169       -21.5288
 108   2.0000      -0.785627       -21.3780
 109   2.0000      -0.783076       -21.3086
 110   2.0000      -0.773659       -21.0523
 111   2.0000      -0.764016       -20.7899
 112   2.0000      -0.755076       -20.5467
 113   2.0000      -0.747464       -20.3395
 114   2.0000      -0.738223       -20.0881
 115   2.0000      -0.733532       -19.9604
 116   2.0000      -0.723051       -19.6752
 117   2.0000      -0.710276       -19.3276
 118   2.0000      -0.704770       -19.1778
 119   2.0000      -0.702202       -19.1079
 120   2.0000      -0.700549       -19.0629
 121   2.0000      -0.693896       -18.8819
 122   2.0000      -0.691954       -18.8290
 123   2.0000      -0.679554       -18.4916
 124   2.0000      -0.661917       -18.0117
 125   2.0000      -0.659984       -17.9591
 126   2.0000      -0.656060       -17.8523
 127   2.0000      -0.649947       -17.6860
 128   2.0000      -0.644861       -17.5475
 129   2.0000      -0.640935       -17.4407
 130   2.0000      -0.634681       -17.2705
 131   2.0000      -0.632490       -17.2109
 132   2.0000      -0.627312       -17.0700
 133   2.0000      -0.621975       -16.9248
 134   2.0000      -0.619334       -16.8529
 135   2.0000      -0.617407       -16.8005
 136   2.0000      -0.611223       -16.6322
 137   2.0000      -0.604578       -16.4514
 138   2.0000      -0.603510       -16.4223
 139   2.0000      -0.596902       -16.2425
 140   2.0000      -0.588307       -16.0086
 141   2.0000      -0.586104       -15.9487
 142   2.0000      -0.582249       -15.8438
 143   2.0000      -0.578992       -15.7552
 144   2.0000      -0.573617       -15.6089
 145   2.0000      -0.569687       -15.5020
 146   2.0000      -0.567494       -15.4423
 147   2.0000      -0.563547       -15.3349
 148   2.0000      -0.560817       -15.2606
 149   2.0000      -0.558811       -15.2060
 150   2.0000      -0.556092       -15.1320
 151   2.0000      -0.555022       -15.1029
 152   2.0000      -0.551814       -15.0156
 153   2.0000      -0.548801       -14.9336
 154   2.0000      -0.544447       -14.8152
 155   2.0000      -0.540795       -14.7158
 156   2.0000      -0.536639       -14.6027
 157   2.0000      -0.535621       -14.5750
 158   2.0000      -0.527751       -14.3608
 159   2.0000      -0.526930       -14.3385
 160   2.0000      -0.525435       -14.2978
 161   2.0000      -0.522619       -14.2212
 162   2.0000      -0.522311       -14.2128
 163   2.0000      -0.519309       -14.1311
 164   2.0000      -0.518271       -14.1029
 165   2.0000      -0.514441       -13.9986
 166   2.0000      -0.510952       -13.9037
 167   2.0000      -0.508944       -13.8491
 168   2.0000      -0.502838       -13.6829
 169   2.0000      -0.499015       -13.5789
 170   2.0000      -0.491419       -13.3722
 171   2.0000      -0.489260       -13.3134
 172   2.0000      -0.482983       -13.1426
 173   2.0000      -0.480701       -13.0805
 174   2.0000      -0.479300       -13.0424
 175   2.0000      -0.475963       -12.9516
 176   2.0000      -0.473697       -12.8899
 177   2.0000      -0.472020       -12.8443
 178   2.0000      -0.468863       -12.7584
 179   2.0000      -0.464339       -12.6353
 180   2.0000      -0.461200       -12.5499
 181   2.0000      -0.457219       -12.4416
 182   2.0000      -0.454404       -12.3650
 183   2.0000      -0.452733       -12.3195
 184   2.0000      -0.449393       -12.2286
 185   2.0000      -0.448366       -12.2007
 186   2.0000      -0.445144       -12.1130
 187   2.0000      -0.443279       -12.0622
 188   2.0000      -0.441638       -12.0176
 189   2.0000      -0.437020       -11.8919
 190   2.0000      -0.432966       -11.7816
 191   2.0000      -0.431114       -11.7312
 192   2.0000      -0.429488       -11.6870
 193   2.0000      -0.426122       -11.5954
 194   2.0000      -0.422662       -11.5012
 195   2.0000      -0.419771       -11.4225
 196   2.0000      -0.414436       -11.2774
 197   2.0000      -0.406936       -11.0733
 198   2.0000      -0.404440       -11.0054
 199   2.0000      -0.401363       -10.9217
 200   2.0000      -0.398490       -10.8435
 201   2.0000      -0.395415       -10.7598
 202   2.0000      -0.393497       -10.7076
 203   2.0000      -0.384281       -10.4568
 204   2.0000      -0.381977       -10.3941
 205   2.0000      -0.377254       -10.2656
 206   2.0000      -0.374614       -10.1938
 207   2.0000      -0.371893       -10.1197
 208   2.0000      -0.371675       -10.1138
 209   2.0000      -0.369336       -10.0501
 210   2.0000      -0.367656       -10.0044
 211   2.0000      -0.363373        -9.8879
 212   2.0000      -0.353142        -9.6095
 213   2.0000      -0.346091        -9.4176
 214   2.0000      -0.340342        -9.2612
 215   2.0000      -0.338991        -9.2244
 216   2.0000      -0.338045        -9.1987
 217   2.0000      -0.332702        -9.0533
 218   2.0000      -0.330269        -8.9871
 219   2.0000      -0.326336        -8.8801
 220   2.0000      -0.323676        -8.8077
 221   2.0000      -0.322128        -8.7656
 222   2.0000      -0.321094        -8.7374
 223   2.0000      -0.308332        -8.3901
 224   2.0000      -0.306213        -8.3325
 225   2.0000      -0.280714        -7.6386
 226   2.0000      -0.261763        -7.1229
 227   2.0000      -0.229488        -6.2447
 228   0.0000      -0.096245        -2.6190
 229   0.0000      -0.092608        -2.5200
 230   0.0000      -0.070591        -1.9209
 231   0.0000      -0.041109        -1.1186
 232   0.0000      -0.030820        -0.8387

MULLIKEN ATOMIC CHARGES
-----------------------
   0 C :   -0.082123
   1 C :    0.015750
   2 C :   -0.062530
   3 N :   -0.028666
   4 C :    0.026250
   5 C :    0.021317
   6 N :   -0.018917
   7 C :    0.119687
   8 C :   -0.029199
   9 C :    0.105035
  10 N :   -0.271375
  11 S :    0.543992
  12 N :   -0.291032
  13 C :   -0.000319
  14 C :   -0.024945
  15 C :    0.138572
  16 N :    0.244615
  17 O :   -0.233219
  18 O :   -0.228617
  19 C :    0.051507
  20 C :   -0.047136
  21 C :    0.071797
  22 C :    0.033845
  23 C :   -0.038857
  24 C :    0.123909
  25 N :   -0.258857
  26 C :    0.100466
  27 C :    0.002275
  28 C :    0.163592
  29 O :   -0.215969
  30 C :   -0.068295
  31 C :   -0.062281
  32 C :    0.164036
  33 O :   -0.211837
  34 N :   -0.262376
  35 C :    0.102876
  36 C :    0.004287
  37 C :    0.128534
  38 C :    0.004206
  39 C :    0.003355
  40 C :    0.098621
  41 C :   -0.035519
  42 C :    0.107385
  43 N :    0.227539
  44 O :   -0.232464
  45 O :   -0.218840
  46 C :    0.106338
  47 C :   -0.020222
  48 C :    0.011900
  49 C :   -0.001819
  50 C :   -0.046972
  51 C :    0.089747
  52 C :   -0.050944
  53 C :    0.015836
  54 N :   -0.020329
  55 C :    0.019092
  56 C :    0.028025
  57 N :   -0.017784
  58 C :   -0.082269
  59 C :    0.106035
  60 C :   -0.016497
  61 N :   -0.295706
  62 S :    0.531303
  63 N :   -0.272777
  64 H :   -0.025220
  65 H :    0.016632
  66 H :    0.018573
  67 H :    0.004823
  68 H :   -0.015596
  69 H :   -0.013466
  70 H :    0.041501
  71 H :   -0.025638
  72 H :    0.018614
  73 H :    0.042892
  74 H :    0.021001
  75 H :    0.020257
  76 H :    0.030777
  77 H :    0.044444
  78 H :    0.021408
  79 H :    0.030294
  80 H :    0.020776
  81 H :    0.011819
  82 H :   -0.036241
  83 H :    0.009438
  84 H :    0.010093
  85 H :   -0.017234
  86 H :   -0.019990
  87 H :    0.012704
  88 H :    0.006003
  89 H :    0.017850
  90 H :    0.018871
  91 H :   -0.028415
Sum of atomic charges:   -0.0000000

LOEWDIN ATOMIC CHARGES
----------------------
   0 C :   -0.004993
   1 C :   -0.014176
   2 C :   -0.011209
   3 N :   -0.032003
   4 C :    0.009369
   5 C :    0.007007
   6 N :   -0.032921
   7 C :   -0.014114
   8 C :   -0.044705
   9 C :   -0.052203
  10 N :   -0.290981
  11 S :    0.686790
  12 N :   -0.292281
  13 C :   -0.016443
  14 C :    0.024670
  15 C :   -0.028434
  16 N :    0.286513
  17 O :   -0.201537
  18 O :   -0.188474
  19 C :   -0.003768
  20 C :   -0.015876
  21 C :    0.025046
  22 C :    0.041232
  23 C :   -0.051007
  24 C :    0.077835
  25 N :   -0.000685
  26 C :    0.035927
  27 C :   -0.061211
  28 C :    0.080075
  29 O :   -0.206124
  30 C :   -0.124653
  31 C :   -0.123243
  32 C :    0.080773
  33 O :   -0.201805
  34 N :   -0.001709
  35 C :    0.035957
  36 C :   -0.061821
  37 C :    0.076685
  38 C :   -0.049365
  39 C :    0.033492
  40 C :   -0.030117
  41 C :    0.015793
  42 C :   -0.020362
  43 N :    0.281162
  44 O :   -0.198662
  45 O :   -0.192473
  46 C :   -0.001856
  47 C :   -0.006707
  48 C :    0.005143
  49 C :   -0.010539
  50 C :   -0.005192
  51 C :   -0.017003
  52 C :   -0.007873
  53 C :   -0.014719
  54 N :   -0.035982
  55 C :    0.007630
  56 C :    0.011237
  57 N :   -0.029337
  58 C :   -0.009576
  59 C :   -0.051710
  60 C :   -0.040720
  61 N :   -0.291190
  62 S :    0.670984
  63 N :   -0.288507
  64 H :    0.044987
  65 H :    0.027779
  66 H :    0.028369
  67 H :    0.038273
  68 H :    0.032460
  69 H :    0.031476
  70 H :    0.038189
  71 H :    0.026508
  72 H :    0.020837
  73 H :    0.037209
  74 H :    0.024169
  75 H :    0.029302
  76 H :    0.032678
  77 H :    0.038422
  78 H :    0.021747
  79 H :    0.032546
  80 H :    0.029346
  81 H :    0.020645
  82 H :    0.024326
  83 H :    0.038149
  84 H :    0.045909
  85 H :    0.034187
  86 H :    0.029499
  87 H :    0.029837
  88 H :    0.027663
  89 H :    0.027713
  90 H :    0.029136
  91 H :    0.043585

  Mayer bond orders larger than 0.100000
B(  0-C ,  1-C ) :   1.3175 B(  0-C ,  7-C ) :   0.1527 B(  0-C ,  9-C ) :   1.1836
B(  0-C , 64-H ) :   1.0616 B(  1-C ,  2-C ) :   1.1325 B(  1-C ,  6-N ) :   1.3523
B(  2-C ,  3-N ) :   1.4061 B(  2-C ,  7-C ) :   1.3587 B(  3-N ,  4-C ) :   1.7260
B(  4-C ,  5-C ) :   1.1521 B(  4-C , 65-H ) :   0.9732 B(  5-C ,  6-N ) :   1.7467
B(  5-C , 66-H ) :   0.9737 B(  7-C ,  8-C ) :   1.2708 B(  7-C , 13-C ) :   0.9818
B(  8-C ,  9-C ) :   1.1251 B(  8-C , 12-N ) :   1.4679 B(  9-C , 10-N ) :   1.4442
B( 10-N , 11-S ) :   1.3183 B( 10-N , 12-N ) :   0.1657 B( 11-S , 12-N ) :   1.2980
B( 13-C , 14-C ) :   1.3235 B( 13-C , 21-C ) :   1.3593 B( 14-C , 15-C ) :   1.3818
B( 14-C , 67-H ) :   0.9832 B( 15-C , 16-N ) :   0.8804 B( 15-C , 19-C ) :   1.3462
B( 16-N , 17-O ) :   1.5555 B( 16-N , 18-O ) :   1.5295 B( 17-O , 18-O ) :   0.2654
B( 19-C , 20-C ) :   1.3564 B( 19-C , 22-C ) :   1.0347 B( 20-C , 21-C ) :   1.3825
B( 20-C , 68-H ) :   0.9915 B( 21-C , 69-H ) :   0.9827 B( 22-C , 23-C ) :   1.7043
B( 22-C , 70-H ) :   0.9143 B( 23-C , 24-C ) :   1.1384 B( 23-C , 71-H ) :   0.9621
B( 24-C , 25-N ) :   1.1586 B( 24-C , 31-C ) :   1.3640 B( 25-N , 26-C ) :   0.9490
B( 25-N , 28-C ) :   1.0594 B( 26-C , 27-C ) :   1.1195 B( 26-C , 72-H ) :   0.9499
B( 26-C , 73-H ) :   0.9287 B( 27-C , 74-H ) :   0.9688 B( 27-C , 75-H ) :   0.9675
B( 27-C , 76-H ) :   0.9636 B( 28-C , 29-O ) :   2.0181 B( 28-C , 30-C ) :   0.9913
B( 29-O , 83-H ) :   0.1148 B( 30-C , 31-C ) :   1.2351 B( 30-C , 37-C ) :   1.3574
B( 31-C , 32-C ) :   0.9878 B( 32-C , 33-O ) :   2.0370 B( 32-C , 34-N ) :   1.0538
B( 34-N , 35-C ) :   0.9488 B( 34-N , 37-C ) :   1.1564 B( 35-C , 36-C ) :   1.1201
B( 35-C , 77-H ) :   0.9271 B( 35-C , 78-H ) :   0.9491 B( 36-C , 79-H ) :   0.9635
B( 36-C , 80-H ) :   0.9680 B( 36-C , 81-H ) :   0.9687 B( 37-C , 38-C ) :   1.1483
B( 38-C , 39-C ) :   1.6150 B( 38-C , 82-H ) :   0.9550 B( 39-C , 40-C ) :   1.0781
B( 39-C , 83-H ) :   0.9660 B( 40-C , 41-C ) :   1.2918 B( 40-C , 48-C ) :   1.3140
B( 41-C , 42-C ) :   1.3888 B( 41-C , 84-H ) :   1.0057 B( 42-C , 43-N ) :   0.8515
B( 42-C , 46-C ) :   1.3627 B( 43-N , 44-O ) :   1.5320 B( 43-N , 45-O ) :   1.5542
B( 44-O , 45-O ) :   0.2742 B( 46-C , 47-C ) :   1.3265 B( 46-C , 49-C ) :   1.0476
B( 47-C , 48-C ) :   1.4156 B( 47-C , 85-H ) :   0.9914 B( 48-C , 86-H ) :   0.9921
B( 49-C , 50-C ) :   1.6740 B( 49-C , 87-H ) :   0.9394 B( 50-C , 51-C ) :   1.1946
B( 50-C , 88-H ) :   0.9462 B( 51-C , 52-C ) :   1.2991 B( 51-C , 58-C ) :   0.1488
B( 51-C , 60-C ) :   1.2105 B( 52-C , 53-C ) :   1.1390 B( 52-C , 57-N ) :   1.4299
B( 53-C , 54-N ) :   1.3530 B( 53-C , 58-C ) :   1.3213 B( 54-N , 55-C ) :   1.7447
B( 55-C , 56-C ) :   1.1539 B( 55-C , 89-H ) :   0.9734 B( 56-C , 57-N ) :   1.7264
B( 56-C , 90-H ) :   0.9747 B( 58-C , 59-C ) :   1.1800 B( 58-C , 91-H ) :   1.0580
B( 59-C , 60-C ) :   1.1297 B( 59-C , 63-N ) :   1.4489 B( 60-C , 61-N ) :   1.4762
B( 61-N , 62-S ) :   1.2795 B( 61-N , 63-N ) :   0.1641 B( 62-S , 63-N ) :   1.3151

-----------------------------------------------------------------------------
         ABSORPTION SPECTRUM VIA TRANSITION ELECTRIC DIPOLE MOMENTS
-----------------------------------------------------------------------------
State   Energy  Wavelength   fosc         T2         TX        TY        TZ
        (cm-1)    (nm)                  (au**2)     (au)      (au)      (au)
-----------------------------------------------------------------------------
   0   16334.2    612.2   1.162782266  23.43559   0.84316   4.46705  -1.66438
   1   18521.4    539.9   0.035221570   0.62605   0.12110   0.78041   0.04855
   2   20016.6    499.6   0.049479026   0.81378  -0.33963   0.51534   0.65792
   3   22406.7    446.3   0.125423720   1.84280   0.26020   1.31146  -0.23489
   4   23489.2    425.7   0.243053805   3.40652   0.03038   1.78514  -0.46785
   5   24822.6    402.9   0.027907183   0.37012  -0.06671  -0.36127   0.48493
   6   25134.6    397.9   0.004639012   0.06076  -0.23003  -0.07618   0.04520
   7   25382.2    394.0   0.013634122   0.17684   0.08560   0.27386  -0.30743
   8   26792.9    373.2   0.127345919   1.56474   0.07423   1.22991   0.21576
   9   27634.5    361.9   0.056484862   0.67291  -0.03735  -0.77967   0.25226
  10   28267.6    353.8   0.106725751   1.24296  -0.05296   1.11339  -0.02261
  11   29986.0    333.5   0.005938784   0.06520  -0.06469   0.24680   0.01041
  12   30254.2    330.5   0.032670297   0.35550   0.21640  -0.49696  -0.24841
  13   30806.9    324.6   0.043214080   0.46180  -0.08045   0.67462   0.01485
  14   30998.0    322.6   0.167863042   1.78278  -0.17495  -1.32280  -0.04873
  15   31721.7    315.2   0.076825139   0.79730   0.10085  -0.74894  -0.47562
  16   32365.3    309.0   0.021496379   0.21866   0.19321   0.35608   0.23352
  17   32609.7    306.7   0.163105522   1.64664  -0.13395   0.33190  -1.23229
  18   32787.3    305.0   0.178175047   1.78903   0.18346  -0.46574  -1.24035
  19   33177.4    301.4   0.193140365   1.91649   1.23007  -0.00014   0.63516
  20   33690.6    296.8   0.138815639   1.35645  -0.97281  -0.30181  -0.56480
  21   34029.6    293.9   0.032929934   0.31857  -0.12188  -0.54878   0.05064
  22   34243.3    292.0   0.004583046   0.04406   0.09226   0.14765   0.11725
  23   34412.1    290.6   0.003729487   0.03568   0.08582  -0.16797  -0.01004
  24   34628.9    288.8   0.012272300   0.11667   0.29775   0.13344  -0.10106
  25   35106.1    284.9   0.025409140   0.23828  -0.06763  -0.07105  -0.47818
  26   35496.2    281.7   0.003234726   0.03000  -0.00160  -0.15139  -0.08413
  27   35750.5    279.7   0.015467179   0.14243   0.22994  -0.15089  -0.25844
  28   36082.5    277.1   0.025694025   0.23443  -0.00064  -0.44602   0.18840
  29   36364.4    275.0   0.000882728   0.00799   0.00384  -0.04747  -0.07566
  30   36566.8    273.5   0.166942162   1.50298   0.30502  -1.17273   0.18616
  31   37063.0    269.8   0.637406129   5.66176   0.40787  -2.32726  -0.28152
  32   37436.7    267.1   0.052005028   0.45732   0.11177  -0.66386   0.06417
  33   38116.3    262.4   0.043768772   0.37803   0.12092  -0.58692  -0.13761
  34   38334.4    260.9   0.065167410   0.55965   0.10886   0.69623   0.25112
  35   38576.4    259.2   0.001167340   0.00996  -0.02924   0.02005  -0.09330
  36   38859.4    257.3   0.030275907   0.25649  -0.22997  -0.31151  -0.32645
  37   39030.1    256.2   0.016055740   0.13543  -0.32592   0.13717   0.10193
  38   39133.3    255.5   0.016689664   0.14040  -0.03167  -0.36723   0.06737
  39   39548.7    252.9   0.026807057   0.22315  -0.04535   0.45207   0.12931
  40   39670.9    252.1   0.062891019   0.52191  -0.25881   0.67224   0.05494
  41   39861.2    250.9   0.014137805   0.11676  -0.17615   0.07671   0.28258

FINAL SINGLE POINT ENERGY     -3594.364497494087

DIPOLE MOMENT
-------------
                                X             Y             Z
Electronic contribution:     11.87699       1.63839      10.93094
Nuclear contribution   :    -13.47350      -0.45424     -12.05572
                        -----------------------------------------
Total Dipole Moment    :     -1.59651       1.18415      -1.12479
                        -----------------------------------------
Magnitude (a.u.)       :      2.28391
Magnitude (Debye)      :      5.80523

Rotational constants in cm-1:     0.003799     0.000241     0.000236
Rotational constants in MHz :   113.886658     7.216340     7.087254

                             ****ORCA TERMINATED NORMALLY****
TOTAL RUN TIME: 0 days 0 hours 10 minutes 6 seconds 608 msec
