                         Program Version 4.2.0 -  RELEASE  -
|  1> # ORCA input file
|  2> # SCF done       -175.900113734771          0.000976829937
|  3> ! CAM-B3LYP def2-SVP def2/J RIJCOSX Grid4 TightSCF
|  4> %maxcore 5000
|  5> %tddft
|  6>     Mode sTDDFT
|  7>     Ethresh 5.0
|  8>     maxcore 5000
|  9> end
| 10>
| 11> %pal
| 12>   nprocs 6
| 13>   end
| 14> * xyz 0 1
| 15>    C        2.14986         0.61237        -4.27724
| 16>    C        1.09331         1.41668        -4.57111
| 17>    S       -0.39768         0.68252        -4.10475
| 18>    C        0.41753        -0.74032        -3.49806
| 19>   Cl       -0.44628        -2.03299        -2.82576
| 20>    C        1.76559        -0.62468        -3.66353
| 21>    C        2.95489        -1.43061        -3.37004
| 22>    O        3.01527        -2.50398        -2.81578
| 23>    C        4.10210        -0.58350        -3.82109
| 24>    C        3.59033         0.63875        -4.42051
| 25>    C        4.30705         1.60068        -5.07951
| 26>    C        3.67836         2.73769        -5.62860
| 27>    N        3.17325         3.66692        -6.07297
| 28>    C        5.69425         1.53906        -5.32123
| 29>    N        6.81175         1.50891        -5.58131
| 30>    C        5.39702        -0.82855        -3.48972
| 31>    C        5.92906        -2.03662        -2.94460
| 32>    N        5.73120        -3.31371        -3.40443
| 33>    C        5.13785        -3.69295        -4.66442
| 34>    C        5.93420        -3.14910        -5.84665
| 35>    C        6.39824        -4.25658        -2.60872
| 36>    O        6.39825        -5.45456        -2.84094
| 37>    C        7.03140        -3.47764        -1.56942
| 38>    C        6.75830        -2.11419        -1.83334
| 39>    C        7.36119        -1.31612        -0.78452
| 40>    O        7.38805        -0.12383        -0.58106
| 41>    N        7.99682        -2.26760         0.04139
| 42>    C        8.68672        -1.86938         1.24445
| 43>    C        7.81862        -2.06008         2.48572
| 44>    C        7.79564        -3.55234        -0.39944
| 45>    C        8.28865        -4.70944         0.24769
| 46>    C        8.02805        -5.94356        -0.26203
| 47>    C        8.41793        -7.18143         0.27858
| 48>    S        9.34009        -7.39237         1.75473
| 49>    C        9.29016        -9.11604         1.61499
| 50>    C        8.61582        -9.50267         0.51227
| 51>    C        8.11264        -8.42727        -0.26480
| 52>    C        7.39018        -8.78858        -1.43916
| 53>    C        7.27980       -10.12247        -1.64760
| 54>    S        8.11869       -11.02072        -0.31149
| 55>    O        9.25931       -11.73625        -0.80971
| 56>    O        7.17507       -11.75201         0.48664
| 57>    C        6.65300       -10.87733        -2.66276
| 58>    C        6.06363       -10.35174        -3.76628
| 59>    C        5.42789       -11.11094        -4.78583
| 60>    S        4.85678       -10.31648        -6.21848
| 61>    C        4.28292       -11.81574        -6.86747
| 62>    C        3.71992       -11.84545        -8.19421
| 63>    O        3.51554       -10.87191        -8.88156
| 64>    C        4.51599       -12.87755        -5.99787
| 65>    C        5.16616       -12.46887        -4.83005
| 66>    C        4.09871       -14.25739        -6.27434
| 67>    C        5.03472       -15.30093        -6.19431
| 68>    O        6.32478       -14.96060        -5.84325
| 69>    C        6.82876       -15.55737        -4.66374
| 70>    C        4.63273       -16.60274        -6.51411
| 71>    C        3.29034       -16.85072        -6.80961
| 72>    C        2.35888       -15.82530        -6.86184
| 73>    C        2.78243       -14.52021        -6.61690
| 74>    O        1.03865       -15.97775        -7.14742
| 75>    C        0.55212       -17.27070        -7.41744
| 76>    C        5.55247       -17.73797        -6.62026
| 77>    C        6.79637       -17.66767        -7.07488
| 78>    H        1.08434         2.38903        -5.02237
| 79>    H        6.11027        -0.01262        -3.53060
| 80>    H        4.10132        -3.35669        -4.70790
| 81>    H        5.14723        -4.78626        -4.67538
| 82>    H        5.95524        -2.06063        -5.83628
| 83>    H        5.47927        -3.47894        -6.77634
| 84>    H        6.95813        -3.51443        -5.81301
| 85>    H        8.92154        -0.80842         1.12137
| 86>    H        9.62079        -2.43089         1.33139
| 87>    H        6.91191        -1.46678         2.39772
| 88>    H        8.36210        -1.73449         3.36811
| 89>    H        7.53910        -3.10378         2.61071
| 90>    H        8.86839        -4.60596         1.15364
| 91>    H        7.45077        -6.01146        -1.17521
| 92>    H        9.76474        -9.72030         2.36186
| 93>    H        6.96847        -8.03563        -2.08699
| 94>    H        6.68171       -11.94713        -2.51167
| 95>    H        6.07679        -9.28043        -3.91187
| 96>    H        3.49981       -12.86739        -8.55706
| 97>    H        5.41622       -13.13679        -4.02777
| 98>    H        7.04538       -16.62073        -4.79969
| 99>    H        6.12587       -15.44552        -3.83119
|100>    H        7.75134       -15.02557        -4.43489
|101>    H        3.00466       -17.86787        -7.02921
|102>    H        2.05754       -13.72301        -6.66321
|103>    H       -0.51309       -17.14929        -7.60713
|104>    H        0.69290       -17.94004        -6.56264
|105>    H        1.02954       -17.70314        -8.30262
|106>    H        5.12266       -18.70097        -6.37043
|107>    H        7.24124       -16.73185        -7.36855
|108>    H        7.40896       -18.54764        -7.17600
|109> *
|110>
|111>                          ****END OF INPUT****

CARTESIAN COORDINATES (ANGSTROEM)
---------------------------------
  C      2.149860    0.612370   -4.277240
  C      1.093310    1.416680   -4.571110
  S     -0.397680    0.682520   -4.104750
  C      0.417530   -0.740320   -3.498060
  Cl    -0.446280   -2.032990   -2.825760
  C      1.765590   -0.624680   -3.663530
  C      2.954890   -1.430610   -3.370040
  O      3.015270   -2.503980   -2.815780
  C      4.102100   -0.583500   -3.821090
  C      3.590330    0.638750   -4.420510
  C      4.307050    1.600680   -5.079510
  C      3.678360    2.737690   -5.628600
  N      3.173250    3.666920   -6.072970
  C      5.694250    1.539060   -5.321230
  N      6.811750    1.508910   -5.581310
  C      5.397020   -0.828550   -3.489720
  C      5.929060   -2.036620   -2.944600
  N      5.731200   -3.313710   -3.404430
  C      5.137850   -3.692950   -4.664420
  C      5.934200   -3.149100   -5.846650
  C      6.398240   -4.256580   -2.608720
  O      6.398250   -5.454560   -2.840940
  C      7.031400   -3.477640   -1.569420
  C      6.758300   -2.114190   -1.833340
  C      7.361190   -1.316120   -0.784520
  O      7.388050   -0.123830   -0.581060
  N      7.996820   -2.267600    0.041390
  C      8.686720   -1.869380    1.244450
  C      7.818620   -2.060080    2.485720
  C      7.795640   -3.552340   -0.399440
  C      8.288650   -4.709440    0.247690
  C      8.028050   -5.943560   -0.262030
  C      8.417930   -7.181430    0.278580
  S      9.340090   -7.392370    1.754730
  C      9.290160   -9.116040    1.614990
  C      8.615820   -9.502670    0.512270
  C      8.112640   -8.427270   -0.264800
  C      7.390180   -8.788580   -1.439160
  C      7.279800  -10.122470   -1.647600
  S      8.118690  -11.020720   -0.311490
  O      9.259310  -11.736250   -0.809710
  O      7.175070  -11.752010    0.486640
  C      6.653000  -10.877330   -2.662760
  C      6.063630  -10.351740   -3.766280
  C      5.427890  -11.110940   -4.785830
  S      4.856780  -10.316480   -6.218480
  C      4.282920  -11.815740   -6.867470
  C      3.719920  -11.845450   -8.194210
  O      3.515540  -10.871910   -8.881560
  C      4.515990  -12.877550   -5.997870
  C      5.166160  -12.468870   -4.830050
  C      4.098710  -14.257390   -6.274340
  C      5.034720  -15.300930   -6.194310
  O      6.324780  -14.960600   -5.843250
  C      6.828760  -15.557370   -4.663740
  C      4.632730  -16.602740   -6.514110
  C      3.290340  -16.850720   -6.809610
  C      2.358880  -15.825300   -6.861840
  C      2.782430  -14.520210   -6.616900
  O      1.038650  -15.977750   -7.147420
  C      0.552120  -17.270700   -7.417440
  C      5.552470  -17.737970   -6.620260
  C      6.796370  -17.667670   -7.074880
  H      1.084340    2.389030   -5.022370
  H      6.110270   -0.012620   -3.530600
  H      4.101320   -3.356690   -4.707900
  H      5.147230   -4.786260   -4.675380
  H      5.955240   -2.060630   -5.836280
  H      5.479270   -3.478940   -6.776340
  H      6.958130   -3.514430   -5.813010
  H      8.921540   -0.808420    1.121370
  H      9.620790   -2.430890    1.331390
  H      6.911910   -1.466780    2.397720
  H      8.362100   -1.734490    3.368110
  H      7.539100   -3.103780    2.610710
  H      8.868390   -4.605960    1.153640
  H      7.450770   -6.011460   -1.175210
  H      9.764740   -9.720300    2.361860
  H      6.968470   -8.035630   -2.086990
  H      6.681710  -11.947130   -2.511670
  H      6.076790   -9.280430   -3.911870
  H      3.499810  -12.867390   -8.557060
  H      5.416220  -13.136790   -4.027770
  H      7.045380  -16.620730   -4.799690
  H      6.125870  -15.445520   -3.831190
  H      7.751340  -15.025570   -4.434890
  H      3.004660  -17.867870   -7.029210
  H      2.057540  -13.723010   -6.663210
  H     -0.513090  -17.149290   -7.607130
  H      0.692900  -17.940040   -6.562640
  H      1.029540  -17.703140   -8.302620
  H      5.122660  -18.700970   -6.370430
  H      7.241240  -16.731850   -7.368550
  H      7.408960  -18.547640   -7.176000

 Total Charge           Charge          ....    0
 Multiplicity           Mult            ....    1
 Number of Electrons    NEL             ....  480
 Basis Dimension        Dim             .... 1057

ORBITAL ENERGIES
----------------

  NO   OCC          E(Eh)            E(eV)
   0   2.0000    -101.619126     -2765.1970
   1   2.0000     -89.149051     -2425.8690
   2   2.0000     -88.995639     -2421.6944
   3   2.0000     -88.984215     -2421.3836
   4   2.0000     -88.961599     -2420.7682
   5   2.0000     -19.243958      -523.6547
   6   2.0000     -19.232952      -523.3552
   7   2.0000     -19.224377      -523.1219
   8   2.0000     -19.205453      -522.6069
   9   2.0000     -19.199409      -522.4425
  10   2.0000     -19.199231      -522.4376
  11   2.0000     -19.198962      -522.4303
  12   2.0000     -19.195296      -522.3306
  13   2.0000     -14.464653      -393.6032
  14   2.0000     -14.456556      -393.3829
  15   2.0000     -14.422106      -392.4454
  16   2.0000     -14.421329      -392.4243
  17   2.0000     -10.387895      -282.6690
  18   2.0000     -10.381073      -282.4834
  19   2.0000     -10.378506      -282.4135
  20   2.0000     -10.378491      -282.4131
  21   2.0000     -10.357526      -281.8426
  22   2.0000     -10.351137      -281.6688
  23   2.0000     -10.350035      -281.6388
  24   2.0000     -10.348328      -281.5923
  25   2.0000     -10.342465      -281.4328
  26   2.0000     -10.337172      -281.2887
  27   2.0000     -10.331776      -281.1419
  28   2.0000     -10.331668      -281.1390
  29   2.0000     -10.328368      -281.0492
  30   2.0000     -10.328303      -281.0474
  31   2.0000     -10.325293      -280.9655
  32   2.0000     -10.323826      -280.9256
  33   2.0000     -10.323552      -280.9181
  34   2.0000     -10.323073      -280.9051
  35   2.0000     -10.318314      -280.7756
  36   2.0000     -10.317565      -280.7552
  37   2.0000     -10.315426      -280.6970
  38   2.0000     -10.315088      -280.6878
  39   2.0000     -10.313394      -280.6417
  40   2.0000     -10.313277      -280.6385
  41   2.0000     -10.311988      -280.6035
  42   2.0000     -10.311980      -280.6033
  43   2.0000     -10.310230      -280.5556
  44   2.0000     -10.308627      -280.5120
  45   2.0000     -10.305191      -280.4185
  46   2.0000     -10.302977      -280.3583
  47   2.0000     -10.302732      -280.3516
  48   2.0000     -10.300725      -280.2970
  49   2.0000     -10.298904      -280.2474
  50   2.0000     -10.297166      -280.2001
  51   2.0000     -10.296722      -280.1880
  52   2.0000     -10.286763      -279.9170
  53   2.0000     -10.283830      -279.8372
  54   2.0000     -10.281423      -279.7718
  55   2.0000     -10.277494      -279.6648
  56   2.0000     -10.276697      -279.6432
  57   2.0000     -10.273302      -279.5508
  58   2.0000     -10.271512      -279.5020
  59   2.0000     -10.271490      -279.5015
  60   2.0000     -10.268800      -279.4282
  61   2.0000     -10.264890      -279.3218
  62   2.0000     -10.260692      -279.2076
  63   2.0000      -9.573918      -260.5196
  64   2.0000      -8.214148      -223.5183
  65   2.0000      -8.091304      -220.1756
  66   2.0000      -8.079638      -219.8581
  67   2.0000      -8.057064      -219.2438
  68   2.0000      -7.344565      -199.8558
  69   2.0000      -7.333950      -199.5669
  70   2.0000      -7.333397      -199.5519
  71   2.0000      -6.183347      -168.2574
  72   2.0000      -6.182674      -168.2391
  73   2.0000      -6.182321      -168.2295
  74   2.0000      -6.060687      -164.9197
  75   2.0000      -6.056080      -164.7943
  76   2.0000      -6.053561      -164.7258
  77   2.0000      -6.049055      -164.6032
  78   2.0000      -6.044749      -164.4860
  79   2.0000      -6.041648      -164.4016
  80   2.0000      -6.026123      -163.9791
  81   2.0000      -6.022051      -163.8683
  82   2.0000      -6.019552      -163.8003
  83   2.0000      -1.205308       -32.7981
  84   2.0000      -1.148787       -31.2601
  85   2.0000      -1.144828       -31.1523
  86   2.0000      -1.141619       -31.0650
  87   2.0000      -1.134848       -30.8808
  88   2.0000      -1.132398       -30.8141
  89   2.0000      -1.112836       -30.2818
  90   2.0000      -1.082688       -29.4614
  91   2.0000      -1.074543       -29.2398
  92   2.0000      -1.061805       -28.8932
  93   2.0000      -1.040416       -28.3112
  94   2.0000      -1.021268       -27.7901
  95   2.0000      -1.018829       -27.7237
  96   2.0000      -1.000049       -27.2127
  97   2.0000      -0.993476       -27.0338
  98   2.0000      -0.990441       -26.9513
  99   2.0000      -0.958414       -26.0798
 100   2.0000      -0.957111       -26.0443
 101   2.0000      -0.953479       -25.9455
 102   2.0000      -0.937542       -25.5118
 103   2.0000      -0.925038       -25.1716
 104   2.0000      -0.912792       -24.8383
 105   2.0000      -0.909044       -24.7363
 106   2.0000      -0.896987       -24.4082
 107   2.0000      -0.890843       -24.2411
 108   2.0000      -0.877095       -23.8670
 109   2.0000      -0.865087       -23.5402
 110   2.0000      -0.863781       -23.5047
 111   2.0000      -0.850102       -23.1324
 112   2.0000      -0.835094       -22.7241
 113   2.0000      -0.831893       -22.6370
 114   2.0000      -0.826078       -22.4787
 115   2.0000      -0.823125       -22.3984
 116   2.0000      -0.821032       -22.3414
 117   2.0000      -0.809361       -22.0238
 118   2.0000      -0.800163       -21.7735
 119   2.0000      -0.791872       -21.5479
 120   2.0000      -0.770743       -20.9730
 121   2.0000      -0.765510       -20.8306
 122   2.0000      -0.760279       -20.6882
 123   2.0000      -0.754882       -20.5414
 124   2.0000      -0.753350       -20.4997
 125   2.0000      -0.752702       -20.4821
 126   2.0000      -0.722117       -19.6498
 127   2.0000      -0.720153       -19.5964
 128   2.0000      -0.713144       -19.4056
 129   2.0000      -0.704223       -19.1629
 130   2.0000      -0.696789       -18.9606
 131   2.0000      -0.689434       -18.7605
 132   2.0000      -0.683793       -18.6069
 133   2.0000      -0.678458       -18.4618
 134   2.0000      -0.673351       -18.3228
 135   2.0000      -0.662019       -18.0145
 136   2.0000      -0.660468       -17.9722
 137   2.0000      -0.654369       -17.8063
 138   2.0000      -0.646393       -17.5892
 139   2.0000      -0.629644       -17.1335
 140   2.0000      -0.627308       -17.0699
 141   2.0000      -0.624120       -16.9832
 142   2.0000      -0.619239       -16.8504
 143   2.0000      -0.614642       -16.7253
 144   2.0000      -0.612929       -16.6786
 145   2.0000      -0.605129       -16.4664
 146   2.0000      -0.596858       -16.2413
 147   2.0000      -0.594423       -16.1751
 148   2.0000      -0.591882       -16.1059
 149   2.0000      -0.590837       -16.0775
 150   2.0000      -0.585195       -15.9240
 151   2.0000      -0.580211       -15.7883
 152   2.0000      -0.575900       -15.6710
 153   2.0000      -0.574711       -15.6387
 154   2.0000      -0.564172       -15.3519
 155   2.0000      -0.557325       -15.1656
 156   2.0000      -0.554786       -15.0965
 157   2.0000      -0.553162       -15.0523
 158   2.0000      -0.549586       -14.9550
 159   2.0000      -0.548225       -14.9180
 160   2.0000      -0.543023       -14.7764
 161   2.0000      -0.538435       -14.6516
 162   2.0000      -0.536626       -14.6023
 163   2.0000      -0.535776       -14.5792
 164   2.0000      -0.534453       -14.5432
 165   2.0000      -0.532656       -14.4943
 166   2.0000      -0.530375       -14.4322
 167   2.0000      -0.530121       -14.4253
 168   2.0000      -0.528131       -14.3712
 169   2.0000      -0.523288       -14.2394
 170   2.0000      -0.521155       -14.1813
 171   2.0000      -0.517249       -14.0751
 172   2.0000      -0.514162       -13.9911
 173   2.0000      -0.514015       -13.9871
 174   2.0000      -0.512858       -13.9556
 175   2.0000      -0.510575       -13.8935
 176   2.0000      -0.508777       -13.8445
 177   2.0000      -0.504820       -13.7369
 178   2.0000      -0.503873       -13.7111
 179   2.0000      -0.502200       -13.6656
 180   2.0000      -0.496212       -13.5026
 181   2.0000      -0.494738       -13.4625
 182   2.0000      -0.493828       -13.4377
 183   2.0000      -0.488737       -13.2992
 184   2.0000      -0.488127       -13.2826
 185   2.0000      -0.486401       -13.2356
 186   2.0000      -0.482466       -13.1286
 187   2.0000      -0.475790       -12.9469
 188   2.0000      -0.472604       -12.8602
 189   2.0000      -0.472168       -12.8483
 190   2.0000      -0.469979       -12.7888
 191   2.0000      -0.467767       -12.7286
 192   2.0000      -0.462955       -12.5976
 193   2.0000      -0.461832       -12.5671
 194   2.0000      -0.460849       -12.5404
 195   2.0000      -0.457803       -12.4575
 196   2.0000      -0.453846       -12.3498
 197   2.0000      -0.452968       -12.3259
 198   2.0000      -0.448859       -12.2141
 199   2.0000      -0.448529       -12.2051
 200   2.0000      -0.447089       -12.1659
 201   2.0000      -0.445293       -12.1170
 202   2.0000      -0.441514       -12.0142
 203   2.0000      -0.440159       -11.9773
 204   2.0000      -0.437351       -11.9009
 205   2.0000      -0.435142       -11.8408
 206   2.0000      -0.434415       -11.8210
 207   2.0000      -0.432708       -11.7746
 208   2.0000      -0.429013       -11.6740
 209   2.0000      -0.425199       -11.5703
 210   2.0000      -0.421974       -11.4825
 211   2.0000      -0.419842       -11.4245
 212   2.0000      -0.414180       -11.2704
 213   2.0000      -0.408165       -11.1067
 214   2.0000      -0.407871       -11.0987
 215   2.0000      -0.405219       -11.0266
 216   2.0000      -0.404243       -11.0000
 217   2.0000      -0.403421       -10.9776
 218   2.0000      -0.401255       -10.9187
 219   2.0000      -0.390211       -10.6182
 220   2.0000      -0.386053       -10.5050
 221   2.0000      -0.368467       -10.0265
 222   2.0000      -0.364942        -9.9306
 223   2.0000      -0.363514        -9.8917
 224   2.0000      -0.357693        -9.7333
 225   2.0000      -0.356098        -9.6899
 226   2.0000      -0.353275        -9.6131
 227   2.0000      -0.346329        -9.4241
 228   2.0000      -0.339755        -9.2452
 229   2.0000      -0.335427        -9.1274
 230   2.0000      -0.332067        -9.0360
 231   2.0000      -0.328258        -8.9324
 232   2.0000      -0.323395        -8.8000
 233   2.0000      -0.322311        -8.7705
 234   2.0000      -0.315277        -8.5791
 235   2.0000      -0.312433        -8.5017
 236   2.0000      -0.298420        -8.1204
 237   2.0000      -0.276551        -7.5253
 238   2.0000      -0.270057        -7.3486
 239   2.0000      -0.247843        -6.7441
 240   0.0000      -0.113175        -3.0796
 241   0.0000      -0.084456        -2.2982
 242   0.0000      -0.059716        -1.6250
 243   0.0000      -0.049581        -1.3492
 244   0.0000      -0.020132        -0.5478

MULLIKEN ATOMIC CHARGES
-----------------------
   0 C :    0.034024
   1 C :   -0.127098
   2 S :    0.188029
   3 C :   -0.169166
   4 Cl:    0.001526
   5 C :    0.074748
   6 C :    0.136126
   7 O :   -0.128692
   8 C :   -0.087327
   9 C :    0.284601
  10 C :   -0.313360
  11 C :   -0.194396
  12 N :    0.159572
  13 C :   -0.199324
  14 N :    0.172839
  15 C :   -0.090396
  16 C :    0.083645
  17 N :   -0.224973
  18 C :    0.107159
  19 C :   -0.008803
  20 C :    0.185475
  21 O :   -0.240189
  22 C :   -0.096681
  23 C :    0.000522
  24 C :    0.149349
  25 O :   -0.170548
  26 N :   -0.267308
  27 C :    0.098733
  28 C :    0.003492
  29 C :    0.162174
  30 C :   -0.037904
  31 C :    0.012929
  32 C :   -0.101532
  33 S :    0.141558
  34 C :   -0.142732
  35 C :    0.064647
  36 C :    0.073963
  37 C :    0.016648
  38 C :   -0.045891
  39 S :    0.773023
  40 O :   -0.447753
  41 O :   -0.448243
  42 C :    0.057604
  43 C :    0.071049
  44 C :   -0.088208
  45 S :    0.181729
  46 C :   -0.210197
  47 C :    0.154162
  48 O :   -0.198063
  49 C :    0.147475
  50 C :    0.012276
  51 C :    0.008814
  52 C :    0.105847
  53 O :   -0.335120
  54 C :    0.185504
  55 C :    0.062092
  56 C :   -0.155074
  57 C :    0.269592
  58 C :   -0.085459
  59 O :   -0.308881
  60 C :    0.175786
  61 C :   -0.065325
  62 C :    0.000889
  63 H :    0.053972
  64 H :    0.063307
  65 H :    0.029740
  66 H :    0.041382
  67 H :    0.025080
  68 H :    0.026104
  69 H :    0.023991
  70 H :    0.047047
  71 H :    0.024175
  72 H :    0.032059
  73 H :    0.026592
  74 H :    0.016480
  75 H :   -0.024105
  76 H :    0.021072
  77 H :    0.048095
  78 H :    0.026431
  79 H :   -0.000147
  80 H :    0.006671
  81 H :   -0.001665
  82 H :   -0.027742
  83 H :    0.026754
  84 H :    0.014965
  85 H :    0.036601
  86 H :   -0.039991
  87 H :   -0.016703
  88 H :    0.039837
  89 H :    0.022220
  90 H :    0.023677
  91 H :   -0.000298
  92 H :    0.042056
  93 H :    0.023391
Sum of atomic charges:   -0.0000000

LOEWDIN ATOMIC CHARGES
----------------------
   0 C :   -0.058638
   1 C :   -0.148135
   2 S :    0.477114
   3 C :   -0.271704
   4 Cl:    0.193347
   5 C :   -0.116806
   6 C :    0.076205
   7 O :   -0.127779
   8 C :   -0.077276
   9 C :    0.070711
  10 C :   -0.129265
  11 C :   -0.015908
  12 N :   -0.047315
  13 C :   -0.026448
  14 N :   -0.039779
  15 C :    0.061280
  16 C :    0.048889
  17 N :    0.020663
  18 C :    0.036363
  19 C :   -0.061721
  20 C :    0.083436
  21 O :   -0.222873
  22 C :   -0.132622
  23 C :   -0.085771
  24 C :    0.086498
  25 O :   -0.172265
  26 N :   -0.004598
  27 C :    0.037133
  28 C :   -0.060440
  29 C :    0.099629
  30 C :   -0.064407
  31 C :    0.033787
  32 C :   -0.176489
  33 S :    0.447397
  34 C :   -0.136147
  35 C :   -0.206071
  36 C :   -0.047158
  37 C :   -0.008270
  38 C :   -0.141351
  39 S :    1.170241
  40 O :   -0.493983
  41 O :   -0.494205
  42 C :   -0.037408
  43 C :    0.000650
  44 C :   -0.162129
  45 S :    0.483271
  46 C :   -0.228279
  47 C :    0.076298
  48 O :   -0.153114
  49 C :   -0.009101
  50 C :   -0.033071
  51 C :   -0.034220
  52 C :    0.039268
  53 O :   -0.129492
  54 C :    0.074969
  55 C :   -0.036207
  56 C :   -0.063034
  57 C :    0.049630
  58 C :   -0.034516
  59 O :   -0.104358
  60 C :    0.076017
  61 C :   -0.024737
  62 C :   -0.028597
  63 H :    0.038341
  64 H :    0.060330
  65 H :    0.022187
  66 H :    0.036409
  67 H :    0.022742
  68 H :    0.032606
  69 H :    0.029196
  70 H :    0.039441
  71 H :    0.024166
  72 H :    0.033362
  73 H :    0.032105
  74 H :    0.022087
  75 H :    0.025328
  76 H :    0.044428
  77 H :    0.038745
  78 H :    0.045338
  79 H :    0.033868
  80 H :    0.036646
  81 H :    0.004909
  82 H :    0.029494
  83 H :    0.011984
  84 H :    0.008620
  85 H :    0.026940
  86 H :    0.027187
  87 H :    0.035281
  88 H :    0.030135
  89 H :    0.014489
  90 H :    0.015056
  91 H :    0.028422
  92 H :    0.027886
  93 H :    0.025164

  Mayer bond orders larger than 0.100000
B(  0-C ,  1-C ) :   1.5474 B(  0-C ,  5-C ) :   1.2230 B(  0-C ,  9-C ) :   1.0020
B(  1-C ,  2-S ) :   1.1618 B(  1-C , 63-H ) :   0.9538 B(  2-S ,  3-C ) :   1.1503
B(  3-C ,  4-Cl) :   1.1300 B(  3-C ,  5-C ) :   1.4770 B(  5-C ,  6-C ) :   0.9571
B(  6-C ,  7-O ) :   2.2245 B(  6-C ,  8-C ) :   0.9315 B(  8-C ,  9-C ) :   1.0460
B(  8-C , 15-C ) :   1.6358 B(  9-C , 10-C ) :   1.6751 B( 10-C , 11-C ) :   1.1410
B( 10-C , 13-C ) :   1.1391 B( 11-C , 12-N ) :   2.9958 B( 13-C , 14-N ) :   2.9842
B( 15-C , 16-C ) :   1.1159 B( 15-C , 64-H ) :   0.9394 B( 16-C , 17-N ) :   1.1792
B( 16-C , 23-C ) :   1.3936 B( 17-N , 18-C ) :   0.9406 B( 17-N , 20-C ) :   1.0855
B( 18-C , 19-C ) :   1.1116 B( 18-C , 65-H ) :   0.9461 B( 18-C , 66-H ) :   0.9291
B( 19-C , 67-H ) :   0.9657 B( 19-C , 68-H ) :   0.9671 B( 19-C , 69-H ) :   0.9641
B( 20-C , 21-O ) :   1.9539 B( 20-C , 22-C ) :   1.0152 B( 21-O , 76-H ) :   0.1181
B( 22-C , 23-C ) :   1.2535 B( 22-C , 29-C ) :   1.3044 B( 23-C , 24-C ) :   0.9463
B( 24-C , 25-O ) :   2.1716 B( 24-C , 26-N ) :   1.0218 B( 26-N , 27-C ) :   0.9442
B( 26-N , 29-C ) :   1.1725 B( 27-C , 28-C ) :   1.1208 B( 27-C , 70-H ) :   0.9293
B( 27-C , 71-H ) :   0.9502 B( 28-C , 72-H ) :   0.9636 B( 28-C , 73-H ) :   0.9682
B( 28-C , 74-H ) :   0.9682 B( 29-C , 30-C ) :   1.1803 B( 30-C , 31-C ) :   1.5509
B( 30-C , 75-H ) :   0.9745 B( 31-C , 32-C ) :   1.2011 B( 31-C , 76-H ) :   0.9364
B( 32-C , 33-S ) :   1.0822 B( 32-C , 36-C ) :   1.4188 B( 33-S , 34-C ) :   1.1693
B( 34-C , 35-C ) :   1.6210 B( 34-C , 77-H ) :   0.9754 B( 35-C , 36-C ) :   1.2377
B( 35-C , 39-S ) :   0.7581 B( 36-C , 37-C ) :   1.1294 B( 37-C , 38-C ) :   1.6290
B( 37-C , 78-H ) :   0.9787 B( 38-C , 39-S ) :   0.8394 B( 38-C , 42-C ) :   1.1426
B( 39-S , 40-O ) :   1.7357 B( 39-S , 41-O ) :   1.7325 B( 42-C , 43-C ) :   1.6937
B( 42-C , 79-H ) :   0.9538 B( 43-C , 44-C ) :   1.1207 B( 43-C , 80-H ) :   0.9638
B( 44-C , 45-S ) :   1.1481 B( 44-C , 50-C ) :   1.4627 B( 45-S , 46-C ) :   1.1062
B( 46-C , 47-C ) :   1.0301 B( 46-C , 49-C ) :   1.4532 B( 47-C , 48-O ) :   2.1583
B( 47-C , 81-H ) :   0.9555 B( 49-C , 50-C ) :   1.3203 B( 49-C , 51-C ) :   0.9318
B( 50-C , 82-H ) :   0.9922 B( 51-C , 52-C ) :   1.3720 B( 51-C , 58-C ) :   1.3686
B( 52-C , 53-O ) :   1.1548 B( 52-C , 55-C ) :   1.3557 B( 53-O , 54-C ) :   0.9414
B( 54-C , 83-H ) :   0.9606 B( 54-C , 84-H ) :   0.9589 B( 54-C , 85-H ) :   0.9830
B( 55-C , 56-C ) :   1.3037 B( 55-C , 61-C ) :   1.0155 B( 56-C , 57-C ) :   1.3032
B( 56-C , 86-H ) :   1.0028 B( 57-C , 58-C ) :   1.3166 B( 57-C , 59-O ) :   1.1431
B( 58-C , 87-H ) :   1.0139 B( 59-O , 60-C ) :   0.9683 B( 60-C , 88-H ) :   0.9789
B( 60-C , 89-H ) :   0.9685 B( 60-C , 90-H ) :   0.9690 B( 61-C , 62-C ) :   1.9643
B( 61-C , 91-H ) :   0.9616 B( 62-C , 92-H ) :   0.9555 B( 62-C , 93-H ) :   0.9506

-----------------------------------------------------------------------------
         ABSORPTION SPECTRUM VIA TRANSITION ELECTRIC DIPOLE MOMENTS
-----------------------------------------------------------------------------
State   Energy  Wavelength   fosc         T2         TX        TY        TZ
        (cm-1)    (nm)                  (au**2)     (au)      (au)      (au)
-----------------------------------------------------------------------------
   0   12927.6    773.5   0.565533548  14.40183  -1.66787   3.12971  -1.35091
   1   20251.4    493.8   0.378245818   6.14887  -1.21283  -1.38677  -1.65975
   2   20562.7    486.3   0.356631649   5.70974  -0.85031  -1.58680  -1.57123
   3   24283.9    411.8   0.033690632   0.45674  -0.46000   0.02039  -0.49469
   4   24718.9    404.5   0.103310332   1.37591  -0.64465  -0.89376  -0.40190
   5   25533.7    391.6   0.011206135   0.14448   0.11339  -0.33778   0.13242
   6   26987.6    370.5   0.072754657   0.88751   0.48706   0.69463   0.40959
   7   27152.1    368.3   0.642403073   7.78896  -1.02335  -0.85627  -2.45123
   8   27385.6    365.2   0.029093092   0.34974  -0.31132  -0.50278   0.00521
   9   27574.7    362.7   0.099481187   1.18770  -0.71543  -0.11927  -0.81340
  10   28184.0    354.8   0.008948925   0.10453  -0.27299  -0.08988   0.14808
  11   28786.9    347.4   0.249682530   2.85541  -0.43591   1.48615  -0.67583
  12   29117.7    343.4   0.099881060   1.12928   0.50205  -0.71029   0.61051
  13   30475.7    328.1   0.019741962   0.21326  -0.06564   0.45391   0.05404
  14   30850.8    324.1   0.011737791   0.12526  -0.17118   0.20882  -0.22880
  15   31304.7    319.4   0.000681033   0.00716  -0.03019  -0.07804   0.01266
  16   31562.1    316.8   0.035478374   0.37006  -0.40235  -0.39785   0.22335
  17   32524.3    307.5   0.206697286   2.09219  -0.63836   0.50983  -1.19363
  18   33396.6    299.4   0.011213669   0.11054   0.08924  -0.26054   0.18627
  19   33777.1    296.1   0.007618344   0.07425   0.14233  -0.12804   0.19391
  20   34134.5    293.0   0.190173919   1.83414  -0.08543   1.33559   0.20747
  21   34722.3    288.0   0.064315932   0.60980   0.06310  -0.74383   0.22921
  22   34885.9    286.6   0.043939402   0.41465   0.16035   0.55965   0.27518
  23   35802.5    279.3   0.116967319   1.07554   0.97701  -0.28525   0.19905
  24   35988.1    277.9   0.032927859   0.30122  -0.39842  -0.35477  -0.12890
  25   36042.9    277.4   0.173159283   1.58162  -1.22419   0.28175  -0.06000
  26   36303.6    275.5   0.037712314   0.34199   0.56301  -0.15374   0.03696
  27   36437.3    274.4   0.039303107   0.35510   0.43853  -0.40324   0.01391
  28   36707.4    272.4   0.166319604   1.49164   0.77452   0.61145  -0.71964
  29   36974.1    270.5   0.079705356   0.70968   0.59434   0.41391  -0.43027
  30   37038.5    270.0   0.075482121   0.67091  -0.71897   0.39218  -0.01365
  31   37603.0    265.9   0.001105808   0.00968  -0.07660  -0.05738   0.02286
  32   37881.8    264.0   0.018160369   0.15782  -0.17863   0.32161  -0.14993
  33   38229.7    261.6   0.215999734   1.86006   1.31965   0.25098  -0.23580
  34   39120.0    255.6   0.215215585   1.81113   0.05125  -1.34460   0.02360
  35   39532.1    253.0   0.007561492   0.06297   0.00633   0.15782  -0.19500
  36   39625.5    252.4   0.100742655   0.83698   0.48153   0.75585  -0.18386
  37   40092.1    249.4   0.012395141   0.10178   0.09702  -0.29586  -0.06953
  38   40131.1    249.2   0.007275839   0.05969   0.21602   0.10608  -0.04206

FINAL SINGLE POINT ENERGY     -4641.276454016695

DIPOLE MOMENT
-------------
                                X             Y             Z
Electronic contribution:    -23.10964      72.44708      11.15622
Nuclear contribution   :     22.37693     -74.51173      -9.21726
                        -----------------------------------------
Total Dipole Moment    :     -0.73271      -2.06465       1.93897
                        -----------------------------------------
Magnitude (a.u.)       :      2.92562
Magnitude (Debye)      :      7.43633

Rotational constants in cm-1:     0.001226     0.000446     0.000355
Rotational constants in MHz :    36.755282    13.360575    10.634538

                             ****ORCA TERMINATED NORMALLY****
TOTAL RUN TIME: 0 days 0 hours 10 minutes 34 seconds 213 msec
