                         Program Version 4.2.0 -  RELEASE  -
|  1> # ORCA input file
|  2> # SCF done       -148.875196017743          0.000694904730
|  3> ! CAM-B3LYP def2-SVP def2/J RIJCOSX Grid4 TightSCF
|  4> %maxcore 5000
|  5> %tddft
|  6>     Mode sTDDFT
|  7>     Ethresh 5.0
|  8>     maxcore 5000
|  9> end
| 10>
| 11> %pal
| 12>   nprocs 6
| 13>   end
| 14> * xyz 0 1
| 15>    C        9.20022        -6.72229         3.21348
| 16>    C       10.09828        -7.62181         3.69987
| 17>    S        9.93812        -9.15106         2.91478
| 18>    C        8.63153        -8.57943         1.90771
| 19>   Cl        7.89018        -9.57395         0.75082
| 20>    C        8.35980        -7.27030         2.19175
| 21>    C        7.42275        -6.26073         1.72096
| 22>    O        6.52935        -6.41871         0.91076
| 23>    C        7.75923        -5.02052         2.48526
| 24>    C        8.84217        -5.33466         3.42219
| 25>    C        9.45364        -4.50698         4.32195
| 26>    C       10.49970        -4.97411         5.14910
| 27>    N       11.34928        -5.33497         5.82939
| 28>    C        9.15670        -3.14762         4.55135
| 29>    N        8.97357        -2.04011         4.79128
| 30>    C        7.13085        -3.82098         2.40903
| 31>    C        6.07710        -3.42103         1.50802
| 32>    C        5.97570        -3.85040         0.18720
| 33>    C        4.87356        -3.47446        -0.58289
| 34>    C        3.97877        -2.55682        -0.01421
| 35>    N        4.09591        -2.10704         1.21719
| 36>    C        5.08626        -2.53482         1.96892
| 37>    C        4.67271        -4.03449        -1.89240
| 38>    S        3.79332        -3.22393        -3.15640
| 39>    C        3.96079        -4.54470        -4.28383
| 40>    C        4.66328        -5.59133        -3.68530
| 41>    C        5.05719        -5.28283        -2.34324
| 42>    N        5.70377        -6.35696        -1.82360
| 43>    C        5.72811        -7.34085        -2.78749
| 44>    C        6.33278        -8.58056        -2.53741
| 45>    N        6.83456        -9.59047        -2.32384
| 46>    C        5.11438        -6.90626        -3.94556
| 47>    C        3.40486        -4.46168        -5.57992
| 48>    S        2.61394        -3.01089        -6.13281
| 49>    C        2.23586        -3.72650        -7.67077
| 50>    C        2.71849        -5.04046        -7.73045
| 51>    C        3.37396        -5.43604        -6.55631
| 52>    C        2.57512        -5.94639        -8.86455
| 53>    O        3.03631        -7.05890        -8.90838
| 54>    C        1.50034        -3.02117        -8.64378
| 55>    C        1.12897        -1.71546        -8.53376
| 56>    C        0.39870        -0.99223        -9.50326
| 57>    C       -0.45804        -1.42263       -10.47658
| 58>    C       -0.75402        -0.48452       -11.60566
| 59>    O       -0.44864         0.68283       -11.66409
| 60>    C       -1.43790        -1.31176       -12.60564
| 61>    C       -1.91345        -1.16674       -13.87387
| 62>    S       -2.62932        -2.66047       -14.43416
| 63>    C       -2.28567        -3.45810       -12.94158
| 64>    C       -1.65363        -2.62493       -12.07331
| 65>    C       -1.15501        -2.67116       -10.70868
| 66>    C       -1.50815        -3.64349        -9.80634
| 67>    C       -2.26976        -4.76449       -10.19608
| 68>    N       -2.87343        -5.69185       -10.50008
| 69>    C       -1.22868        -3.61834        -8.42896
| 70>    N       -1.04435        -3.64245        -7.29579
| 71>   Cl       -1.87211         0.21313       -14.85575
| 72>    H       10.84165        -7.49753         4.46215
| 73>    H        7.40034        -3.06624         3.13772
| 74>    H        6.77153        -4.42151        -0.26138
| 75>    H        3.14291        -2.17625        -0.58630
| 76>    H        5.10059        -2.17054         2.98692
| 77>    H        5.99320        -6.47874        -0.86129
| 78>    H        5.01168        -7.47864        -4.84454
| 79>    H        3.79344        -6.41734        -6.44218
| 80>    H        2.00237        -5.53728        -9.71836
| 81>    H        1.25734        -3.56172        -9.54897
| 82>    H        1.48292        -1.15288        -7.67899
| 83>    H        0.57879         0.07932        -9.52662
| 84>    H       -2.56852        -4.48464       -12.81866
| 85> *
| 86>
| 87>                          ****END OF INPUT****

CARTESIAN COORDINATES (ANGSTROEM)
---------------------------------
  C      9.200220   -6.722290    3.213480
  C     10.098280   -7.621810    3.699870
  S      9.938120   -9.151060    2.914780
  C      8.631530   -8.579430    1.907710
  Cl     7.890180   -9.573950    0.750820
  C      8.359800   -7.270300    2.191750
  C      7.422750   -6.260730    1.720960
  O      6.529350   -6.418710    0.910760
  C      7.759230   -5.020520    2.485260
  C      8.842170   -5.334660    3.422190
  C      9.453640   -4.506980    4.321950
  C     10.499700   -4.974110    5.149100
  N     11.349280   -5.334970    5.829390
  C      9.156700   -3.147620    4.551350
  N      8.973570   -2.040110    4.791280
  C      7.130850   -3.820980    2.409030
  C      6.077100   -3.421030    1.508020
  C      5.975700   -3.850400    0.187200
  C      4.873560   -3.474460   -0.582890
  C      3.978770   -2.556820   -0.014210
  N      4.095910   -2.107040    1.217190
  C      5.086260   -2.534820    1.968920
  C      4.672710   -4.034490   -1.892400
  S      3.793320   -3.223930   -3.156400
  C      3.960790   -4.544700   -4.283830
  C      4.663280   -5.591330   -3.685300
  C      5.057190   -5.282830   -2.343240
  N      5.703770   -6.356960   -1.823600
  C      5.728110   -7.340850   -2.787490
  C      6.332780   -8.580560   -2.537410
  N      6.834560   -9.590470   -2.323840
  C      5.114380   -6.906260   -3.945560
  C      3.404860   -4.461680   -5.579920
  S      2.613940   -3.010890   -6.132810
  C      2.235860   -3.726500   -7.670770
  C      2.718490   -5.040460   -7.730450
  C      3.373960   -5.436040   -6.556310
  C      2.575120   -5.946390   -8.864550
  O      3.036310   -7.058900   -8.908380
  C      1.500340   -3.021170   -8.643780
  C      1.128970   -1.715460   -8.533760
  C      0.398700   -0.992230   -9.503260
  C     -0.458040   -1.422630  -10.476580
  C     -0.754020   -0.484520  -11.605660
  O     -0.448640    0.682830  -11.664090
  C     -1.437900   -1.311760  -12.605640
  C     -1.913450   -1.166740  -13.873870
  S     -2.629320   -2.660470  -14.434160
  C     -2.285670   -3.458100  -12.941580
  C     -1.653630   -2.624930  -12.073310
  C     -1.155010   -2.671160  -10.708680
  C     -1.508150   -3.643490   -9.806340
  C     -2.269760   -4.764490  -10.196080
  N     -2.873430   -5.691850  -10.500080
  C     -1.228680   -3.618340   -8.428960
  N     -1.044350   -3.642450   -7.295790
  Cl    -1.872110    0.213130  -14.855750
  H     10.841650   -7.497530    4.462150
  H      7.400340   -3.066240    3.137720
  H      6.771530   -4.421510   -0.261380
  H      3.142910   -2.176250   -0.586300
  H      5.100590   -2.170540    2.986920
  H      5.993200   -6.478740   -0.861290
  H      5.011680   -7.478640   -4.844540
  H      3.793440   -6.417340   -6.442180
  H      2.002370   -5.537280   -9.718360
  H      1.257340   -3.561720   -9.548970
  H      1.482920   -1.152880   -7.678990
  H      0.578790    0.079320   -9.526620
  H     -2.568520   -4.484640  -12.818660

 Total Charge           Charge          ....    0
 Multiplicity           Mult            ....    1
 Number of Electrons    NEL             ....  430
 Basis Dimension        Dim             ....  887

ORBITAL ENERGIES
----------------

  NO   OCC          E(Eh)            E(eV)
   0   2.0000    -101.629727     -2765.4855
   1   2.0000    -101.616556     -2765.1271
   2   2.0000     -89.008736     -2422.0508
   3   2.0000     -88.992222     -2421.6015
   4   2.0000     -88.981694     -2421.3150
   5   2.0000     -88.978674     -2421.2328
   6   2.0000     -19.250769      -523.8401
   7   2.0000     -19.221714      -523.0494
   8   2.0000     -19.217778      -522.9423
   9   2.0000     -14.473344      -393.8397
  10   2.0000     -14.436527      -392.8379
  11   2.0000     -14.433932      -392.7672
  12   2.0000     -14.423670      -392.4880
  13   2.0000     -14.421979      -392.4420
  14   2.0000     -14.421839      -392.4382
  15   2.0000     -14.420142      -392.3920
  16   2.0000     -10.407639      -283.2062
  17   2.0000     -10.393014      -282.8083
  18   2.0000     -10.375355      -282.3278
  19   2.0000     -10.374091      -282.2934
  20   2.0000     -10.367761      -282.1211
  21   2.0000     -10.365704      -282.0651
  22   2.0000     -10.365038      -282.0470
  23   2.0000     -10.354715      -281.7661
  24   2.0000     -10.351055      -281.6665
  25   2.0000     -10.347931      -281.5815
  26   2.0000     -10.344235      -281.4810
  27   2.0000     -10.342849      -281.4432
  28   2.0000     -10.337969      -281.3104
  29   2.0000     -10.335411      -281.2408
  30   2.0000     -10.333591      -281.1913
  31   2.0000     -10.330880      -281.1175
  32   2.0000     -10.330867      -281.1172
  33   2.0000     -10.329684      -281.0850
  34   2.0000     -10.328741      -281.0593
  35   2.0000     -10.328669      -281.0574
  36   2.0000     -10.328629      -281.0563
  37   2.0000     -10.328537      -281.0538
  38   2.0000     -10.328360      -281.0490
  39   2.0000     -10.323025      -280.9038
  40   2.0000     -10.322938      -280.9014
  41   2.0000     -10.322518      -280.8900
  42   2.0000     -10.321766      -280.8695
  43   2.0000     -10.321126      -280.8521
  44   2.0000     -10.320955      -280.8475
  45   2.0000     -10.316375      -280.7228
  46   2.0000     -10.315704      -280.7046
  47   2.0000     -10.314785      -280.6796
  48   2.0000     -10.314332      -280.6672
  49   2.0000     -10.312530      -280.6182
  50   2.0000     -10.304672      -280.4044
  51   2.0000     -10.301608      -280.3210
  52   2.0000     -10.300882      -280.3012
  53   2.0000     -10.299239      -280.2565
  54   2.0000     -10.299125      -280.2534
  55   2.0000     -10.296194      -280.1737
  56   2.0000     -10.292933      -280.0850
  57   2.0000      -9.584017      -260.7944
  58   2.0000      -9.571336      -260.4493
  59   2.0000      -8.104468      -220.5338
  60   2.0000      -8.087939      -220.0840
  61   2.0000      -8.076249      -219.7659
  62   2.0000      -8.074310      -219.7131
  63   2.0000      -7.354715      -200.1320
  64   2.0000      -7.344044      -199.8416
  65   2.0000      -7.343464      -199.8258
  66   2.0000      -7.341967      -199.7851
  67   2.0000      -7.331376      -199.4969
  68   2.0000      -7.330837      -199.4822
  69   2.0000      -6.073828      -165.2773
  70   2.0000      -6.069153      -165.1500
  71   2.0000      -6.066777      -165.0854
  72   2.0000      -6.057326      -164.8282
  73   2.0000      -6.052742      -164.7035
  74   2.0000      -6.050160      -164.6332
  75   2.0000      -6.045660      -164.5108
  76   2.0000      -6.043598      -164.4547
  77   2.0000      -6.041371      -164.3941
  78   2.0000      -6.039423      -164.3410
  79   2.0000      -6.038466      -164.3150
  80   2.0000      -6.036390      -164.2585
  81   2.0000      -1.166635       -31.7457
  82   2.0000      -1.134761       -30.8784
  83   2.0000      -1.134659       -30.8756
  84   2.0000      -1.104193       -30.0466
  85   2.0000      -1.060689       -28.8628
  86   2.0000      -1.053886       -28.6777
  87   2.0000      -1.037524       -28.2325
  88   2.0000      -1.032483       -28.0953
  89   2.0000      -1.018718       -27.7207
  90   2.0000      -1.014749       -27.6127
  91   2.0000      -1.013515       -27.5791
  92   2.0000      -1.004697       -27.3392
  93   2.0000      -1.003239       -27.2995
  94   2.0000      -0.999665       -27.2023
  95   2.0000      -0.988905       -26.9095
  96   2.0000      -0.987585       -26.8736
  97   2.0000      -0.970406       -26.4061
  98   2.0000      -0.955350       -25.9964
  99   2.0000      -0.944157       -25.6918
 100   2.0000      -0.934192       -25.4207
 101   2.0000      -0.925614       -25.1872
 102   2.0000      -0.919035       -25.0082
 103   2.0000      -0.906288       -24.6614
 104   2.0000      -0.890723       -24.2378
 105   2.0000      -0.885424       -24.0936
 106   2.0000      -0.869549       -23.6616
 107   2.0000      -0.867654       -23.6101
 108   2.0000      -0.853869       -23.2349
 109   2.0000      -0.848764       -23.0960
 110   2.0000      -0.839345       -22.8397
 111   2.0000      -0.832041       -22.6410
 112   2.0000      -0.812116       -22.0988
 113   2.0000      -0.802631       -21.8407
 114   2.0000      -0.785350       -21.3705
 115   2.0000      -0.774382       -21.0720
 116   2.0000      -0.760120       -20.6839
 117   2.0000      -0.753831       -20.5128
 118   2.0000      -0.748908       -20.3788
 119   2.0000      -0.741459       -20.1761
 120   2.0000      -0.729221       -19.8431
 121   2.0000      -0.721298       -19.6275
 122   2.0000      -0.708532       -19.2801
 123   2.0000      -0.699543       -19.0355
 124   2.0000      -0.695608       -18.9285
 125   2.0000      -0.692731       -18.8502
 126   2.0000      -0.675646       -18.3853
 127   2.0000      -0.675222       -18.3737
 128   2.0000      -0.669781       -18.2257
 129   2.0000      -0.659237       -17.9388
 130   2.0000      -0.648290       -17.6409
 131   2.0000      -0.639112       -17.3911
 132   2.0000      -0.630636       -17.1605
 133   2.0000      -0.628799       -17.1105
 134   2.0000      -0.624412       -16.9911
 135   2.0000      -0.622816       -16.9477
 136   2.0000      -0.615493       -16.7484
 137   2.0000      -0.608182       -16.5495
 138   2.0000      -0.607065       -16.5191
 139   2.0000      -0.590422       -16.0662
 140   2.0000      -0.583407       -15.8753
 141   2.0000      -0.582314       -15.8456
 142   2.0000      -0.570465       -15.5231
 143   2.0000      -0.568493       -15.4695
 144   2.0000      -0.563659       -15.3379
 145   2.0000      -0.558624       -15.2009
 146   2.0000      -0.555477       -15.1153
 147   2.0000      -0.553267       -15.0552
 148   2.0000      -0.547823       -14.9070
 149   2.0000      -0.542820       -14.7709
 150   2.0000      -0.541503       -14.7350
 151   2.0000      -0.536727       -14.6051
 152   2.0000      -0.533392       -14.5143
 153   2.0000      -0.529994       -14.4219
 154   2.0000      -0.528431       -14.3793
 155   2.0000      -0.525596       -14.3022
 156   2.0000      -0.522355       -14.2140
 157   2.0000      -0.521656       -14.1950
 158   2.0000      -0.520667       -14.1681
 159   2.0000      -0.516807       -14.0630
 160   2.0000      -0.512094       -13.9348
 161   2.0000      -0.510739       -13.8979
 162   2.0000      -0.507670       -13.8144
 163   2.0000      -0.502096       -13.6627
 164   2.0000      -0.500223       -13.6118
 165   2.0000      -0.496413       -13.5081
 166   2.0000      -0.493650       -13.4329
 167   2.0000      -0.488941       -13.3048
 168   2.0000      -0.486209       -13.2304
 169   2.0000      -0.483214       -13.1489
 170   2.0000      -0.480024       -13.0621
 171   2.0000      -0.475361       -12.9352
 172   2.0000      -0.469056       -12.7637
 173   2.0000      -0.467483       -12.7209
 174   2.0000      -0.465765       -12.6741
 175   2.0000      -0.464645       -12.6436
 176   2.0000      -0.461109       -12.5474
 177   2.0000      -0.460545       -12.5321
 178   2.0000      -0.456281       -12.4160
 179   2.0000      -0.454479       -12.3670
 180   2.0000      -0.453570       -12.3423
 181   2.0000      -0.451486       -12.2856
 182   2.0000      -0.448633       -12.2079
 183   2.0000      -0.447378       -12.1738
 184   2.0000      -0.446364       -12.1462
 185   2.0000      -0.446048       -12.1376
 186   2.0000      -0.441617       -12.0170
 187   2.0000      -0.434358       -11.8195
 188   2.0000      -0.434036       -11.8107
 189   2.0000      -0.431217       -11.7340
 190   2.0000      -0.430525       -11.7152
 191   2.0000      -0.429460       -11.6862
 192   2.0000      -0.426636       -11.6094
 193   2.0000      -0.425119       -11.5681
 194   2.0000      -0.413293       -11.2463
 195   2.0000      -0.413120       -11.2416
 196   2.0000      -0.407617       -11.0918
 197   2.0000      -0.402591       -10.9551
 198   2.0000      -0.400608       -10.9011
 199   2.0000      -0.387275       -10.5383
 200   2.0000      -0.375051       -10.2057
 201   2.0000      -0.358613        -9.7583
 202   2.0000      -0.356033        -9.6882
 203   2.0000      -0.352865        -9.6019
 204   2.0000      -0.348050        -9.4709
 205   2.0000      -0.343268        -9.3408
 206   2.0000      -0.342481        -9.3194
 207   2.0000      -0.340695        -9.2708
 208   2.0000      -0.336941        -9.1686
 209   2.0000      -0.333665        -9.0795
 210   2.0000      -0.319229        -8.6867
 211   2.0000      -0.315673        -8.5899
 212   2.0000      -0.313993        -8.5442
 213   2.0000      -0.298320        -8.1177
 214   2.0000      -0.249151        -6.7798
 215   0.0000      -0.110006        -2.9934
 216   0.0000      -0.109137        -2.9698
 217   0.0000      -0.075574        -2.0565
 218   0.0000      -0.068902        -1.8749
 219   0.0000      -0.051768        -1.4087

MULLIKEN ATOMIC CHARGES
-----------------------
   0 C :    0.036060
   1 C :   -0.127950
   2 S :    0.204304
   3 C :   -0.160212
   4 Cl:    0.033879
   5 C :    0.067730
   6 C :    0.178547
   7 O :   -0.184423
   8 C :   -0.080837
   9 C :    0.287853
  10 C :   -0.323495
  11 C :   -0.193060
  12 N :    0.162228
  13 C :   -0.182827
  14 N :    0.168529
  15 C :   -0.010787
  16 C :    0.014002
  17 C :    0.041222
  18 C :    0.015551
  19 C :    0.001983
  20 N :   -0.045816
  21 C :    0.007506
  22 C :   -0.161536
  23 S :    0.161179
  24 C :   -0.109949
  25 C :    0.118950
  26 C :    0.101623
  27 N :   -0.031929
  28 C :   -0.109986
  29 C :   -0.121483
  30 N :    0.151535
  31 C :   -0.051098
  32 C :   -0.010707
  33 S :    0.148915
  34 C :   -0.066277
  35 C :    0.039588
  36 C :   -0.043781
  37 C :    0.143020
  38 O :   -0.171982
  39 C :    0.026210
  40 C :    0.003156
  41 C :    0.041603
  42 C :   -0.143676
  43 C :    0.125746
  44 O :   -0.131108
  45 C :    0.100584
  46 C :   -0.176603
  47 S :    0.183573
  48 C :   -0.129957
  49 C :    0.009306
  50 C :    0.276118
  51 C :   -0.341312
  52 C :   -0.180379
  53 N :    0.152931
  54 C :   -0.197499
  55 N :    0.175003
  56 Cl:   -0.000780
  57 H :    0.059362
  58 H :    0.031839
  59 H :   -0.008870
  60 H :    0.011607
  61 H :    0.012377
  62 H :    0.128484
  63 H :   -0.003362
  64 H :   -0.019614
  65 H :   -0.018451
  66 H :    0.016099
  67 H :    0.013340
  68 H :    0.034386
  69 H :    0.053819
Sum of atomic charges:   -0.0000000

LOEWDIN ATOMIC CHARGES
----------------------
   0 C :   -0.058432
   1 C :   -0.145538
   2 S :    0.492550
   3 C :   -0.265072
   4 Cl:    0.220330
   5 C :   -0.124472
   6 C :    0.105735
   7 O :   -0.150203
   8 C :   -0.081989
   9 C :    0.073829
  10 C :   -0.126742
  11 C :   -0.014786
  12 N :   -0.041808
  13 C :   -0.025194
  14 N :   -0.034834
  15 C :    0.089003
  16 C :   -0.062316
  17 C :    0.037835
  18 C :   -0.056826
  19 C :    0.037937
  20 N :   -0.057549
  21 C :    0.039614
  22 C :   -0.208485
  23 S :    0.462044
  24 C :   -0.195875
  25 C :   -0.055054
  26 C :   -0.000673
  27 N :    0.072899
  28 C :   -0.019634
  29 C :   -0.035672
  30 N :   -0.049344
  31 C :   -0.038505
  32 C :   -0.158693
  33 S :    0.458392
  34 C :   -0.149429
  35 C :   -0.091495
  36 C :   -0.028921
  37 C :    0.108173
  38 O :   -0.125794
  39 C :    0.016043
  40 C :   -0.044139
  41 C :    0.066806
  42 C :   -0.093110
  43 C :    0.079196
  44 O :   -0.135787
  45 C :   -0.118118
  46 C :   -0.272585
  47 S :    0.472048
  48 C :   -0.152161
  49 C :   -0.058267
  50 C :    0.064328
  51 C :   -0.145006
  52 C :   -0.018253
  53 N :   -0.052249
  54 C :   -0.019395
  55 N :   -0.040132
  56 Cl:    0.190981
  57 H :    0.039687
  58 H :    0.049982
  59 H :    0.029652
  60 H :    0.022232
  61 H :    0.027357
  62 H :    0.073356
  63 H :    0.036425
  64 H :    0.035522
  65 H :   -0.003857
  66 H :    0.036543
  67 H :    0.030805
  68 H :    0.049755
  69 H :    0.037339

  Mayer bond orders larger than 0.100000
B(  0-C ,  1-C ) :   1.5446 B(  0-C ,  5-C ) :   1.2160 B(  0-C ,  9-C ) :   1.0005
B(  1-C ,  2-S ) :   1.1630 B(  1-C , 57-H ) :   0.9545 B(  2-S ,  3-C ) :   1.1650
B(  3-C ,  4-Cl) :   1.1494 B(  3-C ,  5-C ) :   1.4460 B(  5-C ,  6-C ) :   0.9917
B(  6-C ,  7-O ) :   2.0639 B(  6-C ,  8-C ) :   0.9465 B(  7-O , 62-H ) :   0.1075
B(  8-C ,  9-C ) :   1.0455 B(  8-C , 15-C ) :   1.6906 B(  9-C , 10-C ) :   1.6765
B( 10-C , 11-C ) :   1.1446 B( 10-C , 13-C ) :   1.1322 B( 11-C , 12-N ) :   2.9919
B( 13-C , 14-N ) :   2.9686 B( 15-C , 16-C ) :   1.0439 B( 15-C , 58-H ) :   0.9379
B( 16-C , 17-C ) :   1.3765 B( 16-C , 21-C ) :   1.3021 B( 17-C , 18-C ) :   1.4081
B( 17-C , 59-H ) :   0.9739 B( 18-C , 19-C ) :   1.3175 B( 18-C , 22-C ) :   1.0236
B( 19-C , 20-N ) :   1.5662 B( 19-C , 60-H ) :   0.9858 B( 20-N , 21-C ) :   1.5660
B( 21-C , 61-H ) :   0.9895 B( 22-C , 23-S ) :   1.1197 B( 22-C , 24-C ) :   0.1300
B( 22-C , 26-C ) :   1.4426 B( 23-S , 24-C ) :   1.1345 B( 24-C , 25-C ) :   1.3607
B( 24-C , 32-C ) :   1.1699 B( 25-C , 26-C ) :   1.2231 B( 25-C , 31-C ) :   1.1688
B( 26-C , 27-N ) :   1.1869 B( 27-N , 28-C ) :   1.2266 B( 27-N , 62-H ) :   0.8897
B( 28-C , 29-C ) :   1.0603 B( 28-C , 31-C ) :   1.5766 B( 29-C , 30-N ) :   3.0248
B( 31-C , 63-H ) :   1.0124 B( 32-C , 33-S ) :   1.1162 B( 32-C , 36-C ) :   1.4621
B( 33-S , 34-C ) :   1.1255 B( 34-C , 35-C ) :   1.3726 B( 34-C , 39-C ) :   1.2321
B( 35-C , 36-C ) :   1.2682 B( 35-C , 37-C ) :   0.9802 B( 36-C , 64-H ) :   1.0048
B( 37-C , 38-O ) :   2.1827 B( 37-C , 65-H ) :   0.9620 B( 39-C , 40-C ) :   1.5906
B( 39-C , 66-H ) :   0.9567 B( 40-C , 41-C ) :   1.1874 B( 40-C , 67-H ) :   0.9556
B( 41-C , 42-C ) :   1.6427 B( 41-C , 68-H ) :   0.9264 B( 42-C , 43-C ) :   0.9443
B( 42-C , 50-C ) :   1.0531 B( 43-C , 44-O ) :   2.2709 B( 43-C , 45-C ) :   0.9255
B( 45-C , 46-C ) :   1.4842 B( 45-C , 49-C ) :   1.2212 B( 46-C , 47-S ) :   1.1490
B( 46-C , 56-Cl) :   1.1283 B( 47-S , 48-C ) :   1.1577 B( 48-C , 49-C ) :   1.5542
B( 48-C , 69-H ) :   0.9550 B( 49-C , 50-C ) :   1.0069 B( 50-C , 51-C ) :   1.6377
B( 51-C , 52-C ) :   1.1313 B( 51-C , 54-C ) :   1.1730 B( 52-C , 53-N ) :   2.9947
B( 54-C , 55-N ) :   2.9838

-----------------------------------------------------------------------------
         ABSORPTION SPECTRUM VIA TRANSITION ELECTRIC DIPOLE MOMENTS
-----------------------------------------------------------------------------
State   Energy  Wavelength   fosc         T2         TX        TY        TZ
        (cm-1)    (nm)                  (au**2)     (au)      (au)      (au)
-----------------------------------------------------------------------------
   0   15236.9    656.3   1.061919905  22.94406  -2.84764   1.15326  -3.67491
   1   16397.1    609.9   0.007077274   0.14209   0.29210  -0.23798  -0.01152
   2   23861.8    419.1   0.469197827   6.47334   0.61754  -0.55147   2.40580
   3   24156.9    414.0   0.003468663   0.04727   0.11039   0.01030   0.18703
   4   25369.9    394.2   0.078721696   1.02153  -0.97848   0.00030  -0.25318
   5   26619.1    375.7   0.230010628   2.84466   1.12185   0.08287   1.25668
   6   27124.7    368.7   0.064872560   0.78736  -0.22143   0.33211   0.79248
   7   28352.1    352.7   0.041282330   0.47935   0.10842  -0.68339  -0.02386
   8   28662.5    348.9   0.000756820   0.00869   0.06757   0.06175  -0.01775
   9   28835.5    346.8   0.055055776   0.62857   0.42592  -0.62585   0.23550
  10   28948.9    345.4   0.008470389   0.09633  -0.17328   0.23523  -0.10473
  11   29466.3    339.4   0.040096021   0.44797   0.39486  -0.53650   0.06495
  12   30124.3    332.0   0.006509068   0.07113   0.25709  -0.06762   0.02162
  13   30673.3    326.0   0.012641197   0.13568   0.06388  -0.35419  -0.07838
  14   30860.8    324.0   0.059338260   0.63300   0.59425  -0.36953   0.37857
  15   31884.8    313.6   0.034045427   0.35152   0.08780  -0.02403   0.58586
  16   32103.5    311.5   0.097664062   1.00152  -0.27156   0.63825  -0.72139
  17   32413.5    308.5   0.180470313   1.83297  -0.90003  -0.20934  -0.98949
  18   32878.0    304.2   0.002979925   0.02984  -0.02156  -0.17101  -0.01137
  19   33772.3    296.1   0.067069137   0.65379  -0.27055   0.67725   0.34918
  20   33928.1    294.7   0.013350131   0.12954  -0.21064  -0.23840   0.16833
  21   34075.5    293.5   0.131898304   1.27430  -0.22504   0.67718  -0.87469
  22   34680.4    288.3   0.237490853   2.25444   0.41003  -1.41583   0.28589
  23   34992.4    285.8   0.040763721   0.38351  -0.05899  -0.40222   0.46717
  24   35207.7    284.0   0.038821230   0.36300   0.15781  -0.48116  -0.32646
  25   35903.6    278.5   0.124332605   1.14005   0.47785  -0.93183  -0.20830
  26   36327.9    275.3   0.429151929   3.88908  -0.19338  -1.73999  -0.90780
  27   36566.5    273.5   0.105686532   0.95151   0.05838   0.88136   0.41390
  28   37279.9    268.2   0.004590903   0.04054  -0.03979   0.17290   0.09520
  29   37408.5    267.3   0.426715224   3.75529  -0.35709   0.73487  -1.75720
  30   37747.0    264.9   0.023972289   0.20908  -0.21338   0.40437  -0.00552
  31   37991.7    263.2   0.101900429   0.88300  -0.13000   0.87851   0.30711
  32   38118.9    262.3   0.089817661   0.77571   0.12987  -0.07255   0.86809
  33   38144.6    262.2   0.020874645   0.18016   0.15358   0.26561  -0.29330
  34   38204.4    261.8   0.066398842   0.57217  -0.27837   0.24945  -0.65761
  35   38235.2    261.5   0.024926744   0.21462   0.37184   0.10456   0.25578
  36   39091.8    255.8   0.002219015   0.01869   0.08613  -0.03876   0.09882
  37   39367.2    254.0   0.517780373   4.32998   0.69963  -1.92438  -0.37048
  38   40080.7    249.5   0.132401021   1.08751   0.51594  -0.82363   0.37808
  39   40153.3    249.0   0.022121713   0.18137   0.25567   0.02931   0.33933
  40   40235.8    248.5   0.001475599   0.01207   0.01038  -0.09444   0.05520

FINAL SINGLE POINT ENERGY     -4688.622753833121

DIPOLE MOMENT
-------------
                                X             Y             Z
Electronic contribution:     -2.38372      -3.83927     -10.84541
Nuclear contribution   :      3.36817       3.83549      10.64736
                        -----------------------------------------
Total Dipole Moment    :      0.98445      -0.00379      -0.19805
                        -----------------------------------------
Magnitude (a.u.)       :      1.00418
Magnitude (Debye)      :      2.55242

Rotational constants in cm-1:     0.003655     0.000342     0.000321
Rotational constants in MHz :   109.564720    10.248914     9.628825

                             ****ORCA TERMINATED NORMALLY****
TOTAL RUN TIME: 0 days 0 hours 7 minutes 43 seconds 899 msec
