                         Program Version 4.2.0 -  RELEASE  -
|  1> # ORCA input file
|  2> # SCF done       -172.034602655684          0.000811236010
|  3> ! CAM-B3LYP def2-SVP def2/J RIJCOSX Grid4 TightSCF
|  4> %maxcore 5000
|  5> %tddft
|  6>     Mode sTDDFT
|  7>     Ethresh 5.0
|  8>     maxcore 5000
|  9> end
| 10>
| 11> %pal
| 12>   nprocs 6
| 13>   end
| 14> * xyz 0 1
| 15>    C        4.39359         3.35364         0.75766
| 16>    C        4.31547         4.68597         1.02537
| 17>    S        3.84900         5.57670        -0.37600
| 18>    C        3.75499         4.12472        -1.34712
| 19>   Cl        3.32109         4.18312        -2.98248
| 20>    C        4.07478         3.03121        -0.60022
| 21>    C        4.16476         1.57882        -0.81323
| 22>    O        3.88775         0.96743        -1.81287
| 23>    C        4.57957         1.03403         0.52411
| 24>    C        4.71860         2.13403         1.46792
| 25>    C        5.12871         2.08243         2.77427
| 26>    C        5.22816         3.25282         3.55694
| 27>    N        5.31075         4.19167         4.21096
| 28>    C        5.50301         0.92393         3.48392
| 29>    N        5.82990         0.02540         4.11982
| 30>    C        4.67907        -0.28404         0.85153
| 31>    C        4.66339        -1.38897        -0.02956
| 32>    N        4.89205        -1.39858        -1.30585
| 33>    C        4.80608        -2.61656        -1.81454
| 34>    C        4.49341        -3.65381        -0.89394
| 35>    S        4.33281        -3.01159         0.68117
| 36>    N        4.38928        -4.87305        -1.40018
| 37>    C        4.61105        -4.85887        -2.69127
| 38>    S        4.98820        -3.26404        -3.39247
| 39>    C        4.55201        -5.98538        -3.54439
| 40>    N        4.21173        -7.26224        -3.17991
| 41>    C        3.93272        -7.74041        -1.84659
| 42>    C        5.21610        -7.97519        -1.05680
| 43>    C        4.21158        -8.13310        -4.28729
| 44>    O        3.92762        -9.31077        -4.21507
| 45>    C        4.58803        -7.29573        -5.40833
| 46>    C        4.78910        -5.98751        -4.91534
| 47>    C        5.16612        -5.13438        -6.01822
| 48>    O        5.43359        -3.95179        -6.06523
| 49>    N        5.17814        -5.99703        -7.12762
| 50>    C        5.46767        -5.50662        -8.45417
| 51>    C        4.19440        -5.27187        -9.26268
| 52>    C        4.82454        -7.28275        -6.78556
| 53>    C        4.72902        -8.34583        -7.71278
| 54>    C        4.33774        -9.60012        -7.35852
| 55>    C        4.21269       -10.63798        -8.30929
| 56>    N        4.45652       -10.51817        -9.58895
| 57>    C        4.22683       -11.65737       -10.22486
| 58>    C        3.77504       -12.74261        -9.43118
| 59>    S        3.65688       -12.25263        -7.79464
| 60>    N        3.54623       -13.88025       -10.06895
| 61>    C        3.79362       -13.76747       -11.34555
| 62>    S        4.34341       -12.14835       -11.85923
| 63>    C        3.60204       -14.76967       -12.32177
| 64>    C        3.30570       -16.08152       -12.12788
| 65>    C        2.72581       -16.86155       -13.27151
| 66>    O        2.72902       -16.53754       -14.43341
| 67>    C        2.12630       -18.03797       -12.63459
| 68>    C        1.36978       -19.10622       -13.01689
| 69>    S        1.01063       -20.12414       -11.64309
| 70>    C        1.89749       -19.10168       -10.57063
| 71>    C        2.42799       -18.03939       -11.23170
| 72>    C        3.27853       -16.90166       -10.93024
| 73>    C        4.05388       -16.78537        -9.81028
| 74>    C        3.93310       -17.69658        -8.74000
| 75>    N        3.83296       -18.42382        -7.85849
| 76>    C        5.10547       -15.86016        -9.65186
| 77>    N        6.03342       -15.20140        -9.50258
| 78>   Cl        0.80676       -19.48504       -14.56825
| 79>    H        4.49272         5.20778         1.94474
| 80>    H        4.76574        -0.55440         1.89646
| 81>    H        3.39091        -8.68195        -1.96883
| 82>    H        3.30425        -7.01109        -1.33297
| 83>    H        5.85582        -8.68287        -1.57862
| 84>    H        4.97286        -8.37916        -0.07871
| 85>    H        5.75246        -7.03965        -0.92311
| 86>    H        6.13029        -6.20945        -8.96580
| 87>    H        5.99478        -4.55840        -8.31677
| 88>    H        3.63110        -6.19474        -9.38083
| 89>    H        4.45051        -4.88974       -10.24672
| 90>    H        3.56471        -4.54197        -8.75997
| 91>    H        4.96477        -8.15727        -8.74966
| 92>    H        4.09597        -9.83845        -6.33180
| 93>    H        3.61075       -14.43305       -13.35252
| 94>    H        1.95502       -19.35295        -9.53019
| 95> *
| 96>
| 97>                          ****END OF INPUT****

CARTESIAN COORDINATES (ANGSTROEM)
---------------------------------
  C      4.393590    3.353640    0.757660
  C      4.315470    4.685970    1.025370
  S      3.849000    5.576700   -0.376000
  C      3.754990    4.124720   -1.347120
  Cl     3.321090    4.183120   -2.982480
  C      4.074780    3.031210   -0.600220
  C      4.164760    1.578820   -0.813230
  O      3.887750    0.967430   -1.812870
  C      4.579570    1.034030    0.524110
  C      4.718600    2.134030    1.467920
  C      5.128710    2.082430    2.774270
  C      5.228160    3.252820    3.556940
  N      5.310750    4.191670    4.210960
  C      5.503010    0.923930    3.483920
  N      5.829900    0.025400    4.119820
  C      4.679070   -0.284040    0.851530
  C      4.663390   -1.388970   -0.029560
  N      4.892050   -1.398580   -1.305850
  C      4.806080   -2.616560   -1.814540
  C      4.493410   -3.653810   -0.893940
  S      4.332810   -3.011590    0.681170
  N      4.389280   -4.873050   -1.400180
  C      4.611050   -4.858870   -2.691270
  S      4.988200   -3.264040   -3.392470
  C      4.552010   -5.985380   -3.544390
  N      4.211730   -7.262240   -3.179910
  C      3.932720   -7.740410   -1.846590
  C      5.216100   -7.975190   -1.056800
  C      4.211580   -8.133100   -4.287290
  O      3.927620   -9.310770   -4.215070
  C      4.588030   -7.295730   -5.408330
  C      4.789100   -5.987510   -4.915340
  C      5.166120   -5.134380   -6.018220
  O      5.433590   -3.951790   -6.065230
  N      5.178140   -5.997030   -7.127620
  C      5.467670   -5.506620   -8.454170
  C      4.194400   -5.271870   -9.262680
  C      4.824540   -7.282750   -6.785560
  C      4.729020   -8.345830   -7.712780
  C      4.337740   -9.600120   -7.358520
  C      4.212690  -10.637980   -8.309290
  N      4.456520  -10.518170   -9.588950
  C      4.226830  -11.657370  -10.224860
  C      3.775040  -12.742610   -9.431180
  S      3.656880  -12.252630   -7.794640
  N      3.546230  -13.880250  -10.068950
  C      3.793620  -13.767470  -11.345550
  S      4.343410  -12.148350  -11.859230
  C      3.602040  -14.769670  -12.321770
  C      3.305700  -16.081520  -12.127880
  C      2.725810  -16.861550  -13.271510
  O      2.729020  -16.537540  -14.433410
  C      2.126300  -18.037970  -12.634590
  C      1.369780  -19.106220  -13.016890
  S      1.010630  -20.124140  -11.643090
  C      1.897490  -19.101680  -10.570630
  C      2.427990  -18.039390  -11.231700
  C      3.278530  -16.901660  -10.930240
  C      4.053880  -16.785370   -9.810280
  C      3.933100  -17.696580   -8.740000
  N      3.832960  -18.423820   -7.858490
  C      5.105470  -15.860160   -9.651860
  N      6.033420  -15.201400   -9.502580
  Cl     0.806760  -19.485040  -14.568250
  H      4.492720    5.207780    1.944740
  H      4.765740   -0.554400    1.896460
  H      3.390910   -8.681950   -1.968830
  H      3.304250   -7.011090   -1.332970
  H      5.855820   -8.682870   -1.578620
  H      4.972860   -8.379160   -0.078710
  H      5.752460   -7.039650   -0.923110
  H      6.130290   -6.209450   -8.965800
  H      5.994780   -4.558400   -8.316770
  H      3.631100   -6.194740   -9.380830
  H      4.450510   -4.889740  -10.246720
  H      3.564710   -4.541970   -8.759970
  H      4.964770   -8.157270   -8.749660
  H      4.095970   -9.838450   -6.331800
  H      3.610750  -14.433050  -13.352520
  H      1.955020  -19.352950   -9.530190

 Total Charge           Charge          ....    0
 Multiplicity           Mult            ....    1
 Number of Electrons    NEL             ....  500
 Basis Dimension        Dim             .... 1008

ORBITAL ENERGIES
----------------

  NO   OCC          E(Eh)            E(eV)
   0   2.0000    -101.619228     -2765.1998
   1   2.0000    -101.615974     -2765.1112
   2   2.0000     -88.994501     -2421.6635
   3   2.0000     -88.993445     -2421.6347
   4   2.0000     -88.988275     -2421.4941
   5   2.0000     -88.985040     -2421.4060
   6   2.0000     -88.982612     -2421.3400
   7   2.0000     -88.981263     -2421.3033
   8   2.0000     -19.224286      -523.1194
   9   2.0000     -19.216095      -522.8965
  10   2.0000     -19.206474      -522.6347
  11   2.0000     -19.202294      -522.5210
  12   2.0000     -14.466977      -393.6665
  13   2.0000     -14.465132      -393.6163
  14   2.0000     -14.446111      -393.0987
  15   2.0000     -14.441902      -392.9841
  16   2.0000     -14.439693      -392.9240
  17   2.0000     -14.436982      -392.8502
  18   2.0000     -14.424867      -392.5206
  19   2.0000     -14.422266      -392.4498
  20   2.0000     -14.422182      -392.4475
  21   2.0000     -14.416328      -392.2882
  22   2.0000     -10.388627      -282.6889
  23   2.0000     -10.385537      -282.6048
  24   2.0000     -10.380485      -282.4673
  25   2.0000     -10.378209      -282.4054
  26   2.0000     -10.375444      -282.3302
  27   2.0000     -10.374757      -282.3115
  28   2.0000     -10.368117      -282.1308
  29   2.0000     -10.364410      -282.0299
  30   2.0000     -10.363379      -282.0019
  31   2.0000     -10.359938      -281.9083
  32   2.0000     -10.355280      -281.7815
  33   2.0000     -10.354820      -281.7690
  34   2.0000     -10.352826      -281.7147
  35   2.0000     -10.351860      -281.6884
  36   2.0000     -10.351244      -281.6717
  37   2.0000     -10.350404      -281.6488
  38   2.0000     -10.350063      -281.6395
  39   2.0000     -10.349343      -281.6199
  40   2.0000     -10.348462      -281.5960
  41   2.0000     -10.343291      -281.4552
  42   2.0000     -10.330078      -281.0957
  43   2.0000     -10.329705      -281.0856
  44   2.0000     -10.329512      -281.0803
  45   2.0000     -10.329165      -281.0709
  46   2.0000     -10.326898      -281.0092
  47   2.0000     -10.324281      -280.9380
  48   2.0000     -10.323417      -280.9145
  49   2.0000     -10.319944      -280.8200
  50   2.0000     -10.317735      -280.7598
  51   2.0000     -10.315767      -280.7063
  52   2.0000     -10.315240      -280.6920
  53   2.0000     -10.314719      -280.6778
  54   2.0000     -10.313069      -280.6329
  55   2.0000     -10.308803      -280.5168
  56   2.0000     -10.307718      -280.4873
  57   2.0000     -10.302639      -280.3491
  58   2.0000     -10.301840      -280.3273
  59   2.0000     -10.298825      -280.2453
  60   2.0000     -10.279537      -279.7204
  61   2.0000     -10.276365      -279.6341
  62   2.0000     -10.271137      -279.4918
  63   2.0000     -10.256154      -279.0842
  64   2.0000      -9.574016      -260.5222
  65   2.0000      -9.570755      -260.4335
  66   2.0000      -8.090172      -220.1448
  67   2.0000      -8.089171      -220.1175
  68   2.0000      -8.084212      -219.9826
  69   2.0000      -8.080958      -219.8940
  70   2.0000      -8.078586      -219.8295
  71   2.0000      -8.075978      -219.7585
  72   2.0000      -7.344623      -199.8573
  73   2.0000      -7.341411      -199.7699
  74   2.0000      -7.334076      -199.5704
  75   2.0000      -7.333530      -199.5555
  76   2.0000      -7.330781      -199.4807
  77   2.0000      -7.330240      -199.4660
  78   2.0000      -6.059567      -164.8892
  79   2.0000      -6.058562      -164.8618
  80   2.0000      -6.054960      -164.7638
  81   2.0000      -6.053920      -164.7355
  82   2.0000      -6.053102      -164.7133
  83   2.0000      -6.052418      -164.6947
  84   2.0000      -6.051436      -164.6680
  85   2.0000      -6.049942      -164.6273
  86   2.0000      -6.049597      -164.6179
  87   2.0000      -6.047479      -164.5603
  88   2.0000      -6.046320      -164.5287
  89   2.0000      -6.046270      -164.5274
  90   2.0000      -6.045102      -164.4956
  91   2.0000      -6.043991      -164.4653
  92   2.0000      -6.042913      -164.4360
  93   2.0000      -6.041233      -164.3903
  94   2.0000      -6.040619      -164.3736
  95   2.0000      -6.037846      -164.2982
  96   2.0000      -1.147711       -31.2308
  97   2.0000      -1.141462       -31.0608
  98   2.0000      -1.139797       -31.0155
  99   2.0000      -1.135453       -30.8973
 100   2.0000      -1.113861       -30.3097
 101   2.0000      -1.111048       -30.2332
 102   2.0000      -1.079592       -29.3772
 103   2.0000      -1.074026       -29.2257
 104   2.0000      -1.072431       -29.1823
 105   2.0000      -1.060412       -28.8553
 106   2.0000      -1.039609       -28.2892
 107   2.0000      -1.038278       -28.2530
 108   2.0000      -1.020216       -27.7615
 109   2.0000      -1.016867       -27.6704
 110   2.0000      -1.001979       -27.2652
 111   2.0000      -0.997461       -27.1423
 112   2.0000      -0.990036       -26.9403
 113   2.0000      -0.989229       -26.9183
 114   2.0000      -0.956972       -26.0405
 115   2.0000      -0.956099       -26.0168
 116   2.0000      -0.943176       -25.6651
 117   2.0000      -0.939725       -25.5712
 118   2.0000      -0.933060       -25.3899
 119   2.0000      -0.926579       -25.2135
 120   2.0000      -0.914285       -24.8790
 121   2.0000      -0.910177       -24.7672
 122   2.0000      -0.901246       -24.5241
 123   2.0000      -0.898931       -24.4612
 124   2.0000      -0.892198       -24.2779
 125   2.0000      -0.890571       -24.2337
 126   2.0000      -0.880409       -23.9572
 127   2.0000      -0.862160       -23.4606
 128   2.0000      -0.847902       -23.0726
 129   2.0000      -0.833873       -22.6908
 130   2.0000      -0.832883       -22.6639
 131   2.0000      -0.825902       -22.4739
 132   2.0000      -0.819260       -22.2932
 133   2.0000      -0.813378       -22.1331
 134   2.0000      -0.777803       -21.1651
 135   2.0000      -0.767433       -20.8829
 136   2.0000      -0.766229       -20.8502
 137   2.0000      -0.755851       -20.5678
 138   2.0000      -0.754392       -20.5281
 139   2.0000      -0.736118       -20.0308
 140   2.0000      -0.723196       -19.6792
 141   2.0000      -0.714269       -19.4362
 142   2.0000      -0.710375       -19.3303
 143   2.0000      -0.704619       -19.1737
 144   2.0000      -0.698006       -18.9937
 145   2.0000      -0.686890       -18.6912
 146   2.0000      -0.684457       -18.6250
 147   2.0000      -0.684012       -18.6129
 148   2.0000      -0.678736       -18.4694
 149   2.0000      -0.677067       -18.4239
 150   2.0000      -0.676964       -18.4211
 151   2.0000      -0.666204       -18.1283
 152   2.0000      -0.659900       -17.9568
 153   2.0000      -0.648946       -17.6587
 154   2.0000      -0.625737       -17.0272
 155   2.0000      -0.624452       -16.9922
 156   2.0000      -0.619109       -16.8468
 157   2.0000      -0.612719       -16.6729
 158   2.0000      -0.611136       -16.6299
 159   2.0000      -0.606368       -16.5001
 160   2.0000      -0.597955       -16.2712
 161   2.0000      -0.588771       -16.0213
 162   2.0000      -0.585052       -15.9201
 163   2.0000      -0.580367       -15.7926
 164   2.0000      -0.578524       -15.7424
 165   2.0000      -0.571663       -15.5557
 166   2.0000      -0.569101       -15.4860
 167   2.0000      -0.564150       -15.3513
 168   2.0000      -0.559116       -15.2143
 169   2.0000      -0.550585       -14.9822
 170   2.0000      -0.549274       -14.9465
 171   2.0000      -0.547853       -14.9078
 172   2.0000      -0.544919       -14.8280
 173   2.0000      -0.540666       -14.7123
 174   2.0000      -0.539385       -14.6774
 175   2.0000      -0.537750       -14.6329
 176   2.0000      -0.534762       -14.5516
 177   2.0000      -0.534546       -14.5457
 178   2.0000      -0.530779       -14.4432
 179   2.0000      -0.527098       -14.3431
 180   2.0000      -0.525852       -14.3092
 181   2.0000      -0.524110       -14.2618
 182   2.0000      -0.521778       -14.1983
 183   2.0000      -0.519320       -14.1314
 184   2.0000      -0.518572       -14.1111
 185   2.0000      -0.513303       -13.9677
 186   2.0000      -0.509497       -13.8641
 187   2.0000      -0.508837       -13.8462
 188   2.0000      -0.508280       -13.8310
 189   2.0000      -0.505855       -13.7650
 190   2.0000      -0.503838       -13.7101
 191   2.0000      -0.498921       -13.5763
 192   2.0000      -0.495337       -13.4788
 193   2.0000      -0.494006       -13.4426
 194   2.0000      -0.493290       -13.4231
 195   2.0000      -0.486310       -13.2332
 196   2.0000      -0.485074       -13.1995
 197   2.0000      -0.482183       -13.1209
 198   2.0000      -0.477780       -13.0011
 199   2.0000      -0.471448       -12.8288
 200   2.0000      -0.469902       -12.7867
 201   2.0000      -0.460003       -12.5173
 202   2.0000      -0.457656       -12.4535
 203   2.0000      -0.456851       -12.4316
 204   2.0000      -0.456153       -12.4126
 205   2.0000      -0.453104       -12.3296
 206   2.0000      -0.451176       -12.2771
 207   2.0000      -0.449588       -12.2339
 208   2.0000      -0.447312       -12.1720
 209   2.0000      -0.446080       -12.1384
 210   2.0000      -0.445160       -12.1134
 211   2.0000      -0.443901       -12.0792
 212   2.0000      -0.441676       -12.0186
 213   2.0000      -0.436638       -11.8815
 214   2.0000      -0.435601       -11.8533
 215   2.0000      -0.435073       -11.8389
 216   2.0000      -0.434950       -11.8356
 217   2.0000      -0.433943       -11.8082
 218   2.0000      -0.433081       -11.7847
 219   2.0000      -0.427272       -11.6267
 220   2.0000      -0.423377       -11.5207
 221   2.0000      -0.420131       -11.4323
 222   2.0000      -0.419074       -11.4036
 223   2.0000      -0.413957       -11.2643
 224   2.0000      -0.412160       -11.2154
 225   2.0000      -0.411670       -11.2021
 226   2.0000      -0.405252       -11.0275
 227   2.0000      -0.404030       -10.9942
 228   2.0000      -0.402442       -10.9510
 229   2.0000      -0.392457       -10.6793
 230   2.0000      -0.390721       -10.6321
 231   2.0000      -0.387639       -10.5482
 232   2.0000      -0.369543       -10.0558
 233   2.0000      -0.363858        -9.9011
 234   2.0000      -0.363528        -9.8921
 235   2.0000      -0.357946        -9.7402
 236   2.0000      -0.357369        -9.7245
 237   2.0000      -0.348211        -9.4753
 238   2.0000      -0.344277        -9.3682
 239   2.0000      -0.341932        -9.3044
 240   2.0000      -0.340996        -9.2790
 241   2.0000      -0.336197        -9.1484
 242   2.0000      -0.335245        -9.1225
 243   2.0000      -0.327303        -8.9064
 244   2.0000      -0.325123        -8.8470
 245   2.0000      -0.317039        -8.6271
 246   2.0000      -0.314962        -8.5705
 247   2.0000      -0.301314        -8.1992
 248   2.0000      -0.291644        -7.9360
 249   2.0000      -0.248370        -6.7585
 250   0.0000      -0.123207        -3.3526
 251   0.0000      -0.105997        -2.8843
 252   0.0000      -0.083389        -2.2691
 253   0.0000      -0.055544        -1.5114
 254   0.0000      -0.050172        -1.3652

MULLIKEN ATOMIC CHARGES
-----------------------
   0 C :    0.030600
   1 C :   -0.127659
   2 S :    0.186841
   3 C :   -0.174037
   4 Cl:   -0.000294
   5 C :    0.071006
   6 C :    0.147657
   7 O :   -0.092495
   8 C :   -0.083089
   9 C :    0.294350
  10 C :   -0.331840
  11 C :   -0.193058
  12 N :    0.156211
  13 C :   -0.183287
  14 N :    0.160285
  15 C :    0.035676
  16 C :   -0.147674
  17 N :    0.044648
  18 C :   -0.042346
  19 C :   -0.051989
  20 S :    0.140306
  21 N :   -0.039379
  22 C :   -0.208356
  23 S :    0.209848
  24 C :    0.211574
  25 N :   -0.254161
  26 C :    0.128699
  27 C :    0.002438
  28 C :    0.162406
  29 O :   -0.199634
  30 C :   -0.058097
  31 C :   -0.094761
  32 C :    0.155789
  33 O :   -0.190001
  34 N :   -0.259748
  35 C :    0.096857
  36 C :    0.003318
  37 C :    0.146416
  38 C :   -0.019502
  39 C :    0.070822
  40 C :   -0.114238
  41 N :   -0.028987
  42 C :   -0.045925
  43 C :   -0.049997
  44 S :    0.177216
  45 N :   -0.045247
  46 C :   -0.118115
  47 S :    0.157277
  48 C :    0.095002
  49 C :   -0.120896
  50 C :    0.132994
  51 O :   -0.126755
  52 C :    0.082534
  53 C :   -0.167957
  54 S :    0.185521
  55 C :   -0.130255
  56 C :    0.020998
  57 C :    0.270752
  58 C :   -0.278481
  59 C :   -0.194793
  60 N :    0.156531
  61 C :   -0.184159
  62 N :    0.165470
  63 Cl:    0.001188
  64 H :    0.053614
  65 H :    0.021586
  66 H :    0.036073
  67 H :    0.031151
  68 H :    0.020637
  69 H :    0.020425
  70 H :    0.018895
  71 H :    0.030401
  72 H :    0.046673
  73 H :    0.019228
  74 H :    0.027136
  75 H :    0.030780
  76 H :    0.000695
  77 H :    0.018662
  78 H :    0.025608
  79 H :    0.054417
Sum of atomic charges:   -0.0000000

LOEWDIN ATOMIC CHARGES
----------------------
   0 C :   -0.061389
   1 C :   -0.149261
   2 S :    0.476000
   3 C :   -0.274024
   4 Cl:    0.192136
   5 C :   -0.115284
   6 C :    0.072745
   7 O :   -0.102912
   8 C :   -0.061716
   9 C :    0.072486
  10 C :   -0.133525
  11 C :   -0.014924
  12 N :   -0.048965
  13 C :   -0.024264
  14 N :   -0.043929
  15 C :    0.027224
  16 C :   -0.125126
  17 N :   -0.043943
  18 C :   -0.206899
  19 C :   -0.200179
  20 S :    0.425023
  21 N :   -0.090547
  22 C :   -0.121389
  23 S :    0.497898
  24 C :    0.040841
  25 N :    0.013298
  26 C :    0.037230
  27 C :   -0.059891
  28 C :    0.081620
  29 O :   -0.192219
  30 C :   -0.116140
  31 C :   -0.114263
  32 C :    0.073194
  33 O :   -0.190519
  34 N :    0.001350
  35 C :    0.037559
  36 C :   -0.060015
  37 C :    0.080531
  38 C :   -0.013000
  39 C :   -0.004049
  40 C :   -0.109697
  41 N :   -0.097206
  42 C :   -0.195305
  43 C :   -0.201225
  44 S :    0.449345
  45 N :   -0.066014
  46 C :   -0.127665
  47 S :    0.441379
  48 C :    0.025830
  49 C :   -0.058384
  50 C :    0.080641
  51 O :   -0.130274
  52 C :   -0.120101
  53 C :   -0.271826
  54 S :    0.475036
  55 C :   -0.153831
  56 C :   -0.054188
  57 C :    0.064878
  58 C :   -0.112998
  59 C :   -0.015084
  60 N :   -0.047040
  61 C :   -0.019221
  62 N :   -0.048948
  63 Cl:    0.193037
  64 H :    0.037477
  65 H :    0.045674
  66 H :    0.032701
  67 H :    0.026049
  68 H :    0.026827
  69 H :    0.030803
  70 H :    0.021076
  71 H :    0.026324
  72 H :    0.039300
  73 H :    0.023602
  74 H :    0.032685
  75 H :    0.032628
  76 H :    0.037222
  77 H :    0.039198
  78 H :    0.048623
  79 H :    0.037911

  Mayer bond orders larger than 0.100000
B(  0-C ,  1-C ) :   1.5390 B(  0-C ,  5-C ) :   1.2231 B(  0-C ,  9-C ) :   0.9992
B(  1-C ,  2-S ) :   1.1664 B(  1-C , 64-H ) :   0.9541 B(  2-S ,  3-C ) :   1.1487
B(  3-C ,  4-Cl) :   1.1283 B(  3-C ,  5-C ) :   1.4852 B(  5-C ,  6-C ) :   0.9401
B(  6-C ,  7-O ) :   2.2956 B(  6-C ,  8-C ) :   0.9080 B(  8-C ,  9-C ) :   1.0763
B(  8-C , 15-C ) :   1.6677 B(  9-C , 10-C ) :   1.6470 B( 10-C , 11-C ) :   1.1487
B( 10-C , 13-C ) :   1.1362 B( 11-C , 12-N ) :   2.9897 B( 13-C , 14-N ) :   2.9740
B( 15-C , 16-C ) :   1.1517 B( 15-C , 65-H ) :   0.9175 B( 16-C , 17-N ) :   1.6602
B( 16-C , 20-S ) :   1.0502 B( 17-N , 18-C ) :   1.4471 B( 17-N , 20-S ) :   0.1182
B( 18-C , 19-C ) :   1.2028 B( 18-C , 23-S ) :   1.0826 B( 19-C , 20-S ) :   1.1334
B( 19-C , 21-N ) :   1.4226 B( 21-N , 22-C ) :   1.5962 B( 21-N , 23-S ) :   0.1068
B( 22-C , 23-S ) :   1.1277 B( 22-C , 24-C ) :   1.1487 B( 24-C , 25-N ) :   1.2074
B( 24-C , 31-C ) :   1.3498 B( 25-N , 26-C ) :   0.9328 B( 25-N , 28-C ) :   1.0559
B( 26-C , 27-C ) :   1.1249 B( 26-C , 66-H ) :   0.9291 B( 26-C , 67-H ) :   0.9380
B( 27-C , 68-H ) :   0.9659 B( 27-C , 69-H ) :   0.9677 B( 27-C , 70-H ) :   0.9661
B( 28-C , 29-O ) :   2.0400 B( 28-C , 30-C ) :   0.9798 B( 29-O , 77-H ) :   0.1084
B( 30-C , 31-C ) :   1.2695 B( 30-C , 37-C ) :   1.3253 B( 31-C , 32-C ) :   0.9629
B( 32-C , 33-O ) :   2.1075 B( 32-C , 34-N ) :   1.0530 B( 34-N , 35-C ) :   0.9406
B( 34-N , 37-C ) :   1.1648 B( 35-C , 36-C ) :   1.1224 B( 35-C , 71-H ) :   0.9501
B( 35-C , 72-H ) :   0.9289 B( 36-C , 73-H ) :   0.9685 B( 36-C , 74-H ) :   0.9675
B( 36-C , 75-H ) :   0.9635 B( 37-C , 38-C ) :   1.1527 B( 38-C , 39-C ) :   1.6323
B( 38-C , 76-H ) :   0.9674 B( 39-C , 40-C ) :   1.1326 B( 39-C , 77-H ) :   0.9238
B( 40-C , 41-N ) :   1.6480 B( 40-C , 44-S ) :   1.0928 B( 41-N , 42-C ) :   1.4322
B( 42-C , 43-C ) :   1.2351 B( 42-C , 47-S ) :   1.1277 B( 43-C , 44-S ) :   1.1108
B( 43-C , 45-N ) :   1.4183 B( 45-N , 46-C ) :   1.6061 B( 45-N , 47-S ) :   0.1138
B( 46-C , 47-S ) :   1.0685 B( 46-C , 48-C ) :   1.1208 B( 48-C , 49-C ) :   1.6962
B( 48-C , 78-H ) :   0.9274 B( 49-C , 50-C ) :   0.9305 B( 49-C , 57-C ) :   1.0325
B( 50-C , 51-O ) :   2.2799 B( 50-C , 52-C ) :   0.9275 B( 52-C , 53-C ) :   1.4816
B( 52-C , 56-C ) :   1.2220 B( 53-C , 54-S ) :   1.1542 B( 53-C , 63-Cl) :   1.1302
B( 54-S , 55-C ) :   1.1545 B( 55-C , 56-C ) :   1.5569 B( 55-C , 79-H ) :   0.9556
B( 56-C , 57-C ) :   1.0070 B( 57-C , 58-C ) :   1.6975 B( 58-C , 59-C ) :   1.1393
B( 58-C , 61-C ) :   1.1515 B( 59-C , 60-N ) :   2.9975 B( 61-C , 62-N ) :   2.9901

-----------------------------------------------------------------------------
         ABSORPTION SPECTRUM VIA TRANSITION ELECTRIC DIPOLE MOMENTS
-----------------------------------------------------------------------------
State   Energy  Wavelength   fosc         T2         TX        TY        TZ
        (cm-1)    (nm)                  (au**2)     (au)      (au)      (au)
-----------------------------------------------------------------------------
   0   13024.1    767.8   1.567278576  39.61622  -0.17972  -4.72905  -4.14970
   1   18557.5    538.9   0.012025044   0.21333   0.21191   0.13836  -0.38636
   2   21885.1    456.9   0.335960480   5.05377   0.34792   2.21603   0.14809
   3   22086.5    452.8   0.171812750   2.56096   0.12645   1.57898  -0.22758
   4   23218.2    430.7   0.043360006   0.61480  -0.06328  -0.46126  -0.63090
   5   24654.6    405.6   0.510332546   6.81445   0.19732   2.35415   1.11064
   6   25484.6    392.4   0.003634763   0.04695   0.03385  -0.07339   0.20105
   7   26345.0    379.6   0.125335062   1.56621   0.56869   0.90571   0.64999
   8   27006.4    370.3   0.150907570   1.83958   0.00540  -1.34003  -0.20944
   9   27504.5    363.6   0.016028810   0.19186  -0.08057   0.42516   0.06787
  10   28124.1    355.6   0.015125405   0.17705  -0.14944  -0.13852  -0.36815
  11   28424.7    351.8   0.068004197   0.78762  -0.43662  -0.50824  -0.58196
  12   29192.2    342.6   0.021527919   0.24278   0.26091   0.37150   0.19154
  13   30312.4    329.9   0.004967009   0.05394   0.02903  -0.14693   0.17752
  14   30530.6    327.5   0.023877732   0.25747   0.07905   0.39096   0.31365
  15   30607.3    326.7   0.019805610   0.21303  -0.20341  -0.34512  -0.22922
  16   30787.2    324.8   0.151514105   1.62016   0.15200  -0.93807   0.84681
  17   30894.6    323.7   0.007688927   0.08193   0.06652   0.27839  -0.00301
  18   30996.0    322.6   0.043253923   0.45940   0.21275  -0.19416  -0.61355
  19   31229.7    320.2   0.061356193   0.64679   0.37643   0.41208   0.57904
  20   31679.0    315.7   0.192759853   2.00318  -0.05282  -1.12779  -0.85351
  21   31959.8    312.9   0.097131314   1.00053  -0.21500   0.77768  -0.59121
  22   32239.6    310.2   0.072321006   0.73850   0.62773   0.52767   0.25695
  23   33022.6    302.8   0.001147830   0.01144  -0.05168  -0.02481   0.09032
  24   33674.1    297.0   0.040754042   0.39843  -0.31754  -0.40390  -0.36670
  25   34803.6    287.3   0.007127902   0.06742   0.11498   0.21086  -0.09870
  26   35114.2    284.8   0.072512949   0.67984  -0.47413  -0.64317  -0.20342
  27   35424.5    282.3   0.004361409   0.04053   0.18233   0.02267  -0.08230
  28   35848.6    279.0   0.061508014   0.56485  -0.32993  -0.24437  -0.62951
  29   36186.5    276.3   0.143223183   1.30299   0.06332   1.11609  -0.23092
  30   36236.6    276.0   0.133921090   1.21668   0.46893  -0.39263   0.91795
  31   37085.4    269.6   0.017919690   0.15908   0.12564   0.00141  -0.37853
  32   37283.3    268.2   0.021208130   0.18727  -0.12788  -0.39592  -0.11900
  33   37323.8    267.9   0.068064922   0.60036  -0.26149   0.63828  -0.35296
  34   37531.4    266.4   0.052815282   0.46328  -0.41903  -0.31608  -0.43335
  35   37736.8    265.0   0.403324664   3.51857  -1.04316  -1.31142  -0.84295
  36   37994.7    263.2   0.084043528   0.72821  -0.25287   0.36469  -0.72888
  37   38035.8    262.9   0.114517603   0.99119   0.02464   0.91405  -0.39382
  38   38174.2    262.0   0.127342193   1.09819  -0.38057   0.45471  -0.86406
  39   38433.6    260.2   0.007870437   0.06742  -0.18701  -0.00175  -0.18011
  40   38601.8    259.1   0.022401425   0.19105   0.40331  -0.00117   0.16849
  41   38999.0    256.4   0.007969424   0.06727  -0.04301   0.14400  -0.21140
  42   39388.7    253.9   0.076878388   0.64255   0.28294  -0.18312   0.72730
  43   39765.5    251.5   0.177263200   1.46753   0.43643  -0.30571   1.08793
  44   39911.6    250.6   0.002894860   0.02388  -0.09924  -0.01398   0.11762
  45   40322.9    248.0   0.090055989   0.73525  -0.43641  -0.16809  -0.71871

FINAL SINGLE POINT ENERGY     -5763.897391625528

DIPOLE MOMENT
-------------
                                X             Y             Z
Electronic contribution:    -13.40961      -5.23594     -14.14518
Nuclear contribution   :     11.76865       5.41630      11.97040
                        -----------------------------------------
Total Dipole Moment    :     -1.64096       0.18036      -2.17478
                        -----------------------------------------
Magnitude (a.u.)       :      2.73037
Magnitude (Debye)      :      6.94006

Rotational constants in cm-1:     0.003222     0.000197     0.000190
Rotational constants in MHz :    96.606348     5.911953     5.681181

                             ****ORCA TERMINATED NORMALLY****
TOTAL RUN TIME: 0 days 0 hours 7 minutes 1 seconds 536 msec
