                         Program Version 4.2.0 -  RELEASE  -
|  1> # ORCA input file
|  2> # SCF done       -172.310781190037          0.000626988859
|  3> ! CAM-B3LYP def2-SVP def2/J RIJCOSX Grid4 TightSCF
|  4> %maxcore 5000
|  5> %tddft
|  6>     Mode sTDDFT
|  7>     Ethresh 5.0
|  8>     maxcore 5000
|  9> end
| 10>
| 11> %pal
| 12>   nprocs 6
| 13>   end
| 14> * xyz 0 1
| 15>    C        0.13499        -1.49888        -1.50381
| 16>    C       -0.98976        -1.28169        -2.23804
| 17>    S       -1.74483        -2.77023        -2.67519
| 18>    C       -0.52918        -3.70818        -1.83806
| 19>   Cl       -0.57752        -5.39778        -1.81641
| 20>    C        0.39903        -2.88884        -1.27328
| 21>    C        1.60776        -3.03332        -0.45799
| 22>    O        1.98633        -3.99899         0.15849
| 23>    C        2.16901        -1.63993        -0.38014
| 24>    C        1.17962        -0.70640        -0.88643
| 25>    C        1.20788         0.66412        -0.84459
| 26>    C        0.18120         1.43949        -1.42159
| 27>    N       -0.64546         2.08477        -1.88686
| 28>    C        2.21006         1.43138        -0.22165
| 29>    N        3.00166         2.09325         0.28273
| 30>    C        3.40551        -1.34352         0.10378
| 31>    C        4.43724        -2.31029         0.23262
| 32>    N        5.50359        -2.20436         1.09021
| 33>    C        5.64645        -1.22173         2.13677
| 34>    C        4.61745        -1.42143         3.24478
| 35>    C        6.41417        -3.26197         0.92311
| 36>    O        7.42257        -3.39461         1.58834
| 37>    C        5.86615        -4.03635        -0.17107
| 38>    C        4.65460        -3.42598        -0.56711
| 39>    C        4.14328        -4.13246        -1.72227
| 40>    O        3.17625        -3.94313        -2.43092
| 41>    N        5.06593        -5.17275        -1.92007
| 42>    C        4.90031        -6.11900        -2.99593
| 43>    C        5.81651        -5.81003        -4.17795
| 44>    C        6.09753        -5.13131        -1.00744
| 45>    C        7.14716        -6.07692        -0.97423
| 46>    C        8.15847        -6.00950        -0.06473
| 47>    C        9.24540        -6.90541         0.05997
| 48>    S       10.48787        -6.49438         1.22761
| 49>    C       11.41542        -7.89437         0.84661
| 50>    C       10.80983        -8.63310        -0.10733
| 51>    C        9.57483        -8.10632        -0.57317
| 52>    C        8.92805        -8.91485        -1.55940
| 53>    C        9.58756       -10.04074        -1.91867
| 54>    S       11.13478       -10.15953        -0.98793
| 55>    O       12.26558       -10.02168        -1.86095
| 56>    O       11.10751       -11.28786        -0.10161
| 57>    C        9.28631       -11.07083        -2.84248
| 58>    C        8.17177       -11.13310        -3.60494
| 59>    C        7.85171       -12.16264        -4.55284
| 60>    C        8.67057       -13.25489        -4.87845
| 61>    N        8.32689       -14.16684        -5.75859
| 62>    C        7.14914       -14.03777        -6.37727
| 63>    N        6.29687       -13.03109        -6.14844
| 64>    C        6.63551       -12.13308        -5.25710
| 65>    C        6.80809       -14.95984        -7.45757
| 66>    C        7.13498       -16.32139        -7.50858
| 67>    O        7.55080       -17.09540        -6.47800
| 68>    C        7.34197       -16.71898        -5.14063
| 69>    C        6.95041       -17.02308        -8.72803
| 70>    C        6.39300       -16.37520        -9.81361
| 71>    C        5.96687       -15.04779        -9.73143
| 72>    C        6.18449       -14.35253        -8.56019
| 73>    O        5.38497       -14.53688       -10.85222
| 74>    C        4.92762       -13.20664       -10.81688
| 75>    C        7.36826       -18.42077        -8.80304
| 76>    C        6.92445       -19.31360        -9.67847
| 77>    H       -1.42715        -0.35635        -2.55671
| 78>    H        3.66470        -0.31925         0.33965
| 79>    H        5.55694        -0.21797         1.70942
| 80>    H        6.65706        -1.34932         2.53357
| 81>    H        3.60658        -1.33170         2.85228
| 82>    H        4.75939        -0.67179         4.01746
| 83>    H        4.73046        -2.40766         3.68843
| 84>    H        3.85657        -6.03423        -3.31145
| 85>    H        5.06972        -7.13280        -2.62088
| 86>    H        5.59818        -4.81763        -4.56415
| 87>    H        5.65158        -6.53362        -4.97169
| 88>    H        6.86371        -5.84199        -3.88459
| 89>    H        7.12271        -6.86528        -1.70768
| 90>    H        8.15908        -5.18366         0.63665
| 91>    H       12.34364        -8.08320         1.34755
| 92>    H        7.97203        -8.64787        -1.97702
| 93>    H       10.04199       -11.84129        -2.90273
| 94>    H        7.42896       -10.34973        -3.51542
| 95>    H        9.64064       -13.39554        -4.41957
| 96>    H        5.91358       -11.34210        -5.08489
| 97>    H        7.28223       -17.65140        -4.57701
| 98>    H        6.40931       -16.15914        -5.02167
| 99>    H        8.17257       -16.11581        -4.76448
|100>    H        6.26840       -16.88988       -10.75200
|101>    H        5.91934       -13.31351        -8.45622
|102>    H        4.47879       -13.02353       -11.79191
|103>    H        5.75139       -12.50266       -10.66009
|104>    H        4.17375       -13.06226       -10.03655
|105>    H        8.08603       -18.71727        -8.05173
|106>    H        6.18174       -19.07874       -10.42189
|107>    H        7.28509       -20.32772        -9.67349
|108> *
|109>
|110>                          ****END OF INPUT****

CARTESIAN COORDINATES (ANGSTROEM)
---------------------------------
  C      0.134990   -1.498880   -1.503810
  C     -0.989760   -1.281690   -2.238040
  S     -1.744830   -2.770230   -2.675190
  C     -0.529180   -3.708180   -1.838060
  Cl    -0.577520   -5.397780   -1.816410
  C      0.399030   -2.888840   -1.273280
  C      1.607760   -3.033320   -0.457990
  O      1.986330   -3.998990    0.158490
  C      2.169010   -1.639930   -0.380140
  C      1.179620   -0.706400   -0.886430
  C      1.207880    0.664120   -0.844590
  C      0.181200    1.439490   -1.421590
  N     -0.645460    2.084770   -1.886860
  C      2.210060    1.431380   -0.221650
  N      3.001660    2.093250    0.282730
  C      3.405510   -1.343520    0.103780
  C      4.437240   -2.310290    0.232620
  N      5.503590   -2.204360    1.090210
  C      5.646450   -1.221730    2.136770
  C      4.617450   -1.421430    3.244780
  C      6.414170   -3.261970    0.923110
  O      7.422570   -3.394610    1.588340
  C      5.866150   -4.036350   -0.171070
  C      4.654600   -3.425980   -0.567110
  C      4.143280   -4.132460   -1.722270
  O      3.176250   -3.943130   -2.430920
  N      5.065930   -5.172750   -1.920070
  C      4.900310   -6.119000   -2.995930
  C      5.816510   -5.810030   -4.177950
  C      6.097530   -5.131310   -1.007440
  C      7.147160   -6.076920   -0.974230
  C      8.158470   -6.009500   -0.064730
  C      9.245400   -6.905410    0.059970
  S     10.487870   -6.494380    1.227610
  C     11.415420   -7.894370    0.846610
  C     10.809830   -8.633100   -0.107330
  C      9.574830   -8.106320   -0.573170
  C      8.928050   -8.914850   -1.559400
  C      9.587560  -10.040740   -1.918670
  S     11.134780  -10.159530   -0.987930
  O     12.265580  -10.021680   -1.860950
  O     11.107510  -11.287860   -0.101610
  C      9.286310  -11.070830   -2.842480
  C      8.171770  -11.133100   -3.604940
  C      7.851710  -12.162640   -4.552840
  C      8.670570  -13.254890   -4.878450
  N      8.326890  -14.166840   -5.758590
  C      7.149140  -14.037770   -6.377270
  N      6.296870  -13.031090   -6.148440
  C      6.635510  -12.133080   -5.257100
  C      6.808090  -14.959840   -7.457570
  C      7.134980  -16.321390   -7.508580
  O      7.550800  -17.095400   -6.478000
  C      7.341970  -16.718980   -5.140630
  C      6.950410  -17.023080   -8.728030
  C      6.393000  -16.375200   -9.813610
  C      5.966870  -15.047790   -9.731430
  C      6.184490  -14.352530   -8.560190
  O      5.384970  -14.536880  -10.852220
  C      4.927620  -13.206640  -10.816880
  C      7.368260  -18.420770   -8.803040
  C      6.924450  -19.313600   -9.678470
  H     -1.427150   -0.356350   -2.556710
  H      3.664700   -0.319250    0.339650
  H      5.556940   -0.217970    1.709420
  H      6.657060   -1.349320    2.533570
  H      3.606580   -1.331700    2.852280
  H      4.759390   -0.671790    4.017460
  H      4.730460   -2.407660    3.688430
  H      3.856570   -6.034230   -3.311450
  H      5.069720   -7.132800   -2.620880
  H      5.598180   -4.817630   -4.564150
  H      5.651580   -6.533620   -4.971690
  H      6.863710   -5.841990   -3.884590
  H      7.122710   -6.865280   -1.707680
  H      8.159080   -5.183660    0.636650
  H     12.343640   -8.083200    1.347550
  H      7.972030   -8.647870   -1.977020
  H     10.041990  -11.841290   -2.902730
  H      7.428960  -10.349730   -3.515420
  H      9.640640  -13.395540   -4.419570
  H      5.913580  -11.342100   -5.084890
  H      7.282230  -17.651400   -4.577010
  H      6.409310  -16.159140   -5.021670
  H      8.172570  -16.115810   -4.764480
  H      6.268400  -16.889880  -10.752000
  H      5.919340  -13.313510   -8.456220
  H      4.478790  -13.023530  -11.791910
  H      5.751390  -12.502660  -10.660090
  H      4.173750  -13.062260  -10.036550
  H      8.086030  -18.717270   -8.051730
  H      6.181740  -19.078740  -10.421890
  H      7.285090  -20.327720   -9.673490

 Total Charge           Charge          ....    0
 Multiplicity           Mult            ....    1
 Number of Electrons    NEL             ....  464
 Basis Dimension        Dim             .... 1039

ORBITAL ENERGIES
----------------

  NO   OCC          E(Eh)            E(eV)
   0   2.0000    -101.614808     -2765.0795
   1   2.0000     -89.155163     -2426.0353
   2   2.0000     -88.991330     -2421.5772
   3   2.0000     -88.987246     -2421.4661
   4   2.0000     -19.239142      -523.5237
   5   2.0000     -19.233233      -523.3629
   6   2.0000     -19.215636      -522.8840
   7   2.0000     -19.212598      -522.8014
   8   2.0000     -19.205987      -522.6215
   9   2.0000     -19.205718      -522.6142
  10   2.0000     -19.199670      -522.4496
  11   2.0000     -14.470626      -393.7657
  12   2.0000     -14.461858      -393.5272
  13   2.0000     -14.424032      -392.4979
  14   2.0000     -14.421588      -392.4313
  15   2.0000     -14.420703      -392.4073
  16   2.0000     -14.420058      -392.3897
  17   2.0000     -10.391473      -282.7664
  18   2.0000     -10.383989      -282.5627
  19   2.0000     -10.375767      -282.3390
  20   2.0000     -10.371950      -282.2351
  21   2.0000     -10.360521      -281.9241
  22   2.0000     -10.356003      -281.8012
  23   2.0000     -10.349937      -281.6361
  24   2.0000     -10.348268      -281.5907
  25   2.0000     -10.345388      -281.5123
  26   2.0000     -10.337256      -281.2910
  27   2.0000     -10.336356      -281.2666
  28   2.0000     -10.336284      -281.2646
  29   2.0000     -10.336195      -281.2622
  30   2.0000     -10.329515      -281.0804
  31   2.0000     -10.327624      -281.0289
  32   2.0000     -10.327212      -281.0177
  33   2.0000     -10.326422      -280.9962
  34   2.0000     -10.325500      -280.9712
  35   2.0000     -10.324070      -280.9322
  36   2.0000     -10.323454      -280.9155
  37   2.0000     -10.322658      -280.8938
  38   2.0000     -10.322324      -280.8847
  39   2.0000     -10.319210      -280.8000
  40   2.0000     -10.317764      -280.7606
  41   2.0000     -10.315838      -280.7082
  42   2.0000     -10.315622      -280.7023
  43   2.0000     -10.314622      -280.6751
  44   2.0000     -10.312566      -280.6192
  45   2.0000     -10.312220      -280.6098
  46   2.0000     -10.311265      -280.5838
  47   2.0000     -10.311003      -280.5766
  48   2.0000     -10.310234      -280.5557
  49   2.0000     -10.309854      -280.5454
  50   2.0000     -10.307058      -280.4693
  51   2.0000     -10.296371      -280.1785
  52   2.0000     -10.280750      -279.7534
  53   2.0000     -10.279952      -279.7317
  54   2.0000     -10.275802      -279.6188
  55   2.0000     -10.275099      -279.5996
  56   2.0000     -10.268984      -279.4333
  57   2.0000     -10.266513      -279.3660
  58   2.0000     -10.263313      -279.2789
  59   2.0000     -10.261892      -279.2403
  60   2.0000     -10.258591      -279.1505
  61   2.0000     -10.251486      -278.9571
  62   2.0000      -9.569563      -260.4010
  63   2.0000      -8.220262      -223.6847
  64   2.0000      -8.087030      -220.0593
  65   2.0000      -8.082787      -219.9438
  66   2.0000      -7.340160      -199.7359
  67   2.0000      -7.329615      -199.4490
  68   2.0000      -7.329122      -199.4355
  69   2.0000      -6.189412      -168.4225
  70   2.0000      -6.188808      -168.4060
  71   2.0000      -6.188502      -168.3977
  72   2.0000      -6.056425      -164.8037
  73   2.0000      -6.052171      -164.6879
  74   2.0000      -6.051792      -164.6776
  75   2.0000      -6.049301      -164.6098
  76   2.0000      -6.047694      -164.5661
  77   2.0000      -6.044939      -164.4911
  78   2.0000      -1.212217       -32.9861
  79   2.0000      -1.151567       -31.3357
  80   2.0000      -1.144600       -31.1461
  81   2.0000      -1.138512       -30.9805
  82   2.0000      -1.137668       -30.9575
  83   2.0000      -1.133607       -30.8470
  84   2.0000      -1.095586       -29.8124
  85   2.0000      -1.089676       -29.6516
  86   2.0000      -1.079987       -29.3879
  87   2.0000      -1.068106       -29.0646
  88   2.0000      -1.036236       -28.1974
  89   2.0000      -1.025859       -27.9151
  90   2.0000      -1.018535       -27.7158
  91   2.0000      -1.000590       -27.2274
  92   2.0000      -0.990703       -26.9584
  93   2.0000      -0.987629       -26.8747
  94   2.0000      -0.968524       -26.3549
  95   2.0000      -0.954046       -25.9609
  96   2.0000      -0.949448       -25.8358
  97   2.0000      -0.943114       -25.6634
  98   2.0000      -0.934075       -25.4175
  99   2.0000      -0.928712       -25.2715
 100   2.0000      -0.912708       -24.8360
 101   2.0000      -0.896687       -24.4001
 102   2.0000      -0.893103       -24.3026
 103   2.0000      -0.882373       -24.0106
 104   2.0000      -0.870943       -23.6996
 105   2.0000      -0.866785       -23.5864
 106   2.0000      -0.849191       -23.1077
 107   2.0000      -0.831834       -22.6353
 108   2.0000      -0.831070       -22.6146
 109   2.0000      -0.828328       -22.5399
 110   2.0000      -0.822535       -22.3823
 111   2.0000      -0.812650       -22.1133
 112   2.0000      -0.807635       -21.9769
 113   2.0000      -0.786708       -21.4074
 114   2.0000      -0.781029       -21.2529
 115   2.0000      -0.778155       -21.1747
 116   2.0000      -0.772197       -21.0125
 117   2.0000      -0.760406       -20.6917
 118   2.0000      -0.757591       -20.6151
 119   2.0000      -0.752189       -20.4681
 120   2.0000      -0.747460       -20.3394
 121   2.0000      -0.725701       -19.7473
 122   2.0000      -0.721701       -19.6385
 123   2.0000      -0.719860       -19.5884
 124   2.0000      -0.705182       -19.1890
 125   2.0000      -0.700820       -19.0703
 126   2.0000      -0.692518       -18.8444
 127   2.0000      -0.674823       -18.3629
 128   2.0000      -0.673268       -18.3206
 129   2.0000      -0.669227       -18.2106
 130   2.0000      -0.663274       -18.0486
 131   2.0000      -0.660551       -17.9745
 132   2.0000      -0.656485       -17.8639
 133   2.0000      -0.647611       -17.6224
 134   2.0000      -0.641584       -17.4584
 135   2.0000      -0.626888       -17.0585
 136   2.0000      -0.622815       -16.9477
 137   2.0000      -0.618040       -16.8177
 138   2.0000      -0.613276       -16.6881
 139   2.0000      -0.608185       -16.5496
 140   2.0000      -0.604151       -16.4398
 141   2.0000      -0.600765       -16.3476
 142   2.0000      -0.594464       -16.1762
 143   2.0000      -0.590717       -16.0742
 144   2.0000      -0.589323       -16.0363
 145   2.0000      -0.586967       -15.9722
 146   2.0000      -0.583991       -15.8912
 147   2.0000      -0.579039       -15.7564
 148   2.0000      -0.575980       -15.6732
 149   2.0000      -0.560340       -15.2476
 150   2.0000      -0.555398       -15.1132
 151   2.0000      -0.551643       -15.0110
 152   2.0000      -0.548791       -14.9334
 153   2.0000      -0.546253       -14.8643
 154   2.0000      -0.543859       -14.7992
 155   2.0000      -0.543375       -14.7860
 156   2.0000      -0.542767       -14.7694
 157   2.0000      -0.540395       -14.7049
 158   2.0000      -0.538816       -14.6619
 159   2.0000      -0.537977       -14.6391
 160   2.0000      -0.535727       -14.5779
 161   2.0000      -0.532936       -14.5019
 162   2.0000      -0.529243       -14.4014
 163   2.0000      -0.528354       -14.3773
 164   2.0000      -0.523534       -14.2461
 165   2.0000      -0.522001       -14.2044
 166   2.0000      -0.517923       -14.0934
 167   2.0000      -0.516817       -14.0633
 168   2.0000      -0.513100       -13.9622
 169   2.0000      -0.511806       -13.9269
 170   2.0000      -0.509772       -13.8716
 171   2.0000      -0.508318       -13.8320
 172   2.0000      -0.506160       -13.7733
 173   2.0000      -0.504630       -13.7317
 174   2.0000      -0.501993       -13.6599
 175   2.0000      -0.496007       -13.4970
 176   2.0000      -0.493374       -13.4254
 177   2.0000      -0.489928       -13.3316
 178   2.0000      -0.488209       -13.2849
 179   2.0000      -0.487237       -13.2584
 180   2.0000      -0.483022       -13.1437
 181   2.0000      -0.477501       -12.9935
 182   2.0000      -0.475284       -12.9331
 183   2.0000      -0.474506       -12.9120
 184   2.0000      -0.472515       -12.8578
 185   2.0000      -0.468305       -12.7432
 186   2.0000      -0.463789       -12.6203
 187   2.0000      -0.459770       -12.5110
 188   2.0000      -0.457850       -12.4587
 189   2.0000      -0.456062       -12.4101
 190   2.0000      -0.454024       -12.3546
 191   2.0000      -0.453433       -12.3385
 192   2.0000      -0.449702       -12.2370
 193   2.0000      -0.448240       -12.1972
 194   2.0000      -0.444996       -12.1090
 195   2.0000      -0.441224       -12.0063
 196   2.0000      -0.440514       -11.9870
 197   2.0000      -0.437104       -11.8942
 198   2.0000      -0.434127       -11.8132
 199   2.0000      -0.432977       -11.7819
 200   2.0000      -0.428901       -11.6710
 201   2.0000      -0.424548       -11.5525
 202   2.0000      -0.420661       -11.4468
 203   2.0000      -0.418773       -11.3954
 204   2.0000      -0.415268       -11.3000
 205   2.0000      -0.413350       -11.2478
 206   2.0000      -0.410098       -11.1593
 207   2.0000      -0.404430       -11.0051
 208   2.0000      -0.404127       -10.9969
 209   2.0000      -0.401445       -10.9239
 210   2.0000      -0.400745       -10.9048
 211   2.0000      -0.394300       -10.7295
 212   2.0000      -0.391292       -10.6476
 213   2.0000      -0.387311       -10.5393
 214   2.0000      -0.375754       -10.2248
 215   2.0000      -0.369997       -10.0681
 216   2.0000      -0.366365        -9.9693
 217   2.0000      -0.364426        -9.9165
 218   2.0000      -0.363889        -9.9019
 219   2.0000      -0.351184        -9.5562
 220   2.0000      -0.346873        -9.4389
 221   2.0000      -0.342793        -9.3279
 222   2.0000      -0.340458        -9.2643
 223   2.0000      -0.331084        -9.0092
 224   2.0000      -0.328762        -8.9461
 225   2.0000      -0.327738        -8.9182
 226   2.0000      -0.323156        -8.7935
 227   2.0000      -0.309918        -8.4333
 228   2.0000      -0.298551        -8.1240
 229   2.0000      -0.280867        -7.6428
 230   2.0000      -0.257413        -7.0046
 231   2.0000      -0.250166        -6.8074
 232   0.0000      -0.120055        -3.2668
 233   0.0000      -0.088310        -2.4030
 234   0.0000      -0.059746        -1.6258
 235   0.0000      -0.043760        -1.1908
 236   0.0000      -0.017561        -0.4779

MULLIKEN ATOMIC CHARGES
-----------------------
   0 C :    0.035930
   1 C :   -0.132997
   2 S :    0.182072
   3 C :   -0.170546
   4 Cl:   -0.007718
   5 C :    0.107015
   6 C :    0.149958
   7 O :   -0.131092
   8 C :   -0.076283
   9 C :    0.286922
  10 C :   -0.336399
  11 C :   -0.191100
  12 N :    0.155624
  13 C :   -0.175862
  14 N :    0.148137
  15 C :   -0.068194
  16 C :    0.115696
  17 N :   -0.251081
  18 C :    0.093048
  19 C :    0.000139
  20 C :    0.174631
  21 O :   -0.210569
  22 C :   -0.098931
  23 C :    0.001894
  24 C :    0.160511
  25 O :   -0.192133
  26 N :   -0.259996
  27 C :    0.103661
  28 C :   -0.000119
  29 C :    0.147292
  30 C :   -0.020998
  31 C :    0.091411
  32 C :   -0.160330
  33 S :    0.179143
  34 C :   -0.133480
  35 C :    0.038465
  36 C :    0.101136
  37 C :    0.016573
  38 C :   -0.052285
  39 S :    0.774585
  40 O :   -0.444798
  41 O :   -0.445034
  42 C :    0.085346
  43 C :    0.013332
  44 C :    0.020920
  45 C :    0.047597
  46 N :   -0.072366
  47 C :   -0.107092
  48 N :   -0.052762
  49 C :    0.024025
  50 C :    0.036992
  51 C :    0.180866
  52 O :   -0.310152
  53 C :    0.197059
  54 C :    0.019141
  55 C :   -0.070420
  56 C :    0.261408
  57 C :   -0.136485
  58 O :   -0.314101
  59 C :    0.179841
  60 C :    0.008304
  61 C :   -0.016052
  62 H :    0.052650
  63 H :    0.024604
  64 H :    0.037511
  65 H :    0.045106
  66 H :    0.023531
  67 H :    0.029510
  68 H :    0.028113
  69 H :    0.046733
  70 H :    0.018794
  71 H :    0.033730
  72 H :    0.024855
  73 H :    0.018758
  74 H :   -0.061884
  75 H :    0.011934
  76 H :    0.047947
  77 H :   -0.015343
  78 H :    0.004409
  79 H :   -0.015049
  80 H :    0.014588
  81 H :    0.000137
  82 H :    0.027498
  83 H :    0.019043
  84 H :    0.033440
  85 H :   -0.028797
  86 H :   -0.029622
  87 H :    0.032920
  88 H :    0.018031
  89 H :    0.021373
  90 H :    0.003329
  91 H :    0.013805
  92 H :    0.019048
Sum of atomic charges:   -0.0000000

LOEWDIN ATOMIC CHARGES
----------------------
   0 C :   -0.056395
   1 C :   -0.150746
   2 S :    0.474340
   3 C :   -0.272441
   4 Cl:    0.189322
   5 C :   -0.104761
   6 C :    0.085102
   7 O :   -0.128841
   8 C :   -0.055961
   9 C :    0.074567
  10 C :   -0.137974
  11 C :   -0.016524
  12 N :   -0.051064
  13 C :   -0.019145
  14 N :   -0.051872
  15 C :    0.036374
  16 C :    0.055396
  17 N :    0.005532
  18 C :    0.036960
  19 C :   -0.058947
  20 C :    0.079236
  21 O :   -0.203705
  22 C :   -0.123768
  23 C :   -0.078986
  24 C :    0.091070
  25 O :   -0.176090
  26 N :    0.000328
  27 C :    0.036341
  28 C :   -0.061568
  29 C :    0.094467
  30 C :   -0.056060
  31 C :    0.024626
  32 C :   -0.170949
  33 S :    0.486709
  34 C :   -0.145105
  35 C :   -0.206184
  36 C :   -0.057091
  37 C :   -0.017515
  38 C :   -0.142958
  39 S :    1.169698
  40 O :   -0.490348
  41 O :   -0.490139
  42 C :   -0.037269
  43 C :    0.012190
  44 C :   -0.085900
  45 C :    0.065145
  46 N :   -0.073145
  47 C :    0.049727
  48 N :   -0.077679
  49 C :    0.049828
  50 C :   -0.078572
  51 C :    0.066667
  52 O :   -0.089332
  53 C :    0.073873
  54 C :   -0.040715
  55 C :   -0.013020
  56 C :    0.036280
  57 C :   -0.050853
  58 O :   -0.110836
  59 C :    0.075236
  60 C :   -0.014337
  61 C :   -0.044511
  62 H :    0.037149
  63 H :    0.045750
  64 H :    0.028127
  65 H :    0.038211
  66 H :    0.024497
  67 H :    0.033606
  68 H :    0.031655
  69 H :    0.040059
  70 H :    0.020729
  71 H :    0.034799
  72 H :    0.030931
  73 H :    0.021946
  74 H :    0.023341
  75 H :    0.039982
  76 H :    0.039772
  77 H :    0.029290
  78 H :    0.034996
  79 H :    0.028794
  80 H :    0.027598
  81 H :    0.023187
  82 H :    0.022536
  83 H :    0.014923
  84 H :    0.014396
  85 H :    0.032715
  86 H :    0.026466
  87 H :    0.027109
  88 H :    0.012714
  89 H :    0.014236
  90 H :    0.030332
  91 H :    0.018502
  92 H :    0.023944

  Mayer bond orders larger than 0.100000
B(  0-C ,  1-C ) :   1.5365 B(  0-C ,  5-C ) :   1.2294 B(  0-C ,  9-C ) :   1.0046
B(  1-C ,  2-S ) :   1.1652 B(  1-C , 62-H ) :   0.9546 B(  2-S ,  3-C ) :   1.1449
B(  3-C ,  4-Cl) :   1.1223 B(  3-C ,  5-C ) :   1.4888 B(  5-C ,  6-C ) :   0.9304
B(  6-C ,  7-O ) :   2.2583 B(  6-C ,  8-C ) :   0.9084 B(  8-C ,  9-C ) :   1.0858
B(  8-C , 15-C ) :   1.6285 B(  9-C , 10-C ) :   1.6411 B( 10-C , 11-C ) :   1.1445
B( 10-C , 13-C ) :   1.1421 B( 11-C , 12-N ) :   2.9914 B( 13-C , 14-N ) :   2.9697
B( 15-C , 16-C ) :   1.1232 B( 15-C , 63-H ) :   0.9270 B( 16-C , 17-N ) :   1.1625
B( 16-C , 23-C ) :   1.3823 B( 17-N , 18-C ) :   0.9441 B( 17-N , 20-C ) :   1.0708
B( 18-C , 19-C ) :   1.1193 B( 18-C , 64-H ) :   0.9483 B( 18-C , 65-H ) :   0.9297
B( 19-C , 66-H ) :   0.9655 B( 19-C , 67-H ) :   0.9669 B( 19-C , 68-H ) :   0.9647
B( 20-C , 21-O ) :   2.0208 B( 20-C , 22-C ) :   0.9881 B( 21-O , 75-H ) :   0.1209
B( 22-C , 23-C ) :   1.2842 B( 22-C , 29-C ) :   1.3073 B( 23-C , 24-C ) :   0.9613
B( 24-C , 25-O ) :   2.0976 B( 24-C , 26-N ) :   1.0440 B( 26-N , 27-C ) :   0.9468
B( 26-N , 29-C ) :   1.1619 B( 27-C , 28-C ) :   1.1179 B( 27-C , 69-H ) :   0.9276
B( 27-C , 70-H ) :   0.9482 B( 28-C , 71-H ) :   0.9628 B( 28-C , 72-H ) :   0.9678
B( 28-C , 73-H ) :   0.9689 B( 29-C , 30-C ) :   1.1970 B( 30-C , 31-C ) :   1.5788
B( 30-C , 74-H ) :   0.9552 B( 31-C , 32-C ) :   1.1668 B( 31-C , 75-H ) :   0.9243
B( 32-C , 33-S ) :   1.1375 B( 32-C , 36-C ) :   1.4076 B( 33-S , 34-C ) :   1.1800
B( 34-C , 35-C ) :   1.6037 B( 34-C , 76-H ) :   0.9769 B( 35-C , 36-C ) :   1.2578
B( 35-C , 39-S ) :   0.7649 B( 36-C , 37-C ) :   1.1040 B( 37-C , 38-C ) :   1.6666
B( 37-C , 77-H ) :   0.9858 B( 38-C , 39-S ) :   0.8420 B( 38-C , 42-C ) :   1.1320
B( 39-S , 40-O ) :   1.7358 B( 39-S , 41-O ) :   1.7348 B( 42-C , 43-C ) :   1.6955
B( 42-C , 78-H ) :   0.9482 B( 43-C , 44-C ) :   1.0904 B( 43-C , 79-H ) :   0.9766
B( 44-C , 45-C ) :   1.3003 B( 44-C , 49-C ) :   1.2889 B( 45-C , 46-N ) :   1.5654
B( 45-C , 80-H ) :   0.9832 B( 46-N , 47-C ) :   1.4962 B( 47-C , 48-N ) :   1.5007
B( 47-C , 50-C ) :   0.9527 B( 48-N , 49-C ) :   1.5910 B( 49-C , 81-H ) :   0.9878
B( 50-C , 51-C ) :   1.3341 B( 50-C , 57-C ) :   1.3109 B( 51-C , 52-O ) :   1.2110
B( 51-C , 54-C ) :   1.2815 B( 52-O , 53-C ) :   0.9479 B( 53-C , 82-H ) :   0.9743
B( 53-C , 83-H ) :   0.9598 B( 53-C , 84-H ) :   0.9613 B( 54-C , 55-C ) :   1.4115
B( 54-C , 60-C ) :   1.0552 B( 55-C , 56-C ) :   1.3064 B( 55-C , 85-H ) :   1.0040
B( 56-C , 57-C ) :   1.3189 B( 56-C , 58-O ) :   1.1355 B( 57-C , 86-H ) :   0.9948
B( 58-O , 59-C ) :   0.9743 B( 59-C , 87-H ) :   0.9789 B( 59-C , 88-H ) :   0.9681
B( 59-C , 89-H ) :   0.9683 B( 60-C , 61-C ) :   1.9622 B( 60-C , 90-H ) :   0.9591
B( 61-C , 91-H ) :   0.9531 B( 61-C , 92-H ) :   0.9510

-----------------------------------------------------------------------------
         ABSORPTION SPECTRUM VIA TRANSITION ELECTRIC DIPOLE MOMENTS
-----------------------------------------------------------------------------
State   Energy  Wavelength   fosc         T2         TX        TY        TZ
        (cm-1)    (nm)                  (au**2)     (au)      (au)      (au)
-----------------------------------------------------------------------------
   0   12061.6    829.1   0.669006901  18.26001  -2.57714   3.29715   0.86439
   1   19870.4    503.3   0.412410216   6.83281   0.13505   2.13838   1.49731
   2   20367.4    491.0   0.004127965   0.06672  -0.02002   0.24850   0.06762
   3   22414.4    446.1   0.188304917   2.76573  -0.68435   1.39132   0.60135
   4   23215.0    430.8   0.051197770   0.72604   0.21793   0.61329   0.54993
   5   24545.1    407.4   0.012451679   0.16701  -0.22553   0.33402  -0.06760
   6   25260.6    395.9   0.027871569   0.36324   0.43733  -0.26803   0.31646
   7   25517.7    391.9   0.190834961   2.46202  -0.12604  -1.40196  -0.69328
   8   25875.5    386.5   0.028288502   0.35991   0.32176  -0.06764   0.50180
   9   26806.3    373.0   0.016170508   0.19859  -0.16209  -0.41438   0.02463
  10   27809.1    359.6   0.357092189   4.22736   1.68072  -0.38681   1.11935
  11   27991.9    357.2   0.046174264   0.54305   0.39007   0.27971   0.55916
  12   28780.0    347.5   0.080819374   0.92449  -0.01699   0.94343   0.18478
  13   29452.9    339.5   0.080959903   0.90494  -0.89035   0.26532  -0.20451
  14   29923.5    334.2   0.314165944   3.45639  -0.60404  -1.12530  -1.35101
  15   30350.8    329.5   0.016689273   0.18103   0.16638   0.25690   0.29555
  16   30494.0    327.9   0.002538604   0.02741  -0.13142   0.10053   0.00544
  17   32464.4    308.0   0.084975167   0.86171  -0.21655  -0.62393  -0.65232
  18   32982.7    303.2   0.086217633   0.86057  -0.39195  -0.66032  -0.52050
  19   33588.5    297.7   0.323780089   3.17348  -1.63279  -0.11784  -0.70255
  20   34062.0    293.6   0.059623787   0.57627  -0.62288   0.00206  -0.43392
  21   34504.3    289.8   0.097308465   0.92844  -0.79559   0.09108  -0.53589
  22   34910.8    286.4   0.084791099   0.79959   0.42668  -0.64523   0.44856
  23   35566.4    281.2   0.009710139   0.08988  -0.18431   0.06956  -0.22599
  24   35791.8    279.4   0.037147559   0.34168  -0.42741  -0.19013  -0.35051
  25   36019.2    277.6   0.051215243   0.46810   0.20732   0.62935   0.17039
  26   36305.3    275.4   0.225010524   2.04037   1.06718   0.39619   0.86286
  27   36629.6    273.0   0.104655047   0.94060  -0.45985  -0.50999  -0.68487
  28   36982.9    270.4   0.091445884   0.81403   0.08609   0.66381   0.60496
  29   37032.1    270.0   0.019236986   0.17101   0.05129   0.28791   0.29239
  30   37437.4    267.1   0.011832729   0.10405   0.14083   0.24566  -0.15451
  31   37667.0    265.5   0.000314459   0.00275   0.03453  -0.02924   0.02648
  32   38091.8    262.5   0.088531144   0.76514   0.64765   0.40648   0.42480
  33   38125.1    262.3   0.045238688   0.39064   0.52901   0.30678   0.12911
  34   38526.2    259.6   0.008539540   0.07297   0.17713  -0.08734  -0.18430
  35   38677.9    258.5   0.127997110   1.08946   0.18584   0.99830   0.24149
  36   39062.2    256.0   0.016057395   0.13533  -0.15710  -0.15918  -0.29208
  37   39478.0    253.3   0.261198757   2.17817  -0.48465  -1.37038  -0.25560
  38   39679.3    252.0   0.033703343   0.27963  -0.38325  -0.30782  -0.19493
  39   39963.2    250.2   0.041346056   0.34060  -0.36179  -0.20686  -0.40856

FINAL SINGLE POINT ENERGY     -4239.382377401170

DIPOLE MOMENT
-------------
                                X             Y             Z
Electronic contribution:    -28.21729      56.38284      35.44854
Nuclear contribution   :     27.57735     -56.88168     -35.55311
                        -----------------------------------------
Total Dipole Moment    :     -0.63994      -0.49884      -0.10456
                        -----------------------------------------
Magnitude (a.u.)       :      0.81811
Magnitude (Debye)      :      2.07946

Rotational constants in cm-1:     0.001360     0.000413     0.000329
Rotational constants in MHz :    40.758762    12.378309     9.852586

                             ****ORCA TERMINATED NORMALLY****
TOTAL RUN TIME: 0 days 0 hours 8 minutes 7 seconds 789 msec
