                         Program Version 4.2.0 -  RELEASE  -
|  1> # ORCA input file
|  2> # SCF done       -182.014288801066          0.000709822733
|  3> ! CAM-B3LYP def2-SVP def2/J RIJCOSX Grid4 TightSCF
|  4> %maxcore 5000
|  5> %tddft
|  6>     Mode sTDDFT
|  7>     Ethresh 5.0
|  8>     maxcore 5000
|  9> end
| 10>
| 11> %pal
| 12>   nprocs 6
| 13>   end
| 14> * xyz 0 1
| 15>    C        2.76738         0.98419        -0.32704
| 16>    N        3.26657         2.21831        -0.04222
| 17>    C        4.65137         2.60800        -0.12453
| 18>    C        5.09648         2.79679        -1.57274
| 19>    C        2.23702         3.12645         0.28326
| 20>    O        2.44386         4.29228         0.57864
| 21>    C        1.03369         2.34336         0.18272
| 22>    C        1.40766         1.01531        -0.19756
| 23>    C        0.19706         0.22020        -0.28878
| 24>    O        0.00716        -0.94349        -0.56350
| 25>    N       -0.83034         1.12298         0.04366
| 26>    C       -2.21663         0.71992         0.02562
| 27>    C       -2.92233         1.16107        -1.25365
| 28>    C       -0.35040         2.38327         0.32040
| 29>    C       -1.18050         3.47093         0.68501
| 30>    C       -0.67420         4.69870         0.98484
| 31>    C       -1.49875         5.78336         1.36198
| 32>    N       -1.01405         7.02312         1.71543
| 33>    C        0.36803         7.43955         1.69291
| 34>    C        0.84038         7.76107         0.27754
| 35>    C       -2.04054         7.91038         2.06770
| 36>    O       -1.84795         9.05702         2.43027
| 37>    C       -3.25248         7.13885         1.90871
| 38>    C       -2.88800         5.83846         1.47719
| 39>    C       -4.10009         5.07162         1.30630
| 40>    O       -4.29742         3.92122         0.95689
| 41>    N       -5.12908         5.96711         1.63331
| 42>    C       -6.51021         5.55151         1.63999
| 43>    C       -7.00888         5.25726         3.05292
| 44>    C       -4.64144         7.20167         2.00411
| 45>    C       -5.46380         8.28655         2.39063
| 46>    C       -4.96035         9.46669         2.83208
| 47>    C       -5.75355        10.56304         3.25167
| 48>    S       -7.50585        10.55533         3.14365
| 49>    C       -7.59786        12.11882         3.84236
| 50>    C       -8.92050        12.72371         4.13126
| 51>    O       -9.33830        12.92084         5.25513
| 52>    C       -6.34838        12.63005         4.14970
| 53>    C       -5.30963        11.73972         3.80330
| 54>    C       -6.18869        13.96392         4.68914
| 55>    C       -7.16627        14.93895         4.41927
| 56>    C       -7.03202        16.28246         4.89517
| 57>    N       -7.93309        17.22254         4.53593
| 58>    C       -8.95544        16.85899         3.82173
| 59>    C       -9.13774        15.52175         3.40479
| 60>    N       -8.25152        14.60879         3.67916
| 61>    C       -5.95292        16.63983         5.72142
| 62>    C       -4.99112        15.65984         6.02641
| 63>    C       -5.08210        14.34119         5.47455
| 64>    N       -4.10614        13.43923         5.73077
| 65>    C       -3.12389        13.79192         6.50475
| 66>    C       -3.08972        15.06165         7.12874
| 67>    N       -3.99658        15.96108         6.89312
| 68>    C       -5.85247        17.97786         6.27811
| 69>    C       -6.97420        18.59730         6.85840
| 70>    C       -6.86997        19.91786         7.40780
| 71>    N       -7.96927        20.53233         7.91605
| 72>    C       -9.08904        19.87696         7.90764
| 73>    C       -9.17296        18.53987         7.43883
| 74>    N       -8.14660        17.92620         6.93491
| 75>    C       -5.64792        20.58187         7.42452
| 76>    C       -4.52710        19.96717         6.87653
| 77>    C       -4.62949        18.67160         6.27022
| 78>    N       -3.55539        18.12912         5.64929
| 79>    C       -2.42935        18.77307         5.70730
| 80>    C       -2.30679        20.01264         6.38696
| 81>    N       -3.32850        20.60433         6.92525
| 82>    H        3.41848         0.17246        -0.59380
| 83>    H        5.26816         1.85044         0.36832
| 84>    H        4.73963         3.55278         0.41903
| 85>    H        4.98725         1.87008        -2.13220
| 86>    H        6.13854         3.10259        -1.60274
| 87>    H        4.49354         3.56484        -2.05128
| 88>    H       -2.72958         1.12655         0.90053
| 89>    H       -2.21263        -0.37204         0.08715
| 90>    H       -2.95666         2.24535        -1.32167
| 91>    H       -3.94095         0.78420        -1.25453
| 92>    H       -2.40170         0.76730        -2.12352
| 93>    H       -2.24781         3.30982         0.72758
| 94>    H        0.39387         4.85728         0.94534
| 95>    H        0.99508         6.66051         2.13307
| 96>    H        0.42201         8.33830         2.31383
| 97>    H        0.80713         6.87459        -0.35058
| 98>    H        1.86435         8.12186         0.30921
| 99>    H        0.21013         8.53051        -0.16256
|100>    H       -6.55348         4.63935         1.03785
|101>    H       -7.12635         6.31873         1.16244
|102>    H       -6.41170         4.46573         3.49936
|103>    H       -8.04535         4.93335         3.01791
|104>    H       -6.93847         6.14115         3.68288
|105>    H       -6.53661         8.15801         2.34089
|106>    H       -3.88827         9.60467         2.89567
|107>    H       -9.60884        12.67617         3.26207
|108>    H       -4.27048        11.95907         3.95855
|109>    H       -9.65773        17.63084         3.53852
|110>    H       -9.99979        15.21820         2.82749
|111>    H       -2.34799        13.05703         6.67222
|112>    H       -2.31559        15.32042         7.83877
|113>    H       -9.95840        20.38638         8.30179
|114>    H      -10.09588        17.97900         7.50346
|115>    H       -5.56966        21.56470         7.86019
|116>    H       -1.58552        18.33109         5.19391
|117>    H       -1.35489        20.52301         6.45175
|118> *
|119>
|120>                          ****END OF INPUT****

CARTESIAN COORDINATES (ANGSTROEM)
---------------------------------
  C      2.767380    0.984190   -0.327040
  N      3.266570    2.218310   -0.042220
  C      4.651370    2.608000   -0.124530
  C      5.096480    2.796790   -1.572740
  C      2.237020    3.126450    0.283260
  O      2.443860    4.292280    0.578640
  C      1.033690    2.343360    0.182720
  C      1.407660    1.015310   -0.197560
  C      0.197060    0.220200   -0.288780
  O      0.007160   -0.943490   -0.563500
  N     -0.830340    1.122980    0.043660
  C     -2.216630    0.719920    0.025620
  C     -2.922330    1.161070   -1.253650
  C     -0.350400    2.383270    0.320400
  C     -1.180500    3.470930    0.685010
  C     -0.674200    4.698700    0.984840
  C     -1.498750    5.783360    1.361980
  N     -1.014050    7.023120    1.715430
  C      0.368030    7.439550    1.692910
  C      0.840380    7.761070    0.277540
  C     -2.040540    7.910380    2.067700
  O     -1.847950    9.057020    2.430270
  C     -3.252480    7.138850    1.908710
  C     -2.888000    5.838460    1.477190
  C     -4.100090    5.071620    1.306300
  O     -4.297420    3.921220    0.956890
  N     -5.129080    5.967110    1.633310
  C     -6.510210    5.551510    1.639990
  C     -7.008880    5.257260    3.052920
  C     -4.641440    7.201670    2.004110
  C     -5.463800    8.286550    2.390630
  C     -4.960350    9.466690    2.832080
  C     -5.753550   10.563040    3.251670
  S     -7.505850   10.555330    3.143650
  C     -7.597860   12.118820    3.842360
  C     -8.920500   12.723710    4.131260
  O     -9.338300   12.920840    5.255130
  C     -6.348380   12.630050    4.149700
  C     -5.309630   11.739720    3.803300
  C     -6.188690   13.963920    4.689140
  C     -7.166270   14.938950    4.419270
  C     -7.032020   16.282460    4.895170
  N     -7.933090   17.222540    4.535930
  C     -8.955440   16.858990    3.821730
  C     -9.137740   15.521750    3.404790
  N     -8.251520   14.608790    3.679160
  C     -5.952920   16.639830    5.721420
  C     -4.991120   15.659840    6.026410
  C     -5.082100   14.341190    5.474550
  N     -4.106140   13.439230    5.730770
  C     -3.123890   13.791920    6.504750
  C     -3.089720   15.061650    7.128740
  N     -3.996580   15.961080    6.893120
  C     -5.852470   17.977860    6.278110
  C     -6.974200   18.597300    6.858400
  C     -6.869970   19.917860    7.407800
  N     -7.969270   20.532330    7.916050
  C     -9.089040   19.876960    7.907640
  C     -9.172960   18.539870    7.438830
  N     -8.146600   17.926200    6.934910
  C     -5.647920   20.581870    7.424520
  C     -4.527100   19.967170    6.876530
  C     -4.629490   18.671600    6.270220
  N     -3.555390   18.129120    5.649290
  C     -2.429350   18.773070    5.707300
  C     -2.306790   20.012640    6.386960
  N     -3.328500   20.604330    6.925250
  H      3.418480    0.172460   -0.593800
  H      5.268160    1.850440    0.368320
  H      4.739630    3.552780    0.419030
  H      4.987250    1.870080   -2.132200
  H      6.138540    3.102590   -1.602740
  H      4.493540    3.564840   -2.051280
  H     -2.729580    1.126550    0.900530
  H     -2.212630   -0.372040    0.087150
  H     -2.956660    2.245350   -1.321670
  H     -3.940950    0.784200   -1.254530
  H     -2.401700    0.767300   -2.123520
  H     -2.247810    3.309820    0.727580
  H      0.393870    4.857280    0.945340
  H      0.995080    6.660510    2.133070
  H      0.422010    8.338300    2.313830
  H      0.807130    6.874590   -0.350580
  H      1.864350    8.121860    0.309210
  H      0.210130    8.530510   -0.162560
  H     -6.553480    4.639350    1.037850
  H     -7.126350    6.318730    1.162440
  H     -6.411700    4.465730    3.499360
  H     -8.045350    4.933350    3.017910
  H     -6.938470    6.141150    3.682880
  H     -6.536610    8.158010    2.340890
  H     -3.888270    9.604670    2.895670
  H     -9.608840   12.676170    3.262070
  H     -4.270480   11.959070    3.958550
  H     -9.657730   17.630840    3.538520
  H     -9.999790   15.218200    2.827490
  H     -2.347990   13.057030    6.672220
  H     -2.315590   15.320420    7.838770
  H     -9.958400   20.386380    8.301790
  H    -10.095880   17.979000    7.503460
  H     -5.569660   21.564700    7.860190
  H     -1.585520   18.331090    5.193910
  H     -1.354890   20.523010    6.451750

 Total Charge           Charge          ....    0
 Multiplicity           Mult            ....    1
 Number of Electrons    NEL             ....  470
 Basis Dimension        Dim             .... 1122

ORBITAL ENERGIES
----------------

  NO   OCC          E(Eh)            E(eV)
   0   2.0000     -88.960111     -2420.7277
   1   2.0000     -19.190981      -522.2131
   2   2.0000     -19.183967      -522.0223
   3   2.0000     -19.178804      -521.8818
   4   2.0000     -19.177088      -521.8351
   5   2.0000     -19.174419      -521.7625
   6   2.0000     -14.449796      -393.1990
   7   2.0000     -14.449539      -393.1919
   8   2.0000     -14.446702      -393.1148
   9   2.0000     -14.442835      -393.0095
  10   2.0000     -14.440584      -392.9483
  11   2.0000     -14.431654      -392.7053
  12   2.0000     -14.427323      -392.5874
  13   2.0000     -14.426040      -392.5525
  14   2.0000     -14.422055      -392.4441
  15   2.0000     -14.421150      -392.4194
  16   2.0000     -14.420928      -392.4134
  17   2.0000     -14.420481      -392.4012
  18   2.0000     -10.371768      -282.2302
  19   2.0000     -10.364987      -282.0456
  20   2.0000     -10.363276      -281.9991
  21   2.0000     -10.362748      -281.9847
  22   2.0000     -10.355859      -281.7973
  23   2.0000     -10.336699      -281.2759
  24   2.0000     -10.334843      -281.2254
  25   2.0000     -10.331398      -281.1316
  26   2.0000     -10.327569      -281.0274
  27   2.0000     -10.327027      -281.0127
  28   2.0000     -10.326095      -280.9873
  29   2.0000     -10.325267      -280.9648
  30   2.0000     -10.324512      -280.9443
  31   2.0000     -10.324093      -280.9329
  32   2.0000     -10.322700      -280.8949
  33   2.0000     -10.322348      -280.8854
  34   2.0000     -10.320827      -280.8440
  35   2.0000     -10.318396      -280.7778
  36   2.0000     -10.317967      -280.7662
  37   2.0000     -10.317803      -280.7617
  38   2.0000     -10.317518      -280.7539
  39   2.0000     -10.317131      -280.7434
  40   2.0000     -10.317028      -280.7406
  41   2.0000     -10.314525      -280.6725
  42   2.0000     -10.314435      -280.6701
  43   2.0000     -10.305597      -280.4295
  44   2.0000     -10.304331      -280.3951
  45   2.0000     -10.301791      -280.3260
  46   2.0000     -10.301165      -280.3090
  47   2.0000     -10.299540      -280.2647
  48   2.0000     -10.295762      -280.1619
  49   2.0000     -10.293451      -280.0990
  50   2.0000     -10.292643      -280.0770
  51   2.0000     -10.291814      -280.0545
  52   2.0000     -10.291257      -280.0393
  53   2.0000     -10.285530      -279.8835
  54   2.0000     -10.284444      -279.8539
  55   2.0000     -10.281536      -279.7748
  56   2.0000     -10.280160      -279.7374
  57   2.0000     -10.279624      -279.7228
  58   2.0000     -10.275751      -279.6174
  59   2.0000     -10.261239      -279.2225
  60   2.0000     -10.260690      -279.2076
  61   2.0000     -10.256800      -279.1017
  62   2.0000     -10.251686      -278.9626
  63   2.0000     -10.251479      -278.9569
  64   2.0000     -10.250471      -278.9295
  65   2.0000     -10.248286      -278.8700
  66   2.0000     -10.246331      -278.8169
  67   2.0000      -8.055782      -219.2090
  68   2.0000      -6.024877      -163.9452
  69   2.0000      -6.020854      -163.8358
  70   2.0000      -6.018179      -163.7630
  71   2.0000      -1.128981       -30.7211
  72   2.0000      -1.122941       -30.5568
  73   2.0000      -1.117440       -30.4071
  74   2.0000      -1.115593       -30.3568
  75   2.0000      -1.105063       -30.0703
  76   2.0000      -1.089630       -29.6503
  77   2.0000      -1.083260       -29.4770
  78   2.0000      -1.079800       -29.3829
  79   2.0000      -1.073358       -29.2076
  80   2.0000      -1.057952       -28.7883
  81   2.0000      -1.053556       -28.6687
  82   2.0000      -1.046900       -28.4876
  83   2.0000      -1.044289       -28.4166
  84   2.0000      -1.021005       -27.7830
  85   2.0000      -1.009251       -27.4631
  86   2.0000      -1.001503       -27.2523
  87   2.0000      -0.997326       -27.1386
  88   2.0000      -0.987614       -26.8743
  89   2.0000      -0.958730       -26.0884
  90   2.0000      -0.939907       -25.5762
  91   2.0000      -0.921996       -25.0888
  92   2.0000      -0.917912       -24.9776
  93   2.0000      -0.907154       -24.6849
  94   2.0000      -0.900700       -24.5093
  95   2.0000      -0.885507       -24.0959
  96   2.0000      -0.872310       -23.7368
  97   2.0000      -0.865855       -23.5611
  98   2.0000      -0.861548       -23.4439
  99   2.0000      -0.859211       -23.3803
 100   2.0000      -0.848294       -23.0833
 101   2.0000      -0.842690       -22.9308
 102   2.0000      -0.824350       -22.4317
 103   2.0000      -0.813557       -22.1380
 104   2.0000      -0.811965       -22.0947
 105   2.0000      -0.810159       -22.0455
 106   2.0000      -0.797610       -21.7041
 107   2.0000      -0.789315       -21.4784
 108   2.0000      -0.785759       -21.3816
 109   2.0000      -0.780232       -21.2312
 110   2.0000      -0.770918       -20.9778
 111   2.0000      -0.754297       -20.5255
 112   2.0000      -0.752633       -20.4802
 113   2.0000      -0.751054       -20.4372
 114   2.0000      -0.742415       -20.2021
 115   2.0000      -0.734241       -19.9797
 116   2.0000      -0.730709       -19.8836
 117   2.0000      -0.722055       -19.6481
 118   2.0000      -0.720649       -19.6099
 119   2.0000      -0.703489       -19.1429
 120   2.0000      -0.700810       -19.0700
 121   2.0000      -0.699443       -19.0328
 122   2.0000      -0.693983       -18.8842
 123   2.0000      -0.682540       -18.5729
 124   2.0000      -0.679628       -18.4936
 125   2.0000      -0.669222       -18.2105
 126   2.0000      -0.664479       -18.0814
 127   2.0000      -0.649464       -17.6728
 128   2.0000      -0.647762       -17.6265
 129   2.0000      -0.641821       -17.4648
 130   2.0000      -0.641088       -17.4449
 131   2.0000      -0.637704       -17.3528
 132   2.0000      -0.628894       -17.1131
 133   2.0000      -0.625493       -17.0205
 134   2.0000      -0.617507       -16.8032
 135   2.0000      -0.605670       -16.4811
 136   2.0000      -0.602118       -16.3845
 137   2.0000      -0.597861       -16.2686
 138   2.0000      -0.590744       -16.0750
 139   2.0000      -0.587948       -15.9989
 140   2.0000      -0.585685       -15.9373
 141   2.0000      -0.583989       -15.8911
 142   2.0000      -0.583454       -15.8766
 143   2.0000      -0.578146       -15.7322
 144   2.0000      -0.573569       -15.6076
 145   2.0000      -0.571732       -15.5576
 146   2.0000      -0.569852       -15.5065
 147   2.0000      -0.567926       -15.4541
 148   2.0000      -0.565436       -15.3863
 149   2.0000      -0.558529       -15.1983
 150   2.0000      -0.557165       -15.1612
 151   2.0000      -0.550207       -14.9719
 152   2.0000      -0.543332       -14.7848
 153   2.0000      -0.538620       -14.6566
 154   2.0000      -0.536306       -14.5936
 155   2.0000      -0.535939       -14.5836
 156   2.0000      -0.529950       -14.4207
 157   2.0000      -0.527560       -14.3556
 158   2.0000      -0.526170       -14.3178
 159   2.0000      -0.525142       -14.2898
 160   2.0000      -0.521191       -14.1823
 161   2.0000      -0.520475       -14.1628
 162   2.0000      -0.519270       -14.1300
 163   2.0000      -0.516902       -14.0656
 164   2.0000      -0.515679       -14.0323
 165   2.0000      -0.511616       -13.9218
 166   2.0000      -0.510678       -13.8963
 167   2.0000      -0.509076       -13.8527
 168   2.0000      -0.506001       -13.7690
 169   2.0000      -0.503905       -13.7120
 170   2.0000      -0.503533       -13.7018
 171   2.0000      -0.497911       -13.5489
 172   2.0000      -0.496498       -13.5104
 173   2.0000      -0.493919       -13.4402
 174   2.0000      -0.493637       -13.4325
 175   2.0000      -0.491163       -13.3652
 176   2.0000      -0.485497       -13.2110
 177   2.0000      -0.483491       -13.1565
 178   2.0000      -0.481066       -13.0905
 179   2.0000      -0.476157       -12.9569
 180   2.0000      -0.474403       -12.9092
 181   2.0000      -0.469856       -12.7854
 182   2.0000      -0.467989       -12.7346
 183   2.0000      -0.465289       -12.6612
 184   2.0000      -0.462484       -12.5848
 185   2.0000      -0.460776       -12.5384
 186   2.0000      -0.456787       -12.4298
 187   2.0000      -0.453078       -12.3289
 188   2.0000      -0.451702       -12.2914
 189   2.0000      -0.450917       -12.2701
 190   2.0000      -0.448861       -12.2141
 191   2.0000      -0.445367       -12.1190
 192   2.0000      -0.442616       -12.0442
 193   2.0000      -0.442083       -12.0297
 194   2.0000      -0.439368       -11.9558
 195   2.0000      -0.437544       -11.9062
 196   2.0000      -0.434484       -11.8229
 197   2.0000      -0.430836       -11.7236
 198   2.0000      -0.429269       -11.6810
 199   2.0000      -0.426866       -11.6156
 200   2.0000      -0.423380       -11.5208
 201   2.0000      -0.419524       -11.4158
 202   2.0000      -0.417134       -11.3508
 203   2.0000      -0.415760       -11.3134
 204   2.0000      -0.414480       -11.2786
 205   2.0000      -0.411611       -11.2005
 206   2.0000      -0.410797       -11.1783
 207   2.0000      -0.406955       -11.0738
 208   2.0000      -0.399654       -10.8751
 209   2.0000      -0.396982       -10.8024
 210   2.0000      -0.389301       -10.5934
 211   2.0000      -0.387419       -10.5422
 212   2.0000      -0.372423       -10.1342
 213   2.0000      -0.369990       -10.0679
 214   2.0000      -0.360228        -9.8023
 215   2.0000      -0.344038        -9.3618
 216   2.0000      -0.339621        -9.2416
 217   2.0000      -0.337992        -9.1972
 218   2.0000      -0.335684        -9.1344
 219   2.0000      -0.334749        -9.1090
 220   2.0000      -0.330105        -8.9826
 221   2.0000      -0.328215        -8.9312
 222   2.0000      -0.325148        -8.8477
 223   2.0000      -0.320561        -8.7229
 224   2.0000      -0.319422        -8.6919
 225   2.0000      -0.313753        -8.5376
 226   2.0000      -0.311469        -8.4755
 227   2.0000      -0.308775        -8.4022
 228   2.0000      -0.307916        -8.3788
 229   2.0000      -0.305063        -8.3012
 230   2.0000      -0.304372        -8.2824
 231   2.0000      -0.292345        -7.9551
 232   2.0000      -0.265945        -7.2367
 233   2.0000      -0.253383        -6.8949
 234   2.0000      -0.223127        -6.0716
 235   0.0000      -0.087833        -2.3900
 236   0.0000      -0.086150        -2.3443
 237   0.0000      -0.070452        -1.9171
 238   0.0000      -0.039829        -1.0838
 239   0.0000      -0.015691        -0.4270

MULLIKEN ATOMIC CHARGES
-----------------------
   0 C :    0.032558
   1 N :   -0.257471
   2 C :    0.113463
   3 C :   -0.002084
   4 C :    0.171473
   5 O :   -0.226877
   6 C :   -0.106489
   7 C :    0.008094
   8 C :    0.162462
   9 O :   -0.185242
  10 N :   -0.267550
  11 C :    0.099148
  12 C :    0.011790
  13 C :    0.161801
  14 C :   -0.028550
  15 C :   -0.009514
  16 C :    0.126803
  17 N :   -0.254968
  18 C :    0.098882
  19 C :    0.013258
  20 C :    0.158819
  21 O :   -0.221253
  22 C :   -0.071491
  23 C :   -0.058330
  24 C :    0.162752
  25 O :   -0.215005
  26 N :   -0.258260
  27 C :    0.097522
  28 C :    0.003751
  29 C :    0.145808
  30 C :   -0.051559
  31 C :    0.044936
  32 C :   -0.054023
  33 S :    0.127742
  34 C :   -0.197240
  35 C :    0.234281
  36 O :   -0.238146
  37 C :    0.052105
  38 C :   -0.001881
  39 C :    0.138864
  40 C :    0.018445
  41 C :   -0.047086
  42 N :    0.019449
  43 C :    0.024326
  44 C :    0.089804
  45 N :   -0.119515
  46 C :    0.047536
  47 C :   -0.040321
  48 C :   -0.072631
  49 N :   -0.019191
  50 C :    0.033694
  51 C :    0.025268
  52 N :    0.007766
  53 C :    0.037270
  54 C :   -0.034527
  55 C :    0.023532
  56 N :   -0.014697
  57 C :    0.018907
  58 C :    0.022404
  59 N :    0.002537
  60 C :   -0.075701
  61 C :    0.024344
  62 C :   -0.035321
  63 N :    0.004684
  64 C :    0.022178
  65 C :    0.018890
  66 N :   -0.017431
  67 H :    0.012746
  68 H :    0.017211
  69 H :    0.039257
  70 H :    0.015678
  71 H :    0.021740
  72 H :    0.029936
  73 H :    0.034863
  74 H :    0.037137
  75 H :    0.021143
  76 H :    0.020625
  77 H :    0.018923
  78 H :   -0.005288
  79 H :   -0.002815
  80 H :    0.037772
  81 H :    0.034410
  82 H :    0.021253
  83 H :    0.020573
  84 H :    0.018982
  85 H :    0.041654
  86 H :    0.024382
  87 H :    0.028099
  88 H :    0.022799
  89 H :    0.020580
  90 H :   -0.022524
  91 H :    0.021924
  92 H :   -0.030034
  93 H :    0.002764
  94 H :    0.014185
  95 H :    0.019102
  96 H :    0.018475
  97 H :    0.012226
  98 H :    0.012239
  99 H :    0.011886
 100 H :   -0.037089
 101 H :    0.007770
 102 H :    0.012430
Sum of atomic charges:   -0.0000000

LOEWDIN ATOMIC CHARGES
----------------------
   0 C :    0.084188
   1 N :    0.000435
   2 C :    0.038042
   3 C :   -0.061031
   4 C :    0.075476
   5 O :   -0.217446
   6 C :   -0.131447
   7 C :   -0.125235
   8 C :    0.081596
   9 O :   -0.190464
  10 N :   -0.004567
  11 C :    0.036803
  12 C :   -0.059162
  13 C :    0.083788
  14 C :   -0.015058
  15 C :    0.004870
  16 C :    0.060464
  17 N :    0.005115
  18 C :    0.037234
  19 C :   -0.058688
  20 C :    0.075995
  21 O :   -0.214091
  22 C :   -0.129228
  23 C :   -0.110442
  24 C :    0.082789
  25 O :   -0.204896
  26 N :   -0.000854
  27 C :    0.036000
  28 C :   -0.061231
  29 C :    0.085527
  30 C :   -0.074814
  31 C :    0.033385
  32 C :   -0.178652
  33 S :    0.445922
  34 C :   -0.185951
  35 C :    0.087856
  36 O :   -0.210701
  37 C :   -0.055419
  38 C :   -0.006912
  39 C :    0.000111
  40 C :    0.009414
  41 C :    0.008807
  42 N :   -0.007803
  43 C :    0.007177
  44 C :    0.042060
  45 N :    0.009098
  46 C :    0.000181
  47 C :    0.007546
  48 C :   -0.003780
  49 N :   -0.029041
  50 C :    0.014446
  51 C :    0.007208
  52 N :   -0.017976
  53 C :   -0.004645
  54 C :    0.002611
  55 C :   -0.015643
  56 N :   -0.037633
  57 C :    0.005124
  58 C :    0.004871
  59 N :   -0.023653
  60 C :    0.006453
  61 C :   -0.015448
  62 C :    0.002499
  63 N :   -0.025506
  64 C :    0.003321
  65 C :    0.004523
  66 N :   -0.037443
  67 H :    0.031446
  68 H :    0.024051
  69 H :    0.035133
  70 H :    0.022584
  71 H :    0.029433
  72 H :    0.031307
  73 H :    0.028353
  74 H :    0.035055
  75 H :    0.024325
  76 H :    0.030885
  77 H :    0.027120
  78 H :    0.034544
  79 H :    0.036231
  80 H :    0.029428
  81 H :    0.034044
  82 H :    0.024785
  83 H :    0.030832
  84 H :    0.027039
  85 H :    0.036715
  86 H :    0.023275
  87 H :    0.031624
  88 H :    0.030443
  89 H :    0.023791
  90 H :    0.020142
  91 H :    0.045109
  92 H :   -0.016107
  93 H :    0.036075
  94 H :    0.027630
  95 H :    0.030452
  96 H :    0.028677
  97 H :    0.026222
  98 H :    0.025646
  99 H :    0.025771
 100 H :    0.041982
 101 H :    0.024170
 102 H :    0.025715

  Mayer bond orders larger than 0.100000
B(  0-C ,  1-N ) :   1.1821 B(  0-C ,  7-C ) :   1.4596 B(  0-C , 67-H ) :   0.9901
B(  1-N ,  2-C ) :   0.9469 B(  1-N ,  4-C ) :   1.0640 B(  2-C ,  3-C ) :   1.1167
B(  2-C , 68-H ) :   0.9537 B(  2-C , 69-H ) :   0.9345 B(  3-C , 70-H ) :   0.9693
B(  3-C , 71-H ) :   0.9690 B(  3-C , 72-H ) :   0.9673 B(  4-C ,  5-O ) :   1.9968
B(  4-C ,  6-C ) :   1.0171 B(  5-O , 79-H ) :   0.1074 B(  6-C ,  7-C ) :   1.2073
B(  6-C , 13-C ) :   1.3482 B(  7-C ,  8-C ) :   0.9431 B(  8-C ,  9-O ) :   2.1791
B(  8-C , 10-N ) :   1.0235 B( 10-N , 11-C ) :   0.9405 B( 10-N , 13-C ) :   1.1632
B( 11-C , 12-C ) :   1.1262 B( 11-C , 73-H ) :   0.9474 B( 11-C , 74-H ) :   0.9281
B( 12-C , 75-H ) :   0.9663 B( 12-C , 76-H ) :   0.9671 B( 12-C , 77-H ) :   0.9640
B( 13-C , 14-C ) :   1.1530 B( 14-C , 15-C ) :   1.5416 B( 14-C , 78-H ) :   0.9506
B( 15-C , 16-C ) :   1.1535 B( 15-C , 79-H ) :   0.9481 B( 16-C , 17-N ) :   1.1573
B( 16-C , 23-C ) :   1.3298 B( 17-N , 18-C ) :   0.9424 B( 17-N , 20-C ) :   1.0710
B( 18-C , 19-C ) :   1.1253 B( 18-C , 80-H ) :   0.9470 B( 18-C , 81-H ) :   0.9280
B( 19-C , 82-H ) :   0.9666 B( 19-C , 83-H ) :   0.9673 B( 19-C , 84-H ) :   0.9635
B( 20-C , 21-O ) :   2.0181 B( 20-C , 22-C ) :   0.9927 B( 21-O , 91-H ) :   0.1146
B( 22-C , 23-C ) :   1.2559 B( 22-C , 29-C ) :   1.3249 B( 23-C , 24-C ) :   0.9861
B( 24-C , 25-O ) :   2.0183 B( 24-C , 26-N ) :   1.0654 B( 25-O , 78-H ) :   0.1027
B( 26-N , 27-C ) :   0.9488 B( 26-N , 29-C ) :   1.1547 B( 27-C , 28-C ) :   1.1195
B( 27-C , 85-H ) :   0.9286 B( 27-C , 86-H ) :   0.9496 B( 28-C , 87-H ) :   0.9634
B( 28-C , 88-H ) :   0.9678 B( 28-C , 89-H ) :   0.9685 B( 29-C , 30-C ) :   1.1808
B( 30-C , 31-C ) :   1.5647 B( 30-C , 90-H ) :   0.9588 B( 31-C , 32-C ) :   1.1561
B( 31-C , 91-H ) :   0.9555 B( 32-C , 33-S ) :   1.0836 B( 32-C , 38-C ) :   1.4549
B( 33-S , 34-C ) :   1.1635 B( 34-C , 35-C ) :   0.8892 B( 34-C , 37-C ) :   1.5335
B( 35-C , 36-O ) :   2.1330 B( 35-C , 45-N ) :   0.2088 B( 35-C , 92-H ) :   0.9186
B( 37-C , 38-C ) :   1.2390 B( 37-C , 39-C ) :   1.0289 B( 38-C , 93-H ) :   1.0018
B( 39-C , 40-C ) :   1.3063 B( 39-C , 46-C ) :   0.1584 B( 39-C , 48-C ) :   1.2893
B( 40-C , 41-C ) :   1.1477 B( 40-C , 45-N ) :   1.2860 B( 41-C , 42-N ) :   1.4177
B( 41-C , 46-C ) :   1.3434 B( 42-N , 43-C ) :   1.6942 B( 43-C , 44-C ) :   1.1881
B( 43-C , 94-H ) :   0.9744 B( 44-C , 45-N ) :   1.6120 B( 44-C , 95-H ) :   0.9667
B( 46-C , 47-C ) :   1.3439 B( 46-C , 53-C ) :   0.9358 B( 47-C , 48-C ) :   1.1417
B( 47-C , 52-N ) :   1.4171 B( 48-C , 49-N ) :   1.4498 B( 49-N , 50-C ) :   1.7012
B( 50-C , 51-C ) :   1.1697 B( 50-C , 96-H ) :   0.9729 B( 51-C , 52-N ) :   1.7013
B( 51-C , 97-H ) :   0.9734 B( 53-C , 54-C ) :   1.3519 B( 53-C , 60-C ) :   0.1435
B( 53-C , 62-C ) :   1.3505 B( 54-C , 55-C ) :   1.1744 B( 54-C , 59-N ) :   1.4031
B( 55-C , 56-N ) :   1.3664 B( 55-C , 60-C ) :   1.2324 B( 56-N , 57-C ) :   1.7363
B( 57-C , 58-C ) :   1.1627 B( 57-C , 98-H ) :   0.9730 B( 58-C , 59-N ) :   1.7081
B( 58-C , 99-H ) :   0.9730 B( 60-C , 61-C ) :   1.2303 B( 60-C ,100-H ) :   1.0676
B( 61-C , 62-C ) :   1.1704 B( 61-C , 66-N ) :   1.3647 B( 62-C , 63-N ) :   1.4060
B( 63-N , 64-C ) :   1.7093 B( 64-C , 65-C ) :   1.1640 B( 64-C ,101-H ) :   0.9727
B( 65-C , 66-N ) :   1.7362 B( 65-C ,102-H ) :   0.9732

-----------------------------------------------------------------------------
         ABSORPTION SPECTRUM VIA TRANSITION ELECTRIC DIPOLE MOMENTS
-----------------------------------------------------------------------------
State   Energy  Wavelength   fosc         T2         TX        TY        TZ
        (cm-1)    (nm)                  (au**2)     (au)      (au)      (au)
-----------------------------------------------------------------------------
   0   14407.3    694.1   0.960760953  21.95368   3.38128  -2.99403  -1.24757
   1   17617.0    567.6   0.065898137   1.23145  -0.70580  -0.79774  -0.31131
   2   20081.5    498.0   0.030913793   0.50679   0.45292   0.53157   0.13817
   3   21329.2    468.8   0.225904169   3.48679   0.28445   1.70538   0.70538
   4   23609.3    423.6   0.134145314   1.87054   0.15064   1.25179   0.52997
   5   24261.4    412.2   0.003339151   0.04531   0.00702   0.19838   0.07685
   6   25256.7    395.9   0.019827590   0.25845  -0.42579  -0.26592   0.08023
   7   25593.0    390.7   0.009584162   0.12328   0.00939   0.29157   0.19541
   8   25918.1    385.8   0.051877504   0.65895   0.21203  -0.73796  -0.26345
   9   26154.0    382.4   0.077274275   0.97268  -0.45945   0.82541   0.28335
  10   26206.6    381.6   0.037889788   0.47598  -0.12950   0.60487   0.30551
  11   26449.8    378.1   0.014698030   0.18294  -0.22387   0.02801  -0.36337
  12   26889.9    371.9   0.003461954   0.04238  -0.18684   0.07285   0.04655
  13   26984.8    370.6   0.014535633   0.17733  -0.00845   0.40189   0.12548
  14   27250.7    367.0   0.002378667   0.02874  -0.11515  -0.12430  -0.00519
  15   27501.3    363.6   0.017847431   0.21365   0.04132  -0.43302  -0.15631
  16   28703.1    348.4   0.021321661   0.24455  -0.13360  -0.42935  -0.20580
  17   28761.0    347.7   0.000526671   0.00603   0.07096  -0.00477  -0.03116
  18   29628.9    337.5   0.001443695   0.01604   0.00675  -0.03228  -0.12229
  19   29717.5    336.5   0.030729977   0.34043  -0.43537   0.22336  -0.31779
  20   30424.7    328.7   0.289494136   3.13248  -0.05490   1.66179   0.60657
  21   30897.4    323.7   0.007412172   0.07898   0.27091   0.06828   0.03034
  22   31413.5    318.3   0.108099900   1.13288  -1.01704   0.12023   0.28992
  23   31770.2    314.8   0.044413448   0.46023  -0.63728   0.00083   0.23260
  24   31967.9    312.8   0.014291410   0.14718  -0.14769  -0.08583  -0.34351
  25   32199.6    310.6   0.008357119   0.08544   0.20653  -0.10541  -0.17798
  26   32488.1    307.8   0.017391437   0.17623   0.15609   0.37004  -0.12223
  27   32522.4    307.5   0.002772058   0.02806   0.05163  -0.13233  -0.08879
  28   32733.5    305.5   0.030130886   0.30304   0.08588   0.50990   0.18885
  29   33058.3    302.5   0.006151912   0.06126   0.22536   0.02971   0.09796
  30   33417.7    299.2   0.015915992   0.15679  -0.06420   0.36239   0.14611
  31   33653.8    297.1   0.365068731   3.57122  -0.20785   1.78149   0.59525
  32   33710.2    296.6   0.012882490   0.12581  -0.01078   0.31800   0.15674
  33   34084.6    293.4   0.009424284   0.09103  -0.26367  -0.09025   0.11559
  34   35010.5    285.6   0.102951438   0.96808   0.85549  -0.35457   0.33240
  35   35191.2    284.2   0.024566087   0.22981   0.30755   0.29222  -0.22324
  36   35277.1    283.5   0.005748187   0.05364   0.22904  -0.02693   0.02140
  37   36156.0    276.6   0.009945655   0.09056  -0.04664   0.25473   0.15329
  38   36255.0    275.8   0.039935847   0.36264  -0.43334   0.37339   0.18825
  39   36423.4    274.5   0.019423183   0.17556  -0.26989   0.31943   0.02602
  40   36458.1    274.3   0.002615822   0.02362  -0.08631   0.03326   0.12274
  41   36831.9    271.5   0.010445520   0.09336   0.30405   0.00684   0.02956
  42   37227.3    268.6   0.014874608   0.13154   0.16880   0.29119   0.13512
  43   37436.0    267.1   0.004761140   0.04187  -0.06317  -0.14172  -0.13340
  44   37724.9    265.1   0.000372362   0.00325  -0.00383   0.05611   0.00932
  45   38153.0    262.1   0.003526125   0.03043  -0.05541   0.15608  -0.05471
  46   38274.1    261.3   0.063141775   0.54311   0.08404  -0.68651  -0.25446
  47   38569.0    259.3   0.005448403   0.04651   0.09885  -0.06706   0.17955
  48   38778.2    257.9   0.017303699   0.14690   0.10230   0.27256   0.24929
  49   38924.5    256.9   0.185885358   1.57217   1.08256  -0.00845   0.63259
  50   39434.0    253.6   0.288719054   2.41035  -1.16448   0.98046  -0.30503
  51   39678.7    252.0   0.004371467   0.03627   0.18880  -0.02027   0.01463
  52   39792.7    251.3   0.088659663   0.73350   0.22000  -0.79669   0.22446
  53   39841.6    251.0   0.163663079   1.35235   1.08606   0.41262   0.05067
  54   39930.9    250.4   0.081947100   0.67562   0.51479  -0.60384  -0.21445
  55   39973.1    250.2   0.127135142   1.04706  -0.65167   0.75121   0.24098
  56   40214.8    248.7   0.313986551   2.57040   1.31972  -0.29358   0.86171

FINAL SINGLE POINT ENERGY     -3316.481685551003

DIPOLE MOMENT
-------------
                                X             Y             Z
Electronic contribution:    -40.09146      78.43756      37.74468
Nuclear contribution   :     40.16942     -76.57317     -37.99029
                        -----------------------------------------
Total Dipole Moment    :      0.07796       1.86439      -0.24561
                        -----------------------------------------
Magnitude (a.u.)       :      1.88212
Magnitude (Debye)      :      4.78396

Rotational constants in cm-1:     0.002588     0.000327     0.000296
Rotational constants in MHz :    77.582599     9.805149     8.868968

                             ****ORCA TERMINATED NORMALLY****
TOTAL RUN TIME: 0 days 0 hours 9 minutes 58 seconds 31 msec
