                         Program Version 4.2.0 -  RELEASE  -
|  1> # ORCA input file
|  2> # SCF done       -163.279461691243          0.000612179282
|  3> ! CAM-B3LYP def2-SVP def2/J RIJCOSX Grid4 TightSCF
|  4> %maxcore 5000
|  5> %tddft
|  6>     Mode sTDDFT
|  7>     Ethresh 5.0
|  8>     maxcore 5000
|  9> end
| 10>
| 11> %pal
| 12>   nprocs 6
| 13>   end
| 14> * xyz 0 1
| 15>    C        0.58874         0.78478         0.78450
| 16>    S        0.88843        -0.83151         1.29156
| 17>    C       -0.24627        -1.47128         0.14454
| 18>    C       -0.83340        -0.43444        -0.58189
| 19>    C       -0.31917         0.84395        -0.21327
| 20>    C       -1.89648        -0.46974        -1.56599
| 21>    O       -2.10448         0.39989        -2.37804
| 22>    C       -2.91874        -1.64639        -1.50436
| 23>    F       -3.10586        -2.11614        -0.25836
| 24>    F       -4.10922        -1.24897        -1.94825
| 25>    F       -2.54666        -2.69243        -2.26310
| 26>    C       -0.37902        -2.88189        -0.01279
| 27>    C        0.08531        -3.77959         0.88103
| 28>    C       -0.03080        -5.20540         0.76137
| 29>    C       -0.45529        -5.89210        -0.39356
| 30>    N       -0.56345        -7.19384        -0.43759
| 31>    C       -0.24809        -7.89360         0.65610
| 32>    N        0.18251        -7.34947         1.79946
| 33>    C        0.28627        -6.04187         1.84364
| 34>    C       -0.39943        -9.32255         0.54312
| 35>    N       -0.46521       -10.20650         1.58741
| 36>    C       -0.32241        -9.92355         2.99497
| 37>    C        1.14523        -9.87537         3.40797
| 38>    C       -0.68327       -11.52350         1.13783
| 39>    O       -0.80001       -12.47325         1.88560
| 40>    C       -0.73322       -11.40658        -0.30200
| 41>    C       -0.55457       -10.03662        -0.63543
| 42>    C       -0.55696        -9.92248        -2.08273
| 43>    O       -0.40162        -8.99917        -2.84478
| 44>    N       -0.76464       -11.25369        -2.52324
| 45>    C       -0.88888       -11.55805        -3.92758
| 46>    C       -2.34802       -11.72226        -4.34602
| 47>    C       -0.87706       -12.13465        -1.47880
| 48>    C       -1.10499       -13.53026        -1.65180
| 49>    C       -1.28311       -14.38547        -0.62488
| 50>    C       -1.54857       -15.79271        -0.83947
| 51>    N       -1.55338       -16.26232        -2.09328
| 52>    C       -1.80345       -17.54800        -2.24751
| 53>    C       -2.06859       -18.39615        -1.18365
| 54>    C       -2.05661       -17.81928         0.09376
| 55>    N       -1.78472       -16.52404         0.24272
| 56>    C       -2.33042       -18.52732         1.32887
| 57>    C       -2.73991       -19.80273         1.42429
| 58>    C       -3.02807       -20.47396         2.65623
| 59>    S       -3.60285       -22.12137         2.61082
| 60>    C       -3.71914       -22.20596         4.32660
| 61>    C       -3.32077       -20.99453         4.91015
| 62>    C       -2.93494       -20.02965         3.94650
| 63>    C       -3.31374       -20.77766         6.33982
| 64>    O       -3.63462       -21.55841         7.20494
| 65>    C       -2.83125       -19.36393         6.78713
| 66>    F       -1.57504       -19.10436         6.38391
| 67>    F       -3.60726       -18.38300         6.29350
| 68>    F       -2.84866       -19.24773         8.11149
| 69>    C       -4.17249       -23.39323         4.98927
| 70>    C       -4.54226       -24.50662         4.35547
| 71>    H        1.10967         1.59128         1.26022
| 72>    H       -0.66049         1.74911        -0.68122
| 73>    H       -0.87308        -3.23167        -0.90396
| 74>    H        0.56155        -3.42220         1.78707
| 75>    H       -0.70884        -5.37515        -1.30921
| 76>    H        0.63187        -5.62836         2.78424
| 77>    H       -0.82970       -10.73669         3.52186
| 78>    H       -0.80742        -8.97251         3.22003
| 79>    H        1.63281       -10.81659         3.16613
| 80>    H        1.21880        -9.70838         4.47868
| 81>    H        1.64999        -9.06484         2.88944
| 82>    H       -0.31393       -12.45837        -4.16065
| 83>    H       -0.44896       -10.70888        -4.45849
| 84>    H       -2.81935       -12.53841        -3.80306
| 85>    H       -2.40406       -11.93096        -5.41081
| 86>    H       -2.89678       -10.80628        -4.14174
| 87>    H       -1.14946       -13.92286        -2.65780
| 88>    H       -1.25421       -14.06135         0.40555
| 89>    H       -1.79361       -17.91033        -3.26847
| 90>    H       -2.26810       -19.44212        -1.34298
| 91>    H       -2.19833       -17.91854         2.21095
| 92>    H       -2.88656       -20.40075         0.53492
| 93>    H       -2.59824       -19.03882         4.18396
| 94>    H       -4.20144       -23.33634         6.06773
| 95>    H       -4.52197       -24.58226         3.27963
| 96>    H       -4.87673       -25.37290         4.89722
| 97> *
| 98>
| 99>                          ****END OF INPUT****

CARTESIAN COORDINATES (ANGSTROEM)
---------------------------------
  C      0.588740    0.784780    0.784500
  S      0.888430   -0.831510    1.291560
  C     -0.246270   -1.471280    0.144540
  C     -0.833400   -0.434440   -0.581890
  C     -0.319170    0.843950   -0.213270
  C     -1.896480   -0.469740   -1.565990
  O     -2.104480    0.399890   -2.378040
  C     -2.918740   -1.646390   -1.504360
  F     -3.105860   -2.116140   -0.258360
  F     -4.109220   -1.248970   -1.948250
  F     -2.546660   -2.692430   -2.263100
  C     -0.379020   -2.881890   -0.012790
  C      0.085310   -3.779590    0.881030
  C     -0.030800   -5.205400    0.761370
  C     -0.455290   -5.892100   -0.393560
  N     -0.563450   -7.193840   -0.437590
  C     -0.248090   -7.893600    0.656100
  N      0.182510   -7.349470    1.799460
  C      0.286270   -6.041870    1.843640
  C     -0.399430   -9.322550    0.543120
  N     -0.465210  -10.206500    1.587410
  C     -0.322410   -9.923550    2.994970
  C      1.145230   -9.875370    3.407970
  C     -0.683270  -11.523500    1.137830
  O     -0.800010  -12.473250    1.885600
  C     -0.733220  -11.406580   -0.302000
  C     -0.554570  -10.036620   -0.635430
  C     -0.556960   -9.922480   -2.082730
  O     -0.401620   -8.999170   -2.844780
  N     -0.764640  -11.253690   -2.523240
  C     -0.888880  -11.558050   -3.927580
  C     -2.348020  -11.722260   -4.346020
  C     -0.877060  -12.134650   -1.478800
  C     -1.104990  -13.530260   -1.651800
  C     -1.283110  -14.385470   -0.624880
  C     -1.548570  -15.792710   -0.839470
  N     -1.553380  -16.262320   -2.093280
  C     -1.803450  -17.548000   -2.247510
  C     -2.068590  -18.396150   -1.183650
  C     -2.056610  -17.819280    0.093760
  N     -1.784720  -16.524040    0.242720
  C     -2.330420  -18.527320    1.328870
  C     -2.739910  -19.802730    1.424290
  C     -3.028070  -20.473960    2.656230
  S     -3.602850  -22.121370    2.610820
  C     -3.719140  -22.205960    4.326600
  C     -3.320770  -20.994530    4.910150
  C     -2.934940  -20.029650    3.946500
  C     -3.313740  -20.777660    6.339820
  O     -3.634620  -21.558410    7.204940
  C     -2.831250  -19.363930    6.787130
  F     -1.575040  -19.104360    6.383910
  F     -3.607260  -18.383000    6.293500
  F     -2.848660  -19.247730    8.111490
  C     -4.172490  -23.393230    4.989270
  C     -4.542260  -24.506620    4.355470
  H      1.109670    1.591280    1.260220
  H     -0.660490    1.749110   -0.681220
  H     -0.873080   -3.231670   -0.903960
  H      0.561550   -3.422200    1.787070
  H     -0.708840   -5.375150   -1.309210
  H      0.631870   -5.628360    2.784240
  H     -0.829700  -10.736690    3.521860
  H     -0.807420   -8.972510    3.220030
  H      1.632810  -10.816590    3.166130
  H      1.218800   -9.708380    4.478680
  H      1.649990   -9.064840    2.889440
  H     -0.313930  -12.458370   -4.160650
  H     -0.448960  -10.708880   -4.458490
  H     -2.819350  -12.538410   -3.803060
  H     -2.404060  -11.930960   -5.410810
  H     -2.896780  -10.806280   -4.141740
  H     -1.149460  -13.922860   -2.657800
  H     -1.254210  -14.061350    0.405550
  H     -1.793610  -17.910330   -3.268470
  H     -2.268100  -19.442120   -1.342980
  H     -2.198330  -17.918540    2.210950
  H     -2.886560  -20.400750    0.534920
  H     -2.598240  -19.038820    4.183960
  H     -4.201440  -23.336340    6.067730
  H     -4.521970  -24.582260    3.279630
  H     -4.876730  -25.372900    4.897220

 Total Charge           Charge          ....    0
 Multiplicity           Mult            ....    1
 Number of Electrons    NEL             ....  414
 Basis Dimension        Dim             ....  922

ORBITAL ENERGIES
----------------

  NO   OCC          E(Eh)            E(eV)
   0   2.0000     -88.976174     -2421.1648
   1   2.0000     -88.974965     -2421.1319
   2   2.0000     -24.813265      -675.2033
   3   2.0000     -24.809242      -675.0938
   4   2.0000     -24.805303      -674.9866
   5   2.0000     -24.805144      -674.9823
   6   2.0000     -24.802798      -674.9184
   7   2.0000     -24.799439      -674.8270
   8   2.0000     -19.235949      -523.4368
   9   2.0000     -19.235230      -523.4172
  10   2.0000     -19.180056      -521.9159
  11   2.0000     -19.176833      -521.8281
  12   2.0000     -14.443209      -393.0197
  13   2.0000     -14.441355      -392.9693
  14   2.0000     -14.421177      -392.4202
  15   2.0000     -14.414276      -392.2324
  16   2.0000     -14.409991      -392.1158
  17   2.0000     -14.407775      -392.0555
  18   2.0000     -10.520232      -286.2701
  19   2.0000     -10.514834      -286.1232
  20   2.0000     -10.388655      -282.6897
  21   2.0000     -10.387770      -282.6656
  22   2.0000     -10.364675      -282.0371
  23   2.0000     -10.360202      -281.9154
  24   2.0000     -10.353018      -281.7199
  25   2.0000     -10.341085      -281.3952
  26   2.0000     -10.333944      -281.2009
  27   2.0000     -10.332676      -281.1664
  28   2.0000     -10.331920      -281.1458
  29   2.0000     -10.331390      -281.1314
  30   2.0000     -10.329739      -281.0865
  31   2.0000     -10.327316      -281.0206
  32   2.0000     -10.323800      -280.9249
  33   2.0000     -10.323039      -280.9042
  34   2.0000     -10.318121      -280.7703
  35   2.0000     -10.308809      -280.5170
  36   2.0000     -10.303276      -280.3664
  37   2.0000     -10.302094      -280.3342
  38   2.0000     -10.301562      -280.3197
  39   2.0000     -10.300724      -280.2970
  40   2.0000     -10.300621      -280.2941
  41   2.0000     -10.299463      -280.2626
  42   2.0000     -10.299012      -280.2504
  43   2.0000     -10.294087      -280.1164
  44   2.0000     -10.289515      -279.9919
  45   2.0000     -10.288812      -279.9728
  46   2.0000     -10.287877      -279.9474
  47   2.0000     -10.285755      -279.8896
  48   2.0000     -10.285551      -279.8841
  49   2.0000     -10.284658      -279.8598
  50   2.0000     -10.281926      -279.7854
  51   2.0000     -10.275893      -279.6213
  52   2.0000     -10.256752      -279.1004
  53   2.0000     -10.256015      -279.0804
  54   2.0000     -10.250767      -278.9375
  55   2.0000     -10.240477      -278.6576
  56   2.0000      -8.072239      -219.6568
  57   2.0000      -8.070977      -219.6224
  58   2.0000      -6.041205      -164.3895
  59   2.0000      -6.040181      -164.3617
  60   2.0000      -6.037199      -164.2805
  61   2.0000      -6.035794      -164.2423
  62   2.0000      -6.034758      -164.2141
  63   2.0000      -6.033433      -164.1780
  64   2.0000      -1.398143       -38.0454
  65   2.0000      -1.393088       -37.9078
  66   2.0000      -1.302378       -35.4395
  67   2.0000      -1.298561       -35.3356
  68   2.0000      -1.296062       -35.2676
  69   2.0000      -1.294994       -35.2386
  70   2.0000      -1.152274       -31.3550
  71   2.0000      -1.151723       -31.3400
  72   2.0000      -1.123054       -30.5599
  73   2.0000      -1.115452       -30.3530
  74   2.0000      -1.092527       -29.7292
  75   2.0000      -1.082978       -29.4693
  76   2.0000      -1.052851       -28.6495
  77   2.0000      -1.042150       -28.3584
  78   2.0000      -1.006553       -27.3897
  79   2.0000      -1.003111       -27.2960
  80   2.0000      -0.986696       -26.8494
  81   2.0000      -0.981936       -26.7198
  82   2.0000      -0.935216       -25.4485
  83   2.0000      -0.924788       -25.1648
  84   2.0000      -0.916685       -24.9443
  85   2.0000      -0.907657       -24.6986
  86   2.0000      -0.890115       -24.2212
  87   2.0000      -0.888143       -24.1676
  88   2.0000      -0.877846       -23.8874
  89   2.0000      -0.873748       -23.7759
  90   2.0000      -0.862112       -23.4593
  91   2.0000      -0.854713       -23.2579
  92   2.0000      -0.835239       -22.7280
  93   2.0000      -0.817158       -22.2360
  94   2.0000      -0.815055       -22.1788
  95   2.0000      -0.811282       -22.0761
  96   2.0000      -0.807136       -21.9633
  97   2.0000      -0.798995       -21.7418
  98   2.0000      -0.787510       -21.4292
  99   2.0000      -0.764590       -20.8056
 100   2.0000      -0.755632       -20.5618
 101   2.0000      -0.747114       -20.3300
 102   2.0000      -0.744151       -20.2494
 103   2.0000      -0.737442       -20.0668
 104   2.0000      -0.732162       -19.9231
 105   2.0000      -0.726762       -19.7762
 106   2.0000      -0.710146       -19.3241
 107   2.0000      -0.704961       -19.1830
 108   2.0000      -0.695290       -18.9198
 109   2.0000      -0.694682       -18.9033
 110   2.0000      -0.685895       -18.6642
 111   2.0000      -0.681753       -18.5514
 112   2.0000      -0.680779       -18.5249
 113   2.0000      -0.676857       -18.4182
 114   2.0000      -0.676398       -18.4057
 115   2.0000      -0.663686       -18.0598
 116   2.0000      -0.657490       -17.8912
 117   2.0000      -0.652515       -17.7558
 118   2.0000      -0.645529       -17.5657
 119   2.0000      -0.636341       -17.3157
 120   2.0000      -0.635604       -17.2957
 121   2.0000      -0.630887       -17.1673
 122   2.0000      -0.626213       -17.0401
 123   2.0000      -0.618755       -16.8372
 124   2.0000      -0.612790       -16.6749
 125   2.0000      -0.601393       -16.3647
 126   2.0000      -0.592495       -16.1226
 127   2.0000      -0.580244       -15.7893
 128   2.0000      -0.573515       -15.6061
 129   2.0000      -0.570444       -15.5226
 130   2.0000      -0.564199       -15.3526
 131   2.0000      -0.563294       -15.3280
 132   2.0000      -0.559833       -15.2338
 133   2.0000      -0.559045       -15.2124
 134   2.0000      -0.557145       -15.1607
 135   2.0000      -0.556774       -15.1506
 136   2.0000      -0.553458       -15.0603
 137   2.0000      -0.553277       -15.0554
 138   2.0000      -0.546432       -14.8692
 139   2.0000      -0.539107       -14.6699
 140   2.0000      -0.532421       -14.4879
 141   2.0000      -0.530334       -14.4311
 142   2.0000      -0.529382       -14.4052
 143   2.0000      -0.528884       -14.3917
 144   2.0000      -0.528270       -14.3750
 145   2.0000      -0.525680       -14.3045
 146   2.0000      -0.525022       -14.2866
 147   2.0000      -0.523669       -14.2498
 148   2.0000      -0.520784       -14.1712
 149   2.0000      -0.519041       -14.1238
 150   2.0000      -0.513908       -13.9841
 151   2.0000      -0.513478       -13.9724
 152   2.0000      -0.512054       -13.9337
 153   2.0000      -0.509612       -13.8672
 154   2.0000      -0.506468       -13.7817
 155   2.0000      -0.504248       -13.7213
 156   2.0000      -0.503219       -13.6933
 157   2.0000      -0.501986       -13.6597
 158   2.0000      -0.500465       -13.6183
 159   2.0000      -0.499350       -13.5880
 160   2.0000      -0.497524       -13.5383
 161   2.0000      -0.495172       -13.4743
 162   2.0000      -0.493457       -13.4277
 163   2.0000      -0.491158       -13.3651
 164   2.0000      -0.488427       -13.2908
 165   2.0000      -0.486387       -13.2353
 166   2.0000      -0.478767       -13.0279
 167   2.0000      -0.477679       -12.9983
 168   2.0000      -0.471884       -12.8406
 169   2.0000      -0.468267       -12.7422
 170   2.0000      -0.462280       -12.5793
 171   2.0000      -0.461011       -12.5448
 172   2.0000      -0.458013       -12.4632
 173   2.0000      -0.454547       -12.3689
 174   2.0000      -0.452801       -12.3213
 175   2.0000      -0.452005       -12.2997
 176   2.0000      -0.446385       -12.1467
 177   2.0000      -0.440741       -11.9932
 178   2.0000      -0.436029       -11.8650
 179   2.0000      -0.435712       -11.8563
 180   2.0000      -0.432345       -11.7647
 181   2.0000      -0.432148       -11.7593
 182   2.0000      -0.428262       -11.6536
 183   2.0000      -0.425407       -11.5759
 184   2.0000      -0.415397       -11.3035
 185   2.0000      -0.411674       -11.2022
 186   2.0000      -0.399514       -10.8713
 187   2.0000      -0.398286       -10.8379
 188   2.0000      -0.393372       -10.7042
 189   2.0000      -0.385199       -10.4818
 190   2.0000      -0.383549       -10.4369
 191   2.0000      -0.379373       -10.3233
 192   2.0000      -0.358090        -9.7441
 193   2.0000      -0.354495        -9.6463
 194   2.0000      -0.353326        -9.6145
 195   2.0000      -0.350522        -9.5382
 196   2.0000      -0.341706        -9.2983
 197   2.0000      -0.338824        -9.2199
 198   2.0000      -0.337086        -9.1726
 199   2.0000      -0.325343        -8.8530
 200   2.0000      -0.323972        -8.8157
 201   2.0000      -0.318283        -8.6609
 202   2.0000      -0.314698        -8.5634
 203   2.0000      -0.303957        -8.2711
 204   2.0000      -0.288296        -7.8449
 205   2.0000      -0.276862        -7.5338
 206   2.0000      -0.234952        -6.3934
 207   0.0000      -0.086958        -2.3663
 208   0.0000      -0.067226        -1.8293
 209   0.0000      -0.058515        -1.5923
 210   0.0000      -0.043112        -1.1732
 211   0.0000      -0.017680        -0.4811

MULLIKEN ATOMIC CHARGES
-----------------------
   0 C :   -0.052817
   1 S :    0.127852
   2 C :   -0.073261
   3 C :    0.007385
   4 C :    0.046163
   5 C :    0.001053
   6 O :   -0.146251
   7 C :    0.482701
   8 F :   -0.158681
   9 F :   -0.137451
  10 F :   -0.162478
  11 C :    0.010043
  12 C :   -0.004473
  13 C :    0.031797
  14 C :    0.036209
  15 N :    0.000481
  16 C :   -0.176726
  17 N :   -0.053508
  18 C :    0.031743
  19 C :    0.181543
  20 N :   -0.258584
  21 C :    0.143260
  22 C :    0.004592
  23 C :    0.155803
  24 O :   -0.203959
  25 C :   -0.070905
  26 C :   -0.044548
  27 C :    0.147531
  28 O :   -0.158965
  29 N :   -0.267473
  30 C :    0.101816
  31 C :    0.001571
  32 C :    0.155162
  33 C :   -0.000964
  34 C :    0.052856
  35 C :   -0.083994
  36 N :   -0.074064
  37 C :    0.078086
  38 C :   -0.058276
  39 C :    0.038444
  40 N :   -0.032158
  41 C :    0.035198
  42 C :    0.089706
  43 C :   -0.080283
  44 S :    0.142808
  45 C :   -0.120643
  46 C :    0.009855
  47 C :    0.026428
  48 C :    0.023059
  49 O :   -0.146425
  50 C :    0.475160
  51 F :   -0.167953
  52 F :   -0.168121
  53 F :   -0.134219
  54 C :    0.002824
  55 C :   -0.006479
  56 H :    0.039177
  57 H :    0.010510
  58 H :    0.008482
  59 H :   -0.001029
  60 H :    0.017926
  61 H :    0.002304
  62 H :    0.030527
  63 H :    0.016924
  64 H :    0.017790
  65 H :    0.010275
  66 H :    0.015755
  67 H :    0.023801
  68 H :    0.040878
  69 H :    0.019168
  70 H :    0.020799
  71 H :    0.028435
  72 H :   -0.007646
  73 H :    0.017209
  74 H :    0.004915
  75 H :   -0.006656
  76 H :   -0.000680
  77 H :   -0.018388
  78 H :    0.015461
  79 H :    0.030944
  80 H :    0.027790
  81 H :    0.037855
Sum of atomic charges:   -0.0000000

LOEWDIN ATOMIC CHARGES
----------------------
   0 C :   -0.173663
   1 S :    0.462231
   2 C :   -0.137656
   3 C :   -0.117776
   4 C :   -0.027586
   5 C :    0.038117
   6 O :   -0.102021
   7 C :    0.141985
   8 F :   -0.056342
   9 F :   -0.036479
  10 F :   -0.056504
  11 C :   -0.037521
  12 C :   -0.012258
  13 C :   -0.071411
  14 C :    0.064925
  15 N :   -0.040460
  16 C :    0.018988
  17 N :   -0.068668
  18 C :    0.048877
  19 C :    0.048835
  20 N :    0.009956
  21 C :    0.037218
  22 C :   -0.062421
  23 C :    0.076880
  24 O :   -0.198357
  25 C :   -0.125354
  26 C :   -0.096119
  27 C :    0.084293
  28 O :   -0.167847
  29 N :   -0.005711
  30 C :    0.035598
  31 C :   -0.061476
  32 C :    0.087359
  33 C :   -0.022651
  34 C :    0.023475
  35 C :    0.024541
  36 N :   -0.090393
  37 C :    0.047801
  38 C :   -0.061741
  39 C :    0.034490
  40 N :   -0.077464
  41 C :   -0.015684
  42 C :   -0.021250
  43 C :   -0.169711
  44 S :    0.469367
  45 C :   -0.119625
  46 C :   -0.115829
  47 C :   -0.027829
  48 C :    0.041498
  49 O :   -0.107463
  50 C :    0.142022
  51 F :   -0.060314
  52 F :   -0.060212
  53 F :   -0.035100
  54 C :   -0.043535
  55 C :   -0.016882
  56 H :    0.029453
  57 H :    0.039955
  58 H :    0.027429
  59 H :    0.024630
  60 H :    0.030034
  61 H :    0.025451
  62 H :    0.030127
  63 H :    0.021555
  64 H :    0.025543
  65 H :    0.025909
  66 H :    0.018471
  67 H :    0.023574
  68 H :    0.036177
  69 H :    0.023315
  70 H :    0.029594
  71 H :    0.031572
  72 H :    0.031780
  73 H :    0.041389
  74 H :    0.026114
  75 H :    0.030529
  76 H :    0.038993
  77 H :    0.026987
  78 H :    0.031890
  79 H :    0.041564
  80 H :    0.018056
  81 H :    0.032764

  Mayer bond orders larger than 0.100000
B(  0-C ,  1-S ) :   1.1363 B(  0-C ,  4-C ) :   1.5946 B(  0-C , 56-H ) :   0.9719
B(  1-S ,  2-C ) :   1.1705 B(  2-C ,  3-C ) :   1.4327 B(  2-C , 11-C ) :   1.1384
B(  3-C ,  4-C ) :   1.2417 B(  3-C ,  5-C ) :   0.9743 B(  4-C , 57-H ) :   1.0008
B(  5-C ,  6-O ) :   2.1933 B(  5-C ,  7-C ) :   0.8780 B(  7-C ,  8-F ) :   1.1405
B(  7-C ,  9-F ) :   1.1924 B(  7-C , 10-F ) :   1.0965 B( 11-C , 12-C ) :   1.7134
B( 11-C , 58-H ) :   0.9471 B( 12-C , 13-C ) :   1.0815 B( 12-C , 59-H ) :   0.9766
B( 13-C , 14-C ) :   1.2744 B( 13-C , 18-C ) :   1.3062 B( 14-C , 15-N ) :   1.6070
B( 14-C , 60-H ) :   0.9853 B( 15-N , 16-C ) :   1.6119 B( 15-N , 19-C ) :  -0.1176
B( 16-C , 17-N ) :   1.4955 B( 16-C , 19-C ) :   0.9844 B( 17-N , 18-C ) :   1.5531
B( 18-C , 61-H ) :   0.9886 B( 19-C , 20-N ) :   1.2032 B( 19-C , 26-C ) :   1.4036
B( 20-N , 21-C ) :   0.9418 B( 20-N , 23-C ) :   1.0546 B( 21-C , 22-C ) :   1.1217
B( 21-C , 62-H ) :   0.9288 B( 21-C , 63-H ) :   0.9389 B( 22-C , 64-H ) :   0.9657
B( 22-C , 65-H ) :   0.9678 B( 22-C , 66-H ) :   0.9633 B( 23-C , 24-O ) :   2.0482
B( 23-C , 25-C ) :   0.9866 B( 25-C , 26-C ) :   1.2382 B( 25-C , 32-C ) :   1.3460
B( 26-C , 27-C ) :   0.9458 B( 27-C , 28-O ) :   2.1846 B( 27-C , 29-N ) :   1.0107
B( 29-N , 30-C ) :   0.9487 B( 29-N , 32-C ) :   1.1822 B( 30-C , 31-C ) :   1.1195
B( 30-C , 67-H ) :   0.9503 B( 30-C , 68-H ) :   0.9270 B( 31-C , 69-H ) :   0.9685
B( 31-C , 70-H ) :   0.9680 B( 31-C , 71-H ) :   0.9642 B( 32-C , 33-C ) :   1.1029
B( 33-C , 34-C ) :   1.6424 B( 33-C , 72-H ) :   0.9623 B( 34-C , 35-C ) :   1.0187
B( 34-C , 73-H ) :   0.9561 B( 35-C , 36-N ) :   1.5182 B( 35-C , 40-N ) :   1.5552
B( 36-N , 37-C ) :   1.5522 B( 37-C , 38-C ) :   1.3810 B( 37-C , 74-H ) :   0.9794
B( 38-C , 39-C ) :   1.3476 B( 38-C , 75-H ) :   0.9681 B( 39-C , 40-N ) :   1.5093
B( 39-C , 41-C ) :   1.0620 B( 41-C , 42-C ) :   1.7089 B( 41-C , 76-H ) :   0.9776
B( 42-C , 43-C ) :   1.0879 B( 42-C , 77-H ) :   0.9559 B( 43-C , 44-S ) :   1.1075
B( 43-C , 47-C ) :   1.5512 B( 44-S , 45-C ) :   1.1748 B( 45-C , 46-C ) :   1.4379
B( 45-C , 54-C ) :   1.1458 B( 46-C , 47-C ) :   1.2348 B( 46-C , 48-C ) :   0.9720
B( 47-C , 78-H ) :   0.9649 B( 48-C , 49-O ) :   2.1521 B( 48-C , 50-C ) :   0.8880
B( 50-C , 51-F ) :   1.1216 B( 50-C , 52-F ) :   1.1212 B( 50-C , 53-F ) :   1.1920
B( 54-C , 55-C ) :   1.8917 B( 54-C , 79-H ) :   0.9479 B( 55-C , 80-H ) :   0.9556
B( 55-C , 81-H ) :   0.9490

-----------------------------------------------------------------------------
         ABSORPTION SPECTRUM VIA TRANSITION ELECTRIC DIPOLE MOMENTS
-----------------------------------------------------------------------------
State   Energy  Wavelength   fosc         T2         TX        TY        TZ
        (cm-1)    (nm)                  (au**2)     (au)      (au)      (au)
-----------------------------------------------------------------------------
   0   16474.1    607.0   0.773340664  15.45410  -0.39921  -3.72553  -1.18959
   1   23575.6    424.2   0.054489124   0.76089   0.21578  -0.67311   0.51113
   2   26056.1    383.8   0.006007759   0.07591   0.15210  -0.12840   0.19049
   3   26322.9    379.9   0.010059838   0.12582  -0.13393   0.16728  -0.28266
   4   26783.6    373.4   0.000588888   0.00724   0.05699  -0.06241  -0.00972
   5   28357.4    352.6   0.832940835   9.66993   0.05912   3.00996  -0.77882
   6   29087.9    343.8   0.385360588   4.36145   0.19579   1.90275  -0.83824
   7   29211.3    342.3   0.269973488   3.04260  -0.75425  -1.12566   1.09846
   8   30343.1    329.6   0.123690165   1.34200  -0.32741  -1.08912  -0.22050
   9   30488.7    328.0   0.000174329   0.00188   0.04137  -0.00083   0.01304
  10   30530.6    327.5   0.009068127   0.09778   0.08272   0.11088   0.28044
  11   30646.6    326.3   0.008521714   0.09154   0.15099   0.20623  -0.16190
  12   31573.9    316.7   0.003688480   0.03846  -0.02955  -0.06300  -0.18335
  13   31842.7    314.0   0.059857451   0.61885  -0.00519  -0.12030  -0.77740
  14   32802.4    304.9   0.842640215   8.45692   0.64009   2.02505  -1.98655
  15   35156.6    284.4   0.012148525   0.11376  -0.24129  -0.12160  -0.20187
  16   35534.0    281.4   0.141158390   1.30779  -0.10881  -1.01533  -0.51484
  17   36262.6    275.8   0.003703773   0.03362   0.16931  -0.06656   0.02301
  18   37530.4    266.5   0.094547611   0.82936   0.13831   0.89847  -0.05457
  19   38549.4    259.4   0.066247819   0.56576   0.11311   0.60838  -0.42760
  20   38628.5    258.9   0.004707411   0.04012  -0.06833  -0.14685   0.11783
  21   38902.1    257.1   0.386923217   3.27436  -0.22404  -1.68251   0.62716

FINAL SINGLE POINT ENERGY     -3485.093587157201

DIPOLE MOMENT
-------------
                                X             Y             Z
Electronic contribution:    -14.73736      23.00139      22.96525
Nuclear contribution   :     15.24639     -23.85465     -23.44325
                        -----------------------------------------
Total Dipole Moment    :      0.50903      -0.85326      -0.47800
                        -----------------------------------------
Magnitude (a.u.)       :      1.10256
Magnitude (Debye)      :      2.80250

Rotational constants in cm-1:     0.002799     0.000327     0.000305
Rotational constants in MHz :    83.911568     9.794613     9.141832

                             ****ORCA TERMINATED NORMALLY****
TOTAL RUN TIME: 0 days 0 hours 5 minutes 9 seconds 345 msec
