                         Program Version 4.2.0 -  RELEASE  -
|  1> # ORCA input file
|  2> # SCF done       -144.416924874522          0.000584519316
|  3> ! CAM-B3LYP def2-SVP def2/J RIJCOSX Grid4 TightSCF
|  4> %maxcore 5000
|  5> %tddft
|  6>     Mode sTDDFT
|  7>     Ethresh 5.0
|  8>     maxcore 5000
|  9> end
| 10>
| 11> %pal
| 12>   nprocs 6
| 13>   end
| 14> * xyz 0 1
| 15>    C        3.50983         0.88680        -3.11709
| 16>    N        3.10511         0.18827        -4.13168
| 17>    C        3.24857         1.00133        -5.22309
| 18>    C        3.79641         2.30772        -4.82502
| 19>    C        3.94523         3.19522        -5.98903
| 20>    O        4.36290         4.32904        -6.02069
| 21>    C        3.45052         2.34525        -7.09479
| 22>    C        3.03963         1.01417        -6.57214
| 23>    N        2.57636         0.23170        -7.58306
| 24>    C        2.66752         0.96693        -8.65662
| 25>    C        3.20442         2.30235        -8.42398
| 26>    C        3.96270         2.24233        -3.46872
| 27>    C        4.44047         3.21679        -2.55546
| 28>    S        4.97850         4.81137        -3.05194
| 29>    C        5.26467         5.08987        -1.34306
| 30>    N        4.96172         4.05097        -0.60097
| 31>    N        4.51443         3.03100        -1.26296
| 32>    C        5.75078         6.32488        -0.83879
| 33>    C        5.91900         6.53124         0.49229
| 34>    C        6.36482         7.76364         1.02952
| 35>    N        6.49156         8.00799         2.37634
| 36>    C        6.16722         7.10030         3.45107
| 37>    C        4.66251         7.02547         3.69683
| 38>    C        6.92369         9.31938         2.63591
| 39>    O        7.09912         9.76186         3.75331
| 40>    C        7.08600         9.90913         1.32347
| 41>    C        6.73966         8.93047         0.36186
| 42>    C        6.90900         9.51692        -0.95101
| 43>    O        6.74060         9.07307        -2.06823
| 44>    N        7.35615        10.82399        -0.69173
| 45>    C        7.59763        11.75802        -1.76562
| 46>    C        6.42373        12.71390        -1.96174
| 47>    C        7.45447        11.07800         0.65545
| 48>    C        7.84935        12.32696         1.19335
| 49>    C        7.90493        12.56927         2.52836
| 50>    C        8.25683        13.84555         3.03626
| 51>    S        8.30478        14.20109         4.75412
| 52>    C        8.74259        15.83705         4.27094
| 53>    N        8.81624        15.96634         2.96998
| 54>    N        8.55400        14.89125         2.30121
| 55>    C        8.96517        16.87643         5.20848
| 56>    C        9.27252        18.14626         4.84222
| 57>    C        9.46782        19.17674         5.79823
| 58>    N        9.37092        18.97067         7.11197
| 59>    C        9.60469        20.15973         7.68317
| 60>    C        9.87092        21.20318         6.65618
| 61>    C       10.12302        22.51139         7.30202
| 62>    O       10.37046        23.57247         6.78030
| 63>    C        9.99294        22.18689         8.73371
| 64>    C        9.67899        20.75045         8.91896
| 65>    N        9.55874        20.45539        10.23596
| 66>    C        9.77221        21.58701        10.86174
| 67>    C       10.04834        22.70771         9.98609
| 68>    C        9.78319        20.57081         5.46737
| 69>    H        3.50604         0.49026        -2.11770
| 70>    H        2.36023         0.57705        -9.61170
| 71>    H        3.35329         3.05151        -9.17616
| 72>    H        5.96965         7.10345        -1.55626
| 73>    H        5.68928         5.72097         1.16851
| 74>    H        6.66509         7.49584         4.34081
| 75>    H        6.57467         6.11093         3.22782
| 76>    H        4.27787         8.00994         3.95199
| 77>    H        4.45986         6.34924         4.52237
| 78>    H        4.13973         6.66567         2.81366
| 79>    H        7.73210        11.15330        -2.66683
| 80>    H        8.52049        12.30945        -1.56817
| 81>    H        5.52200        12.15208        -2.19275
| 82>    H        6.63419        13.38700        -2.78788
| 83>    H        6.24616        13.30438        -1.06580
| 84>    H        8.10476        13.12870         0.51618
| 85>    H        7.66534        11.79601         3.24496
| 86>    H        8.87439        16.64141         6.25930
| 87>    H        9.36649        18.39558         3.79515
| 88>    H        9.73348        21.62761        11.93646
| 89>    H       10.24762        23.71235        10.30224
| 90>    H        9.90459        20.95172         4.47247
| 91> *
| 92>
| 93>                          ****END OF INPUT****

CARTESIAN COORDINATES (ANGSTROEM)
---------------------------------
  C      3.509830    0.886800   -3.117090
  N      3.105110    0.188270   -4.131680
  C      3.248570    1.001330   -5.223090
  C      3.796410    2.307720   -4.825020
  C      3.945230    3.195220   -5.989030
  O      4.362900    4.329040   -6.020690
  C      3.450520    2.345250   -7.094790
  C      3.039630    1.014170   -6.572140
  N      2.576360    0.231700   -7.583060
  C      2.667520    0.966930   -8.656620
  C      3.204420    2.302350   -8.423980
  C      3.962700    2.242330   -3.468720
  C      4.440470    3.216790   -2.555460
  S      4.978500    4.811370   -3.051940
  C      5.264670    5.089870   -1.343060
  N      4.961720    4.050970   -0.600970
  N      4.514430    3.031000   -1.262960
  C      5.750780    6.324880   -0.838790
  C      5.919000    6.531240    0.492290
  C      6.364820    7.763640    1.029520
  N      6.491560    8.007990    2.376340
  C      6.167220    7.100300    3.451070
  C      4.662510    7.025470    3.696830
  C      6.923690    9.319380    2.635910
  O      7.099120    9.761860    3.753310
  C      7.086000    9.909130    1.323470
  C      6.739660    8.930470    0.361860
  C      6.909000    9.516920   -0.951010
  O      6.740600    9.073070   -2.068230
  N      7.356150   10.823990   -0.691730
  C      7.597630   11.758020   -1.765620
  C      6.423730   12.713900   -1.961740
  C      7.454470   11.078000    0.655450
  C      7.849350   12.326960    1.193350
  C      7.904930   12.569270    2.528360
  C      8.256830   13.845550    3.036260
  S      8.304780   14.201090    4.754120
  C      8.742590   15.837050    4.270940
  N      8.816240   15.966340    2.969980
  N      8.554000   14.891250    2.301210
  C      8.965170   16.876430    5.208480
  C      9.272520   18.146260    4.842220
  C      9.467820   19.176740    5.798230
  N      9.370920   18.970670    7.111970
  C      9.604690   20.159730    7.683170
  C      9.870920   21.203180    6.656180
  C     10.123020   22.511390    7.302020
  O     10.370460   23.572470    6.780300
  C      9.992940   22.186890    8.733710
  C      9.678990   20.750450    8.918960
  N      9.558740   20.455390   10.235960
  C      9.772210   21.587010   10.861740
  C     10.048340   22.707710    9.986090
  C      9.783190   20.570810    5.467370
  H      3.506040    0.490260   -2.117700
  H      2.360230    0.577050   -9.611700
  H      3.353290    3.051510   -9.176160
  H      5.969650    7.103450   -1.556260
  H      5.689280    5.720970    1.168510
  H      6.665090    7.495840    4.340810
  H      6.574670    6.110930    3.227820
  H      4.277870    8.009940    3.951990
  H      4.459860    6.349240    4.522370
  H      4.139730    6.665670    2.813660
  H      7.732100   11.153300   -2.666830
  H      8.520490   12.309450   -1.568170
  H      5.522000   12.152080   -2.192750
  H      6.634190   13.387000   -2.787880
  H      6.246160   13.304380   -1.065800
  H      8.104760   13.128700    0.516180
  H      7.665340   11.796010    3.244960
  H      8.874390   16.641410    6.259300
  H      9.366490   18.395580    3.795150
  H      9.733480   21.627610   11.936460
  H     10.247620   23.712350   10.302240
  H      9.904590   20.951720    4.472470

 Total Charge           Charge          ....    0
 Multiplicity           Mult            ....    1
 Number of Electrons    NEL             ....  384
 Basis Dimension        Dim             ....  874

ORBITAL ENERGIES
----------------

  NO   OCC          E(Eh)            E(eV)
   0   2.0000     -88.984866     -2421.4013
   1   2.0000     -88.980335     -2421.2780
   2   2.0000     -19.226029      -523.1668
   3   2.0000     -19.205910      -522.6194
   4   2.0000     -19.200747      -522.4789
   5   2.0000     -19.199221      -522.4374
   6   2.0000     -14.461100      -393.5065
   7   2.0000     -14.460608      -393.4931
   8   2.0000     -14.452119      -393.2622
   9   2.0000     -14.450129      -393.2080
  10   2.0000     -14.449501      -393.1909
  11   2.0000     -14.444351      -393.0508
  12   2.0000     -14.424713      -392.5164
  13   2.0000     -14.420190      -392.3933
  14   2.0000     -14.406388      -392.0178
  15   2.0000     -14.403290      -391.9334
  16   2.0000     -10.385800      -282.6120
  17   2.0000     -10.382610      -282.5252
  18   2.0000     -10.381447      -282.4935
  19   2.0000     -10.368004      -282.1277
  20   2.0000     -10.352614      -281.7089
  21   2.0000     -10.352517      -281.7063
  22   2.0000     -10.351385      -281.6755
  23   2.0000     -10.346784      -281.5503
  24   2.0000     -10.346652      -281.5467
  25   2.0000     -10.346581      -281.5448
  26   2.0000     -10.345132      -281.5053
  27   2.0000     -10.344624      -281.4915
  28   2.0000     -10.341219      -281.3989
  29   2.0000     -10.340979      -281.3923
  30   2.0000     -10.340428      -281.3773
  31   2.0000     -10.329953      -281.0923
  32   2.0000     -10.323501      -280.9167
  33   2.0000     -10.323090      -280.9056
  34   2.0000     -10.321103      -280.8515
  35   2.0000     -10.313626      -280.6480
  36   2.0000     -10.312812      -280.6259
  37   2.0000     -10.312556      -280.6189
  38   2.0000     -10.305681      -280.4318
  39   2.0000     -10.305447      -280.4255
  40   2.0000     -10.303826      -280.3814
  41   2.0000     -10.303649      -280.3766
  42   2.0000     -10.303197      -280.3642
  43   2.0000     -10.302207      -280.3373
  44   2.0000     -10.301120      -280.3077
  45   2.0000     -10.297744      -280.2158
  46   2.0000     -10.294898      -280.1384
  47   2.0000     -10.293142      -280.0906
  48   2.0000     -10.287008      -279.9237
  49   2.0000     -10.286406      -279.9073
  50   2.0000     -10.270936      -279.4864
  51   2.0000     -10.270120      -279.4642
  52   2.0000     -10.266674      -279.3704
  53   2.0000     -10.266377      -279.3623
  54   2.0000      -8.081039      -219.8962
  55   2.0000      -8.075865      -219.7555
  56   2.0000      -6.049565      -164.6170
  57   2.0000      -6.046269      -164.5273
  58   2.0000      -6.044543      -164.4804
  59   2.0000      -6.043611      -164.4550
  60   2.0000      -6.040952      -164.3827
  61   2.0000      -6.038392      -164.3130
  62   2.0000      -1.155090       -31.4316
  63   2.0000      -1.151599       -31.3366
  64   2.0000      -1.142223       -31.0815
  65   2.0000      -1.141176       -31.0530
  66   2.0000      -1.135678       -30.9034
  67   2.0000      -1.121764       -30.5248
  68   2.0000      -1.090689       -29.6792
  69   2.0000      -1.075493       -29.2656
  70   2.0000      -1.072915       -29.1955
  71   2.0000      -1.072239       -29.1771
  72   2.0000      -1.063664       -28.9438
  73   2.0000      -1.056943       -28.7609
  74   2.0000      -0.959579       -26.1115
  75   2.0000      -0.954508       -25.9735
  76   2.0000      -0.948551       -25.8114
  77   2.0000      -0.941607       -25.6224
  78   2.0000      -0.935328       -25.4516
  79   2.0000      -0.932066       -25.3628
  80   2.0000      -0.929830       -25.3020
  81   2.0000      -0.900810       -24.5123
  82   2.0000      -0.892975       -24.2991
  83   2.0000      -0.882909       -24.0252
  84   2.0000      -0.874748       -23.8031
  85   2.0000      -0.874071       -23.7847
  86   2.0000      -0.865004       -23.5380
  87   2.0000      -0.863734       -23.5034
  88   2.0000      -0.852874       -23.2079
  89   2.0000      -0.825498       -22.4630
  90   2.0000      -0.816223       -22.2106
  91   2.0000      -0.802011       -21.8238
  92   2.0000      -0.786667       -21.4063
  93   2.0000      -0.783051       -21.3079
  94   2.0000      -0.773268       -21.0417
  95   2.0000      -0.765513       -20.8307
  96   2.0000      -0.754282       -20.5251
  97   2.0000      -0.737207       -20.0604
  98   2.0000      -0.733219       -19.9519
  99   2.0000      -0.725427       -19.7399
 100   2.0000      -0.718890       -19.5620
 101   2.0000      -0.713568       -19.4172
 102   2.0000      -0.710286       -19.3279
 103   2.0000      -0.702112       -19.1054
 104   2.0000      -0.689197       -18.7540
 105   2.0000      -0.668691       -18.1960
 106   2.0000      -0.665592       -18.1117
 107   2.0000      -0.659973       -17.9588
 108   2.0000      -0.655973       -17.8499
 109   2.0000      -0.650896       -17.7118
 110   2.0000      -0.639383       -17.3985
 111   2.0000      -0.635296       -17.2873
 112   2.0000      -0.624170       -16.9845
 113   2.0000      -0.618966       -16.8429
 114   2.0000      -0.608978       -16.5711
 115   2.0000      -0.604171       -16.4403
 116   2.0000      -0.595078       -16.1929
 117   2.0000      -0.593331       -16.1453
 118   2.0000      -0.588370       -16.0104
 119   2.0000      -0.583666       -15.8824
 120   2.0000      -0.581011       -15.8101
 121   2.0000      -0.573949       -15.6180
 122   2.0000      -0.568555       -15.4712
 123   2.0000      -0.561881       -15.2896
 124   2.0000      -0.556307       -15.1379
 125   2.0000      -0.555059       -15.1039
 126   2.0000      -0.553174       -15.0526
 127   2.0000      -0.552097       -15.0233
 128   2.0000      -0.550904       -14.9909
 129   2.0000      -0.544710       -14.8223
 130   2.0000      -0.541525       -14.7357
 131   2.0000      -0.537339       -14.6217
 132   2.0000      -0.536959       -14.6114
 133   2.0000      -0.532332       -14.4855
 134   2.0000      -0.529746       -14.4151
 135   2.0000      -0.524564       -14.2741
 136   2.0000      -0.523216       -14.2374
 137   2.0000      -0.521410       -14.1883
 138   2.0000      -0.519904       -14.1473
 139   2.0000      -0.515781       -14.0351
 140   2.0000      -0.509162       -13.8550
 141   2.0000      -0.505749       -13.7621
 142   2.0000      -0.502837       -13.6829
 143   2.0000      -0.501005       -13.6330
 144   2.0000      -0.493491       -13.4286
 145   2.0000      -0.487960       -13.2781
 146   2.0000      -0.487754       -13.2725
 147   2.0000      -0.486979       -13.2514
 148   2.0000      -0.486479       -13.2378
 149   2.0000      -0.483797       -13.1648
 150   2.0000      -0.481247       -13.0954
 151   2.0000      -0.480652       -13.0792
 152   2.0000      -0.478243       -13.0136
 153   2.0000      -0.474557       -12.9133
 154   2.0000      -0.469891       -12.7864
 155   2.0000      -0.469652       -12.7799
 156   2.0000      -0.466493       -12.6939
 157   2.0000      -0.461050       -12.5458
 158   2.0000      -0.457221       -12.4416
 159   2.0000      -0.456100       -12.4111
 160   2.0000      -0.453009       -12.3270
 161   2.0000      -0.450529       -12.2595
 162   2.0000      -0.445764       -12.1299
 163   2.0000      -0.433926       -11.8077
 164   2.0000      -0.431140       -11.7319
 165   2.0000      -0.422287       -11.4910
 166   2.0000      -0.412141       -11.2149
 167   2.0000      -0.403449       -10.9784
 168   2.0000      -0.399073       -10.8593
 169   2.0000      -0.393347       -10.7035
 170   2.0000      -0.385059       -10.4780
 171   2.0000      -0.372042       -10.1238
 172   2.0000      -0.370405       -10.0792
 173   2.0000      -0.366968        -9.9857
 174   2.0000      -0.360094        -9.7986
 175   2.0000      -0.357523        -9.7287
 176   2.0000      -0.355430        -9.6718
 177   2.0000      -0.351416        -9.5625
 178   2.0000      -0.349000        -9.4968
 179   2.0000      -0.346696        -9.4341
 180   2.0000      -0.343058        -9.3351
 181   2.0000      -0.341256        -9.2860
 182   2.0000      -0.341024        -9.2797
 183   2.0000      -0.334918        -9.1136
 184   2.0000      -0.333952        -9.0873
 185   2.0000      -0.331142        -9.0108
 186   2.0000      -0.329191        -8.9578
 187   2.0000      -0.325359        -8.8535
 188   2.0000      -0.323025        -8.7900
 189   2.0000      -0.305692        -8.3183
 190   2.0000      -0.291524        -7.9328
 191   2.0000      -0.244586        -6.6555
 192   0.0000      -0.123415        -3.3583
 193   0.0000      -0.117481        -3.1968
 194   0.0000      -0.093890        -2.5549
 195   0.0000      -0.064001        -1.7416
 196   0.0000      -0.044908        -1.2220

MULLIKEN ATOMIC CHARGES
-----------------------
   0 C :    0.078637
   1 N :   -0.023447
   2 C :    0.053555
   3 C :   -0.145171
   4 C :    0.216960
   5 O :   -0.121507
   6 C :   -0.031348
   7 C :   -0.005210
   8 N :   -0.048574
   9 C :    0.093935
  10 C :   -0.088977
  11 C :    0.052185
  12 C :   -0.170371
  13 S :    0.183806
  14 C :   -0.085697
  15 N :   -0.058964
  16 N :   -0.033194
  17 C :    0.059922
  18 C :   -0.023345
  19 C :    0.140438
  20 N :   -0.254942
  21 C :    0.099155
  22 C :    0.002696
  23 C :    0.167090
  24 O :   -0.208255
  25 C :   -0.058522
  26 C :   -0.059121
  27 C :    0.166452
  28 O :   -0.205958
  29 N :   -0.255717
  30 C :    0.097007
  31 C :    0.004122
  32 C :    0.139256
  33 C :   -0.023544
  34 C :    0.073482
  35 C :   -0.106583
  36 S :    0.147381
  37 C :   -0.102604
  38 N :   -0.034505
  39 N :   -0.048486
  40 C :    0.103658
  41 C :   -0.020854
  42 C :    0.060424
  43 N :   -0.057506
  44 C :    0.043557
  45 C :   -0.033407
  46 C :    0.212449
  47 O :   -0.118563
  48 C :   -0.047914
  49 C :   -0.010039
  50 N :   -0.057867
  51 C :    0.089507
  52 C :   -0.090068
  53 C :   -0.090419
  54 H :    0.026604
  55 H :    0.017587
  56 H :    0.003617
  57 H :    0.016210
  58 H :    0.005377
  59 H :    0.043278
  60 H :    0.029170
  61 H :    0.027446
  62 H :    0.026933
  63 H :    0.021714
  64 H :    0.044095
  65 H :    0.029034
  66 H :    0.028286
  67 H :    0.026934
  68 H :    0.020346
  69 H :    0.005953
  70 H :    0.013834
  71 H :    0.029533
  72 H :    0.018260
  73 H :    0.010669
  74 H :   -0.005137
  75 H :   -0.004741
Sum of atomic charges:   -0.0000000

LOEWDIN ATOMIC CHARGES
----------------------
   0 C :    0.110820
   1 N :   -0.077792
   2 C :    0.047777
   3 C :   -0.048855
   4 C :    0.064046
   5 O :   -0.132135
   6 C :   -0.036316
   7 C :    0.038484
   8 N :   -0.088425
   9 C :    0.085860
  10 C :   -0.025583
  11 C :   -0.063740
  12 C :   -0.158790
  13 S :    0.457834
  14 C :   -0.151408
  15 N :   -0.079122
  16 N :   -0.068442
  17 C :   -0.007118
  18 C :   -0.010845
  19 C :    0.074440
  20 N :    0.003127
  21 C :    0.037574
  22 C :   -0.059908
  23 C :    0.081401
  24 O :   -0.197101
  25 C :   -0.114050
  26 C :   -0.115741
  27 C :    0.080707
  28 O :   -0.195571
  29 N :    0.002913
  30 C :    0.037248
  31 C :   -0.059942
  32 C :    0.071544
  33 C :   -0.007337
  34 C :   -0.012144
  35 C :   -0.146618
  36 S :    0.424129
  37 C :   -0.158680
  38 N :   -0.060549
  39 N :   -0.073892
  40 C :    0.017764
  41 C :   -0.013968
  42 C :    0.060727
  43 N :   -0.113943
  44 C :    0.039720
  45 C :   -0.027901
  46 C :    0.062363
  47 O :   -0.132528
  48 C :   -0.041885
  49 C :    0.025567
  50 N :   -0.098876
  51 C :    0.075873
  52 C :   -0.039347
  53 C :   -0.019889
  54 H :    0.034126
  55 H :    0.027064
  56 H :    0.037779
  57 H :    0.038654
  58 H :    0.038002
  59 H :    0.037777
  60 H :    0.026275
  61 H :    0.031231
  62 H :    0.032543
  63 H :    0.024633
  64 H :    0.038207
  65 H :    0.026004
  66 H :    0.031652
  67 H :    0.032506
  68 H :    0.024126
  69 H :    0.038359
  70 H :    0.038238
  71 H :    0.045745
  72 H :    0.041627
  73 H :    0.023736
  74 H :    0.034119
  75 H :    0.036119

  Mayer bond orders larger than 0.100000
B(  0-C ,  1-N ) :   1.7198 B(  0-C , 11-C ) :   1.0296 B(  0-C , 54-H ) :   0.9952
B(  1-N ,  2-C ) :   1.2756 B(  2-C ,  3-C ) :   1.0498 B(  2-C ,  7-C ) :   1.5000
B(  3-C ,  4-C ) :   0.8895 B(  3-C , 11-C ) :   1.6036 B(  4-C ,  5-O ) :   2.2781
B(  4-C ,  6-C ) :   0.8992 B(  6-C ,  7-C ) :   1.0472 B(  6-C , 10-C ) :   1.6437
B(  7-C ,  8-N ) :   1.2812 B(  8-N ,  9-C ) :   1.6891 B(  9-C , 10-C ) :   1.0461
B(  9-C , 55-H ) :   0.9882 B( 10-C , 56-H ) :   1.0100 B( 11-C , 12-C ) :   1.0794
B( 12-C , 13-S ) :   1.1326 B( 12-C , 16-N ) :   1.6868 B( 13-S , 14-C ) :   1.1014
B( 14-C , 15-N ) :   1.6285 B( 14-C , 17-C ) :   1.1132 B( 15-N , 16-N ) :   1.2534
B( 17-C , 18-C ) :   1.6505 B( 17-C , 57-H ) :   0.9278 B( 18-C , 19-C ) :   1.1341
B( 18-C , 58-H ) :   0.9691 B( 19-C , 20-N ) :   1.1654 B( 19-C , 26-C ) :   1.3339
B( 20-N , 21-C ) :   0.9414 B( 20-N , 23-C ) :   1.0619 B( 21-C , 22-C ) :   1.1203
B( 21-C , 59-H ) :   0.9292 B( 21-C , 60-H ) :   0.9502 B( 22-C , 61-H ) :   0.9638
B( 22-C , 62-H ) :   0.9680 B( 22-C , 63-H ) :   0.9688 B( 23-C , 24-O ) :   2.0309
B( 23-C , 25-C ) :   0.9816 B( 24-O , 70-H ) :   0.1092 B( 25-C , 26-C ) :   1.2655
B( 25-C , 32-C ) :   1.3349 B( 26-C , 27-C ) :   0.9821 B( 27-C , 28-O ) :   2.0350
B( 27-C , 29-N ) :   1.0600 B( 28-O , 57-H ) :   0.1070 B( 29-N , 30-C ) :   0.9415
B( 29-N , 32-C ) :   1.1649 B( 30-C , 31-C ) :   1.1210 B( 30-C , 64-H ) :   0.9288
B( 30-C , 65-H ) :   0.9504 B( 31-C , 66-H ) :   0.9636 B( 31-C , 67-H ) :   0.9679
B( 31-C , 68-H ) :   0.9687 B( 32-C , 33-C ) :   1.1352 B( 33-C , 34-C ) :   1.6490
B( 33-C , 69-H ) :   0.9698 B( 34-C , 35-C ) :   1.1181 B( 34-C , 70-H ) :   0.9260
B( 35-C , 36-S ) :   1.1190 B( 35-C , 39-N ) :   1.6245 B( 36-S , 37-C ) :   1.0977
B( 37-C , 38-N ) :   1.6463 B( 37-C , 40-C ) :   1.0937 B( 38-N , 39-N ) :   1.2623
B( 40-C , 41-C ) :   1.6884 B( 40-C , 71-H ) :   0.9532 B( 41-C , 42-C ) :   1.1017
B( 41-C , 72-H ) :   0.9768 B( 42-C , 43-N ) :   1.5694 B( 42-C , 44-C ) :   0.1061
B( 42-C , 53-C ) :   1.0365 B( 43-N , 44-C ) :   1.3772 B( 44-C , 45-C ) :   1.0266
B( 44-C , 49-C ) :   1.4068 B( 45-C , 46-C ) :   0.8658 B( 45-C , 53-C ) :   1.6253
B( 46-C , 47-O ) :   2.3262 B( 46-C , 48-C ) :   0.8880 B( 48-C , 49-C ) :   1.0418
B( 48-C , 52-C ) :   1.6117 B( 49-C , 50-N ) :   1.3222 B( 50-N , 51-C ) :   1.6487
B( 51-C , 52-C ) :   1.0803 B( 51-C , 73-H ) :   0.9895 B( 52-C , 74-H ) :   1.0096
B( 53-C , 75-H ) :   1.0188

-----------------------------------------------------------------------------
         ABSORPTION SPECTRUM VIA TRANSITION ELECTRIC DIPOLE MOMENTS
-----------------------------------------------------------------------------
State   Energy  Wavelength   fosc         T2         TX        TY        TZ
        (cm-1)    (nm)                  (au**2)     (au)      (au)      (au)
-----------------------------------------------------------------------------
   0   13385.0    747.1   1.309731989  32.21371   1.57218   4.79912   2.59045
   1   16650.9    600.6   0.049125763   0.97128   0.00550   0.97981   0.10591
   2   19487.6    513.1   0.103927768   1.75569  -0.23752  -0.33729   1.25917
   3   21282.6    469.9   0.000360071   0.00557   0.07166  -0.02064  -0.00300
   4   22663.8    441.2   0.542275415   7.87703   0.35750   1.96706   1.96974
   5   22795.9    438.7   0.000683433   0.00987   0.08623   0.02086   0.04471
   6   23287.6    429.4   0.185622888   2.62412  -0.36754  -0.85252  -1.32749
   7   24857.1    402.3   0.309543043   4.09965  -0.32303  -1.48525  -1.33766
   8   24949.8    400.8   0.000495719   0.00654  -0.07704   0.01145   0.02180
   9   25322.9    394.9   0.005357006   0.06964  -0.05637  -0.00516  -0.25776
  10   25371.9    394.1   0.009202060   0.11940   0.10115  -0.15315   0.29277
  11   25703.3    389.1   0.000208720   0.00267  -0.01323   0.04794  -0.01414
  12   26312.5    380.0   0.055814432   0.69833  -0.20612  -0.17523  -0.79066
  13   26736.8    374.0   0.273679547   3.36984  -0.32691  -1.36135  -1.18731
  14   26823.9    372.8   0.000517542   0.00635   0.04079  -0.05478  -0.04108
  15   27118.8    368.7   0.039570325   0.48037  -0.21562  -0.31191  -0.58016
  16   27392.4    365.1   0.002231214   0.02682   0.14999  -0.05996  -0.02686
  17   28024.2    356.8   0.156922488   1.84343   0.47094   0.70930   1.05761
  18   28191.5    354.7   0.384597995   4.49122   0.54375   1.23576   1.63354
  19   28579.7    349.9   0.002076945   0.02392  -0.14853   0.03442   0.02606
  20   28951.1    345.4   0.023165029   0.26342   0.13261   0.12145  -0.48071
  21   29641.4    337.4   0.014295416   0.15877  -0.15105  -0.30896  -0.20125
  22   30417.8    328.8   0.000039258   0.00042  -0.01086   0.01188   0.01287
  23   31074.0    321.8   0.000311034   0.00330   0.05436   0.00276   0.01822
  24   31348.3    319.0   0.000003579   0.00004  -0.00378   0.00351   0.00331
  25   31432.9    318.1   0.002067294   0.02165   0.06924  -0.08460  -0.09849
  26   32147.9    311.1   0.030481498   0.31215  -0.09082  -0.41155  -0.36678
  27   32298.5    309.6   0.008350862   0.08512   0.24241   0.09670   0.13041
  28   32803.9    304.8   0.220953602   2.21743   0.29206   0.14280   1.45318
  29   32910.4    303.9   0.058534021   0.58553   0.00246   0.00588  -0.76517
  30   33927.4    294.7   0.030112073   0.29219   0.17847   0.38878   0.33043
  31   34114.5    293.1   0.016777662   0.16191  -0.10473  -0.29674  -0.25077
  32   34554.3    289.4   0.191400349   1.82355  -0.30981  -0.66869  -1.13156
  33   35062.6    285.2   0.036874783   0.34623   0.07985   0.56074   0.15945
  34   35818.1    279.2   0.015267117   0.14032  -0.09496  -0.36233  -0.00468
  35   35853.1    278.9   0.039323766   0.36108  -0.00507  -0.35218   0.48685
  36   36360.3    275.0   0.022310867   0.20201   0.10202  -0.07522   0.43121
  37   37413.2    267.3   0.003498618   0.03079  -0.10743  -0.00027  -0.13873
  38   37466.8    266.9   0.018539471   0.16290   0.01874  -0.10460  -0.38937
  39   37537.6    266.4   0.003428127   0.03007  -0.10536   0.01036  -0.13732
  40   38732.4    258.2   0.004353943   0.03701   0.00644   0.17381  -0.08220
  41   38886.5    257.2   0.000015330   0.00013   0.01104   0.00281   0.00032
  42   39095.3    255.8   0.044408620   0.37395  -0.13807  -0.33807  -0.49051
  43   39135.2    255.5   0.016134925   0.13573   0.06533   0.18050   0.31446
  44   39517.6    253.1   0.000559224   0.00466   0.06739  -0.00045   0.01084
  45   39761.5    251.5   0.214052994   1.77229  -0.32900  -1.08770  -0.69351
  46   39808.2    251.2   0.088475320   0.73169  -0.16088  -0.71323  -0.44397
  47   39892.3    250.7   0.038912817   0.32113   0.03838  -0.14472   0.54654
  48   40054.3    249.7   0.051816186   0.42588   0.05240   0.41066  -0.50447
  49   40136.7    249.1   0.002007530   0.01647   0.11285   0.03049   0.05292
  50   40200.0    248.8   0.000651783   0.00534   0.04366  -0.05772  -0.00996

FINAL SINGLE POINT ENERGY     -3102.778861118733

DIPOLE MOMENT
-------------
                                X             Y             Z
Electronic contribution:      2.38753      -7.21068      -5.12777
Nuclear contribution   :     -2.77652       6.65705       4.16970
                        -----------------------------------------
Total Dipole Moment    :     -0.38899      -0.55363      -0.95807
                        -----------------------------------------
Magnitude (a.u.)       :      1.17291
Magnitude (Debye)      :      2.98130

Rotational constants in cm-1:     0.006346     0.000290     0.000278
Rotational constants in MHz :   190.233774     8.681336     8.345687

                             ****ORCA TERMINATED NORMALLY****
TOTAL RUN TIME: 0 days 0 hours 5 minutes 21 seconds 713 msec
