                         Program Version 4.2.0 -  RELEASE  -
|  1> # ORCA input file
|  2> # SCF done       -127.908365845876          0.000611570685
|  3> ! CAM-B3LYP def2-SVP def2/J RIJCOSX Grid4 TightSCF
|  4> %maxcore 5000
|  5> %tddft
|  6>     Mode sTDDFT
|  7>     Ethresh 5.0
|  8>     maxcore 5000
|  9> end
| 10>
| 11> %pal
| 12>   nprocs 6
| 13>   end
| 14> * xyz 0 1
| 15>    C        0.11707         1.02506         1.12288
| 16>    C       -1.13960         0.42338         0.59298
| 17>    N       -2.27900         1.07020         0.49237
| 18>    S       -3.39996         0.08483        -0.14913
| 19>    N       -2.43614        -1.20986        -0.32139
| 20>    C       -1.23504        -0.91021         0.11477
| 21>    C       -0.08701        -1.87591         0.13531
| 22>    C        1.18532        -1.08108         0.11633
| 23>    C        1.27711         0.25316         0.59318
| 24>    N        2.49549         0.73471         0.49046
| 25>    S        3.46733        -0.39780        -0.15103
| 26>    N        2.33222        -1.54548        -0.32132
| 27>    C       -0.14458        -2.63786         1.36972
| 28>    C       -0.19450        -3.20583         2.43656
| 29>    C       -0.26224        -3.89184         3.59588
| 30>    C       -0.33657        -4.50402         4.64413
| 31>    C       -0.42974        -5.24833         5.81038
| 32>    N       -0.61646        -4.68506         7.05290
| 33>    C       -0.77436        -3.27705         7.31424
| 34>    C       -2.16584        -2.78320         6.92670
| 35>    C       -0.69395        -5.66251         8.05751
| 36>    O       -0.85508        -5.40044         9.23646
| 37>    C       -0.52903        -6.91160         7.35377
| 38>    C       -0.36426        -6.62057         5.96876
| 39>    C       -0.20068        -7.86792         5.25791
| 40>    O       -0.03376        -8.13221         4.08743
| 41>    N       -0.28704        -8.84668         6.27162
| 42>    C       -0.11368       -10.24498         5.96619
| 43>    C        1.29298       -10.73121         6.30825
| 44>    C       -0.47910        -8.29159         7.51689
| 45>    C       -0.62011        -9.05829         8.70400
| 46>    C       -0.80542        -8.49198         9.92216
| 47>    C       -0.96150        -9.24438        11.07663
| 48>    C       -1.10232        -9.91227        12.08427
| 49>    C       -1.26760       -10.64716        13.20382
| 50>    C       -1.40225       -11.35461        14.17589
| 51>    C       -1.60530       -12.11212        15.39867
| 52>    C       -3.04168       -11.97164        15.80813
| 53>    N       -4.00716       -12.74411        15.36778
| 54>    S       -5.41347       -12.25236        16.01478
| 55>    N       -4.80121       -11.02731        16.88790
| 56>    C       -3.50275       -10.96450        16.69694
| 57>    C       -2.60987        -9.96898        17.35526
| 58>    C       -1.22051       -10.50865        17.36923
| 59>    C       -0.75599       -11.51445        16.48082
| 60>    N        0.49637       -11.84442        16.69428
| 61>    S        1.07357       -10.95733        17.92626
| 62>    N       -0.29188       -10.12730        18.21697
| 63>    H        0.11351         0.97735         2.21808
| 64>    H        0.19122         2.07790         0.84681
| 65>    H       -0.13439        -2.56544        -0.71398
| 66>    H       -0.00811        -2.72304         6.76227
| 67>    H       -0.61524        -3.14383         8.38793
| 68>    H       -2.33937        -2.92765         5.86216
| 69>    H       -2.25895        -1.72532         7.15599
| 70>    H       -2.92430        -3.32862         7.48334
| 71>    H       -0.28155       -10.33944         4.88939
| 72>    H       -0.86914       -10.83498         6.49332
| 73>    H        2.02758       -10.16308         5.74272
| 74>    H        1.39280       -11.78203         6.05066
| 75>    H        1.50209       -10.60873         7.36895
| 76>    H       -0.58643       -10.13581         8.62099
| 77>    H       -0.84388        -7.41393        10.03051
| 78>    H       -1.34442       -13.16126        15.22486
| 79>    H       -2.95239        -9.74692        18.36736
| 80>    H       -2.63200        -9.02817        16.79225
| 81> *
| 82>
| 83>                          ****END OF INPUT****

CARTESIAN COORDINATES (ANGSTROEM)
---------------------------------
  C      0.117070    1.025060    1.122880
  C     -1.139600    0.423380    0.592980
  N     -2.279000    1.070200    0.492370
  S     -3.399960    0.084830   -0.149130
  N     -2.436140   -1.209860   -0.321390
  C     -1.235040   -0.910210    0.114770
  C     -0.087010   -1.875910    0.135310
  C      1.185320   -1.081080    0.116330
  C      1.277110    0.253160    0.593180
  N      2.495490    0.734710    0.490460
  S      3.467330   -0.397800   -0.151030
  N      2.332220   -1.545480   -0.321320
  C     -0.144580   -2.637860    1.369720
  C     -0.194500   -3.205830    2.436560
  C     -0.262240   -3.891840    3.595880
  C     -0.336570   -4.504020    4.644130
  C     -0.429740   -5.248330    5.810380
  N     -0.616460   -4.685060    7.052900
  C     -0.774360   -3.277050    7.314240
  C     -2.165840   -2.783200    6.926700
  C     -0.693950   -5.662510    8.057510
  O     -0.855080   -5.400440    9.236460
  C     -0.529030   -6.911600    7.353770
  C     -0.364260   -6.620570    5.968760
  C     -0.200680   -7.867920    5.257910
  O     -0.033760   -8.132210    4.087430
  N     -0.287040   -8.846680    6.271620
  C     -0.113680  -10.244980    5.966190
  C      1.292980  -10.731210    6.308250
  C     -0.479100   -8.291590    7.516890
  C     -0.620110   -9.058290    8.704000
  C     -0.805420   -8.491980    9.922160
  C     -0.961500   -9.244380   11.076630
  C     -1.102320   -9.912270   12.084270
  C     -1.267600  -10.647160   13.203820
  C     -1.402250  -11.354610   14.175890
  C     -1.605300  -12.112120   15.398670
  C     -3.041680  -11.971640   15.808130
  N     -4.007160  -12.744110   15.367780
  S     -5.413470  -12.252360   16.014780
  N     -4.801210  -11.027310   16.887900
  C     -3.502750  -10.964500   16.696940
  C     -2.609870   -9.968980   17.355260
  C     -1.220510  -10.508650   17.369230
  C     -0.755990  -11.514450   16.480820
  N      0.496370  -11.844420   16.694280
  S      1.073570  -10.957330   17.926260
  N     -0.291880  -10.127300   18.216970
  H      0.113510    0.977350    2.218080
  H      0.191220    2.077900    0.846810
  H     -0.134390   -2.565440   -0.713980
  H     -0.008110   -2.723040    6.762270
  H     -0.615240   -3.143830    8.387930
  H     -2.339370   -2.927650    5.862160
  H     -2.258950   -1.725320    7.155990
  H     -2.924300   -3.328620    7.483340
  H     -0.281550  -10.339440    4.889390
  H     -0.869140  -10.834980    6.493320
  H      2.027580  -10.163080    5.742720
  H      1.392800  -11.782030    6.050660
  H      1.502090  -10.608730    7.368950
  H     -0.586430  -10.135810    8.620990
  H     -0.843880   -7.413930   10.030510
  H     -1.344420  -13.161260   15.224860
  H     -2.952390   -9.746920   18.367360
  H     -2.632000   -9.028170   16.792250

 Total Charge           Charge          ....    0
 Multiplicity           Mult            ....    1
 Number of Electrons    NEL             ....  360
 Basis Dimension        Dim             ....  778

ORBITAL ENERGIES
----------------

  NO   OCC          E(Eh)            E(eV)
   0   2.0000     -89.012305     -2422.1480
   1   2.0000     -89.012054     -2422.1411
   2   2.0000     -89.010191     -2422.0904
   3   2.0000     -89.009836     -2422.0808
   4   2.0000     -19.189592      -522.1753
   5   2.0000     -19.188728      -522.1518
   6   2.0000     -14.453756      -393.3067
   7   2.0000     -14.453475      -393.2990
   8   2.0000     -14.442256      -392.9938
   9   2.0000     -14.441923      -392.9847
  10   2.0000     -14.440218      -392.9383
  11   2.0000     -14.440082      -392.9346
  12   2.0000     -14.439698      -392.9242
  13   2.0000     -14.439398      -392.9160
  14   2.0000     -14.437601      -392.8671
  15   2.0000     -14.437402      -392.8617
  16   2.0000     -10.374566      -282.3063
  17   2.0000     -10.373113      -282.2668
  18   2.0000     -10.348364      -281.5933
  19   2.0000     -10.344802      -281.4964
  20   2.0000     -10.334788      -281.2239
  21   2.0000     -10.334483      -281.2156
  22   2.0000     -10.333445      -281.1873
  23   2.0000     -10.332699      -281.1670
  24   2.0000     -10.332427      -281.1596
  25   2.0000     -10.332000      -281.1480
  26   2.0000     -10.331756      -281.1414
  27   2.0000     -10.330902      -281.1181
  28   2.0000     -10.329761      -281.0871
  29   2.0000     -10.329556      -281.0815
  30   2.0000     -10.308018      -280.4954
  31   2.0000     -10.307265      -280.4750
  32   2.0000     -10.306810      -280.4625
  33   2.0000     -10.304860      -280.4095
  34   2.0000     -10.302922      -280.3568
  35   2.0000     -10.301532      -280.3189
  36   2.0000     -10.299687      -280.2687
  37   2.0000     -10.298985      -280.2496
  38   2.0000     -10.298010      -280.2231
  39   2.0000     -10.297581      -280.2114
  40   2.0000     -10.297287      -280.2034
  41   2.0000     -10.297074      -280.1976
  42   2.0000     -10.293689      -280.1055
  43   2.0000     -10.291366      -280.0423
  44   2.0000     -10.268677      -279.4249
  45   2.0000     -10.263363      -279.2803
  46   2.0000     -10.262617      -279.2600
  47   2.0000     -10.259006      -279.1617
  48   2.0000      -8.105170      -220.5529
  49   2.0000      -8.104896      -220.5454
  50   2.0000      -8.103031      -220.4947
  51   2.0000      -8.102761      -220.4873
  52   2.0000      -6.076781      -165.3576
  53   2.0000      -6.076523      -165.3506
  54   2.0000      -6.074647      -165.2996
  55   2.0000      -6.074392      -165.2926
  56   2.0000      -6.069181      -165.1508
  57   2.0000      -6.068907      -165.1434
  58   2.0000      -6.067062      -165.0932
  59   2.0000      -6.066779      -165.0855
  60   2.0000      -6.066341      -165.0735
  61   2.0000      -6.066065      -165.0660
  62   2.0000      -6.064188      -165.0150
  63   2.0000      -6.063876      -165.0065
  64   2.0000      -1.132496       -30.8168
  65   2.0000      -1.127112       -30.6703
  66   2.0000      -1.125229       -30.6190
  67   2.0000      -1.124912       -30.6104
  68   2.0000      -1.122243       -30.5378
  69   2.0000      -1.120061       -30.4784
  70   2.0000      -1.064072       -28.9549
  71   2.0000      -1.055860       -28.7314
  72   2.0000      -0.988518       -26.8989
  73   2.0000      -0.986373       -26.8406
  74   2.0000      -0.976031       -26.5592
  75   2.0000      -0.973976       -26.5032
  76   2.0000      -0.960505       -26.1367
  77   2.0000      -0.958003       -26.0686
  78   2.0000      -0.930818       -25.3288
  79   2.0000      -0.921240       -25.0682
  80   2.0000      -0.902545       -24.5595
  81   2.0000      -0.890814       -24.2403
  82   2.0000      -0.880230       -23.9523
  83   2.0000      -0.871382       -23.7115
  84   2.0000      -0.865408       -23.5489
  85   2.0000      -0.864122       -23.5140
  86   2.0000      -0.863213       -23.4892
  87   2.0000      -0.844596       -22.9826
  88   2.0000      -0.830552       -22.6005
  89   2.0000      -0.819265       -22.2933
  90   2.0000      -0.804842       -21.9009
  91   2.0000      -0.795714       -21.6525
  92   2.0000      -0.786465       -21.4008
  93   2.0000      -0.778777       -21.1916
  94   2.0000      -0.759938       -20.6790
  95   2.0000      -0.727579       -19.7984
  96   2.0000      -0.723622       -19.6908
  97   2.0000      -0.715823       -19.4785
  98   2.0000      -0.709100       -19.2956
  99   2.0000      -0.698533       -19.0080
 100   2.0000      -0.692410       -18.8414
 101   2.0000      -0.690211       -18.7816
 102   2.0000      -0.689147       -18.7526
 103   2.0000      -0.671673       -18.2772
 104   2.0000      -0.669535       -18.2190
 105   2.0000      -0.667014       -18.1504
 106   2.0000      -0.652474       -17.7547
 107   2.0000      -0.641680       -17.4610
 108   2.0000      -0.636182       -17.3114
 109   2.0000      -0.632811       -17.2197
 110   2.0000      -0.611067       -16.6280
 111   2.0000      -0.606372       -16.5002
 112   2.0000      -0.604074       -16.4377
 113   2.0000      -0.602666       -16.3994
 114   2.0000      -0.600186       -16.3319
 115   2.0000      -0.589651       -16.0452
 116   2.0000      -0.573170       -15.5968
 117   2.0000      -0.566571       -15.4172
 118   2.0000      -0.558295       -15.1920
 119   2.0000      -0.557858       -15.1801
 120   2.0000      -0.554875       -15.0989
 121   2.0000      -0.548022       -14.9124
 122   2.0000      -0.545430       -14.8419
 123   2.0000      -0.534935       -14.5563
 124   2.0000      -0.532814       -14.4986
 125   2.0000      -0.531576       -14.4649
 126   2.0000      -0.530024       -14.4227
 127   2.0000      -0.529196       -14.4002
 128   2.0000      -0.529089       -14.3972
 129   2.0000      -0.528338       -14.3768
 130   2.0000      -0.519065       -14.1245
 131   2.0000      -0.512424       -13.9438
 132   2.0000      -0.510252       -13.8847
 133   2.0000      -0.509919       -13.8756
 134   2.0000      -0.499501       -13.5921
 135   2.0000      -0.498842       -13.5742
 136   2.0000      -0.496471       -13.5097
 137   2.0000      -0.481566       -13.1041
 138   2.0000      -0.476756       -12.9732
 139   2.0000      -0.474704       -12.9173
 140   2.0000      -0.473362       -12.8808
 141   2.0000      -0.466963       -12.7067
 142   2.0000      -0.464876       -12.6499
 143   2.0000      -0.459966       -12.5163
 144   2.0000      -0.457503       -12.4493
 145   2.0000      -0.455136       -12.3849
 146   2.0000      -0.452233       -12.3059
 147   2.0000      -0.449712       -12.2373
 148   2.0000      -0.448026       -12.1914
 149   2.0000      -0.434709       -11.8290
 150   2.0000      -0.432569       -11.7708
 151   2.0000      -0.428565       -11.6618
 152   2.0000      -0.424953       -11.5636
 153   2.0000      -0.422634       -11.5005
 154   2.0000      -0.415697       -11.3117
 155   2.0000      -0.409794       -11.1510
 156   2.0000      -0.403652       -10.9839
 157   2.0000      -0.398935       -10.8556
 158   2.0000      -0.396696       -10.7946
 159   2.0000      -0.392638       -10.6842
 160   2.0000      -0.391956       -10.6657
 161   2.0000      -0.382470       -10.4075
 162   2.0000      -0.380386       -10.3508
 163   2.0000      -0.374814       -10.1992
 164   2.0000      -0.369807       -10.0630
 165   2.0000      -0.367907       -10.0113
 166   2.0000      -0.366981        -9.9861
 167   2.0000      -0.364936        -9.9304
 168   2.0000      -0.347941        -9.4680
 169   2.0000      -0.345302        -9.3962
 170   2.0000      -0.340591        -9.2679
 171   2.0000      -0.340126        -9.2553
 172   2.0000      -0.337094        -9.1728
 173   2.0000      -0.332782        -9.0555
 174   2.0000      -0.325320        -8.8524
 175   2.0000      -0.322601        -8.7784
 176   2.0000      -0.315709        -8.5909
 177   2.0000      -0.315038        -8.5726
 178   2.0000      -0.303947        -8.2708
 179   2.0000      -0.243456        -6.6248
 180   0.0000      -0.088210        -2.4003
 181   0.0000      -0.035141        -0.9562
 182   0.0000      -0.032495        -0.8842
 183   0.0000      -0.026813        -0.7296
 184   0.0000      -0.007622        -0.2074

MULLIKEN ATOMIC CHARGES
-----------------------
   0 C :    0.410136
   1 C :   -0.190458
   2 N :   -0.269545
   3 S :    0.459694
   4 N :   -0.254740
   5 C :   -0.081507
   6 C :    0.226058
   7 C :   -0.080764
   8 C :   -0.189554
   9 N :   -0.270266
  10 S :    0.460303
  11 N :   -0.253483
  12 C :   -0.057668
  13 C :   -0.037462
  14 C :   -0.087370
  15 C :    0.110526
  16 C :    0.013060
  17 N :   -0.254187
  18 C :    0.114626
  19 C :   -0.003974
  20 C :    0.168806
  21 O :   -0.213563
  22 C :   -0.088871
  23 C :    0.018937
  24 C :    0.115772
  25 O :   -0.170735
  26 N :   -0.268932
  27 C :    0.094951
  28 C :    0.002359
  29 C :    0.144465
  30 C :   -0.026939
  31 C :   -0.084335
  32 C :    0.026691
  33 C :   -0.003964
  34 C :   -0.034888
  35 C :   -0.031605
  36 C :    0.247855
  37 C :   -0.085450
  38 N :   -0.259304
  39 S :    0.457561
  40 N :   -0.270104
  41 C :   -0.189147
  42 C :    0.414223
  43 C :   -0.184493
  44 C :   -0.087399
  45 N :   -0.258283
  46 S :    0.458645
  47 N :   -0.272636
  48 H :    0.049568
  49 H :    0.038836
  50 H :    0.047834
  51 H :    0.025004
  52 H :    0.041718
  53 H :    0.025553
  54 H :    0.021313
  55 H :    0.026543
  56 H :    0.045916
  57 H :    0.025524
  58 H :    0.030934
  59 H :    0.025071
  60 H :    0.017321
  61 H :   -0.004081
  62 H :    0.067891
  63 H :    0.043700
  64 H :    0.037349
  65 H :    0.050965
Sum of atomic charges:    0.0000000

LOEWDIN ATOMIC CHARGES
----------------------
   0 C :   -0.021337
   1 C :   -0.055373
   2 N :   -0.269030
   3 S :    0.590990
   4 N :   -0.261463
   5 C :   -0.052315
   6 C :   -0.025892
   7 C :   -0.052472
   8 C :   -0.055268
   9 N :   -0.269055
  10 S :    0.591542
  11 N :   -0.261133
  12 C :    0.023723
  13 C :   -0.051131
  14 C :   -0.010105
  15 C :   -0.011123
  16 C :    0.045174
  17 N :    0.007580
  18 C :    0.038558
  19 C :   -0.061560
  20 C :    0.077456
  21 O :   -0.205974
  22 C :   -0.126291
  23 C :   -0.094410
  24 C :    0.083346
  25 O :   -0.178354
  26 N :   -0.005658
  27 C :    0.035232
  28 C :   -0.061355
  29 C :    0.085019
  30 C :   -0.025665
  31 C :    0.015789
  32 C :    0.000469
  33 C :   -0.032682
  34 C :   -0.048772
  35 C :    0.012192
  36 C :   -0.025523
  37 C :   -0.051313
  38 N :   -0.263305
  39 S :    0.588963
  40 N :   -0.268713
  41 C :   -0.054375
  42 C :   -0.020846
  43 C :   -0.054128
  44 C :   -0.051883
  45 N :   -0.263163
  46 S :    0.589193
  47 N :   -0.268961
  48 H :    0.060849
  49 H :    0.058620
  50 H :    0.073874
  51 H :    0.027408
  52 H :    0.036391
  53 H :    0.026069
  54 H :    0.029858
  55 H :    0.030183
  56 H :    0.038617
  57 H :    0.023413
  58 H :    0.032764
  59 H :    0.031268
  60 H :    0.022460
  61 H :    0.036622
  62 H :    0.053820
  63 H :    0.070892
  64 H :    0.058230
  65 H :    0.062057

  Mayer bond orders larger than 0.100000
B(  0-C ,  1-C ) :   1.0157 B(  0-C ,  8-C ) :   1.0161 B(  0-C , 48-H ) :   0.8626
B(  0-C , 49-H ) :   0.8808 B(  1-C ,  2-N ) :   1.6790 B(  1-C ,  5-C ) :   1.2182
B(  2-N ,  3-S ) :   1.2082 B(  2-N ,  4-N ) :   0.1227 B(  3-S ,  4-N ) :   1.2120
B(  4-N ,  5-C ) :   1.6952 B(  5-C ,  6-C ) :   0.9937 B(  6-C ,  7-C ) :   0.9922
B(  6-C , 12-C ) :   1.0215 B(  6-C , 50-H ) :   0.8167 B(  7-C ,  8-C ) :   1.2180
B(  7-C , 11-N ) :   1.6958 B(  8-C ,  9-N ) :   1.6777 B(  9-N , 10-S ) :   1.2083
B(  9-N , 11-N ) :   0.1226 B( 10-S , 11-N ) :   1.2120 B( 12-C , 13-C ) :   2.3999
B( 12-C , 15-C ) :   0.1666 B( 13-C , 14-C ) :   0.8456 B( 14-C , 15-C ) :   2.1491
B( 15-C , 16-C ) :   0.7803 B( 16-C , 17-N ) :   1.1967 B( 16-C , 23-C ) :   1.4581
B( 17-N , 18-C ) :   0.9467 B( 17-N , 20-C ) :   1.0593 B( 18-C , 19-C ) :   1.1212
B( 18-C , 51-H ) :   0.9473 B( 18-C , 52-H ) :   0.9327 B( 19-C , 53-H ) :   0.9690
B( 19-C , 54-H ) :   0.9675 B( 19-C , 55-H ) :   0.9653 B( 20-C , 21-O ) :   2.0280
B( 20-C , 22-C ) :   0.9949 B( 21-O , 62-H ) :   0.1089 B( 22-C , 23-C ) :   1.2188
B( 22-C , 29-C ) :   1.3511 B( 23-C , 24-C ) :   0.9336 B( 24-C , 25-O ) :   2.1896
B( 24-C , 26-N ) :   1.0285 B( 26-N , 27-C ) :   0.9466 B( 26-N , 29-C ) :   1.1653
B( 27-C , 28-C ) :   1.1210 B( 27-C , 56-H ) :   0.9268 B( 27-C , 57-H ) :   0.9501
B( 28-C , 58-H ) :   0.9633 B( 28-C , 59-H ) :   0.9682 B( 28-C , 60-H ) :   0.9688
B( 29-C , 30-C ) :   1.1514 B( 30-C , 31-C ) :   1.6652 B( 30-C , 61-H ) :   0.9663
B( 31-C , 32-C ) :   0.9861 B( 31-C , 62-H ) :   0.9176 B( 32-C , 33-C ) :   2.1916
B( 32-C , 35-C ) :   0.1803 B( 33-C , 34-C ) :   0.8300 B( 34-C , 35-C ) :   2.4010
B( 35-C , 36-C ) :   1.0058 B( 36-C , 37-C ) :   0.9916 B( 36-C , 44-C ) :   0.9932
B( 36-C , 63-H ) :   0.8214 B( 37-C , 38-N ) :   1.6938 B( 37-C , 41-C ) :   1.2178
B( 38-N , 39-S ) :   1.2101 B( 38-N , 40-N ) :   0.1225 B( 39-S , 40-N ) :   1.2083
B( 40-N , 41-C ) :   1.6777 B( 41-C , 42-C ) :   1.0170 B( 42-C , 43-C ) :   1.0157
B( 42-C , 64-H ) :   0.8803 B( 42-C , 65-H ) :   0.8609 B( 43-C , 44-C ) :   1.2175
B( 43-C , 47-N ) :   1.6766 B( 44-C , 45-N ) :   1.6961 B( 45-N , 46-S ) :   1.2100
B( 45-N , 47-N ) :   0.1224 B( 46-S , 47-N ) :   1.2082

-----------------------------------------------------------------------------
         ABSORPTION SPECTRUM VIA TRANSITION ELECTRIC DIPOLE MOMENTS
-----------------------------------------------------------------------------
State   Energy  Wavelength   fosc         T2         TX        TY        TZ
        (cm-1)    (nm)                  (au**2)     (au)      (au)      (au)
-----------------------------------------------------------------------------
   0   18031.9    554.6   0.714012743  13.03589  -0.16204  -2.91447   2.12497
   1   26764.1    373.6   0.013610180   0.16741   0.01922   0.28450  -0.29343
   2   28207.8    354.5   0.007879785   0.09196  -0.03117   0.10337  -0.28339
   3   29387.9    340.3   0.370968936   4.15570   0.27148   0.80566  -1.85281
   4   29664.4    337.1   0.005150057   0.05715   0.01114   0.04818  -0.23390
   5   30836.7    324.3   0.023031628   0.24589  -0.07997   0.03732  -0.48795
   6   31149.0    321.0   0.296301905   3.13160  -0.37216   0.05934   1.72904
   7   32004.8    312.5   0.003648205   0.03753  -0.11203   0.09115   0.12910
   8   32626.8    306.5   0.003278172   0.03308   0.03190   0.07730  -0.16151
   9   33988.0    294.2   0.008577276   0.08308   0.27329   0.04475   0.07993
  10   34213.2    292.3   0.192596411   1.85323   0.15582   0.68930  -1.16354
  11   36174.9    276.4   0.003586881   0.03264   0.13676  -0.02770  -0.11477
  12   39001.5    256.4   0.074381288   0.62785  -0.20111   0.06581   0.76359
  13   39796.7    251.3   0.000670209   0.00554   0.04897   0.05193  -0.02120

FINAL SINGLE POINT ENERGY     -3517.830314834432

DIPOLE MOMENT
-------------
                                X             Y             Z
Electronic contribution:     -2.38755       2.68058       4.75499
Nuclear contribution   :      2.32224      -2.45100      -4.58253
                        -----------------------------------------
Total Dipole Moment    :     -0.06531       0.22958       0.17246
                        -----------------------------------------
Magnitude (a.u.)       :      0.29448
Magnitude (Debye)      :      0.74851

Rotational constants in cm-1:     0.003829     0.000370     0.000365
Rotational constants in MHz :   114.775731    11.085123    10.955702

                             ****ORCA TERMINATED NORMALLY****
TOTAL RUN TIME: 0 days 0 hours 4 minutes 7 seconds 643 msec
