                         Program Version 4.2.0 -  RELEASE  -
|  1> # ORCA input file
|  2> # SCF done       -129.203331060589          0.000496505065
|  3> ! CAM-B3LYP def2-SVP def2/J RIJCOSX Grid4 TightSCF
|  4> %maxcore 5000
|  5> %tddft
|  6>     Mode sTDDFT
|  7>     Ethresh 5.0
|  8>     maxcore 5000
|  9> end
| 10>
| 11> %pal
| 12>   nprocs 6
| 13>   end
| 14> * xyz 0 1
| 15>    C        0.54833         1.24298         3.13772
| 16>    C        1.73259         0.56158         3.09265
| 17>    C        2.77612         0.59991         4.14525
| 18>    O        3.94878         0.52762         3.90595
| 19>    O        2.33213         0.75153         5.40709
| 20>    C        1.92727        -0.08980         1.83235
| 21>    C        0.88341         0.12986         0.98406
| 22>    S       -0.34013         1.11316         1.67950
| 23>    C        3.07722        -0.92407         1.50962
| 24>    C        3.51863        -1.95841         2.34548
| 25>    N        4.53498        -2.72332         2.03631
| 26>    C        5.16111        -2.49357         0.88223
| 27>    N        4.82910        -1.53190         0.01953
| 28>    C        3.80695        -0.76411         0.33227
| 29>    C        6.25531        -3.38914         0.57281
| 30>    N        7.27948        -3.11963        -0.29459
| 31>    C        7.47327        -1.93185        -1.08909
| 32>    C        6.74461        -2.03232        -2.42586
| 33>    C        8.19381        -4.19463        -0.36946
| 34>    O        9.18904        -4.17844        -1.06251
| 35>    C        7.64721        -5.18113         0.53246
| 36>    C        6.45521        -4.65237         1.10097
| 37>    C        5.89006        -5.67460         1.96024
| 38>    O        4.89856        -5.72574         2.64889
| 39>    N        6.79912        -6.75952         1.84924
| 40>    C        6.57617        -7.95606         2.62510
| 41>    C        5.64912        -8.93357         1.90525
| 42>    C        7.83394        -6.47658         0.99446
| 43>    C        8.92620        -7.31127         0.60266
| 44>    C        9.01768        -8.65250         0.64979
| 45>    C       10.18094        -9.36651         0.16129
| 46>    N       11.27128        -8.67700        -0.18736
| 47>    C       12.30275        -9.37160        -0.62508
| 48>    C       12.27989       -10.75380        -0.73850
| 49>    C       11.09282       -11.39396        -0.35916
| 50>    N       10.05984       -10.68693         0.09587
| 51>    C       10.93541       -12.83019        -0.45843
| 52>    C        9.78658       -13.44659        -0.13017
| 53>    C        9.55972       -14.85003        -0.23025
| 54>    C        8.39812       -15.54530         0.07655
| 55>    C        7.17860       -14.89685         0.60886
| 56>    O        7.15850       -13.82338         1.14741
| 57>    O        6.03673       -15.59639         0.45644
| 58>    C        8.52304       -16.93793        -0.16792
| 59>    C        9.74407       -17.28329        -0.64862
| 60>    S       10.78118       -15.93034        -0.83507
| 61>    H        0.16235         1.86271         3.92508
| 62>    H        1.36841         0.75771         5.46949
| 63>    H        0.75521        -0.25489        -0.00811
| 64>    H        3.02449        -2.18085         3.28219
| 65>    H        3.56365         0.01609        -0.37892
| 66>    H        8.55046        -1.84962        -1.26078
| 67>    H        7.11745        -1.06547        -0.52973
| 68>    H        7.08287        -2.91182        -2.96826
| 69>    H        6.95241        -1.15027        -3.02477
| 70>    H        5.67342        -2.10190        -2.25800
| 71>    H        6.09727        -7.63694         3.55621
| 72>    H        7.53887        -8.41383         2.85925
| 73>    H        4.66609        -8.48401         1.79028
| 74>    H        5.55149        -9.84715         2.48495
| 75>    H        6.03042        -9.18489         0.91818
| 76>    H        9.74941        -6.76756         0.15486
| 77>    H        8.22712        -9.29871         0.99475
| 78>    H       13.17813        -8.79448        -0.89654
| 79>    H       13.12883       -11.30927        -1.10284
| 80>    H       11.78754       -13.38935        -0.82427
| 81>    H        8.96375       -12.85393         0.24585
| 82>    H        6.16430       -16.42038        -0.03063
| 83>    H        7.76081       -17.67114         0.03814
| 84>    H       10.09928       -18.26168        -0.90433
| 85> *
| 86>
| 87>                          ****END OF INPUT****

CARTESIAN COORDINATES (ANGSTROEM)
---------------------------------
  C      0.548330    1.242980    3.137720
  C      1.732590    0.561580    3.092650
  C      2.776120    0.599910    4.145250
  O      3.948780    0.527620    3.905950
  O      2.332130    0.751530    5.407090
  C      1.927270   -0.089800    1.832350
  C      0.883410    0.129860    0.984060
  S     -0.340130    1.113160    1.679500
  C      3.077220   -0.924070    1.509620
  C      3.518630   -1.958410    2.345480
  N      4.534980   -2.723320    2.036310
  C      5.161110   -2.493570    0.882230
  N      4.829100   -1.531900    0.019530
  C      3.806950   -0.764110    0.332270
  C      6.255310   -3.389140    0.572810
  N      7.279480   -3.119630   -0.294590
  C      7.473270   -1.931850   -1.089090
  C      6.744610   -2.032320   -2.425860
  C      8.193810   -4.194630   -0.369460
  O      9.189040   -4.178440   -1.062510
  C      7.647210   -5.181130    0.532460
  C      6.455210   -4.652370    1.100970
  C      5.890060   -5.674600    1.960240
  O      4.898560   -5.725740    2.648890
  N      6.799120   -6.759520    1.849240
  C      6.576170   -7.956060    2.625100
  C      5.649120   -8.933570    1.905250
  C      7.833940   -6.476580    0.994460
  C      8.926200   -7.311270    0.602660
  C      9.017680   -8.652500    0.649790
  C     10.180940   -9.366510    0.161290
  N     11.271280   -8.677000   -0.187360
  C     12.302750   -9.371600   -0.625080
  C     12.279890  -10.753800   -0.738500
  C     11.092820  -11.393960   -0.359160
  N     10.059840  -10.686930    0.095870
  C     10.935410  -12.830190   -0.458430
  C      9.786580  -13.446590   -0.130170
  C      9.559720  -14.850030   -0.230250
  C      8.398120  -15.545300    0.076550
  C      7.178600  -14.896850    0.608860
  O      7.158500  -13.823380    1.147410
  O      6.036730  -15.596390    0.456440
  C      8.523040  -16.937930   -0.167920
  C      9.744070  -17.283290   -0.648620
  S     10.781180  -15.930340   -0.835070
  H      0.162350    1.862710    3.925080
  H      1.368410    0.757710    5.469490
  H      0.755210   -0.254890   -0.008110
  H      3.024490   -2.180850    3.282190
  H      3.563650    0.016090   -0.378920
  H      8.550460   -1.849620   -1.260780
  H      7.117450   -1.065470   -0.529730
  H      7.082870   -2.911820   -2.968260
  H      6.952410   -1.150270   -3.024770
  H      5.673420   -2.101900   -2.258000
  H      6.097270   -7.636940    3.556210
  H      7.538870   -8.413830    2.859250
  H      4.666090   -8.484010    1.790280
  H      5.551490   -9.847150    2.484950
  H      6.030420   -9.184890    0.918180
  H      9.749410   -6.767560    0.154860
  H      8.227120   -9.298710    0.994750
  H     13.178130   -8.794480   -0.896540
  H     13.128830  -11.309270   -1.102840
  H     11.787540  -13.389350   -0.824270
  H      8.963750  -12.853930    0.245850
  H      6.164300  -16.420380   -0.030630
  H      7.760810  -17.671140    0.038140
  H     10.099280  -18.261680   -0.904330

 Total Charge           Charge          ....    0
 Multiplicity           Mult            ....    1
 Number of Electrons    NEL             ....  338
 Basis Dimension        Dim             ....  772

ORBITAL ENERGIES
----------------

  NO   OCC          E(Eh)            E(eV)
   0   2.0000     -88.980150     -2421.2730
   1   2.0000     -88.971802     -2421.0458
   2   2.0000     -19.264665      -524.2182
   3   2.0000     -19.257688      -524.0283
   4   2.0000     -19.203184      -522.5452
   5   2.0000     -19.195457      -522.3349
   6   2.0000     -19.169481      -521.6281
   7   2.0000     -19.167410      -521.5717
   8   2.0000     -14.433471      -392.7547
   9   2.0000     -14.432695      -392.7336
  10   2.0000     -14.412151      -392.1746
  11   2.0000     -14.404749      -391.9731
  12   2.0000     -14.400861      -391.8673
  13   2.0000     -14.400268      -391.8512
  14   2.0000     -10.409471      -283.2561
  15   2.0000     -10.402922      -283.0779
  16   2.0000     -10.354140      -281.7505
  17   2.0000     -10.351661      -281.6830
  18   2.0000     -10.343954      -281.4733
  19   2.0000     -10.334796      -281.2241
  20   2.0000     -10.324518      -280.9444
  21   2.0000     -10.323150      -280.9072
  22   2.0000     -10.322906      -280.9006
  23   2.0000     -10.320241      -280.8280
  24   2.0000     -10.320161      -280.8259
  25   2.0000     -10.318149      -280.7711
  26   2.0000     -10.318048      -280.7684
  27   2.0000     -10.314703      -280.6773
  28   2.0000     -10.312947      -280.6296
  29   2.0000     -10.311902      -280.6011
  30   2.0000     -10.304085      -280.3884
  31   2.0000     -10.303433      -280.3707
  32   2.0000     -10.296456      -280.1808
  33   2.0000     -10.296006      -280.1686
  34   2.0000     -10.295543      -280.1560
  35   2.0000     -10.288242      -279.9573
  36   2.0000     -10.282973      -279.8139
  37   2.0000     -10.279545      -279.7206
  38   2.0000     -10.279452      -279.7181
  39   2.0000     -10.279068      -279.7077
  40   2.0000     -10.275785      -279.6183
  41   2.0000     -10.271244      -279.4948
  42   2.0000     -10.245323      -278.7894
  43   2.0000     -10.241585      -278.6877
  44   2.0000     -10.241564      -278.6871
  45   2.0000     -10.233077      -278.4562
  46   2.0000      -8.076408      -219.7702
  47   2.0000      -8.067815      -219.5364
  48   2.0000      -6.045601      -164.5092
  49   2.0000      -6.041124      -164.3873
  50   2.0000      -6.038940      -164.3279
  51   2.0000      -6.036911      -164.2727
  52   2.0000      -6.032681      -164.1576
  53   2.0000      -6.030326      -164.0935
  54   2.0000      -1.186829       -32.2953
  55   2.0000      -1.180247       -32.1162
  56   2.0000      -1.112718       -30.2786
  57   2.0000      -1.105410       -30.0797
  58   2.0000      -1.102436       -29.9988
  59   2.0000      -1.094250       -29.7761
  60   2.0000      -1.083729       -29.4898
  61   2.0000      -1.075555       -29.2673
  62   2.0000      -1.041897       -28.3514
  63   2.0000      -1.032459       -28.0946
  64   2.0000      -1.006192       -27.3799
  65   2.0000      -0.998858       -27.1803
  66   2.0000      -0.977019       -26.5860
  67   2.0000      -0.974652       -26.5216
  68   2.0000      -0.912593       -24.8329
  69   2.0000      -0.912397       -24.8276
  70   2.0000      -0.906385       -24.6640
  71   2.0000      -0.889400       -24.2018
  72   2.0000      -0.865379       -23.5482
  73   2.0000      -0.860249       -23.4086
  74   2.0000      -0.857460       -23.3327
  75   2.0000      -0.850747       -23.1500
  76   2.0000      -0.840488       -22.8708
  77   2.0000      -0.818442       -22.2709
  78   2.0000      -0.798174       -21.7194
  79   2.0000      -0.796738       -21.6803
  80   2.0000      -0.780766       -21.2457
  81   2.0000      -0.752558       -20.4781
  82   2.0000      -0.747163       -20.3313
  83   2.0000      -0.736757       -20.0482
  84   2.0000      -0.731616       -19.9083
  85   2.0000      -0.722993       -19.6737
  86   2.0000      -0.717615       -19.5273
  87   2.0000      -0.711593       -19.3634
  88   2.0000      -0.694300       -18.8929
  89   2.0000      -0.688592       -18.7375
  90   2.0000      -0.686402       -18.6779
  91   2.0000      -0.678476       -18.4623
  92   2.0000      -0.673581       -18.3291
  93   2.0000      -0.664336       -18.0775
  94   2.0000      -0.659662       -17.9503
  95   2.0000      -0.642526       -17.4840
  96   2.0000      -0.639580       -17.4039
  97   2.0000      -0.631651       -17.1881
  98   2.0000      -0.624176       -16.9847
  99   2.0000      -0.616838       -16.7850
 100   2.0000      -0.605220       -16.4689
 101   2.0000      -0.594225       -16.1697
 102   2.0000      -0.584960       -15.9176
 103   2.0000      -0.565205       -15.3800
 104   2.0000      -0.559959       -15.2372
 105   2.0000      -0.554431       -15.0868
 106   2.0000      -0.549157       -14.9433
 107   2.0000      -0.542679       -14.7671
 108   2.0000      -0.541742       -14.7416
 109   2.0000      -0.540892       -14.7184
 110   2.0000      -0.536398       -14.5961
 111   2.0000      -0.535774       -14.5791
 112   2.0000      -0.531471       -14.4621
 113   2.0000      -0.528497       -14.3811
 114   2.0000      -0.525894       -14.3103
 115   2.0000      -0.522824       -14.2268
 116   2.0000      -0.517942       -14.0939
 117   2.0000      -0.514690       -14.0054
 118   2.0000      -0.511463       -13.9176
 119   2.0000      -0.510108       -13.8807
 120   2.0000      -0.507688       -13.8149
 121   2.0000      -0.504234       -13.7209
 122   2.0000      -0.498386       -13.5618
 123   2.0000      -0.495126       -13.4731
 124   2.0000      -0.492248       -13.3947
 125   2.0000      -0.490753       -13.3541
 126   2.0000      -0.484810       -13.1924
 127   2.0000      -0.483259       -13.1502
 128   2.0000      -0.482384       -13.1263
 129   2.0000      -0.479712       -13.0536
 130   2.0000      -0.477252       -12.9867
 131   2.0000      -0.473261       -12.8781
 132   2.0000      -0.465097       -12.6559
 133   2.0000      -0.461872       -12.5682
 134   2.0000      -0.452275       -12.3070
 135   2.0000      -0.450966       -12.2714
 136   2.0000      -0.450561       -12.2604
 137   2.0000      -0.441002       -12.0003
 138   2.0000      -0.439593       -11.9619
 139   2.0000      -0.435872       -11.8607
 140   2.0000      -0.432158       -11.7596
 141   2.0000      -0.428320       -11.6552
 142   2.0000      -0.426413       -11.6033
 143   2.0000      -0.422526       -11.4975
 144   2.0000      -0.411485       -11.1971
 145   2.0000      -0.407172       -11.0797
 146   2.0000      -0.403684       -10.9848
 147   2.0000      -0.398612       -10.8468
 148   2.0000      -0.395895       -10.7728
 149   2.0000      -0.391267       -10.6469
 150   2.0000      -0.384298       -10.4573
 151   2.0000      -0.378107       -10.2888
 152   2.0000      -0.376574       -10.2471
 153   2.0000      -0.370901       -10.0927
 154   2.0000      -0.368531       -10.0282
 155   2.0000      -0.365015        -9.9326
 156   2.0000      -0.350791        -9.5455
 157   2.0000      -0.348774        -9.4906
 158   2.0000      -0.337360        -9.1800
 159   2.0000      -0.336320        -9.1517
 160   2.0000      -0.327172        -8.9028
 161   2.0000      -0.320621        -8.7245
 162   2.0000      -0.317387        -8.6365
 163   2.0000      -0.314088        -8.5468
 164   2.0000      -0.310063        -8.4372
 165   2.0000      -0.305026        -8.3002
 166   2.0000      -0.293853        -7.9962
 167   2.0000      -0.281860        -7.6698
 168   2.0000      -0.228388        -6.2147
 169   0.0000      -0.067430        -1.8349
 170   0.0000      -0.055240        -1.5031
 171   0.0000      -0.017304        -0.4709
 172   0.0000      -0.010721        -0.2917
 173   0.0000       0.004278         0.1164

MULLIKEN ATOMIC CHARGES
-----------------------
   0 C :   -0.155715
   1 C :   -0.016766
   2 C :    0.163122
   3 O :   -0.165156
   4 O :   -0.154775
   5 C :    0.089503
   6 C :   -0.119547
   7 S :    0.148458
   8 C :   -0.008398
   9 C :    0.074359
  10 N :   -0.010373
  11 C :   -0.171555
  12 N :   -0.062096
  13 C :    0.048977
  14 C :    0.187173
  15 N :   -0.267494
  16 C :    0.146259
  17 C :    0.003795
  18 C :    0.143402
  19 O :   -0.193991
  20 C :   -0.042589
  21 C :   -0.032194
  22 C :    0.144132
  23 O :   -0.170736
  24 N :   -0.273733
  25 C :    0.112512
  26 C :    0.001641
  27 C :    0.119625
  28 C :   -0.000255
  29 C :    0.032785
  30 C :   -0.080058
  31 N :   -0.066453
  32 C :    0.085334
  33 C :   -0.051903
  34 C :    0.052130
  35 N :   -0.040940
  36 C :   -0.017905
  37 C :    0.049023
  38 C :   -0.108399
  39 C :   -0.015111
  40 C :    0.170769
  41 O :   -0.174822
  42 O :   -0.159774
  43 C :   -0.010302
  44 C :   -0.053646
  45 S :    0.134369
  46 H :    0.034225
  47 H :    0.178822
  48 H :    0.033035
  49 H :    0.008299
  50 H :   -0.001199
  51 H :    0.027667
  52 H :    0.018029
  53 H :    0.017598
  54 H :    0.006409
  55 H :    0.015344
  56 H :    0.031266
  57 H :    0.023367
  58 H :    0.028084
  59 H :    0.027032
  60 H :    0.019899
  61 H :    0.032889
  62 H :   -0.007084
  63 H :    0.008013
  64 H :   -0.008815
  65 H :   -0.018988
  66 H :    0.039348
  67 H :    0.176036
  68 H :   -0.007809
  69 H :    0.035850
Sum of atomic charges:    0.0000000

LOEWDIN ATOMIC CHARGES
----------------------
   0 C :   -0.183075
   1 C :   -0.113267
   2 C :    0.079625
   3 O :   -0.144055
   4 O :   -0.028746
   5 C :   -0.042663
   6 C :   -0.172976
   7 S :    0.471547
   8 C :   -0.057328
   9 C :    0.069961
  10 N :   -0.040721
  11 C :    0.018793
  12 N :   -0.068708
  13 C :    0.049205
  14 C :    0.061277
  15 N :    0.005971
  16 C :    0.037941
  17 C :   -0.063695
  18 C :    0.077057
  19 O :   -0.197782
  20 C :   -0.119701
  21 C :   -0.105417
  22 C :    0.085311
  23 O :   -0.176282
  24 N :   -0.006275
  25 C :    0.036546
  26 C :   -0.062445
  27 C :    0.078996
  28 C :    0.002256
  29 C :   -0.018700
  30 C :    0.028871
  31 N :   -0.084983
  32 C :    0.053648
  33 C :   -0.067960
  34 C :    0.034637
  35 N :   -0.081361
  36 C :   -0.041375
  37 C :    0.005102
  38 C :   -0.138745
  39 C :   -0.115834
  40 C :    0.085870
  41 O :   -0.153102
  42 O :   -0.032393
  43 C :   -0.073004
  44 C :   -0.170287
  45 S :    0.461702
  46 H :    0.024305
  47 H :    0.092870
  48 H :    0.029218
  49 H :    0.028048
  50 H :    0.024957
  51 H :    0.029611
  52 H :    0.022819
  53 H :    0.025193
  54 H :    0.024201
  55 H :    0.017914
  56 H :    0.033870
  57 H :    0.024613
  58 H :    0.031277
  59 H :    0.032337
  60 H :    0.021427
  61 H :    0.050607
  62 H :    0.034941
  63 H :    0.027454
  64 H :    0.031939
  65 H :    0.019066
  66 H :    0.045072
  67 H :    0.088962
  68 H :    0.027669
  69 H :    0.028195

  Mayer bond orders larger than 0.100000
B(  0-C ,  1-C ) :   1.5133 B(  0-C ,  7-S ) :   1.2113 B(  0-C , 46-H ) :   0.9688
B(  1-C ,  2-C ) :   0.9008 B(  1-C ,  5-C ) :   1.2764 B(  2-C ,  3-O ) :   2.1689
B(  2-C ,  4-O ) :   1.2373 B(  4-O , 47-H ) :   0.9539 B(  5-C ,  6-C ) :   1.5849
B(  5-C ,  8-C ) :   0.9653 B(  6-C ,  7-S ) :   1.1656 B(  6-C , 48-H ) :   0.9697
B(  8-C ,  9-C ) :   1.3125 B(  8-C , 13-C ) :   1.3716 B(  9-C , 10-N ) :   1.5877
B(  9-C , 49-H ) :   0.9863 B( 10-N , 11-C ) :   1.6057 B( 10-N , 14-C ) :  -0.1036
B( 11-C , 12-N ) :   1.5169 B( 11-C , 14-C ) :   0.9617 B( 12-N , 13-C ) :   1.5305
B( 13-C , 50-H ) :   0.9886 B( 14-C , 15-N ) :   1.2120 B( 14-C , 21-C ) :   1.4218
B( 15-N , 16-C ) :   0.9424 B( 15-N , 18-C ) :   1.0292 B( 16-C , 17-C ) :   1.1203
B( 16-C , 51-H ) :   0.9300 B( 16-C , 52-H ) :   0.9410 B( 17-C , 53-H ) :   0.9658
B( 17-C , 54-H ) :   0.9675 B( 17-C , 55-H ) :   0.9618 B( 18-C , 19-O ) :   2.1365
B( 18-C , 20-C ) :   0.9795 B( 20-C , 21-C ) :   1.2121 B( 20-C , 27-C ) :   1.3659
B( 21-C , 22-C ) :   0.9527 B( 22-C , 23-O ) :   2.1702 B( 22-C , 24-N ) :   1.0166
B( 24-N , 25-C ) :   0.9428 B( 24-N , 27-C ) :   1.1897 B( 25-C , 26-C ) :   1.1182
B( 25-C , 56-H ) :   0.9299 B( 25-C , 57-H ) :   0.9502 B( 26-C , 58-H ) :   0.9606
B( 26-C , 59-H ) :   0.9684 B( 26-C , 60-H ) :   0.9655 B( 27-C , 28-C ) :   1.1106
B( 28-C , 29-C ) :   1.6553 B( 28-C , 61-H ) :   0.9495 B( 29-C , 30-C ) :   1.0189
B( 29-C , 62-H ) :   0.9710 B( 30-C , 31-N ) :   1.5218 B( 30-C , 35-N ) :   1.5579
B( 31-N , 32-C ) :   1.5581 B( 32-C , 33-C ) :   1.3589 B( 32-C , 63-H ) :   0.9805
B( 33-C , 34-C ) :   1.3366 B( 33-C , 64-H ) :   0.9754 B( 34-C , 35-N ) :   1.5157
B( 34-C , 36-C ) :   1.0756 B( 36-C , 37-C ) :   1.6929 B( 36-C , 65-H ) :   0.9728
B( 37-C , 38-C ) :   1.1331 B( 37-C , 66-H ) :   0.9562 B( 38-C , 39-C ) :   1.5051
B( 38-C , 45-S ) :   1.1508 B( 39-C , 40-C ) :   0.9253 B( 39-C , 43-C ) :   1.2071
B( 40-C , 41-O ) :   2.1356 B( 40-C , 42-O ) :   1.2377 B( 42-O , 67-H ) :   0.9561
B( 43-C , 44-C ) :   1.6047 B( 43-C , 68-H ) :   0.9841 B( 44-C , 45-S ) :   1.1704
B( 44-C , 69-H ) :   0.9698

-----------------------------------------------------------------------------
         ABSORPTION SPECTRUM VIA TRANSITION ELECTRIC DIPOLE MOMENTS
-----------------------------------------------------------------------------
State   Energy  Wavelength   fosc         T2         TX        TY        TZ
        (cm-1)    (nm)                  (au**2)     (au)      (au)      (au)
-----------------------------------------------------------------------------
   0   18529.4    539.7   0.632751868  11.24211  -1.14930   3.11503  -0.46669
   1   24870.6    402.1   0.024416548   0.32320  -0.09942  -0.54125   0.14272
   2   26407.1    378.7   0.001791187   0.02233  -0.09571  -0.11427   0.01063
   3   27873.7    358.8   0.005197411   0.06139  -0.14405   0.18735   0.07440
   4   29838.8    335.1   0.055364748   0.61084   0.33847   0.70210   0.05779
   5   30281.7    330.2   0.012810608   0.13927  -0.29644   0.21477   0.07256
   6   31155.7    321.0   0.029744388   0.31430  -0.08221   0.54057  -0.12379
   7   31188.4    320.6   0.005362459   0.05660   0.04261  -0.19752   0.12559
   8   32144.4    311.1   0.882135047   9.03451  -0.41153  -2.96852  -0.23031
   9   32379.4    308.8   0.007795860   0.07926  -0.00153  -0.27213  -0.07216
  10   33036.5    302.7   0.138236186   1.37754  -0.94546  -0.65051   0.24593
  11   33224.9    301.0   0.003188170   0.03159  -0.01587  -0.02417  -0.17537
  12   33410.3    299.3   0.013422530   0.13226   0.28987   0.21533   0.04324
  13   36478.2    274.1   0.448578615   4.04838   1.49223  -1.29761  -0.37127
  14   38559.0    259.3   0.049107228   0.41927  -0.44989   0.00166   0.46569
  15   38914.6    257.0   0.731063956   6.18470  -2.09979   1.02994   0.84547
  16   39696.5    251.9   0.005601144   0.04645   0.14621   0.11046  -0.11346
  17   39743.4    251.6   0.009751947   0.08078  -0.26252   0.05509   0.09394
  18   40132.0    249.2   0.056433244   0.46293  -0.48895   0.36718   0.29839

FINAL SINGLE POINT ENERGY     -2807.414831100772

DIPOLE MOMENT
-------------
                                X             Y             Z
Electronic contribution:     -6.01252       5.98795       7.51137
Nuclear contribution   :      4.55523      -7.57069      -8.44315
                        -----------------------------------------
Total Dipole Moment    :     -1.45730      -1.58274      -0.93178
                        -----------------------------------------
Magnitude (a.u.)       :      2.34456
Magnitude (Debye)      :      5.95941

Rotational constants in cm-1:     0.004530     0.000583     0.000542
Rotational constants in MHz :   135.798156    17.491568    16.254557

                             ****ORCA TERMINATED NORMALLY****
TOTAL RUN TIME: 0 days 0 hours 4 minutes 15 seconds 279 msec
