                         Program Version 4.2.0 -  RELEASE  -
|  1> # ORCA input file
|  2> # SCF done       -149.462782469791          0.000549725006
|  3> ! CAM-B3LYP def2-SVP def2/J RIJCOSX Grid4 TightSCF
|  4> %maxcore 5000
|  5> %tddft
|  6>     Mode sTDDFT
|  7>     Ethresh 5.0
|  8>     maxcore 5000
|  9> end
| 10>
| 11> %pal
| 12>   nprocs 6
| 13>   end
| 14> * xyz 0 1
| 15>    C       -1.75226        -1.24567        -0.03079
| 16>    C       -1.70343        -2.28771        -0.91644
| 17>    C       -2.84047        -2.94467        -1.43074
| 18>    N       -3.73042        -3.45192        -1.94814
| 19>    C       -0.51509        -2.73906        -1.53017
| 20>    N        0.42457        -3.14362        -2.04994
| 21>    C       -0.65030        -0.33904         0.28915
| 22>    C       -1.17150         0.81574         0.90514
| 23>    C       -0.34529         1.86168         1.27102
| 24>    C        1.01355         1.74539         1.02597
| 25>    C        1.54921         0.60364         0.43245
| 26>    C        0.70960        -0.44604         0.06062
| 27>    C        3.02303         0.48513         0.21109
| 28>    C       -2.62556         0.67101         1.08200
| 29>    O       -3.41337         1.46320         1.54665
| 30>    C       -2.93343        -0.71128         0.61401
| 31>    C       -4.10533        -1.30162         0.97287
| 32>    C       -4.40535        -2.64336         0.88954
| 33>    C       -4.66090        -3.83869         0.89082
| 34>    C       -4.89838        -5.15273         0.85876
| 35>    C       -5.09959        -6.35641         0.82763
| 36>    C       -5.27780        -7.72439         0.77674
| 37>    N       -6.51120        -8.33423         0.81663
| 38>    C       -7.77280        -7.64971         0.95209
| 39>    C       -8.01636        -7.19884         2.38978
| 40>    C       -6.40038        -9.72944         0.74721
| 41>    O       -7.35604       -10.48382         0.76392
| 42>    C       -4.97787        -9.97177         0.65496
| 43>    C       -4.31391        -8.71759         0.67516
| 44>    C       -2.88858        -8.95396         0.58995
| 45>    O       -1.93262        -8.21211         0.58503
| 46>    N       -2.78582       -10.36032         0.50429
| 47>    C       -1.49743       -11.00617         0.44451
| 48>    C       -1.06273       -11.53631         1.80897
| 49>    C       -4.01485       -10.97468         0.55088
| 50>    C       -4.20075       -12.37908         0.49269
| 51>    C       -5.43264       -12.94891         0.56269
| 52>    C       -5.64004       -14.31335         0.53822
| 53>    C       -5.85150       -15.51770         0.53087
| 54>    C       -6.08667       -16.83237         0.54266
| 55>    C       -6.28643       -18.03893         0.53658
| 56>    C       -6.57014       -19.38659         0.61828
| 57>    C       -6.16622       -20.29028        -0.31603
| 58>    C       -6.39194       -21.72122        -0.35890
| 59>    C       -7.05249       -22.47843         0.57109
| 60>    C       -7.63358       -21.97269         1.75325
| 61>    N       -8.12290       -21.62126         2.73063
| 62>    C       -7.23793       -23.87420         0.47685
| 63>    N       -7.42207       -25.00701         0.46330
| 64>    C       -5.77195       -22.21741        -1.58616
| 65>    C       -5.17498       -21.14189        -2.27241
| 66>    C       -5.38506       -19.89416        -1.51957
| 67>    O       -5.01148       -18.77726        -1.80130
| 68>    C       -4.51566       -21.33787        -3.47022
| 69>    C       -4.45267       -22.62280        -3.98739
| 70>    C       -5.03656       -23.69934        -3.32440
| 71>    C       -5.70116       -23.49409        -2.11466
| 72>    C       -4.97095       -25.08048        -3.89333
| 73>    H       -0.76082         2.74321         1.73446
| 74>    H        1.67565         2.55300         1.30201
| 75>    H        1.13260        -1.32904        -0.39153
| 76>    H        3.48183         1.46400         0.09684
| 77>    H        3.23472        -0.11540        -0.67012
| 78>    H        3.48422        -0.00594         1.06878
| 79>    H       -4.84285        -0.66066         1.44836
| 80>    H       -8.54472        -8.36125         0.64674
| 81>    H       -7.78431        -6.78861         0.27679
| 82>    H       -8.01580        -8.05762         3.05712
| 83>    H       -8.98030        -6.70330         2.46141
| 84>    H       -7.24193        -6.50424         2.70905
| 85>    H       -0.79240       -10.24024         0.10897
| 86>    H       -1.52343       -11.80990        -0.29658
| 87>    H       -1.00130       -10.71726         2.52142
| 88>    H       -0.08358       -12.00010         1.72823
| 89>    H       -1.76892       -12.27257         2.18708
| 90>    H       -3.32739       -13.00931         0.40030
| 91>    H       -6.31931       -12.32962         0.65909
| 92>    H       -7.14756       -19.69440         1.48193
| 93>    H       -4.06431       -20.50166        -3.98168
| 94>    H       -3.94132       -22.79535        -4.92308
| 95>    H       -6.14930       -24.33666        -1.61264
| 96>    H       -4.33979       -25.11375        -4.77713
| 97>    H       -5.97010       -25.41886        -4.16619
| 98>    H       -4.58066       -25.77695        -3.15321
| 99> *
|100>
|101>                          ****END OF INPUT****

CARTESIAN COORDINATES (ANGSTROEM)
---------------------------------
  C     -1.752260   -1.245670   -0.030790
  C     -1.703430   -2.287710   -0.916440
  C     -2.840470   -2.944670   -1.430740
  N     -3.730420   -3.451920   -1.948140
  C     -0.515090   -2.739060   -1.530170
  N      0.424570   -3.143620   -2.049940
  C     -0.650300   -0.339040    0.289150
  C     -1.171500    0.815740    0.905140
  C     -0.345290    1.861680    1.271020
  C      1.013550    1.745390    1.025970
  C      1.549210    0.603640    0.432450
  C      0.709600   -0.446040    0.060620
  C      3.023030    0.485130    0.211090
  C     -2.625560    0.671010    1.082000
  O     -3.413370    1.463200    1.546650
  C     -2.933430   -0.711280    0.614010
  C     -4.105330   -1.301620    0.972870
  C     -4.405350   -2.643360    0.889540
  C     -4.660900   -3.838690    0.890820
  C     -4.898380   -5.152730    0.858760
  C     -5.099590   -6.356410    0.827630
  C     -5.277800   -7.724390    0.776740
  N     -6.511200   -8.334230    0.816630
  C     -7.772800   -7.649710    0.952090
  C     -8.016360   -7.198840    2.389780
  C     -6.400380   -9.729440    0.747210
  O     -7.356040  -10.483820    0.763920
  C     -4.977870   -9.971770    0.654960
  C     -4.313910   -8.717590    0.675160
  C     -2.888580   -8.953960    0.589950
  O     -1.932620   -8.212110    0.585030
  N     -2.785820  -10.360320    0.504290
  C     -1.497430  -11.006170    0.444510
  C     -1.062730  -11.536310    1.808970
  C     -4.014850  -10.974680    0.550880
  C     -4.200750  -12.379080    0.492690
  C     -5.432640  -12.948910    0.562690
  C     -5.640040  -14.313350    0.538220
  C     -5.851500  -15.517700    0.530870
  C     -6.086670  -16.832370    0.542660
  C     -6.286430  -18.038930    0.536580
  C     -6.570140  -19.386590    0.618280
  C     -6.166220  -20.290280   -0.316030
  C     -6.391940  -21.721220   -0.358900
  C     -7.052490  -22.478430    0.571090
  C     -7.633580  -21.972690    1.753250
  N     -8.122900  -21.621260    2.730630
  C     -7.237930  -23.874200    0.476850
  N     -7.422070  -25.007010    0.463300
  C     -5.771950  -22.217410   -1.586160
  C     -5.174980  -21.141890   -2.272410
  C     -5.385060  -19.894160   -1.519570
  O     -5.011480  -18.777260   -1.801300
  C     -4.515660  -21.337870   -3.470220
  C     -4.452670  -22.622800   -3.987390
  C     -5.036560  -23.699340   -3.324400
  C     -5.701160  -23.494090   -2.114660
  C     -4.970950  -25.080480   -3.893330
  H     -0.760820    2.743210    1.734460
  H      1.675650    2.553000    1.302010
  H      1.132600   -1.329040   -0.391530
  H      3.481830    1.464000    0.096840
  H      3.234720   -0.115400   -0.670120
  H      3.484220   -0.005940    1.068780
  H     -4.842850   -0.660660    1.448360
  H     -8.544720   -8.361250    0.646740
  H     -7.784310   -6.788610    0.276790
  H     -8.015800   -8.057620    3.057120
  H     -8.980300   -6.703300    2.461410
  H     -7.241930   -6.504240    2.709050
  H     -0.792400  -10.240240    0.108970
  H     -1.523430  -11.809900   -0.296580
  H     -1.001300  -10.717260    2.521420
  H     -0.083580  -12.000100    1.728230
  H     -1.768920  -12.272570    2.187080
  H     -3.327390  -13.009310    0.400300
  H     -6.319310  -12.329620    0.659090
  H     -7.147560  -19.694400    1.481930
  H     -4.064310  -20.501660   -3.981680
  H     -3.941320  -22.795350   -4.923080
  H     -6.149300  -24.336660   -1.612640
  H     -4.339790  -25.113750   -4.777130
  H     -5.970100  -25.418860   -4.166190
  H     -4.580660  -25.776950   -3.153210

 Total Charge           Charge          ....    0
 Multiplicity           Mult            ....    1
 Number of Electrons    NEL             ....  388
 Basis Dimension        Dim             ....  942

ORBITAL ENERGIES
----------------

  NO   OCC          E(Eh)            E(eV)
   0   2.0000     -19.220807      -523.0247
   1   2.0000     -19.220690      -523.0216
   2   2.0000     -19.198250      -522.4109
   3   2.0000     -19.194127      -522.2987
   4   2.0000     -14.460491      -393.4900
   5   2.0000     -14.458726      -393.4419
   6   2.0000     -14.424996      -392.5241
   7   2.0000     -14.422726      -392.4623
   8   2.0000     -14.418808      -392.3557
   9   2.0000     -14.413457      -392.2101
  10   2.0000     -10.382362      -282.5184
  11   2.0000     -10.378761      -282.4204
  12   2.0000     -10.370970      -282.2085
  13   2.0000     -10.370337      -282.1912
  14   2.0000     -10.353581      -281.7353
  15   2.0000     -10.353316      -281.7280
  16   2.0000     -10.353065      -281.7212
  17   2.0000     -10.350418      -281.6492
  18   2.0000     -10.349211      -281.6164
  19   2.0000     -10.343891      -281.4716
  20   2.0000     -10.334857      -281.2258
  21   2.0000     -10.332200      -281.1535
  22   2.0000     -10.326577      -281.0004
  23   2.0000     -10.324932      -280.9557
  24   2.0000     -10.320338      -280.8307
  25   2.0000     -10.315134      -280.6891
  26   2.0000     -10.314917      -280.6832
  27   2.0000     -10.314728      -280.6780
  28   2.0000     -10.313264      -280.6382
  29   2.0000     -10.312534      -280.6183
  30   2.0000     -10.312124      -280.6072
  31   2.0000     -10.311241      -280.5831
  32   2.0000     -10.311178      -280.5814
  33   2.0000     -10.311137      -280.5803
  34   2.0000     -10.309213      -280.5279
  35   2.0000     -10.308452      -280.5072
  36   2.0000     -10.308285      -280.5027
  37   2.0000     -10.307615      -280.4845
  38   2.0000     -10.307294      -280.4757
  39   2.0000     -10.307248      -280.4745
  40   2.0000     -10.305287      -280.4211
  41   2.0000     -10.305191      -280.4185
  42   2.0000     -10.305178      -280.4181
  43   2.0000     -10.303474      -280.3718
  44   2.0000     -10.298703      -280.2420
  45   2.0000     -10.297325      -280.2045
  46   2.0000     -10.295371      -280.1513
  47   2.0000     -10.295316      -280.1498
  48   2.0000     -10.293905      -280.1114
  49   2.0000     -10.292441      -280.0716
  50   2.0000     -10.292334      -280.0686
  51   2.0000     -10.292328      -280.0685
  52   2.0000     -10.278469      -279.6914
  53   2.0000     -10.277859      -279.6748
  54   2.0000     -10.276677      -279.6426
  55   2.0000     -10.270091      -279.4634
  56   2.0000     -10.267863      -279.4028
  57   2.0000     -10.261035      -279.2170
  58   2.0000      -1.139759       -31.0144
  59   2.0000      -1.134928       -30.8830
  60   2.0000      -1.134797       -30.8794
  61   2.0000      -1.131872       -30.7998
  62   2.0000      -1.071097       -29.1460
  63   2.0000      -1.062435       -28.9103
  64   2.0000      -1.025845       -27.9147
  65   2.0000      -1.020628       -27.7727
  66   2.0000      -1.003394       -27.3037
  67   2.0000      -1.001349       -27.2481
  68   2.0000      -0.999039       -27.1852
  69   2.0000      -0.993730       -27.0408
  70   2.0000      -0.959760       -26.1164
  71   2.0000      -0.957180       -26.0462
  72   2.0000      -0.937951       -25.5230
  73   2.0000      -0.929937       -25.3049
  74   2.0000      -0.922201       -25.0944
  75   2.0000      -0.921275       -25.0692
  76   2.0000      -0.908063       -24.7096
  77   2.0000      -0.906746       -24.6738
  78   2.0000      -0.898626       -24.4528
  79   2.0000      -0.887513       -24.1505
  80   2.0000      -0.876674       -23.8555
  81   2.0000      -0.868912       -23.6443
  82   2.0000      -0.867504       -23.6060
  83   2.0000      -0.858288       -23.3552
  84   2.0000      -0.848563       -23.0906
  85   2.0000      -0.829418       -22.5696
  86   2.0000      -0.824137       -22.4259
  87   2.0000      -0.823174       -22.3997
  88   2.0000      -0.804191       -21.8831
  89   2.0000      -0.795978       -21.6597
  90   2.0000      -0.785270       -21.3683
  91   2.0000      -0.782015       -21.2797
  92   2.0000      -0.764309       -20.7979
  93   2.0000      -0.753334       -20.4993
  94   2.0000      -0.751684       -20.4544
  95   2.0000      -0.732480       -19.9318
  96   2.0000      -0.722214       -19.6524
  97   2.0000      -0.715712       -19.4755
  98   2.0000      -0.713155       -19.4059
  99   2.0000      -0.704931       -19.1821
 100   2.0000      -0.697272       -18.9737
 101   2.0000      -0.692627       -18.8473
 102   2.0000      -0.686032       -18.6679
 103   2.0000      -0.678386       -18.4598
 104   2.0000      -0.671722       -18.2785
 105   2.0000      -0.669858       -18.2278
 106   2.0000      -0.657279       -17.8855
 107   2.0000      -0.645897       -17.5758
 108   2.0000      -0.645212       -17.5571
 109   2.0000      -0.638748       -17.3812
 110   2.0000      -0.620988       -16.8980
 111   2.0000      -0.618426       -16.8282
 112   2.0000      -0.617754       -16.8099
 113   2.0000      -0.609208       -16.5774
 114   2.0000      -0.595963       -16.2170
 115   2.0000      -0.595326       -16.1996
 116   2.0000      -0.583919       -15.8892
 117   2.0000      -0.576369       -15.6838
 118   2.0000      -0.573037       -15.5931
 119   2.0000      -0.566663       -15.4197
 120   2.0000      -0.555432       -15.1141
 121   2.0000      -0.555204       -15.1079
 122   2.0000      -0.553594       -15.0641
 123   2.0000      -0.553260       -15.0550
 124   2.0000      -0.544566       -14.8184
 125   2.0000      -0.541744       -14.7416
 126   2.0000      -0.540787       -14.7156
 127   2.0000      -0.536118       -14.5885
 128   2.0000      -0.534800       -14.5527
 129   2.0000      -0.531045       -14.4505
 130   2.0000      -0.529542       -14.4096
 131   2.0000      -0.526571       -14.3287
 132   2.0000      -0.519081       -14.1249
 133   2.0000      -0.518740       -14.1156
 134   2.0000      -0.517988       -14.0952
 135   2.0000      -0.516213       -14.0469
 136   2.0000      -0.515713       -14.0333
 137   2.0000      -0.513134       -13.9631
 138   2.0000      -0.506644       -13.7865
 139   2.0000      -0.505619       -13.7586
 140   2.0000      -0.503066       -13.6891
 141   2.0000      -0.501456       -13.6453
 142   2.0000      -0.497946       -13.5498
 143   2.0000      -0.487571       -13.2675
 144   2.0000      -0.479168       -13.0388
 145   2.0000      -0.477105       -12.9827
 146   2.0000      -0.476982       -12.9793
 147   2.0000      -0.476316       -12.9612
 148   2.0000      -0.474931       -12.9235
 149   2.0000      -0.470115       -12.7925
 150   2.0000      -0.464061       -12.6277
 151   2.0000      -0.459145       -12.4940
 152   2.0000      -0.457517       -12.4497
 153   2.0000      -0.456941       -12.4340
 154   2.0000      -0.456349       -12.4179
 155   2.0000      -0.455263       -12.3883
 156   2.0000      -0.452476       -12.3125
 157   2.0000      -0.451457       -12.2848
 158   2.0000      -0.451323       -12.2811
 159   2.0000      -0.450838       -12.2679
 160   2.0000      -0.449698       -12.2369
 161   2.0000      -0.447812       -12.1856
 162   2.0000      -0.446814       -12.1584
 163   2.0000      -0.443632       -12.0718
 164   2.0000      -0.442216       -12.0333
 165   2.0000      -0.439032       -11.9467
 166   2.0000      -0.436996       -11.8913
 167   2.0000      -0.434433       -11.8215
 168   2.0000      -0.430581       -11.7167
 169   2.0000      -0.428268       -11.6538
 170   2.0000      -0.426475       -11.6050
 171   2.0000      -0.423396       -11.5212
 172   2.0000      -0.420930       -11.4541
 173   2.0000      -0.419645       -11.4191
 174   2.0000      -0.415556       -11.3079
 175   2.0000      -0.409588       -11.1455
 176   2.0000      -0.400586       -10.9005
 177   2.0000      -0.392065       -10.6686
 178   2.0000      -0.375672       -10.2226
 179   2.0000      -0.370937       -10.0937
 180   2.0000      -0.353337        -9.6148
 181   2.0000      -0.346989        -9.4420
 182   2.0000      -0.345894        -9.4123
 183   2.0000      -0.339662        -9.2427
 184   2.0000      -0.339130        -9.2282
 185   2.0000      -0.337498        -9.1838
 186   2.0000      -0.326566        -8.8863
 187   2.0000      -0.322776        -8.7832
 188   2.0000      -0.322242        -8.7686
 189   2.0000      -0.319614        -8.6971
 190   2.0000      -0.309798        -8.4300
 191   2.0000      -0.307176        -8.3587
 192   2.0000      -0.298842        -8.1319
 193   2.0000      -0.247234        -6.7276
 194   0.0000      -0.114413        -3.1133
 195   0.0000      -0.099633        -2.7112
 196   0.0000      -0.079266        -2.1569
 197   0.0000      -0.064104        -1.7444
 198   0.0000      -0.059681        -1.6240

MULLIKEN ATOMIC CHARGES
-----------------------
   0 C :    0.275863
   1 C :   -0.301843
   2 C :   -0.201496
   3 N :    0.180678
   4 C :   -0.178212
   5 N :    0.155719
   6 C :    0.039458
   7 C :   -0.015286
   8 C :   -0.018179
   9 C :    0.007059
  10 C :   -0.037576
  11 C :   -0.065627
  12 C :    0.085390
  13 C :    0.138159
  14 O :   -0.137310
  15 C :   -0.114768
  16 C :   -0.080955
  17 C :    0.021075
  18 C :    0.040299
  19 C :   -0.061306
  20 C :    0.126317
  21 C :    0.011896
  22 N :   -0.254441
  23 C :    0.113155
  24 C :   -0.002187
  25 C :    0.175659
  26 O :   -0.210655
  27 C :   -0.092740
  28 C :    0.022032
  29 C :    0.124412
  30 O :   -0.161712
  31 N :   -0.270011
  32 C :    0.092831
  33 C :    0.004084
  34 C :    0.147130
  35 C :   -0.019911
  36 C :   -0.090887
  37 C :    0.068420
  38 C :   -0.004486
  39 C :    0.034999
  40 C :    0.069427
  41 C :   -0.113242
  42 C :   -0.082540
  43 C :    0.323009
  44 C :   -0.338491
  45 C :   -0.191094
  46 N :    0.166568
  47 C :   -0.181543
  48 N :    0.155359
  49 C :    0.044110
  50 C :   -0.030121
  51 C :    0.144467
  52 O :   -0.121658
  53 C :   -0.013807
  54 C :    0.009629
  55 C :   -0.039802
  56 C :   -0.072076
  57 C :    0.095126
  58 H :   -0.003368
  59 H :   -0.013643
  60 H :   -0.007047
  61 H :    0.022392
  62 H :    0.034536
  63 H :    0.044889
  64 H :    0.053206
  65 H :    0.043224
  66 H :    0.031732
  67 H :    0.027201
  68 H :    0.023394
  69 H :    0.023746
  70 H :    0.048812
  71 H :    0.028526
  72 H :    0.031678
  73 H :    0.026258
  74 H :    0.016826
  75 H :   -0.001938
  76 H :    0.074679
  77 H :    0.059351
  78 H :   -0.004222
  79 H :   -0.013462
  80 H :   -0.011175
  81 H :    0.015054
  82 H :    0.042157
  83 H :    0.038827
Sum of atomic charges:   -0.0000000

LOEWDIN ATOMIC CHARGES
----------------------
   0 C :    0.064377
   1 C :   -0.114888
   2 C :   -0.017299
   3 N :   -0.033832
   4 C :   -0.015786
   5 N :   -0.042322
   6 C :   -0.005473
   7 C :   -0.055855
   8 C :    0.019813
   9 C :   -0.009645
  10 C :    0.005068
  11 C :   -0.007698
  12 C :   -0.042823
  13 C :    0.082689
  14 O :   -0.135828
  15 C :   -0.055064
  16 C :    0.036352
  17 C :    0.002300
  18 C :   -0.000419
  19 C :   -0.011747
  20 C :    0.010863
  21 C :    0.040643
  22 N :    0.009930
  23 C :    0.039798
  24 C :   -0.060792
  25 C :    0.077514
  26 O :   -0.202106
  27 C :   -0.124029
  28 C :   -0.084444
  29 C :    0.085552
  30 O :   -0.168703
  31 N :   -0.004405
  32 C :    0.036013
  33 C :   -0.060943
  34 C :    0.087870
  35 C :   -0.021423
  36 C :    0.016125
  37 C :    0.022453
  38 C :   -0.027877
  39 C :    0.002446
  40 C :    0.011490
  41 C :    0.043051
  42 C :   -0.062554
  43 C :    0.072709
  44 C :   -0.127064
  45 C :   -0.019333
  46 N :   -0.040846
  47 C :   -0.017588
  48 N :   -0.044815
  49 C :   -0.011278
  50 C :   -0.051585
  51 C :    0.079630
  52 O :   -0.121496
  53 C :    0.019415
  54 C :   -0.007069
  55 C :    0.002632
  56 C :   -0.002932
  57 C :   -0.043095
  58 H :    0.040457
  59 H :    0.031998
  60 H :    0.037181
  61 H :    0.034033
  62 H :    0.039216
  63 H :    0.045218
  64 H :    0.063599
  65 H :    0.037302
  66 H :    0.030132
  67 H :    0.030226
  68 H :    0.031164
  69 H :    0.025520
  70 H :    0.040020
  71 H :    0.024795
  72 H :    0.033036
  73 H :    0.032120
  74 H :    0.022239
  75 H :    0.037746
  76 H :    0.057211
  77 H :    0.062502
  78 H :    0.040697
  79 H :    0.032237
  80 H :    0.037077
  81 H :    0.031469
  82 H :    0.044469
  83 H :    0.042658

  Mayer bond orders larger than 0.100000
B(  0-C ,  1-C ) :   1.6673 B(  0-C ,  6-C ) :   0.9992 B(  0-C , 15-C ) :   1.0266
B(  1-C ,  2-C ) :   1.1651 B(  1-C ,  4-C ) :   1.1282 B(  2-C ,  3-N ) :   2.9861
B(  4-C ,  5-N ) :   2.9821 B(  6-C ,  7-C ) :   1.3248 B(  6-C , 11-C ) :   1.3749
B(  7-C ,  8-C ) :   1.3811 B(  7-C , 13-C ) :   0.9348 B(  8-C ,  9-C ) :   1.3547
B(  8-C , 58-H ) :   1.0061 B(  9-C , 10-C ) :   1.3832 B(  9-C , 59-H ) :   0.9924
B( 10-C , 11-C ) :   1.3539 B( 10-C , 12-C ) :   1.0524 B( 11-C , 60-H ) :   0.9863
B( 12-C , 61-H ) :   0.9588 B( 12-C , 62-H ) :   0.9581 B( 12-C , 63-H ) :   0.9510
B( 13-C , 14-O ) :   2.2696 B( 13-C , 15-C ) :   0.9316 B( 15-C , 16-C ) :   1.7003
B( 16-C , 17-C ) :   0.9528 B( 16-C , 64-H ) :   0.9498 B( 17-C , 18-C ) :   2.0554
B( 17-C , 20-C ) :   0.1730 B( 18-C , 19-C ) :   0.8972 B( 19-C , 20-C ) :   2.0581
B( 20-C , 21-C ) :   0.8118 B( 21-C , 22-N ) :   1.1934 B( 21-C , 28-C ) :   1.4327
B( 22-N , 23-C ) :   0.9430 B( 22-N , 25-C ) :   1.0646 B( 23-C , 24-C ) :   1.1204
B( 23-C , 65-H ) :   0.9332 B( 23-C , 66-H ) :   0.9477 B( 24-C , 67-H ) :   0.9658
B( 24-C , 68-H ) :   0.9679 B( 24-C , 69-H ) :   0.9689 B( 25-C , 26-O ) :   2.0239
B( 25-C , 27-C ) :   0.9929 B( 26-O , 76-H ) :   0.1154 B( 27-C , 28-C ) :   1.2409
B( 27-C , 34-C ) :   1.3304 B( 28-C , 29-C ) :   0.9315 B( 29-C , 30-O ) :   2.1955
B( 29-C , 31-N ) :   1.0232 B( 31-N , 32-C ) :   0.9435 B( 31-N , 34-C ) :   1.1728
B( 32-C , 33-C ) :   1.1211 B( 32-C , 70-H ) :   0.9274 B( 32-C , 71-H ) :   0.9508
B( 33-C , 72-H ) :   0.9633 B( 33-C , 73-H ) :   0.9680 B( 33-C , 74-H ) :   0.9685
B( 34-C , 35-C ) :   1.1614 B( 35-C , 36-C ) :   1.6416 B( 35-C , 75-H ) :   0.9682
B( 36-C , 37-C ) :   1.0038 B( 36-C , 76-H ) :   0.9111 B( 37-C , 38-C ) :   2.1210
B( 37-C , 40-C ) :   0.1733 B( 38-C , 39-C ) :   0.9055 B( 39-C , 40-C ) :   2.0822
B( 40-C , 41-C ) :   1.0185 B( 41-C , 42-C ) :   1.6596 B( 41-C , 77-H ) :   0.9344
B( 42-C , 43-C ) :   1.0351 B( 42-C , 51-C ) :   0.9188 B( 43-C , 44-C ) :   1.6555
B( 43-C , 49-C ) :   0.9918 B( 44-C , 45-C ) :   1.1469 B( 44-C , 47-C ) :   1.1405
B( 45-C , 46-N ) :   2.9728 B( 47-C , 48-N ) :   2.9676 B( 49-C , 50-C ) :   1.3210
B( 49-C , 56-C ) :   1.3690 B( 50-C , 51-C ) :   0.9458 B( 50-C , 53-C ) :   1.3863
B( 51-C , 52-O ) :   2.2678 B( 53-C , 54-C ) :   1.3429 B( 53-C , 78-H ) :   1.0072
B( 54-C , 55-C ) :   1.3874 B( 54-C , 79-H ) :   0.9896 B( 55-C , 56-C ) :   1.3511
B( 55-C , 57-C ) :   1.0539 B( 56-C , 80-H ) :   0.9881 B( 57-C , 81-H ) :   0.9594
B( 57-C , 82-H ) :   0.9518 B( 57-C , 83-H ) :   0.9536

-----------------------------------------------------------------------------
         ABSORPTION SPECTRUM VIA TRANSITION ELECTRIC DIPOLE MOMENTS
-----------------------------------------------------------------------------
State   Energy  Wavelength   fosc         T2         TX        TY        TZ
        (cm-1)    (nm)                  (au**2)     (au)      (au)      (au)
-----------------------------------------------------------------------------
   0   14285.4    700.0   1.087703559  25.06653  -0.26425  -4.99939  -0.05327
   1   18860.6    530.2   0.011635171   0.20309  -0.23383   0.20476   0.32633
   2   21932.1    456.0   0.105284397   1.58037   1.00207  -0.69865  -0.29684
   3   23503.9    425.5   0.068202156   0.95528  -0.59859  -0.77139  -0.04399
   4   24846.1    402.5   0.469824689   6.22520   0.54170   2.42627   0.21204
   5   25223.8    396.5   0.052961233   0.69123   0.27135  -0.67556  -0.40153
   6   25768.8    388.1   0.053956468   0.68933   0.28897   0.77746   0.03716
   7   26967.8    370.8   0.119321618   1.45663   0.63697   0.95951  -0.36090
   8   27245.7    367.0   0.076103748   0.91957   0.76233   0.40239  -0.42013
   9   27423.6    364.6   0.074970858   0.90000  -0.34045  -0.86662   0.18186
  10   28153.6    355.2   0.283816808   3.31879   0.58128   1.72276   0.11397
  11   28588.4    349.8   0.292848315   3.37232   0.86327   1.61334   0.15560
  12   28822.2    347.0   0.065189799   0.74461   0.74853   0.42349   0.07047
  13   29238.1    342.0   0.044721257   0.50355  -0.08680   0.69479   0.11524
  14   29569.3    338.2   0.108352698   1.20635   0.47016   0.01857  -0.99245
  15   29947.5    333.9   0.045960883   0.50525   0.44859   0.50814   0.21403
  16   30563.9    327.2   0.037147370   0.40012   0.30789   0.48607  -0.26280
  17   30941.5    323.2   0.013008028   0.13840  -0.32136  -0.16348  -0.09167
  18   31070.4    321.8   0.055004182   0.58281  -0.52865  -0.50882   0.21080
  19   31908.5    313.4   0.144972629   1.49574  -0.01982  -1.13189  -0.46278
  20   32643.5    306.3   0.057312204   0.57800   0.09889  -0.46280  -0.59501
  21   32689.9    305.9   0.068485170   0.68970  -0.10293   0.67233   0.47653
  22   33012.4    302.9   0.001444767   0.01441   0.04305  -0.02532  -0.10915
  23   33727.1    296.5   0.019740893   0.19269  -0.26269  -0.35164   0.00594
  24   33827.4    295.6   0.228333455   2.22217  -0.96253   0.35997   1.07987
  25   34396.3    290.7   0.207441970   1.98546   0.63505   1.12913   0.55428
  26   35076.4    285.1   0.137236589   1.28804  -0.42516  -1.05168  -0.03526
  27   35737.3    279.8   0.005654371   0.05209  -0.17900   0.12385   0.06863
  28   36202.3    276.2   0.117070795   1.06460   0.29931   0.81459   0.55809
  29   36489.4    274.1   0.039714872   0.35831  -0.42012  -0.41731   0.08757
  30   37381.3    267.5   0.513554198   4.52280  -1.11916  -1.78094  -0.31393
  31   37416.8    267.3   0.420375094   3.69867   0.50532  -0.64989  -1.73809
  32   37915.2    263.7   0.125296499   1.08793  -0.40476  -0.89507   0.35063
  33   38174.5    262.0   0.047474323   0.40941  -0.37289  -0.51968  -0.01723
  34   38413.3    260.3   0.133091837   1.14063   0.52523   0.49193  -0.78916
  35   38482.0    259.9   0.020294031   0.17361   0.15353  -0.03129  -0.38609
  36   38792.3    257.8   0.016262611   0.13801   0.02864  -0.37034   0.00667
  37   39121.3    255.6   0.085871201   0.72262  -0.66143  -0.51735  -0.13220
  38   39499.4    253.2   0.001126201   0.00939   0.05372   0.01471   0.07927
  39   39915.0    250.5   0.049616117   0.40922  -0.08856  -0.59476  -0.21828
  40   40024.9    249.8   0.018172640   0.14947   0.31580  -0.20865  -0.07877
  41   40242.2    248.5   0.059607317   0.48763   0.48041  -0.33857  -0.37711

FINAL SINGLE POINT ENERGY     -2470.737777567143

DIPOLE MOMENT
-------------
                                X             Y             Z
Electronic contribution:    -18.93505      -1.06566       0.42115
Nuclear contribution   :     21.15933       1.56593      -0.78270
                        -----------------------------------------
Total Dipole Moment    :      2.22428       0.50027      -0.36156
                        -----------------------------------------
Magnitude (a.u.)       :      2.30833
Magnitude (Debye)      :      5.86732

Rotational constants in cm-1:     0.003918     0.000281     0.000270
Rotational constants in MHz :   117.445932     8.434621     8.104495

                             ****ORCA TERMINATED NORMALLY****
TOTAL RUN TIME: 0 days 0 hours 6 minutes 49 seconds 995 msec
