                         Program Version 4.2.0 -  RELEASE  -
|  1> # ORCA input file
|  2> # SCF done       -193.092597163034          0.000793180468
|  3> ! CAM-B3LYP def2-SVP def2/J RIJCOSX Grid4 TightSCF
|  4> %maxcore 5000
|  5> %tddft
|  6>     Mode sTDDFT
|  7>     Ethresh 5.0
|  8>     maxcore 5000
|  9> end
| 10>
| 11> %pal
| 12>   nprocs 6
| 13>   end
| 14> * xyz 0 1
| 15>    C       -0.73748        -4.07827        -1.67186
| 16>    C       -1.92586        -4.49679        -2.18314
| 17>    S       -1.91277        -6.19710        -2.48322
| 18>    C       -0.26872        -6.35233        -1.91000
| 19>   Cl        0.52233        -7.84873        -1.88483
| 20>    C        0.21286        -5.13970        -1.51488
| 21>    C        1.45402        -4.60271        -0.96045
| 22>    O        2.48904        -5.19942        -0.72420
| 23>    C        1.20562        -3.16327        -0.76570
| 24>    C       -0.13487        -2.83771        -1.22083
| 25>    C       -0.76171        -1.61808        -1.23781
| 26>    C       -2.08203        -1.48092        -1.71581
| 27>    N       -3.15440        -1.35247        -2.10211
| 28>    C       -0.20184        -0.40081        -0.80523
| 29>    N        0.21383         0.61485        -0.46544
| 30>    C        2.09699        -2.26907        -0.22734
| 31>    C        3.37536        -2.47134         0.30531
| 32>    S        4.22456        -3.98341         0.40885
| 33>    C        5.57571        -3.24977         1.18417
| 34>    C        5.38334        -1.87601         1.41515
| 35>    C        4.13555        -1.42353         0.89347
| 36>    C        3.77857        -0.07469         1.03087
| 37>    C        4.61923         0.78585         1.70601
| 38>    C        4.28024         2.15339         1.84342
| 39>    N        4.01022         3.26093         1.95077
| 40>    C        5.82198         0.31066         2.30197
| 41>    C        6.63393         1.19647         3.04930
| 42>    N        7.31239         1.89231         3.65524
| 43>    C        6.19415        -1.00861         2.16342
| 44>    C        6.67572        -4.07766         1.54756
| 45>    N        8.01054        -3.76526         1.44420
| 46>    C        8.59230        -2.73474         0.61243
| 47>    C        8.34602        -3.01363        -0.86765
| 48>    C        8.82325        -4.82974         1.91710
| 49>    O       10.03352        -4.80068         1.91298
| 50>    C        7.87704        -5.82766         2.35800
| 51>    C        6.57566        -5.35260         2.09216
| 52>    C        5.63446        -6.34262         2.57436
| 53>    O        4.42483        -6.36703         2.59899
| 54>    N        6.44890        -7.38855         3.06348
| 55>    C        5.83050        -8.54543         3.66557
| 56>    C        5.95218        -8.53634         5.18715
| 57>    C        7.78937        -7.08976         2.95087
| 58>    C        8.93653        -7.82954         3.30305
| 59>    C        9.06116        -9.11394         3.74682
| 60>    C       10.30525        -9.70313         4.03276
| 61>    S       11.78361        -8.80840         3.96344
| 62>    C       12.75186       -10.17419         4.41334
| 63>    C       11.93718       -11.30675         4.62550
| 64>    C       10.55292       -11.04409         4.40092
| 65>    C        9.61420       -12.07473         4.54351
| 66>    C       10.03970       -13.33632         4.89775
| 67>    C        9.09673       -14.38061         5.04434
| 68>    N        8.31243       -15.20715         5.16143
| 69>    C       11.42348       -13.59921         5.11718
| 70>    C       11.82938       -14.90622         5.47819
| 71>    N       12.16771       -15.95975         5.77304
| 72>    C       12.35806       -12.59725         4.97900
| 73>    C       14.13345       -10.09093         4.65736
| 74>    C       15.03560        -9.13179         4.29501
| 75>    C       16.29451        -9.01058         5.09724
| 76>    O       16.70847        -9.81082         5.90121
| 77>    C       16.83884        -7.70216         4.71973
| 78>    C       17.87521        -6.90019         5.09506
| 79>    S       17.87815        -5.42500         4.15659
| 80>    C       16.48651        -5.91593         3.25955
| 81>    C       16.04650        -7.13483         3.66708
| 82>    C       15.00657        -8.07955         3.30164
| 83>    C       14.34521        -8.07672         2.09968
| 84>    C       14.49663        -7.02121         1.17739
| 85>    N       14.61020        -6.16614         0.42141
| 86>    C       13.55852        -9.14745         1.63776
| 87>    N       12.94666       -10.03181         1.23424
| 88>   Cl       19.04749        -7.19301         6.28170
| 89>    H       -2.80923        -3.93144        -2.40482
| 90>    H        1.76161        -1.24215        -0.17963
| 91>    H        2.85370         0.31008         0.62802
| 92>    H        7.07925        -1.37343         2.66187
| 93>    H        9.66480        -2.75585         0.82417
| 94>    H        8.19773        -1.75244         0.87693
| 95>    H        8.75217        -3.98450        -1.14138
| 96>    H        8.83408        -2.25197        -1.46873
| 97>    H        7.28080        -3.00449        -1.09105
| 98>    H        6.25060        -9.45701         3.23225
| 99>    H        4.77378        -8.49009         3.38646
|100>    H        6.99284        -8.50850         5.50265
|101>    H        5.48344        -9.42604         5.59859
|102>    H        5.44759        -7.66243         5.59151
|103>    H        9.84892        -7.26340         3.15007
|104>    H        8.19829        -9.74752         3.87543
|105>    H        8.56328       -11.89637         4.37525
|106>    H       13.40329       -12.81260         5.13787
|107>    H       14.53993       -10.85232         5.31750
|108>    H       16.08726        -5.26633         2.50609
|109> *
|110>
|111>                          ****END OF INPUT****

CARTESIAN COORDINATES (ANGSTROEM)
---------------------------------
  C     -0.737480   -4.078270   -1.671860
  C     -1.925860   -4.496790   -2.183140
  S     -1.912770   -6.197100   -2.483220
  C     -0.268720   -6.352330   -1.910000
  Cl     0.522330   -7.848730   -1.884830
  C      0.212860   -5.139700   -1.514880
  C      1.454020   -4.602710   -0.960450
  O      2.489040   -5.199420   -0.724200
  C      1.205620   -3.163270   -0.765700
  C     -0.134870   -2.837710   -1.220830
  C     -0.761710   -1.618080   -1.237810
  C     -2.082030   -1.480920   -1.715810
  N     -3.154400   -1.352470   -2.102110
  C     -0.201840   -0.400810   -0.805230
  N      0.213830    0.614850   -0.465440
  C      2.096990   -2.269070   -0.227340
  C      3.375360   -2.471340    0.305310
  S      4.224560   -3.983410    0.408850
  C      5.575710   -3.249770    1.184170
  C      5.383340   -1.876010    1.415150
  C      4.135550   -1.423530    0.893470
  C      3.778570   -0.074690    1.030870
  C      4.619230    0.785850    1.706010
  C      4.280240    2.153390    1.843420
  N      4.010220    3.260930    1.950770
  C      5.821980    0.310660    2.301970
  C      6.633930    1.196470    3.049300
  N      7.312390    1.892310    3.655240
  C      6.194150   -1.008610    2.163420
  C      6.675720   -4.077660    1.547560
  N      8.010540   -3.765260    1.444200
  C      8.592300   -2.734740    0.612430
  C      8.346020   -3.013630   -0.867650
  C      8.823250   -4.829740    1.917100
  O     10.033520   -4.800680    1.912980
  C      7.877040   -5.827660    2.358000
  C      6.575660   -5.352600    2.092160
  C      5.634460   -6.342620    2.574360
  O      4.424830   -6.367030    2.598990
  N      6.448900   -7.388550    3.063480
  C      5.830500   -8.545430    3.665570
  C      5.952180   -8.536340    5.187150
  C      7.789370   -7.089760    2.950870
  C      8.936530   -7.829540    3.303050
  C      9.061160   -9.113940    3.746820
  C     10.305250   -9.703130    4.032760
  S     11.783610   -8.808400    3.963440
  C     12.751860  -10.174190    4.413340
  C     11.937180  -11.306750    4.625500
  C     10.552920  -11.044090    4.400920
  C      9.614200  -12.074730    4.543510
  C     10.039700  -13.336320    4.897750
  C      9.096730  -14.380610    5.044340
  N      8.312430  -15.207150    5.161430
  C     11.423480  -13.599210    5.117180
  C     11.829380  -14.906220    5.478190
  N     12.167710  -15.959750    5.773040
  C     12.358060  -12.597250    4.979000
  C     14.133450  -10.090930    4.657360
  C     15.035600   -9.131790    4.295010
  C     16.294510   -9.010580    5.097240
  O     16.708470   -9.810820    5.901210
  C     16.838840   -7.702160    4.719730
  C     17.875210   -6.900190    5.095060
  S     17.878150   -5.425000    4.156590
  C     16.486510   -5.915930    3.259550
  C     16.046500   -7.134830    3.667080
  C     15.006570   -8.079550    3.301640
  C     14.345210   -8.076720    2.099680
  C     14.496630   -7.021210    1.177390
  N     14.610200   -6.166140    0.421410
  C     13.558520   -9.147450    1.637760
  N     12.946660  -10.031810    1.234240
  Cl    19.047490   -7.193010    6.281700
  H     -2.809230   -3.931440   -2.404820
  H      1.761610   -1.242150   -0.179630
  H      2.853700    0.310080    0.628020
  H      7.079250   -1.373430    2.661870
  H      9.664800   -2.755850    0.824170
  H      8.197730   -1.752440    0.876930
  H      8.752170   -3.984500   -1.141380
  H      8.834080   -2.251970   -1.468730
  H      7.280800   -3.004490   -1.091050
  H      6.250600   -9.457010    3.232250
  H      4.773780   -8.490090    3.386460
  H      6.992840   -8.508500    5.502650
  H      5.483440   -9.426040    5.598590
  H      5.447590   -7.662430    5.591510
  H      9.848920   -7.263400    3.150070
  H      8.198290   -9.747520    3.875430
  H      8.563280  -11.896370    4.375250
  H     13.403290  -12.812600    5.137870
  H     14.539930  -10.852320    5.317500
  H     16.087260   -5.266330    2.506090

 Total Charge           Charge          ....    0
 Multiplicity           Mult            ....    1
 Number of Electrons    NEL             ....  544
 Basis Dimension        Dim             .... 1160

ORBITAL ENERGIES
----------------

  NO   OCC          E(Eh)            E(eV)
   0   2.0000    -101.627825     -2765.4337
   1   2.0000    -101.623335     -2765.3115
   2   2.0000     -89.012478     -2422.1527
   3   2.0000     -89.011933     -2422.1378
   4   2.0000     -89.003471     -2421.9076
   5   2.0000     -88.999310     -2421.7943
   6   2.0000     -19.241915      -523.5991
   7   2.0000     -19.228083      -523.2227
   8   2.0000     -19.218660      -522.9663
   9   2.0000     -19.215068      -522.8686
  10   2.0000     -14.481402      -394.0590
  11   2.0000     -14.479009      -393.9939
  12   2.0000     -14.436706      -392.8427
  13   2.0000     -14.431079      -392.6896
  14   2.0000     -14.429018      -392.6336
  15   2.0000     -14.427698      -392.5976
  16   2.0000     -14.425238      -392.5307
  17   2.0000     -14.425034      -392.5251
  18   2.0000     -14.423696      -392.4887
  19   2.0000     -14.421514      -392.4294
  20   2.0000     -10.401457      -283.0380
  21   2.0000     -10.400690      -283.0172
  22   2.0000     -10.394515      -282.8491
  23   2.0000     -10.387587      -282.6606
  24   2.0000     -10.384872      -282.5867
  25   2.0000     -10.383039      -282.5368
  26   2.0000     -10.374890      -282.3151
  27   2.0000     -10.369043      -282.1560
  28   2.0000     -10.361560      -281.9524
  29   2.0000     -10.359755      -281.9033
  30   2.0000     -10.359395      -281.8935
  31   2.0000     -10.359186      -281.8878
  32   2.0000     -10.358288      -281.8634
  33   2.0000     -10.353903      -281.7440
  34   2.0000     -10.352309      -281.7007
  35   2.0000     -10.351837      -281.6878
  36   2.0000     -10.351686      -281.6837
  37   2.0000     -10.350795      -281.6595
  38   2.0000     -10.350175      -281.6426
  39   2.0000     -10.349230      -281.6169
  40   2.0000     -10.345047      -281.5030
  41   2.0000     -10.340116      -281.3689
  42   2.0000     -10.340060      -281.3673
  43   2.0000     -10.339059      -281.3401
  44   2.0000     -10.337304      -281.2923
  45   2.0000     -10.335908      -281.2543
  46   2.0000     -10.335854      -281.2529
  47   2.0000     -10.335754      -281.2502
  48   2.0000     -10.335214      -281.2355
  49   2.0000     -10.334428      -281.2141
  50   2.0000     -10.334134      -281.2061
  51   2.0000     -10.333650      -281.1929
  52   2.0000     -10.333186      -281.1803
  53   2.0000     -10.332481      -281.1611
  54   2.0000     -10.331197      -281.1262
  55   2.0000     -10.330815      -281.1158
  56   2.0000     -10.329923      -281.0915
  57   2.0000     -10.329373      -281.0765
  58   2.0000     -10.328545      -281.0540
  59   2.0000     -10.326573      -281.0003
  60   2.0000     -10.323524      -280.9174
  61   2.0000     -10.323122      -280.9064
  62   2.0000     -10.322361      -280.8857
  63   2.0000     -10.322267      -280.8832
  64   2.0000     -10.321497      -280.8622
  65   2.0000     -10.320578      -280.8372
  66   2.0000     -10.318568      -280.7825
  67   2.0000     -10.318541      -280.7818
  68   2.0000     -10.311695      -280.5955
  69   2.0000     -10.307815      -280.4899
  70   2.0000     -10.294349      -280.1235
  71   2.0000     -10.293153      -280.0909
  72   2.0000     -10.284175      -279.8466
  73   2.0000     -10.279976      -279.7324
  74   2.0000      -9.582609      -260.7560
  75   2.0000      -9.578083      -260.6329
  76   2.0000      -8.106720      -220.5951
  77   2.0000      -8.103834      -220.5165
  78   2.0000      -8.099167      -220.3895
  79   2.0000      -8.095089      -220.2786
  80   2.0000      -7.353266      -200.0926
  81   2.0000      -7.348731      -199.9691
  82   2.0000      -7.342631      -199.8031
  83   2.0000      -7.342091      -199.7885
  84   2.0000      -7.338128      -199.6806
  85   2.0000      -7.337564      -199.6653
  86   2.0000      -6.075570      -165.3247
  87   2.0000      -6.072900      -165.2520
  88   2.0000      -6.071475      -165.2132
  89   2.0000      -6.069745      -165.1662
  90   2.0000      -6.068595      -165.1349
  91   2.0000      -6.068076      -165.1207
  92   2.0000      -6.067118      -165.0947
  93   2.0000      -6.064482      -165.0229
  94   2.0000      -6.063922      -165.0077
  95   2.0000      -6.061377      -164.9385
  96   2.0000      -6.059877      -164.8976
  97   2.0000      -6.057279      -164.8270
  98   2.0000      -1.160099       -31.5679
  99   2.0000      -1.158761       -31.5315
 100   2.0000      -1.152930       -31.3728
 101   2.0000      -1.145225       -31.1632
 102   2.0000      -1.091623       -29.7046
 103   2.0000      -1.081570       -29.4310
 104   2.0000      -1.050231       -28.5782
 105   2.0000      -1.049971       -28.5712
 106   2.0000      -1.044878       -28.4326
 107   2.0000      -1.043917       -28.4064
 108   2.0000      -1.030417       -28.0391
 109   2.0000      -1.026526       -27.9332
 110   2.0000      -1.019892       -27.7527
 111   2.0000      -1.017079       -27.6761
 112   2.0000      -1.011337       -27.5199
 113   2.0000      -1.007554       -27.4169
 114   2.0000      -1.005267       -27.3547
 115   2.0000      -1.002523       -27.2800
 116   2.0000      -1.000699       -27.2304
 117   2.0000      -0.996735       -27.1225
 118   2.0000      -0.983110       -26.7518
 119   2.0000      -0.979751       -26.6604
 120   2.0000      -0.966864       -26.3097
 121   2.0000      -0.964783       -26.2531
 122   2.0000      -0.955739       -26.0070
 123   2.0000      -0.951213       -25.8838
 124   2.0000      -0.938665       -25.5424
 125   2.0000      -0.922296       -25.0969
 126   2.0000      -0.919059       -25.0089
 127   2.0000      -0.914607       -24.8877
 128   2.0000      -0.901204       -24.5230
 129   2.0000      -0.899656       -24.4809
 130   2.0000      -0.898988       -24.4627
 131   2.0000      -0.892099       -24.2752
 132   2.0000      -0.889904       -24.2155
 133   2.0000      -0.868904       -23.6441
 134   2.0000      -0.859676       -23.3930
 135   2.0000      -0.844445       -22.9785
 136   2.0000      -0.843124       -22.9426
 137   2.0000      -0.840155       -22.8618
 138   2.0000      -0.830890       -22.6097
 139   2.0000      -0.819891       -22.3104
 140   2.0000      -0.796756       -21.6808
 141   2.0000      -0.789308       -21.4782
 142   2.0000      -0.782925       -21.3045
 143   2.0000      -0.782053       -21.2807
 144   2.0000      -0.780226       -21.2310
 145   2.0000      -0.769365       -20.9355
 146   2.0000      -0.765255       -20.8237
 147   2.0000      -0.751693       -20.4546
 148   2.0000      -0.744145       -20.2492
 149   2.0000      -0.736359       -20.0373
 150   2.0000      -0.733438       -19.9579
 151   2.0000      -0.723449       -19.6861
 152   2.0000      -0.710868       -19.3437
 153   2.0000      -0.704903       -19.1814
 154   2.0000      -0.701795       -19.0968
 155   2.0000      -0.698687       -19.0122
 156   2.0000      -0.689329       -18.7576
 157   2.0000      -0.686252       -18.6739
 158   2.0000      -0.683367       -18.5954
 159   2.0000      -0.676584       -18.4108
 160   2.0000      -0.674116       -18.3436
 161   2.0000      -0.655427       -17.8351
 162   2.0000      -0.652029       -17.7426
 163   2.0000      -0.645737       -17.5714
 164   2.0000      -0.636069       -17.3083
 165   2.0000      -0.632855       -17.2209
 166   2.0000      -0.630616       -17.1599
 167   2.0000      -0.627541       -17.0763
 168   2.0000      -0.626092       -17.0368
 169   2.0000      -0.619564       -16.8592
 170   2.0000      -0.618753       -16.8371
 171   2.0000      -0.611870       -16.6498
 172   2.0000      -0.602293       -16.3892
 173   2.0000      -0.600224       -16.3329
 174   2.0000      -0.593514       -16.1503
 175   2.0000      -0.593054       -16.1378
 176   2.0000      -0.585225       -15.9248
 177   2.0000      -0.572939       -15.5905
 178   2.0000      -0.572235       -15.5713
 179   2.0000      -0.568954       -15.4820
 180   2.0000      -0.567268       -15.4362
 181   2.0000      -0.566096       -15.4042
 182   2.0000      -0.560118       -15.2416
 183   2.0000      -0.559058       -15.2127
 184   2.0000      -0.557668       -15.1749
 185   2.0000      -0.556627       -15.1466
 186   2.0000      -0.553188       -15.0530
 187   2.0000      -0.551512       -15.0074
 188   2.0000      -0.549651       -14.9568
 189   2.0000      -0.548629       -14.9290
 190   2.0000      -0.542215       -14.7544
 191   2.0000      -0.540281       -14.7018
 192   2.0000      -0.539251       -14.6738
 193   2.0000      -0.533808       -14.5257
 194   2.0000      -0.533466       -14.5163
 195   2.0000      -0.530583       -14.4379
 196   2.0000      -0.530050       -14.4234
 197   2.0000      -0.525208       -14.2916
 198   2.0000      -0.523929       -14.2568
 199   2.0000      -0.521540       -14.1918
 200   2.0000      -0.518045       -14.0967
 201   2.0000      -0.515956       -14.0399
 202   2.0000      -0.513397       -13.9702
 203   2.0000      -0.511581       -13.9208
 204   2.0000      -0.510423       -13.8893
 205   2.0000      -0.508640       -13.8408
 206   2.0000      -0.504016       -13.7150
 207   2.0000      -0.499055       -13.5800
 208   2.0000      -0.495712       -13.4890
 209   2.0000      -0.494195       -13.4477
 210   2.0000      -0.492119       -13.3912
 211   2.0000      -0.489471       -13.3192
 212   2.0000      -0.486959       -13.2508
 213   2.0000      -0.485106       -13.2004
 214   2.0000      -0.478938       -13.0326
 215   2.0000      -0.474971       -12.9246
 216   2.0000      -0.473726       -12.8907
 217   2.0000      -0.469744       -12.7824
 218   2.0000      -0.468358       -12.7447
 219   2.0000      -0.465027       -12.6540
 220   2.0000      -0.464004       -12.6262
 221   2.0000      -0.463136       -12.6026
 222   2.0000      -0.460569       -12.5327
 223   2.0000      -0.460064       -12.5190
 224   2.0000      -0.459186       -12.4951
 225   2.0000      -0.457994       -12.4626
 226   2.0000      -0.457076       -12.4377
 227   2.0000      -0.456021       -12.4090
 228   2.0000      -0.454491       -12.3673
 229   2.0000      -0.452443       -12.3116
 230   2.0000      -0.451482       -12.2854
 231   2.0000      -0.450813       -12.2672
 232   2.0000      -0.449995       -12.2450
 233   2.0000      -0.449812       -12.2400
 234   2.0000      -0.446946       -12.1620
 235   2.0000      -0.446833       -12.1589
 236   2.0000      -0.444944       -12.1075
 237   2.0000      -0.443823       -12.0770
 238   2.0000      -0.441887       -12.0244
 239   2.0000      -0.441583       -12.0161
 240   2.0000      -0.437468       -11.9041
 241   2.0000      -0.435813       -11.8591
 242   2.0000      -0.432370       -11.7654
 243   2.0000      -0.431122       -11.7314
 244   2.0000      -0.429028       -11.6744
 245   2.0000      -0.427382       -11.6297
 246   2.0000      -0.426670       -11.6103
 247   2.0000      -0.426115       -11.5952
 248   2.0000      -0.422989       -11.5101
 249   2.0000      -0.421861       -11.4794
 250   2.0000      -0.418639       -11.3917
 251   2.0000      -0.413083       -11.2406
 252   2.0000      -0.410066       -11.1585
 253   2.0000      -0.404579       -11.0091
 254   2.0000      -0.399436       -10.8692
 255   2.0000      -0.375357       -10.2140
 256   2.0000      -0.374654       -10.1948
 257   2.0000      -0.367817       -10.0088
 258   2.0000      -0.366618        -9.9762
 259   2.0000      -0.358859        -9.7651
 260   2.0000      -0.357053        -9.7159
 261   2.0000      -0.353105        -9.6085
 262   2.0000      -0.351891        -9.5754
 263   2.0000      -0.350602        -9.5404
 264   2.0000      -0.345825        -9.4104
 265   2.0000      -0.344013        -9.3611
 266   2.0000      -0.341042        -9.2802
 267   2.0000      -0.326114        -8.8740
 268   2.0000      -0.321641        -8.7523
 269   2.0000      -0.306705        -8.3459
 270   2.0000      -0.293697        -7.9919
 271   2.0000      -0.258237        -7.0270
 272   0.0000      -0.144186        -3.9235
 273   0.0000      -0.120401        -3.2763
 274   0.0000      -0.089908        -2.4465
 275   0.0000      -0.074503        -2.0273
 276   0.0000      -0.067704        -1.8423

MULLIKEN ATOMIC CHARGES
-----------------------
   0 C :    0.026769
   1 C :   -0.128256
   2 S :    0.192067
   3 C :   -0.169199
   4 Cl:    0.004118
   5 C :    0.083574
   6 C :    0.172986
   7 O :   -0.170258
   8 C :   -0.107106
   9 C :    0.303508
  10 C :   -0.336680
  11 C :   -0.193882
  12 N :    0.163902
  13 C :   -0.173086
  14 N :    0.155174
  15 C :   -0.038909
  16 C :   -0.069729
  17 S :    0.334582
  18 C :   -0.219587
  19 C :    0.180238
  20 C :    0.106379
  21 C :   -0.060245
  22 C :   -0.059460
  23 C :   -0.173048
  24 N :    0.191458
  25 C :   -0.072126
  26 C :   -0.177995
  27 N :    0.187750
  28 C :   -0.069027
  29 C :    0.104165
  30 N :   -0.266421
  31 C :    0.090564
  32 C :   -0.001646
  33 C :    0.159673
  34 O :   -0.176289
  35 C :   -0.053017
  36 C :   -0.033048
  37 C :    0.147765
  38 O :   -0.177347
  39 N :   -0.275009
  40 C :    0.096514
  41 C :   -0.003788
  42 C :    0.145844
  43 C :   -0.046609
  44 C :    0.011065
  45 C :   -0.072106
  46 S :    0.213124
  47 C :   -0.107849
  48 C :    0.164880
  49 C :    0.127960
  50 C :   -0.053899
  51 C :   -0.062858
  52 C :   -0.180784
  53 N :    0.183838
  54 C :   -0.061704
  55 C :   -0.176957
  56 N :    0.190948
  57 C :   -0.044309
  58 C :    0.002699
  59 C :   -0.140412
  60 C :    0.134624
  61 O :   -0.130894
  62 C :    0.092644
  63 C :   -0.171723
  64 S :    0.188947
  65 C :   -0.126527
  66 C :    0.016948
  67 C :    0.248067
  68 C :   -0.305433
  69 C :   -0.175437
  70 N :    0.160257
  71 C :   -0.215209
  72 N :    0.174709
  73 Cl:    0.003716
  74 H :    0.056489
  75 H :   -0.011758
  76 H :    0.020545
  77 H :    0.017189
  78 H :    0.056166
  79 H :    0.023975
  80 H :    0.031390
  81 H :    0.034080
  82 H :    0.021489
  83 H :    0.026624
  84 H :    0.052226
  85 H :    0.020004
  86 H :    0.030001
  87 H :    0.031978
  88 H :    0.021311
  89 H :   -0.011996
  90 H :   -0.001606
  91 H :    0.010105
  92 H :    0.032127
  93 H :    0.056076
Sum of atomic charges:   -0.0000000

LOEWDIN ATOMIC CHARGES
----------------------
   0 C :   -0.058410
   1 C :   -0.144899
   2 S :    0.479697
   3 C :   -0.269672
   4 Cl:    0.196203
   5 C :   -0.116992
   6 C :    0.083989
   7 O :   -0.159413
   8 C :   -0.093632
   9 C :    0.075002
  10 C :   -0.138922
  11 C :   -0.016726
  12 N :   -0.046356
  13 C :   -0.017528
  14 N :   -0.049296
  15 C :    0.048325
  16 C :   -0.185495
  17 S :    0.637562
  18 C :   -0.176187
  19 C :   -0.041983
  20 C :   -0.017464
  21 C :    0.030465
  22 C :   -0.038601
  23 C :   -0.032286
  24 N :   -0.017841
  25 C :   -0.048032
  26 C :   -0.033365
  27 N :   -0.025246
  28 C :    0.027772
  29 C :    0.048050
  30 N :   -0.006051
  31 C :    0.034598
  32 C :   -0.059141
  33 C :    0.082263
  34 O :   -0.176472
  35 C :   -0.103403
  36 C :   -0.113211
  37 C :    0.080073
  38 O :   -0.179521
  39 N :   -0.007583
  40 C :    0.035046
  41 C :   -0.062565
  42 C :    0.072961
  43 C :   -0.018080
  44 C :   -0.024910
  45 C :   -0.139084
  46 S :    0.556173
  47 C :   -0.174954
  48 C :   -0.015594
  49 C :   -0.037639
  50 C :    0.034515
  51 C :   -0.047532
  52 C :   -0.033766
  53 N :   -0.026362
  54 C :   -0.038286
  55 C :   -0.032505
  56 N :   -0.020213
  57 C :    0.034341
  58 C :    0.036648
  59 C :   -0.087490
  60 C :    0.080273
  61 O :   -0.134088
  62 C :   -0.118499
  63 C :   -0.270942
  64 S :    0.476902
  65 C :   -0.150015
  66 C :   -0.056890
  67 C :    0.058069
  68 C :   -0.141147
  69 C :   -0.017990
  70 N :   -0.043720
  71 C :   -0.038069
  72 N :   -0.046816
  73 Cl:    0.195085
  74 H :    0.039121
  75 H :    0.048396
  76 H :    0.049038
  77 H :    0.046501
  78 H :    0.041257
  79 H :    0.022662
  80 H :    0.032194
  81 H :    0.036008
  82 H :    0.022462
  83 H :    0.020207
  84 H :    0.041562
  85 H :    0.020742
  86 H :    0.034036
  87 H :    0.034697
  88 H :    0.040713
  89 H :    0.035508
  90 H :    0.042957
  91 H :    0.048255
  92 H :    0.051602
  93 H :    0.038955

  Mayer bond orders larger than 0.100000
B(  0-C ,  1-C ) :   1.5509 B(  0-C ,  5-C ) :   1.2263 B(  0-C ,  9-C ) :   0.9917
B(  1-C ,  2-S ) :   1.1608 B(  1-C , 74-H ) :   0.9541 B(  2-S ,  3-C ) :   1.1507
B(  3-C ,  4-Cl) :   1.1337 B(  3-C ,  5-C ) :   1.4684 B(  5-C ,  6-C ) :   0.9748
B(  6-C ,  7-O ) :   2.1191 B(  6-C ,  8-C ) :   0.9745 B(  8-C ,  9-C ) :   1.0846
B(  8-C , 15-C ) :   1.5386 B(  9-C , 10-C ) :   1.6401 B( 10-C , 11-C ) :   1.1502
B( 10-C , 13-C ) :   1.1457 B( 11-C , 12-N ) :   2.9899 B( 13-C , 14-N ) :   2.9696
B( 15-C , 16-C ) :   1.2713 B( 15-C , 75-H ) :   0.9331 B( 16-C , 17-S ) :   1.1387
B( 16-C , 18-C ) :   0.1112 B( 16-C , 20-C ) :   1.2260 B( 17-S , 18-C ) :   1.2301
B( 18-C , 19-C ) :   1.2423 B( 18-C , 29-C ) :   1.0903 B( 19-C , 20-C ) :   1.2345
B( 19-C , 28-C ) :   1.2121 B( 20-C , 21-C ) :   1.2200 B( 21-C , 22-C ) :   1.5307
B( 21-C , 76-H ) :   0.9843 B( 22-C , 23-C ) :   1.0889 B( 22-C , 25-C ) :   1.2740
B( 23-C , 24-N ) :   3.0403 B( 25-C , 26-C ) :   1.0755 B( 25-C , 28-C ) :   1.5341
B( 26-C , 27-N ) :   3.0498 B( 28-C , 77-H ) :   0.9894 B( 29-C , 30-N ) :   1.2127
B( 29-C , 36-C ) :   1.3948 B( 30-N , 31-C ) :   0.9393 B( 30-N , 33-C ) :   1.0102
B( 31-C , 32-C ) :   1.1194 B( 31-C , 78-H ) :   0.9279 B( 31-C , 79-H ) :   0.9451
B( 32-C , 80-H ) :   0.9658 B( 32-C , 81-H ) :   0.9667 B( 32-C , 82-H ) :   0.9663
B( 33-C , 34-O ) :   2.1367 B( 33-C , 35-C ) :   0.9819 B( 35-C , 36-C ) :   1.2333
B( 35-C , 42-C ) :   1.3355 B( 36-C , 37-C ) :   0.9524 B( 37-C , 38-O ) :   2.1583
B( 37-C , 39-N ) :   1.0299 B( 39-N , 40-C ) :   0.9395 B( 39-N , 42-C ) :   1.1647
B( 40-C , 41-C ) :   1.1146 B( 40-C , 83-H ) :   0.9509 B( 40-C , 84-H ) :   0.9219
B( 41-C , 85-H ) :   0.9686 B( 41-C , 86-H ) :   0.9684 B( 41-C , 87-H ) :   0.9618
B( 42-C , 43-C ) :   1.2139 B( 43-C , 44-C ) :   1.5150 B( 43-C , 88-H ) :   0.9421
B( 44-C , 45-C ) :   1.2257 B( 44-C , 89-H ) :   0.9715 B( 45-C , 46-S ) :   1.1877
B( 45-C , 49-C ) :   1.2476 B( 46-S , 47-C ) :   1.1410 B( 47-C , 48-C ) :   1.2668
B( 47-C , 58-C ) :   1.1861 B( 48-C , 49-C ) :   1.2248 B( 48-C , 57-C ) :   1.2134
B( 49-C , 50-C ) :   1.2157 B( 50-C , 51-C ) :   1.5478 B( 50-C , 90-H ) :   0.9945
B( 51-C , 52-C ) :   1.0803 B( 51-C , 54-C ) :   1.2597 B( 52-C , 53-N ) :   3.0466
B( 54-C , 55-C ) :   1.0814 B( 54-C , 57-C ) :   1.5428 B( 55-C , 56-N ) :   3.0455
B( 57-C , 91-H ) :   0.9946 B( 58-C , 59-C ) :   1.6372 B( 58-C , 92-H ) :   0.9305
B( 59-C , 60-C ) :   0.9401 B( 59-C , 67-C ) :   1.0438 B( 60-C , 61-O ) :   2.2623
B( 60-C , 62-C ) :   0.9311 B( 62-C , 63-C ) :   1.4828 B( 62-C , 66-C ) :   1.2201
B( 63-C , 64-S ) :   1.1519 B( 63-C , 73-Cl) :   1.1330 B( 64-S , 65-C ) :   1.1574
B( 65-C , 66-C ) :   1.5551 B( 65-C , 93-H ) :   0.9570 B( 66-C , 67-C ) :   1.0113
B( 67-C , 68-C ) :   1.6549 B( 68-C , 69-C ) :   1.1314 B( 68-C , 71-C ) :   1.1587
B( 69-C , 70-N ) :   3.0014 B( 71-C , 72-N ) :   3.0162

-----------------------------------------------------------------------------
         ABSORPTION SPECTRUM VIA TRANSITION ELECTRIC DIPOLE MOMENTS
-----------------------------------------------------------------------------
State   Energy  Wavelength   fosc         T2         TX        TY        TZ
        (cm-1)    (nm)                  (au**2)     (au)      (au)      (au)
-----------------------------------------------------------------------------
   0   10170.8    983.2   0.866558006  28.04915  -4.24039   2.72447  -1.62649
   1   15558.4    642.7   0.065639394   1.38891  -0.05504   0.56207  -1.03439
   2   18192.9    549.7   0.098247100   1.77785   0.86448   0.63825  -0.78940
   3   20474.4    488.4   0.332766816   5.35063  -2.11931   0.32495  -0.86809
   4   21998.2    454.6   0.758637469  11.35333  -2.03691  -2.67093   0.26547
   5   23378.5    427.7   0.061034405   0.85948  -0.11946   0.81953  -0.41663
   6   24722.4    404.5   0.026109065   0.34768   0.36563  -0.10238   0.45112
   7   25222.8    396.5   0.116000899   1.51406   0.90318   0.07788   0.83203
   8   25512.8    392.0   0.014818996   0.19122   0.38264  -0.17432   0.12008
   9   25785.7    387.8   0.072109809   0.92064  -0.03499  -0.95476   0.08860
  10   26012.3    384.4   0.008621542   0.10911   0.02994  -0.13069   0.30189
  11   26126.5    382.8   0.025610356   0.32271  -0.30304   0.19238  -0.44030
  12   26191.5    381.8   0.002091866   0.02629  -0.08219   0.13099   0.04879
  13   26672.2    374.9   0.010093356   0.12458  -0.01649  -0.20461   0.28713
  14   27092.7    369.1   0.059820220   0.72690  -0.56167   0.64108   0.02107
  15   27616.6    362.1   0.079057265   0.94243  -0.61278  -0.63849  -0.39907
  16   28341.2    352.8   0.058559191   0.68022   0.45234  -0.39118   0.56797
  17   28723.4    348.1   0.016405519   0.18803  -0.08490  -0.41971  -0.06833
  18   28942.9    345.5   0.009904630   0.11266  -0.07541  -0.32696   0.00853
  19   29553.8    338.4   0.008113276   0.09038   0.02657   0.29531  -0.04965
  20   29735.5    336.3   0.205608938   2.27637   1.19916   0.86890   0.28876
  21   30975.2    322.8   0.290095307   3.08320  -0.08685  -1.71318   0.37508
  22   31193.6    320.6   0.060573742   0.63929   0.25949  -0.37917   0.65436
  23   32049.3    312.0   0.003497750   0.03593  -0.09543  -0.16345   0.01036
  24   32393.6    308.7   0.112554733   1.14388   0.11295  -1.06292   0.03647
  25   32620.3    306.6   0.007807171   0.07879  -0.07836  -0.13042  -0.23589
  26   32923.6    303.7   0.334878846   3.34854   0.98076   1.54454   0.03235
  27   33131.4    301.8   0.033873434   0.33659   0.06926   0.56895   0.08989
  28   33261.8    300.6   0.027854307   0.27569  -0.22113   0.06138  -0.47226
  29   33804.6    295.8   0.210245377   2.04751  -0.67588   1.25194  -0.15276
  30   34237.5    292.1   0.070309249   0.67606  -0.65883  -0.02928  -0.49106
  31   34524.4    289.6   0.014716612   0.14033   0.30516  -0.20717   0.06548
  32   34717.6    288.0   0.212532412   2.01535   0.28497   1.33831   0.37824
  33   34919.3    286.4   0.091752396   0.86502  -0.03342  -0.89404  -0.25417
  34   35172.8    284.3   0.032827744   0.30726  -0.12491   0.01248   0.53991
  35   35403.8    282.5   0.090965517   0.84587  -0.88482   0.11045  -0.22529
  36   35704.3    280.1   0.142767886   1.31639  -0.21162  -1.12339  -0.09807
  37   36161.1    276.5   0.281230541   2.56033   0.71739   1.31090   0.57202
  38   36199.6    276.2   0.149670116   1.36115  -0.83169   0.79023  -0.21210
  39   36471.7    274.2   0.043859959   0.39590   0.27813   0.54794   0.13529
  40   36871.3    271.2   0.026738408   0.23874   0.33797   0.32503   0.13738
  41   37001.0    270.3   0.064596158   0.57474  -0.41627   0.24919  -0.58255
  42   37104.8    269.5   0.037612900   0.33372   0.47393  -0.21755   0.24857
  43   37455.3    267.0   0.172690524   1.51786  -1.00107  -0.61726  -0.36701
  44   37636.7    265.7   0.135186125   1.18249   0.42386   0.80675   0.59328
  45   37924.7    263.7   0.123673924   1.07357  -0.21375   1.01267   0.04886
  46   38031.5    262.9   0.036295113   0.31418   0.31482  -0.46277   0.03017
  47   38505.2    259.7   0.008547996   0.07308  -0.24157   0.11505  -0.03858
  48   38731.8    258.2   0.069548803   0.59115   0.16150  -0.74119  -0.12531
  49   38885.5    257.2   0.013933302   0.11796  -0.21618  -0.13463  -0.23044
  50   39295.3    254.5   0.069098221   0.57890   0.63187  -0.07979   0.41626
  51   39335.4    254.2   0.039751882   0.33270   0.37921   0.14608   0.40934
  52   39848.4    251.0   0.031677293   0.26171   0.38639   0.27719   0.18862
  53   39898.5    250.6   0.106298132   0.87709  -0.92918   0.04004  -0.11007

FINAL SINGLE POINT ENERGY     -5426.762791933579

DIPOLE MOMENT
-------------
                                X             Y             Z
Electronic contribution:     10.98196      -5.18922      -4.59583
Nuclear contribution   :    -10.91977       4.42244       4.05598
                        -----------------------------------------
Total Dipole Moment    :      0.06219      -0.76678      -0.53985
                        -----------------------------------------
Magnitude (a.u.)       :      0.93981
Magnitude (Debye)      :      2.38882

Rotational constants in cm-1:     0.001172     0.000324     0.000269
Rotational constants in MHz :    35.129457     9.710935     8.054238

                             ****ORCA TERMINATED NORMALLY****
TOTAL RUN TIME: 0 days 0 hours 9 minutes 53 seconds 36 msec
