                         Program Version 4.2.0 -  RELEASE  -
|  1> # ORCA input file
|  2> # SCF done       -161.029329770615          0.000641797438
|  3> ! CAM-B3LYP def2-SVP def2/J RIJCOSX Grid4 TightSCF
|  4> %maxcore 5000
|  5> %tddft
|  6>     Mode sTDDFT
|  7>     Ethresh 5.0
|  8>     maxcore 5000
|  9> end
| 10>
| 11> %pal
| 12>   nprocs 6
| 13>   end
| 14> * xyz 0 1
| 15>    C        1.76655         1.10645         2.67726
| 16>    C        1.22140         2.05820         3.48268
| 17>    S        1.91264         2.00926         5.06267
| 18>    C        2.96142         0.67838         4.63394
| 19>   Cl        4.03595         0.00430         5.75573
| 20>    C        2.76233         0.31394         3.33529
| 21>    C        3.29910        -0.68835         2.41037
| 22>    O        4.17457        -1.49676         2.61715
| 23>    C        2.56514        -0.44871         1.12580
| 24>    C        1.62431         0.65037         1.31020
| 25>    C        0.73242         1.15998         0.40600
| 26>    C       -0.13020         2.22393         0.74667
| 27>    N       -0.83583         3.08961         1.00757
| 28>    C        0.55295         0.71008        -0.91744
| 29>    N        0.35536         0.38450        -2.00047
| 30>    C        2.84453        -1.07184        -0.04554
| 31>    C        3.73588        -2.18620        -0.21065
| 32>    C        3.75505        -3.31172         0.62978
| 33>    N        4.60317        -4.29601         0.46992
| 34>    C        5.44701        -4.24199        -0.56377
| 35>    N        5.45670        -3.25500        -1.46222
| 36>    C        4.63943        -2.25192        -1.28833
| 37>    C        6.39120        -5.30632        -0.79187
| 38>    N        6.63531        -6.35843         0.04945
| 39>    C        6.09287        -6.57909         1.36921
| 40>    C        6.72562        -5.65372         2.40374
| 41>    C        7.59454        -7.24121        -0.49166
| 42>    O        7.97658        -8.24936         0.06423
| 43>    C        7.93213        -6.65325        -1.76780
| 44>    C        7.18123        -5.46329        -1.92391
| 45>    C        7.50924        -4.90955        -3.22412
| 46>    O        7.14511        -3.92806        -3.82308
| 47>    N        8.44595        -5.83380        -3.77105
| 48>    C        9.06278        -5.53414        -5.04090
| 49>    C       10.51560        -5.09318        -4.88369
| 50>    C        8.69970        -6.86940        -2.90876
| 51>    C        9.53423        -8.01607        -3.05260
| 52>    C       10.19477        -8.46580        -4.14121
| 53>    C       10.98729        -9.66532        -4.17612
| 54>    C       11.42761       -10.18993        -5.40343
| 55>    N       12.14736       -11.28185        -5.50012
| 56>    C       12.51211       -11.87760        -4.36499
| 57>    N       12.15229       -11.47047        -3.14375
| 58>    C       11.39658       -10.40201        -3.05157
| 59>    C       13.29693       -13.08647        -4.48732
| 60>    C       14.13551       -13.62212        -3.57861
| 61>    C       14.55668       -15.05997        -3.72044
| 62>    O       14.43643       -15.74789        -4.70212
| 63>    C       15.07498       -15.41275        -2.39519
| 64>    C       15.52772       -16.53416        -1.76467
| 65>    S       15.99290       -16.16572        -0.12117
| 66>    C       15.58170       -14.50026        -0.30783
| 67>    C       15.10724       -14.24829        -1.55711
| 68>    C       14.65557       -13.10122        -2.32009
| 69>    C       14.89110       -11.79941        -1.98456
| 70>    C       15.47660       -11.45545        -0.74685
| 71>    N       15.94460       -11.16366         0.25879
| 72>    C       14.67765       -10.69072        -2.82911
| 73>    N       14.59137        -9.75031        -3.48112
| 74>   Cl       15.66036       -18.10205        -2.38970
| 75>    H        0.46655         2.78630         3.26119
| 76>    H        2.39752        -0.69920        -0.95926
| 77>    H        3.03380        -3.43125         1.42611
| 78>    H        4.71084        -1.44919        -2.01026
| 79>    H        6.32111        -7.62087         1.61184
| 80>    H        5.01259        -6.42948         1.34287
| 81>    H        7.80736        -5.76480         2.39820
| 82>    H        6.35458        -5.90718         3.39239
| 83>    H        6.47236        -4.61781         2.19521
| 84>    H        8.47560        -4.71041        -5.45951
| 85>    H        8.97318        -6.39205        -5.71255
| 86>    H       10.56336        -4.19606        -4.27141
| 87>    H       10.93803        -4.86869        -5.85914
| 88>    H       11.11762        -5.86566        -4.41054
| 89>    H        9.57267        -8.59535        -2.13892
| 90>    H       10.13670        -7.94509        -5.08523
| 91>    H       11.16833        -9.71040        -6.34001
| 92>    H       11.12533       -10.11013        -2.04571
| 93>    H       13.13667       -13.64759        -5.40079
| 94>    H       15.70951       -13.82949         0.51846
| 95> *
| 96>
| 97>                          ****END OF INPUT****

CARTESIAN COORDINATES (ANGSTROEM)
---------------------------------
  C      1.766550    1.106450    2.677260
  C      1.221400    2.058200    3.482680
  S      1.912640    2.009260    5.062670
  C      2.961420    0.678380    4.633940
  Cl     4.035950    0.004300    5.755730
  C      2.762330    0.313940    3.335290
  C      3.299100   -0.688350    2.410370
  O      4.174570   -1.496760    2.617150
  C      2.565140   -0.448710    1.125800
  C      1.624310    0.650370    1.310200
  C      0.732420    1.159980    0.406000
  C     -0.130200    2.223930    0.746670
  N     -0.835830    3.089610    1.007570
  C      0.552950    0.710080   -0.917440
  N      0.355360    0.384500   -2.000470
  C      2.844530   -1.071840   -0.045540
  C      3.735880   -2.186200   -0.210650
  C      3.755050   -3.311720    0.629780
  N      4.603170   -4.296010    0.469920
  C      5.447010   -4.241990   -0.563770
  N      5.456700   -3.255000   -1.462220
  C      4.639430   -2.251920   -1.288330
  C      6.391200   -5.306320   -0.791870
  N      6.635310   -6.358430    0.049450
  C      6.092870   -6.579090    1.369210
  C      6.725620   -5.653720    2.403740
  C      7.594540   -7.241210   -0.491660
  O      7.976580   -8.249360    0.064230
  C      7.932130   -6.653250   -1.767800
  C      7.181230   -5.463290   -1.923910
  C      7.509240   -4.909550   -3.224120
  O      7.145110   -3.928060   -3.823080
  N      8.445950   -5.833800   -3.771050
  C      9.062780   -5.534140   -5.040900
  C     10.515600   -5.093180   -4.883690
  C      8.699700   -6.869400   -2.908760
  C      9.534230   -8.016070   -3.052600
  C     10.194770   -8.465800   -4.141210
  C     10.987290   -9.665320   -4.176120
  C     11.427610  -10.189930   -5.403430
  N     12.147360  -11.281850   -5.500120
  C     12.512110  -11.877600   -4.364990
  N     12.152290  -11.470470   -3.143750
  C     11.396580  -10.402010   -3.051570
  C     13.296930  -13.086470   -4.487320
  C     14.135510  -13.622120   -3.578610
  C     14.556680  -15.059970   -3.720440
  O     14.436430  -15.747890   -4.702120
  C     15.074980  -15.412750   -2.395190
  C     15.527720  -16.534160   -1.764670
  S     15.992900  -16.165720   -0.121170
  C     15.581700  -14.500260   -0.307830
  C     15.107240  -14.248290   -1.557110
  C     14.655570  -13.101220   -2.320090
  C     14.891100  -11.799410   -1.984560
  C     15.476600  -11.455450   -0.746850
  N     15.944600  -11.163660    0.258790
  C     14.677650  -10.690720   -2.829110
  N     14.591370   -9.750310   -3.481120
  Cl    15.660360  -18.102050   -2.389700
  H      0.466550    2.786300    3.261190
  H      2.397520   -0.699200   -0.959260
  H      3.033800   -3.431250    1.426110
  H      4.710840   -1.449190   -2.010260
  H      6.321110   -7.620870    1.611840
  H      5.012590   -6.429480    1.342870
  H      7.807360   -5.764800    2.398200
  H      6.354580   -5.907180    3.392390
  H      6.472360   -4.617810    2.195210
  H      8.475600   -4.710410   -5.459510
  H      8.973180   -6.392050   -5.712550
  H     10.563360   -4.196060   -4.271410
  H     10.938030   -4.868690   -5.859140
  H     11.117620   -5.865660   -4.410540
  H      9.572670   -8.595350   -2.138920
  H     10.136700   -7.945090   -5.085230
  H     11.168330   -9.710400   -6.340010
  H     11.125330  -10.110130   -2.045710
  H     13.136670  -13.647590   -5.400790
  H     15.709510  -13.829490    0.518460

 Total Charge           Charge          ....    0
 Multiplicity           Mult            ....    1
 Number of Electrons    NEL             ....  440
 Basis Dimension        Dim             ....  956

ORBITAL ENERGIES
----------------

  NO   OCC          E(Eh)            E(eV)
   0   2.0000    -101.626508     -2765.3979
   1   2.0000    -101.617545     -2765.1540
   2   2.0000     -89.003815     -2421.9169
   3   2.0000     -88.993934     -2421.6480
   4   2.0000     -19.234377      -523.3940
   5   2.0000     -19.221727      -523.0498
   6   2.0000     -19.192379      -522.2512
   7   2.0000     -19.188658      -522.1499
   8   2.0000     -14.455691      -393.3593
   9   2.0000     -14.452081      -393.2611
  10   2.0000     -14.431779      -392.7087
  11   2.0000     -14.430090      -392.6627
  12   2.0000     -14.428641      -392.6233
  13   2.0000     -14.428520      -392.6200
  14   2.0000     -14.426246      -392.5581
  15   2.0000     -14.422611      -392.4592
  16   2.0000     -14.421079      -392.4175
  17   2.0000     -14.418766      -392.3546
  18   2.0000     -10.391564      -282.7688
  19   2.0000     -10.386672      -282.6357
  20   2.0000     -10.377726      -282.3923
  21   2.0000     -10.376753      -282.3658
  22   2.0000     -10.376713      -282.3647
  23   2.0000     -10.372544      -282.2513
  24   2.0000     -10.366463      -282.0858
  25   2.0000     -10.360507      -281.9237
  26   2.0000     -10.359900      -281.9072
  27   2.0000     -10.359548      -281.8976
  28   2.0000     -10.349396      -281.6214
  29   2.0000     -10.347567      -281.5716
  30   2.0000     -10.347528      -281.5706
  31   2.0000     -10.342487      -281.4334
  32   2.0000     -10.339539      -281.3532
  33   2.0000     -10.339303      -281.3467
  34   2.0000     -10.338471      -281.3241
  35   2.0000     -10.336485      -281.2701
  36   2.0000     -10.335939      -281.2552
  37   2.0000     -10.335224      -281.2357
  38   2.0000     -10.333351      -281.1848
  39   2.0000     -10.331674      -281.1391
  40   2.0000     -10.328839      -281.0620
  41   2.0000     -10.323346      -280.9125
  42   2.0000     -10.322543      -280.8907
  43   2.0000     -10.322474      -280.8888
  44   2.0000     -10.321717      -280.8682
  45   2.0000     -10.314341      -280.6675
  46   2.0000     -10.313369      -280.6410
  47   2.0000     -10.312825      -280.6262
  48   2.0000     -10.310656      -280.5672
  49   2.0000     -10.310241      -280.5559
  50   2.0000     -10.310096      -280.5520
  51   2.0000     -10.309182      -280.5271
  52   2.0000     -10.309081      -280.5244
  53   2.0000     -10.303457      -280.3713
  54   2.0000     -10.301021      -280.3050
  55   2.0000     -10.291039      -280.0334
  56   2.0000     -10.269718      -279.4532
  57   2.0000     -10.264661      -279.3156
  58   2.0000     -10.264645      -279.3152
  59   2.0000     -10.249827      -278.9120
  60   2.0000      -9.581246      -260.7190
  61   2.0000      -9.572355      -260.4770
  62   2.0000      -8.099565      -220.4004
  63   2.0000      -8.089575      -220.1285
  64   2.0000      -7.351905      -200.0555
  65   2.0000      -7.343005      -199.8133
  66   2.0000      -7.341289      -199.7666
  67   2.0000      -7.340715      -199.7510
  68   2.0000      -7.332380      -199.5242
  69   2.0000      -7.331840      -199.5095
  70   2.0000      -6.068931      -165.1440
  71   2.0000      -6.064286      -165.0176
  72   2.0000      -6.061851      -164.9513
  73   2.0000      -6.058932      -164.8719
  74   2.0000      -6.054341      -164.7470
  75   2.0000      -6.051882      -164.6801
  76   2.0000      -1.151560       -31.3355
  77   2.0000      -1.139124       -30.9971
  78   2.0000      -1.134864       -30.8812
  79   2.0000      -1.126727       -30.6598
  80   2.0000      -1.103873       -30.0379
  81   2.0000      -1.100567       -29.9479
  82   2.0000      -1.063810       -28.9477
  83   2.0000      -1.053144       -28.6575
  84   2.0000      -1.048747       -28.5379
  85   2.0000      -1.038328       -28.2544
  86   2.0000      -1.028059       -27.9749
  87   2.0000      -1.017344       -27.6833
  88   2.0000      -1.009235       -27.4627
  89   2.0000      -0.999657       -27.2021
  90   2.0000      -0.999174       -27.1889
  91   2.0000      -0.996610       -27.1191
  92   2.0000      -0.993168       -27.0255
  93   2.0000      -0.988355       -26.8945
  94   2.0000      -0.966721       -26.3058
  95   2.0000      -0.955758       -26.0075
  96   2.0000      -0.941939       -25.6315
  97   2.0000      -0.940011       -25.5790
  98   2.0000      -0.928102       -25.2549
  99   2.0000      -0.915916       -24.9233
 100   2.0000      -0.909420       -24.7466
 101   2.0000      -0.897256       -24.4156
 102   2.0000      -0.882314       -24.0090
 103   2.0000      -0.870501       -23.6875
 104   2.0000      -0.861322       -23.4378
 105   2.0000      -0.843387       -22.9497
 106   2.0000      -0.832892       -22.6641
 107   2.0000      -0.830697       -22.6044
 108   2.0000      -0.817317       -22.2403
 109   2.0000      -0.814913       -22.1749
 110   2.0000      -0.788417       -21.4539
 111   2.0000      -0.776312       -21.1245
 112   2.0000      -0.767572       -20.8867
 113   2.0000      -0.764440       -20.8015
 114   2.0000      -0.763412       -20.7735
 115   2.0000      -0.756887       -20.5960
 116   2.0000      -0.756016       -20.5722
 117   2.0000      -0.740909       -20.1612
 118   2.0000      -0.732170       -19.9234
 119   2.0000      -0.708132       -19.2693
 120   2.0000      -0.699331       -19.0298
 121   2.0000      -0.693662       -18.8755
 122   2.0000      -0.689248       -18.7554
 123   2.0000      -0.687643       -18.7117
 124   2.0000      -0.681715       -18.5504
 125   2.0000      -0.676214       -18.4007
 126   2.0000      -0.670651       -18.2493
 127   2.0000      -0.665668       -18.1137
 128   2.0000      -0.652596       -17.7580
 129   2.0000      -0.642566       -17.4851
 130   2.0000      -0.634922       -17.2771
 131   2.0000      -0.630775       -17.1643
 132   2.0000      -0.627515       -17.0756
 133   2.0000      -0.621997       -16.9254
 134   2.0000      -0.618011       -16.8169
 135   2.0000      -0.611203       -16.6317
 136   2.0000      -0.597955       -16.2712
 137   2.0000      -0.587984       -15.9998
 138   2.0000      -0.585645       -15.9362
 139   2.0000      -0.579650       -15.7731
 140   2.0000      -0.573941       -15.6177
 141   2.0000      -0.566316       -15.4103
 142   2.0000      -0.564144       -15.3511
 143   2.0000      -0.559605       -15.2276
 144   2.0000      -0.556613       -15.1462
 145   2.0000      -0.549627       -14.9561
 146   2.0000      -0.548348       -14.9213
 147   2.0000      -0.546894       -14.8817
 148   2.0000      -0.545562       -14.8455
 149   2.0000      -0.542942       -14.7742
 150   2.0000      -0.539223       -14.6730
 151   2.0000      -0.535398       -14.5689
 152   2.0000      -0.532857       -14.4998
 153   2.0000      -0.529622       -14.4118
 154   2.0000      -0.527549       -14.3553
 155   2.0000      -0.524911       -14.2836
 156   2.0000      -0.523273       -14.2390
 157   2.0000      -0.522148       -14.2084
 158   2.0000      -0.516868       -14.0647
 159   2.0000      -0.515542       -14.0286
 160   2.0000      -0.514501       -14.0003
 161   2.0000      -0.511341       -13.9143
 162   2.0000      -0.505826       -13.7642
 163   2.0000      -0.504771       -13.7355
 164   2.0000      -0.503199       -13.6927
 165   2.0000      -0.500204       -13.6112
 166   2.0000      -0.499255       -13.5854
 167   2.0000      -0.497172       -13.5287
 168   2.0000      -0.496186       -13.5019
 169   2.0000      -0.487800       -13.2737
 170   2.0000      -0.483745       -13.1634
 171   2.0000      -0.474919       -12.9232
 172   2.0000      -0.473234       -12.8773
 173   2.0000      -0.465988       -12.6802
 174   2.0000      -0.462792       -12.5932
 175   2.0000      -0.461126       -12.5479
 176   2.0000      -0.457383       -12.4460
 177   2.0000      -0.457260       -12.4427
 178   2.0000      -0.456551       -12.4234
 179   2.0000      -0.455228       -12.3874
 180   2.0000      -0.454781       -12.3752
 181   2.0000      -0.454496       -12.3675
 182   2.0000      -0.448695       -12.2096
 183   2.0000      -0.446984       -12.1631
 184   2.0000      -0.444214       -12.0877
 185   2.0000      -0.443480       -12.0677
 186   2.0000      -0.442331       -12.0364
 187   2.0000      -0.441247       -12.0070
 188   2.0000      -0.435075       -11.8390
 189   2.0000      -0.434161       -11.8141
 190   2.0000      -0.432538       -11.7700
 191   2.0000      -0.427985       -11.6461
 192   2.0000      -0.426603       -11.6085
 193   2.0000      -0.421986       -11.4828
 194   2.0000      -0.419970       -11.4280
 195   2.0000      -0.414899       -11.2900
 196   2.0000      -0.412295       -11.2191
 197   2.0000      -0.412275       -11.2186
 198   2.0000      -0.407416       -11.0864
 199   2.0000      -0.404578       -11.0091
 200   2.0000      -0.403429       -10.9779
 201   2.0000      -0.396028       -10.7765
 202   2.0000      -0.394299       -10.7294
 203   2.0000      -0.392625       -10.6839
 204   2.0000      -0.384121       -10.4525
 205   2.0000      -0.360834        -9.8188
 206   2.0000      -0.359425        -9.7804
 207   2.0000      -0.348879        -9.4935
 208   2.0000      -0.346986        -9.4420
 209   2.0000      -0.345682        -9.4065
 210   2.0000      -0.337361        -9.1801
 211   2.0000      -0.337131        -9.1738
 212   2.0000      -0.332851        -9.0573
 213   2.0000      -0.332644        -9.0517
 214   2.0000      -0.324587        -8.8325
 215   2.0000      -0.320146        -8.7116
 216   2.0000      -0.316280        -8.6064
 217   2.0000      -0.314389        -8.5550
 218   2.0000      -0.305157        -8.3037
 219   2.0000      -0.246985        -6.7208
 220   0.0000      -0.113842        -3.0978
 221   0.0000      -0.099559        -2.7091
 222   0.0000      -0.077737        -2.1153
 223   0.0000      -0.061739        -1.6800
 224   0.0000      -0.048341        -1.3154

MULLIKEN ATOMIC CHARGES
-----------------------
   0 C :    0.028454
   1 C :   -0.126988
   2 S :    0.196397
   3 C :   -0.168524
   4 Cl:    0.006054
   5 C :    0.076774
   6 C :    0.140611
   7 O :   -0.124479
   8 C :   -0.096673
   9 C :    0.289469
  10 C :   -0.317921
  11 C :   -0.194303
  12 N :    0.159969
  13 C :   -0.189523
  14 N :    0.169153
  15 C :   -0.013688
  16 C :   -0.019445
  17 C :    0.115771
  18 N :   -0.058433
  19 C :   -0.190447
  20 N :    0.006205
  21 C :    0.055133
  22 C :    0.206850
  23 N :   -0.261293
  24 C :    0.133210
  25 C :   -0.004002
  26 C :    0.152127
  27 O :   -0.193832
  28 C :   -0.051349
  29 C :   -0.049947
  30 C :    0.148970
  31 O :   -0.150297
  32 N :   -0.276300
  33 C :    0.095841
  34 C :   -0.003309
  35 C :    0.116912
  36 C :   -0.013873
  37 C :    0.022304
  38 C :    0.036768
  39 C :    0.034601
  40 N :   -0.034966
  41 C :   -0.087451
  42 N :   -0.070087
  43 C :    0.050205
  44 C :    0.095304
  45 C :   -0.109939
  46 C :    0.132537
  47 O :   -0.117085
  48 C :    0.082207
  49 C :   -0.168828
  50 S :    0.187494
  51 C :   -0.127066
  52 C :    0.017124
  53 C :    0.292869
  54 C :   -0.296950
  55 C :   -0.198583
  56 N :    0.159899
  57 C :   -0.175503
  58 N :    0.158399
  59 Cl:    0.001252
  60 H :    0.056919
  61 H :    0.042136
  62 H :    0.009607
  63 H :    0.019579
  64 H :    0.032921
  65 H :    0.029516
  66 H :    0.018463
  67 H :    0.016715
  68 H :    0.022828
  69 H :    0.047307
  70 H :    0.024090
  71 H :    0.028503
  72 H :    0.023491
  73 H :    0.026140
  74 H :    0.014068
  75 H :   -0.014028
  76 H :    0.008906
  77 H :    0.024169
  78 H :    0.035816
  79 H :    0.055075
Sum of atomic charges:   -0.0000000

LOEWDIN ATOMIC CHARGES
----------------------
   0 C :   -0.059773
   1 C :   -0.146968
   2 S :    0.484249
   3 C :   -0.270106
   4 Cl:    0.197085
   5 C :   -0.118685
   6 C :    0.081677
   7 O :   -0.124032
   8 C :   -0.077524
   9 C :    0.072468
  10 C :   -0.128547
  11 C :   -0.015330
  12 N :   -0.044240
  13 C :   -0.024360
  14 N :   -0.037622
  15 C :    0.074667
  16 C :   -0.082863
  17 C :    0.086042
  18 N :   -0.067438
  19 C :    0.028305
  20 N :   -0.044104
  21 C :    0.070469
  22 C :    0.056495
  23 N :    0.008360
  24 C :    0.034134
  25 C :   -0.061142
  26 C :    0.076759
  27 O :   -0.197019
  28 C :   -0.115004
  29 C :   -0.095768
  30 C :    0.088140
  31 O :   -0.157715
  32 N :   -0.010577
  33 C :    0.033092
  34 C :   -0.062812
  35 C :    0.081316
  36 C :   -0.017230
  37 C :    0.001343
  38 C :   -0.057219
  39 C :    0.058752
  40 N :   -0.061137
  41 C :    0.015258
  42 N :   -0.064528
  43 C :    0.070327
  44 C :    0.063141
  45 C :   -0.055448
  46 C :    0.082020
  47 O :   -0.123067
  48 C :   -0.119358
  49 C :   -0.271992
  50 S :    0.477673
  51 C :   -0.152094
  52 C :   -0.055099
  53 C :    0.073656
  54 C :   -0.115896
  55 C :   -0.015254
  56 N :   -0.047057
  57 C :   -0.016931
  58 N :   -0.051287
  59 Cl:    0.193453
  60 H :    0.038957
  61 H :    0.050302
  62 H :    0.028162
  63 H :    0.033099
  64 H :    0.030576
  65 H :    0.023460
  66 H :    0.026004
  67 H :    0.029461
  68 H :    0.021767
  69 H :    0.038218
  70 H :    0.018471
  71 H :    0.032844
  72 H :    0.031488
  73 H :    0.023201
  74 H :    0.046090
  75 H :    0.031869
  76 H :    0.027876
  77 H :    0.031960
  78 H :    0.054362
  79 H :    0.038178

  Mayer bond orders larger than 0.100000
B(  0-C ,  1-C ) :   1.5410 B(  0-C ,  5-C ) :   1.2196 B(  0-C ,  9-C ) :   1.0043
B(  1-C ,  2-S ) :   1.1657 B(  1-C , 60-H ) :   0.9548 B(  2-S ,  3-C ) :   1.1565
B(  3-C ,  4-Cl) :   1.1343 B(  3-C ,  5-C ) :   1.4689 B(  5-C ,  6-C ) :   0.9545
B(  6-C ,  7-O ) :   2.2433 B(  6-C ,  8-C ) :   0.9203 B(  8-C ,  9-C ) :   1.0441
B(  8-C , 15-C ) :   1.7254 B(  9-C , 10-C ) :   1.6745 B( 10-C , 11-C ) :   1.1421
B( 10-C , 13-C ) :   1.1351 B( 11-C , 12-N ) :   2.9918 B( 13-C , 14-N ) :   2.9770
B( 15-C , 16-C ) :   1.0381 B( 15-C , 61-H ) :   0.9419 B( 16-C , 17-C ) :   1.3086
B( 16-C , 21-C ) :   1.2870 B( 17-C , 18-N ) :   1.5649 B( 17-C , 62-H ) :   0.9829
B( 18-N , 19-C ) :   1.4956 B( 19-C , 20-N ) :   1.6414 B( 19-C , 22-C ) :   0.9850
B( 20-N , 21-C ) :   1.5875 B( 20-N , 22-C ) :  -0.1286 B( 21-C , 63-H ) :   0.9930
B( 22-C , 23-N ) :   1.2117 B( 22-C , 29-C ) :   1.3902 B( 23-N , 24-C ) :   0.9343
B( 23-N , 26-C ) :   1.0404 B( 24-C , 25-C ) :   1.1229 B( 24-C , 64-H ) :   0.9271
B( 24-C , 65-H ) :   0.9350 B( 25-C , 66-H ) :   0.9659 B( 25-C , 67-H ) :   0.9682
B( 25-C , 68-H ) :   0.9674 B( 26-C , 27-O ) :   2.1206 B( 26-C , 28-C ) :   0.9770
B( 28-C , 29-C ) :   1.2336 B( 28-C , 35-C ) :   1.3434 B( 29-C , 30-C ) :   0.9467
B( 30-C , 31-O ) :   2.1826 B( 30-C , 32-N ) :   1.0063 B( 32-N , 33-C ) :   0.9424
B( 32-N , 35-C ) :   1.1881 B( 33-C , 34-C ) :   1.1165 B( 33-C , 69-H ) :   0.9207
B( 33-C , 70-H ) :   0.9504 B( 34-C , 71-H ) :   0.9619 B( 34-C , 72-H ) :   0.9674
B( 34-C , 73-H ) :   0.9687 B( 35-C , 36-C ) :   1.1719 B( 36-C , 37-C ) :   1.6173
B( 36-C , 74-H ) :   0.9405 B( 37-C , 38-C ) :   1.0748 B( 37-C , 75-H ) :   0.9836
B( 38-C , 39-C ) :   1.2975 B( 38-C , 43-C ) :   1.2993 B( 39-C , 40-N ) :   1.5722
B( 39-C , 76-H ) :   0.9874 B( 40-N , 41-C ) :   1.5087 B( 41-C , 42-N ) :   1.4700
B( 41-C , 44-C ) :   0.9998 B( 42-N , 43-C ) :   1.5670 B( 43-C , 77-H ) :   0.9830
B( 44-C , 45-C ) :   1.7420 B( 44-C , 78-H ) :   0.9469 B( 45-C , 46-C ) :   0.9205
B( 45-C , 53-C ) :   1.0070 B( 46-C , 47-O ) :   2.2954 B( 46-C , 48-C ) :   0.9255
B( 48-C , 49-C ) :   1.4800 B( 48-C , 52-C ) :   1.2217 B( 49-C , 50-S ) :   1.1558
B( 49-C , 59-Cl) :   1.1299 B( 50-S , 51-C ) :   1.1593 B( 51-C , 52-C ) :   1.5492
B( 51-C , 79-H ) :   0.9557 B( 52-C , 53-C ) :   1.0129 B( 53-C , 54-C ) :   1.7030
B( 54-C , 55-C ) :   1.1379 B( 54-C , 57-C ) :   1.1521 B( 55-C , 56-N ) :   3.0016
B( 57-C , 58-N ) :   2.9813

-----------------------------------------------------------------------------
         ABSORPTION SPECTRUM VIA TRANSITION ELECTRIC DIPOLE MOMENTS
-----------------------------------------------------------------------------
State   Energy  Wavelength   fosc         T2         TX        TY        TZ
        (cm-1)    (nm)                  (au**2)     (au)      (au)      (au)
-----------------------------------------------------------------------------
   0   14538.5    687.8   0.852749054  19.30977  -2.92993   2.59363   1.99960
   1   19321.4    517.6   0.027189976   0.46328   0.63433  -0.23630  -0.07126
   2   23155.6    431.9   0.120490496   1.71306  -0.03011   0.50153  -1.20856
   3   24042.1    415.9   0.068384952   0.93641   0.62635  -0.72831  -0.11687
   4   25260.6    395.9   0.005332399   0.06950  -0.22440   0.13828   0.00454
   5   25819.3    387.3   0.017473343   0.22280   0.46299   0.07323   0.05543
   6   26475.1    377.7   0.111233679   1.38316  -0.71312   0.92553   0.13426
   7   27206.0    367.6   0.008833413   0.10689   0.04760  -0.25676  -0.19672
   8   27345.2    365.7   0.117369001   1.41302   1.04785  -0.53245   0.17753
   9   27659.7    361.5   0.028713804   0.34176   0.53015  -0.24578  -0.01719
  10   28839.8    346.7   0.176573594   2.01562   0.96776  -1.03869  -0.01323
  11   29058.4    344.1   0.039271078   0.44491  -0.41632   0.21585  -0.47435
  12   29488.2    339.1   0.168156181   1.87733  -0.93000   0.98908  -0.18482
  13   30298.0    330.1   0.002698307   0.02932   0.09141  -0.13373  -0.05548
  14   31033.2    322.2   0.236426136   2.50810  -0.78484   1.36234  -0.19012
  15   32049.7    312.0   0.296293857   3.04350  -0.89893   1.47779   0.22710
  16   32273.9    309.8   0.097193483   0.99143  -0.50879   0.77860   0.35546
  17   32513.3    307.6   0.059518348   0.60265  -0.28470  -0.55231  -0.46535
  18   32899.9    304.0   0.155644495   1.55745   0.38815  -1.18365  -0.07594
  19   32954.5    303.4   0.023659607   0.23636  -0.15819   0.45956   0.01170
  20   33457.8    298.9   0.053656941   0.52796   0.33231  -0.64236   0.07001
  21   33586.3    297.7   0.065764018   0.64462   0.42459  -0.52050  -0.43979
  22   33935.4    294.7   0.008992923   0.08724  -0.21558   0.19562  -0.04998
  23   35122.0    284.7   0.206252954   1.93329   0.24494  -0.39669  -1.30993
  24   35186.6    284.2   0.010504415   0.09828   0.00255   0.15107   0.27469
  25   35441.7    282.2   0.199278910   1.85107  -0.46854   1.12028   0.61362
  26   35876.6    278.7   0.085507757   0.78464  -0.03478   0.87179   0.15302
  27   36315.6    275.4   0.104554304   0.94782   0.16947   0.24564   0.92669
  28   36798.5    271.7   0.134420788   1.20257  -0.10679  -0.31750  -1.04420
  29   36887.8    271.1   0.190222323   1.69767  -0.64690   0.25521  -1.10184
  30   37065.3    269.8   0.124857425   1.10898   0.26871  -0.99428   0.21949
  31   37423.8    267.2   0.191838410   1.68758   0.44276   0.07312   1.21909
  32   37461.2    266.9   0.350463283   3.07990   0.36255  -1.71007   0.15528
  33   38064.5    262.7   0.086713703   0.74997   0.08634   0.85264  -0.12456
  34   38480.1    259.9   0.080591297   0.68949  -0.26035  -0.40525  -0.67637
  35   39059.7    256.0   0.025862532   0.21798   0.28118  -0.26015   0.26691
  36   39243.2    254.8   0.349594988   2.93276   0.86864  -1.20444   0.85296
  37   39533.0    253.0   0.000776423   0.00647  -0.05273  -0.01872  -0.05774
  38   39594.2    252.6   0.036121368   0.30034  -0.10756  -0.50082  -0.19480
  39   39686.8    252.0   0.020279209   0.16822   0.14682   0.05877  -0.37843
  40   39860.9    250.9   0.015230742   0.12579  -0.22370  -0.15258   0.22906

FINAL SINGLE POINT ENERGY     -4173.998059201250

DIPOLE MOMENT
-------------
                                X             Y             Z
Electronic contribution:      7.05253     -16.84703      25.04797
Nuclear contribution   :     -7.66802      16.99030     -23.44290
                        -----------------------------------------
Total Dipole Moment    :     -0.61550       0.14327       1.60507
                        -----------------------------------------
Magnitude (a.u.)       :      1.72500
Magnitude (Debye)      :      4.38459

Rotational constants in cm-1:     0.003045     0.000283     0.000267
Rotational constants in MHz :    91.285072     8.472414     8.003509

                             ****ORCA TERMINATED NORMALLY****
TOTAL RUN TIME: 0 days 0 hours 6 minutes 26 seconds 870 msec
