                         Program Version 4.2.0 -  RELEASE  -
|  1> # ORCA input file
|  2> # SCF done       -182.639130159462          0.000766640226
|  3> ! CAM-B3LYP def2-SVP def2/J RIJCOSX Grid4 TightSCF
|  4> %maxcore 5000
|  5> %tddft
|  6>     Mode sTDDFT
|  7>     Ethresh 5.0
|  8>     maxcore 5000
|  9> end
| 10>
| 11> %pal
| 12>   nprocs 6
| 13>   end
| 14> * xyz 0 1
| 15>    C        3.63396         3.11163         2.05694
| 16>    C        2.69347         3.89482         2.65130
| 17>    S        2.54005         3.51968         4.32867
| 18>    C        3.77525         2.28661         4.23487
| 19>   Cl        4.22831         1.38125         5.58810
| 20>    C        4.25382         2.18965         2.96188
| 21>    C        5.26054         1.39459         2.25868
| 22>    O        6.07621         0.63926         2.72881
| 23>    C        5.16589         1.84813         0.82739
| 24>    C        4.19724         2.92739         0.73467
| 25>    C        3.81213         3.61791        -0.38421
| 26>    C        2.82683         4.62652        -0.32116
| 27>    N        2.03500         5.45561        -0.28494
| 28>    C        4.31583         3.42049        -1.68559
| 29>    N        4.67577         3.30304        -2.76901
| 30>    C        5.97745         1.39880        -0.16976
| 31>    C        6.72897         0.19886        -0.10888
| 32>    C        6.47252        -1.00399         0.51766
| 33>    C        7.50535        -1.90696         0.14955
| 34>    C        8.44472        -1.16860        -0.68384
| 35>    O        9.51910        -1.44057        -1.13047
| 36>    O        7.86305         0.08738        -0.85222
| 37>    C        7.25924        -3.10200         0.79678
| 38>    O        6.12481        -2.98782         1.55097
| 39>    C        5.55488        -1.72808         1.38609
| 40>    O        4.50478        -1.44173         1.88064
| 41>    C        8.00657        -4.29524         0.72515
| 42>    N        8.07477        -5.28793         1.67028
| 43>    C        7.44274        -5.27196         2.96989
| 44>    C        8.13981        -4.30723         3.92430
| 45>    C        8.98625        -6.28940         1.29914
| 46>    O        9.24459        -7.25511         1.98961
| 47>    C        9.45565        -5.88543        -0.01235
| 48>    C        8.83312        -4.66241        -0.33645
| 49>    C        9.16624        -4.33134        -1.71070
| 50>    O        8.76079        -3.48178        -2.46434
| 51>    N       10.07453        -5.34968        -2.08955
| 52>    C       10.73069        -5.30888        -3.37485
| 53>    C       12.14866        -4.75655        -3.25882
| 54>    C       10.24432        -6.27859        -1.10396
| 55>    C       11.07162        -7.42639        -1.24250
| 56>    C       11.20890        -8.32871        -0.24189
| 57>    C       12.00715        -9.52536        -0.25486
| 58>    C       12.12407       -10.25137         0.93913
| 59>    C       12.90227       -11.38108         1.01107
| 60>    F       12.96651       -12.03783         2.18556
| 61>    C       13.59274       -11.89322        -0.09651
| 62>    C       13.42789       -11.21000        -1.30409
| 63>    C       12.68317       -10.05522        -1.36715
| 64>    F       12.59706        -9.45028        -2.56549
| 65>    C       14.37682       -13.10509        -0.05743
| 66>    C       15.15585       -13.60621         0.92417
| 67>    C       15.57251       -15.05069         0.83501
| 68>    O       15.46780       -15.75985        -0.13423
| 69>    C       16.06459       -15.36902         2.17634
| 70>    C       16.50433       -16.47317         2.84600
| 71>    S       16.93417       -16.06023         4.48834
| 72>    C       16.52743       -14.40093         4.24864
| 73>    C       16.07983       -14.18276         2.98311
| 74>    C       15.64247       -13.05654         2.18268
| 75>    C       15.85015       -11.74456         2.50465
| 76>    C       16.39130       -11.37131         3.75431
| 77>    N       16.82571       -11.05552         4.76729
| 78>    C       15.62807       -10.66024         1.63470
| 79>    N       15.48706        -9.75257         0.94667
| 80>   Cl       16.65118       -18.05672         2.26590
| 81>    H        2.08159         4.66578         2.22651
| 82>    H        6.08889         1.96317        -1.08721
| 83>    H        7.51514        -6.29345         3.35259
| 84>    H        6.39197        -4.99958         2.85318
| 85>    H        9.18878        -4.57395         4.03175
| 86>    H        7.66573        -4.35517         4.90029
| 87>    H        8.07318        -3.28481         3.55966
| 88>    H       10.12792        -4.64250        -3.99781
| 89>    H       10.73212        -6.30672        -3.82114
| 90>    H       12.12056        -3.75760        -2.83081
| 91>    H       12.60097        -4.70042        -4.24475
| 92>    H       12.76577        -5.39057        -2.62615
| 93>    H       11.58927        -7.54304        -2.18065
| 94>    H       10.68048        -8.15056         0.68624
| 95>    H       11.60760        -9.91035         1.82303
| 96>    H       13.92028       -11.56558        -2.19579
| 97>    H       14.29137       -13.73802        -0.93653
| 98>    H       16.63599       -13.70837         5.05960
| 99> *
|100>
|101>                          ****END OF INPUT****

CARTESIAN COORDINATES (ANGSTROEM)
---------------------------------
  C      3.633960    3.111630    2.056940
  C      2.693470    3.894820    2.651300
  S      2.540050    3.519680    4.328670
  C      3.775250    2.286610    4.234870
  Cl     4.228310    1.381250    5.588100
  C      4.253820    2.189650    2.961880
  C      5.260540    1.394590    2.258680
  O      6.076210    0.639260    2.728810
  C      5.165890    1.848130    0.827390
  C      4.197240    2.927390    0.734670
  C      3.812130    3.617910   -0.384210
  C      2.826830    4.626520   -0.321160
  N      2.035000    5.455610   -0.284940
  C      4.315830    3.420490   -1.685590
  N      4.675770    3.303040   -2.769010
  C      5.977450    1.398800   -0.169760
  C      6.728970    0.198860   -0.108880
  C      6.472520   -1.003990    0.517660
  C      7.505350   -1.906960    0.149550
  C      8.444720   -1.168600   -0.683840
  O      9.519100   -1.440570   -1.130470
  O      7.863050    0.087380   -0.852220
  C      7.259240   -3.102000    0.796780
  O      6.124810   -2.987820    1.550970
  C      5.554880   -1.728080    1.386090
  O      4.504780   -1.441730    1.880640
  C      8.006570   -4.295240    0.725150
  N      8.074770   -5.287930    1.670280
  C      7.442740   -5.271960    2.969890
  C      8.139810   -4.307230    3.924300
  C      8.986250   -6.289400    1.299140
  O      9.244590   -7.255110    1.989610
  C      9.455650   -5.885430   -0.012350
  C      8.833120   -4.662410   -0.336450
  C      9.166240   -4.331340   -1.710700
  O      8.760790   -3.481780   -2.464340
  N     10.074530   -5.349680   -2.089550
  C     10.730690   -5.308880   -3.374850
  C     12.148660   -4.756550   -3.258820
  C     10.244320   -6.278590   -1.103960
  C     11.071620   -7.426390   -1.242500
  C     11.208900   -8.328710   -0.241890
  C     12.007150   -9.525360   -0.254860
  C     12.124070  -10.251370    0.939130
  C     12.902270  -11.381080    1.011070
  F     12.966510  -12.037830    2.185560
  C     13.592740  -11.893220   -0.096510
  C     13.427890  -11.210000   -1.304090
  C     12.683170  -10.055220   -1.367150
  F     12.597060   -9.450280   -2.565490
  C     14.376820  -13.105090   -0.057430
  C     15.155850  -13.606210    0.924170
  C     15.572510  -15.050690    0.835010
  O     15.467800  -15.759850   -0.134230
  C     16.064590  -15.369020    2.176340
  C     16.504330  -16.473170    2.846000
  S     16.934170  -16.060230    4.488340
  C     16.527430  -14.400930    4.248640
  C     16.079830  -14.182760    2.983110
  C     15.642470  -13.056540    2.182680
  C     15.850150  -11.744560    2.504650
  C     16.391300  -11.371310    3.754310
  N     16.825710  -11.055520    4.767290
  C     15.628070  -10.660240    1.634700
  N     15.487060   -9.752570    0.946670
  Cl    16.651180  -18.056720    2.265900
  H      2.081590    4.665780    2.226510
  H      6.088890    1.963170   -1.087210
  H      7.515140   -6.293450    3.352590
  H      6.391970   -4.999580    2.853180
  H      9.188780   -4.573950    4.031750
  H      7.665730   -4.355170    4.900290
  H      8.073180   -3.284810    3.559660
  H     10.127920   -4.642500   -3.997810
  H     10.732120   -6.306720   -3.821140
  H     12.120560   -3.757600   -2.830810
  H     12.600970   -4.700420   -4.244750
  H     12.765770   -5.390570   -2.626150
  H     11.589270   -7.543040   -2.180650
  H     10.680480   -8.150560    0.686240
  H     11.607600   -9.910350    1.823030
  H     13.920280  -11.565580   -2.195790
  H     14.291370  -13.738020   -0.936530
  H     16.635990  -13.708370    5.059600

 Total Charge           Charge          ....    0
 Multiplicity           Mult            ....    1
 Number of Electrons    NEL             ....  484
 Basis Dimension        Dim             .... 1030

ORBITAL ENERGIES
----------------

  NO   OCC          E(Eh)            E(eV)
   0   2.0000    -101.623983     -2765.3292
   1   2.0000    -101.617551     -2765.1541
   2   2.0000     -89.000698     -2421.8321
   3   2.0000     -88.995086     -2421.6794
   4   2.0000     -24.808845      -675.0830
   5   2.0000     -24.808714      -675.0794
   6   2.0000     -19.301135      -525.2106
   7   2.0000     -19.289115      -524.8835
   8   2.0000     -19.230896      -523.2993
   9   2.0000     -19.229842      -523.2706
  10   2.0000     -19.223917      -523.1094
  11   2.0000     -19.216384      -522.9044
  12   2.0000     -19.213633      -522.8295
  13   2.0000     -19.197355      -522.3866
  14   2.0000     -14.470176      -393.7535
  15   2.0000     -14.463562      -393.5735
  16   2.0000     -14.429524      -392.6473
  17   2.0000     -14.428530      -392.6203
  18   2.0000     -14.424198      -392.5024
  19   2.0000     -14.423630      -392.4869
  20   2.0000     -10.427795      -283.7547
  21   2.0000     -10.414409      -283.3905
  22   2.0000     -10.391350      -282.7630
  23   2.0000     -10.388515      -282.6859
  24   2.0000     -10.385436      -282.6021
  25   2.0000     -10.385294      -282.5982
  26   2.0000     -10.384640      -282.5804
  27   2.0000     -10.383793      -282.5574
  28   2.0000     -10.383792      -282.5573
  29   2.0000     -10.381342      -282.4907
  30   2.0000     -10.378507      -282.4135
  31   2.0000     -10.377225      -282.3787
  32   2.0000     -10.363229      -281.9978
  33   2.0000     -10.358584      -281.8714
  34   2.0000     -10.356826      -281.8236
  35   2.0000     -10.353899      -281.7439
  36   2.0000     -10.352596      -281.7084
  37   2.0000     -10.351577      -281.6807
  38   2.0000     -10.335980      -281.2563
  39   2.0000     -10.332133      -281.1516
  40   2.0000     -10.331068      -281.1226
  41   2.0000     -10.330313      -281.1021
  42   2.0000     -10.329905      -281.0910
  43   2.0000     -10.329669      -281.0846
  44   2.0000     -10.325537      -280.9721
  45   2.0000     -10.325284      -280.9653
  46   2.0000     -10.325196      -280.9629
  47   2.0000     -10.321266      -280.8559
  48   2.0000     -10.320824      -280.8439
  49   2.0000     -10.320525      -280.8358
  50   2.0000     -10.318556      -280.7822
  51   2.0000     -10.317208      -280.7455
  52   2.0000     -10.314974      -280.6847
  53   2.0000     -10.313122      -280.6343
  54   2.0000     -10.310736      -280.5694
  55   2.0000     -10.308128      -280.4984
  56   2.0000     -10.307970      -280.4941
  57   2.0000     -10.306552      -280.4555
  58   2.0000     -10.306518      -280.4546
  59   2.0000     -10.304415      -280.3974
  60   2.0000     -10.301781      -280.3257
  61   2.0000     -10.301199      -280.3099
  62   2.0000     -10.290448      -280.0173
  63   2.0000     -10.276952      -279.6501
  64   2.0000     -10.268208      -279.4121
  65   2.0000     -10.262352      -279.2528
  66   2.0000      -9.578790      -260.6521
  67   2.0000      -9.572393      -260.4781
  68   2.0000      -8.096340      -220.3126
  69   2.0000      -8.090742      -220.1603
  70   2.0000      -7.349447      -199.9886
  71   2.0000      -7.343039      -199.8143
  72   2.0000      -7.338811      -199.6992
  73   2.0000      -7.338266      -199.6844
  74   2.0000      -7.332418      -199.5252
  75   2.0000      -7.331867      -199.5103
  76   2.0000      -6.065694      -165.0559
  77   2.0000      -6.061094      -164.9308
  78   2.0000      -6.060109      -164.9040
  79   2.0000      -6.058652      -164.8643
  80   2.0000      -6.055499      -164.7785
  81   2.0000      -6.053037      -164.7115
  82   2.0000      -1.323419       -36.0121
  83   2.0000      -1.322580       -35.9892
  84   2.0000      -1.232277       -33.5320
  85   2.0000      -1.218915       -33.1684
  86   2.0000      -1.151999       -31.3475
  87   2.0000      -1.147165       -31.2159
  88   2.0000      -1.145120       -31.1603
  89   2.0000      -1.138828       -30.9891
  90   2.0000      -1.135323       -30.8937
  91   2.0000      -1.125587       -30.6288
  92   2.0000      -1.081146       -29.4195
  93   2.0000      -1.067912       -29.0594
  94   2.0000      -1.045775       -28.4570
  95   2.0000      -1.040282       -28.3075
  96   2.0000      -1.026084       -27.9212
  97   2.0000      -1.020712       -27.7750
  98   2.0000      -1.008221       -27.4351
  99   2.0000      -1.002149       -27.2699
 100   2.0000      -0.998593       -27.1731
 101   2.0000      -0.993979       -27.0475
 102   2.0000      -0.991539       -26.9811
 103   2.0000      -0.962351       -26.1869
 104   2.0000      -0.958576       -26.0842
 105   2.0000      -0.948687       -25.8151
 106   2.0000      -0.941776       -25.6270
 107   2.0000      -0.936219       -25.4758
 108   2.0000      -0.919742       -25.0275
 109   2.0000      -0.916541       -24.9404
 110   2.0000      -0.905441       -24.6383
 111   2.0000      -0.902574       -24.5603
 112   2.0000      -0.889940       -24.2165
 113   2.0000      -0.874303       -23.7910
 114   2.0000      -0.869938       -23.6722
 115   2.0000      -0.858320       -23.3561
 116   2.0000      -0.840322       -22.8663
 117   2.0000      -0.835605       -22.7380
 118   2.0000      -0.832007       -22.6401
 119   2.0000      -0.828146       -22.5350
 120   2.0000      -0.816726       -22.2242
 121   2.0000      -0.789725       -21.4895
 122   2.0000      -0.778922       -21.1956
 123   2.0000      -0.768674       -20.9167
 124   2.0000      -0.767200       -20.8766
 125   2.0000      -0.760661       -20.6986
 126   2.0000      -0.760522       -20.6949
 127   2.0000      -0.756090       -20.5742
 128   2.0000      -0.744254       -20.2522
 129   2.0000      -0.737852       -20.0780
 130   2.0000      -0.728952       -19.8358
 131   2.0000      -0.715933       -19.4815
 132   2.0000      -0.706586       -19.2272
 133   2.0000      -0.703079       -19.1318
 134   2.0000      -0.697610       -18.9829
 135   2.0000      -0.684654       -18.6304
 136   2.0000      -0.683695       -18.6043
 137   2.0000      -0.679298       -18.4846
 138   2.0000      -0.673680       -18.3318
 139   2.0000      -0.667167       -18.1545
 140   2.0000      -0.665183       -18.1005
 141   2.0000      -0.654846       -17.8193
 142   2.0000      -0.647638       -17.6231
 143   2.0000      -0.635313       -17.2877
 144   2.0000      -0.628348       -17.0982
 145   2.0000      -0.626345       -17.0437
 146   2.0000      -0.621231       -16.9046
 147   2.0000      -0.618372       -16.8268
 148   2.0000      -0.612607       -16.6699
 149   2.0000      -0.607568       -16.5328
 150   2.0000      -0.603313       -16.4170
 151   2.0000      -0.600021       -16.3274
 152   2.0000      -0.596622       -16.2349
 153   2.0000      -0.591397       -16.0927
 154   2.0000      -0.590103       -16.0575
 155   2.0000      -0.587114       -15.9762
 156   2.0000      -0.577336       -15.7101
 157   2.0000      -0.574033       -15.6202
 158   2.0000      -0.566637       -15.4190
 159   2.0000      -0.559085       -15.2135
 160   2.0000      -0.558382       -15.1943
 161   2.0000      -0.556230       -15.1358
 162   2.0000      -0.554597       -15.0913
 163   2.0000      -0.552026       -15.0214
 164   2.0000      -0.549813       -14.9612
 165   2.0000      -0.548927       -14.9370
 166   2.0000      -0.544942       -14.8286
 167   2.0000      -0.541972       -14.7478
 168   2.0000      -0.540898       -14.7186
 169   2.0000      -0.540014       -14.6945
 170   2.0000      -0.538727       -14.6595
 171   2.0000      -0.535697       -14.5771
 172   2.0000      -0.532344       -14.4858
 173   2.0000      -0.529895       -14.4192
 174   2.0000      -0.527436       -14.3523
 175   2.0000      -0.526357       -14.3229
 176   2.0000      -0.520376       -14.1601
 177   2.0000      -0.519873       -14.1465
 178   2.0000      -0.517915       -14.0932
 179   2.0000      -0.514669       -14.0049
 180   2.0000      -0.512192       -13.9375
 181   2.0000      -0.511392       -13.9157
 182   2.0000      -0.509126       -13.8540
 183   2.0000      -0.506871       -13.7927
 184   2.0000      -0.503754       -13.7078
 185   2.0000      -0.501429       -13.6446
 186   2.0000      -0.497356       -13.5338
 187   2.0000      -0.496529       -13.5112
 188   2.0000      -0.494623       -13.4594
 189   2.0000      -0.488713       -13.2985
 190   2.0000      -0.483013       -13.1434
 191   2.0000      -0.482363       -13.1258
 192   2.0000      -0.480338       -13.0707
 193   2.0000      -0.473566       -12.8864
 194   2.0000      -0.472251       -12.8506
 195   2.0000      -0.468717       -12.7544
 196   2.0000      -0.467772       -12.7287
 197   2.0000      -0.463297       -12.6069
 198   2.0000      -0.462031       -12.5725
 199   2.0000      -0.460173       -12.5219
 200   2.0000      -0.457771       -12.4566
 201   2.0000      -0.456389       -12.4190
 202   2.0000      -0.455623       -12.3981
 203   2.0000      -0.453646       -12.3443
 204   2.0000      -0.451675       -12.2907
 205   2.0000      -0.450174       -12.2498
 206   2.0000      -0.449631       -12.2351
 207   2.0000      -0.446150       -12.1404
 208   2.0000      -0.445798       -12.1308
 209   2.0000      -0.444441       -12.0938
 210   2.0000      -0.440862       -11.9965
 211   2.0000      -0.438166       -11.9231
 212   2.0000      -0.436999       -11.8913
 213   2.0000      -0.435118       -11.8402
 214   2.0000      -0.434402       -11.8207
 215   2.0000      -0.428559       -11.6617
 216   2.0000      -0.426279       -11.5996
 217   2.0000      -0.421311       -11.4645
 218   2.0000      -0.419036       -11.4025
 219   2.0000      -0.417092       -11.3497
 220   2.0000      -0.410386       -11.1672
 221   2.0000      -0.410157       -11.1609
 222   2.0000      -0.403801       -10.9880
 223   2.0000      -0.397433       -10.8147
 224   2.0000      -0.394032       -10.7222
 225   2.0000      -0.384033       -10.4501
 226   2.0000      -0.368156       -10.0180
 227   2.0000      -0.363102        -9.8805
 228   2.0000      -0.362243        -9.8571
 229   2.0000      -0.357628        -9.7316
 230   2.0000      -0.353232        -9.6119
 231   2.0000      -0.347363        -9.4522
 232   2.0000      -0.345968        -9.4143
 233   2.0000      -0.344234        -9.3671
 234   2.0000      -0.337934        -9.1957
 235   2.0000      -0.336123        -9.1464
 236   2.0000      -0.329810        -8.9746
 237   2.0000      -0.320387        -8.7182
 238   2.0000      -0.315402        -8.5825
 239   2.0000      -0.312088        -8.4923
 240   2.0000      -0.297268        -8.0891
 241   2.0000      -0.251679        -6.8485
 242   0.0000      -0.128331        -3.4921
 243   0.0000      -0.104795        -2.8516
 244   0.0000      -0.083017        -2.2590
 245   0.0000      -0.060455        -1.6451
 246   0.0000      -0.054623        -1.4864

MULLIKEN ATOMIC CHARGES
-----------------------
   0 C :    0.035620
   1 C :   -0.129190
   2 S :    0.189213
   3 C :   -0.164931
   4 Cl:    0.003245
   5 C :    0.078018
   6 C :    0.161175
   7 O :   -0.131146
   8 C :   -0.085359
   9 C :    0.284713
  10 C :   -0.319969
  11 C :   -0.193737
  12 N :    0.161900
  13 C :   -0.193629
  14 N :    0.174570
  15 C :   -0.045111
  16 C :    0.136773
  17 C :   -0.039535
  18 C :   -0.070464
  19 C :    0.238377
  20 O :   -0.112993
  21 O :   -0.234438
  22 C :    0.072817
  23 O :   -0.248327
  24 C :    0.252342
  25 O :   -0.112884
  26 C :    0.093332
  27 N :   -0.244874
  28 C :    0.108919
  29 C :   -0.004083
  30 C :    0.172639
  31 O :   -0.215877
  32 C :   -0.096065
  33 C :   -0.021863
  34 C :    0.160253
  35 O :   -0.144158
  36 N :   -0.260945
  37 C :    0.092532
  38 C :    0.000262
  39 C :    0.148554
  40 C :   -0.001683
  41 C :    0.008227
  42 C :    0.064856
  43 C :   -0.082328
  44 C :    0.278652
  45 F :   -0.180102
  46 C :    0.004324
  47 C :   -0.058876
  48 C :    0.262658
  49 F :   -0.183392
  50 C :    0.014610
  51 C :   -0.111247
  52 C :    0.129357
  53 O :   -0.121076
  54 C :    0.088865
  55 C :   -0.168440
  56 S :    0.191924
  57 C :   -0.126009
  58 C :    0.015286
  59 C :    0.281677
  60 C :   -0.308321
  61 C :   -0.189724
  62 N :    0.164815
  63 C :   -0.205159
  64 N :    0.179402
  65 Cl:    0.004216
  66 H :    0.055254
  67 H :    0.047616
  68 H :    0.039741
  69 H :    0.040078
  70 H :    0.025136
  71 H :    0.026608
  72 H :    0.025248
  73 H :    0.050707
  74 H :    0.030186
  75 H :    0.041197
  76 H :    0.028363
  77 H :    0.019971
  78 H :   -0.007531
  79 H :    0.016024
  80 H :    0.018582
  81 H :    0.000274
  82 H :    0.037610
  83 H :    0.056747
Sum of atomic charges:   -0.0000000

LOEWDIN ATOMIC CHARGES
----------------------
   0 C :   -0.057584
   1 C :   -0.149151
   2 S :    0.479746
   3 C :   -0.270311
   4 Cl:    0.197432
   5 C :   -0.112523
   6 C :    0.084363
   7 O :   -0.122115
   8 C :   -0.052863
   9 C :    0.069198
  10 C :   -0.125204
  11 C :   -0.014909
  12 N :   -0.045206
  13 C :   -0.025004
  14 N :   -0.035362
  15 C :    0.041065
  16 C :    0.086007
  17 C :   -0.083917
  18 C :   -0.102087
  19 C :    0.102922
  20 O :   -0.110480
  21 O :   -0.040597
  22 C :    0.091281
  23 O :   -0.044608
  24 C :    0.112044
  25 O :   -0.111145
  26 C :    0.027856
  27 N :    0.007559
  28 C :    0.036146
  29 C :   -0.059643
  30 C :    0.077240
  31 O :   -0.208457
  32 C :   -0.129348
  33 C :   -0.066896
  34 C :    0.088435
  35 O :   -0.135846
  36 N :    0.006723
  37 C :    0.037357
  38 C :   -0.059192
  39 C :    0.104617
  40 C :   -0.044197
  41 C :    0.052468
  42 C :   -0.036256
  43 C :   -0.008295
  44 C :    0.089771
  45 F :   -0.054106
  46 C :   -0.048749
  47 C :   -0.015018
  48 C :    0.100584
  49 F :   -0.054271
  50 C :    0.067374
  51 C :   -0.067932
  52 C :    0.082862
  53 O :   -0.125935
  54 C :   -0.119897
  55 C :   -0.270604
  56 S :    0.481455
  57 C :   -0.150401
  58 C :   -0.055615
  59 C :    0.068248
  60 C :   -0.124625
  61 C :   -0.015373
  62 N :   -0.042781
  63 C :   -0.019835
  64 N :   -0.039189
  65 Cl:    0.195889
  66 H :    0.038106
  67 H :    0.057295
  68 H :    0.035547
  69 H :    0.028203
  70 H :    0.029507
  71 H :    0.033412
  72 H :    0.023833
  73 H :    0.040355
  74 H :    0.025749
  75 H :    0.037028
  76 H :    0.033209
  77 H :    0.023639
  78 H :    0.029238
  79 H :    0.041755
  80 H :    0.052845
  81 H :    0.046484
  82 H :    0.051874
  83 H :    0.038806

  Mayer bond orders larger than 0.100000
B(  0-C ,  1-C ) :   1.5417 B(  0-C ,  5-C ) :   1.2256 B(  0-C ,  9-C ) :   1.0013
B(  1-C ,  2-S ) :   1.1626 B(  1-C , 66-H ) :   0.9543 B(  2-S ,  3-C ) :   1.1517
B(  3-C ,  4-Cl) :   1.1315 B(  3-C ,  5-C ) :   1.4756 B(  5-C ,  6-C ) :   0.9520
B(  6-C ,  7-O ) :   2.2310 B(  6-C ,  8-C ) :   0.9205 B(  8-C ,  9-C ) :   1.0785
B(  8-C , 15-C ) :   1.6239 B(  9-C , 10-C ) :   1.6583 B( 10-C , 11-C ) :   1.1472
B( 10-C , 13-C ) :   1.1364 B( 11-C , 12-N ) :   2.9917 B( 13-C , 14-N ) :   2.9853
B( 15-C , 16-C ) :   1.1574 B( 15-C , 67-H ) :   0.9342 B( 16-C , 17-C ) :   1.4159
B( 16-C , 21-O ) :   1.1465 B( 17-C , 18-C ) :   1.1854 B( 17-C , 24-C ) :   0.9291
B( 18-C , 19-C ) :   0.9469 B( 18-C , 22-C ) :   1.4100 B( 19-C , 20-O ) :   2.2280
B( 19-C , 21-O ) :   1.0034 B( 22-C , 23-O ) :   1.1372 B( 22-C , 26-C ) :   1.1208
B( 23-O , 24-C ) :   0.9992 B( 24-C , 25-O ) :   2.2457 B( 26-C , 27-N ) :   1.1805
B( 26-C , 33-C ) :   1.3862 B( 27-N , 28-C ) :   0.9362 B( 27-N , 30-C ) :   1.0700
B( 28-C , 29-C ) :   1.1230 B( 28-C , 68-H ) :   0.9295 B( 28-C , 69-H ) :   0.9456
B( 29-C , 70-H ) :   0.9657 B( 29-C , 71-H ) :   0.9672 B( 29-C , 72-H ) :   0.9684
B( 30-C , 31-O ) :   2.0162 B( 30-C , 32-C ) :   0.9906 B( 31-O , 79-H ) :   0.1223
B( 32-C , 33-C ) :   1.2868 B( 32-C , 39-C ) :   1.2771 B( 33-C , 34-C ) :   0.9513
B( 34-C , 35-O ) :   2.1522 B( 34-C , 36-N ) :   1.0060 B( 36-N , 37-C ) :   0.9349
B( 36-N , 39-C ) :   1.2127 B( 37-C , 38-C ) :   1.1236 B( 37-C , 73-H ) :   0.9263
B( 37-C , 74-H ) :   0.9495 B( 38-C , 75-H ) :   0.9630 B( 38-C , 76-H ) :   0.9676
B( 38-C , 77-H ) :   0.9681 B( 39-C , 40-C ) :   1.1502 B( 40-C , 41-C ) :   1.5928
B( 40-C , 78-H ) :   0.9604 B( 41-C , 42-C ) :   1.1025 B( 41-C , 79-H ) :   0.9550
B( 42-C , 43-C ) :   1.2838 B( 42-C , 48-C ) :   1.2613 B( 43-C , 44-C ) :   1.3634
B( 43-C , 80-H ) :   1.0065 B( 44-C , 45-F ) :   1.1081 B( 44-C , 46-C ) :   1.3005
B( 46-C , 47-C ) :   1.2857 B( 46-C , 50-C ) :   1.0230 B( 47-C , 48-C ) :   1.3997
B( 47-C , 81-H ) :   0.9980 B( 48-C , 49-F ) :   1.0840 B( 50-C , 51-C ) :   1.7720
B( 50-C , 82-H ) :   0.9358 B( 51-C , 52-C ) :   0.9235 B( 51-C , 59-C ) :   1.0097
B( 52-C , 53-O ) :   2.2824 B( 52-C , 54-C ) :   0.9322 B( 54-C , 55-C ) :   1.4762
B( 54-C , 58-C ) :   1.2212 B( 55-C , 56-S ) :   1.1560 B( 55-C , 65-Cl) :   1.1327
B( 56-S , 57-C ) :   1.1607 B( 57-C , 58-C ) :   1.5485 B( 57-C , 83-H ) :   0.9554
B( 58-C , 59-C ) :   1.0179 B( 59-C , 60-C ) :   1.6839 B( 60-C , 61-C ) :   1.1334
B( 60-C , 63-C ) :   1.1628 B( 61-C , 62-N ) :   3.0027 B( 63-C , 64-N ) :   3.0064

-----------------------------------------------------------------------------
         ABSORPTION SPECTRUM VIA TRANSITION ELECTRIC DIPOLE MOMENTS
-----------------------------------------------------------------------------
State   Energy  Wavelength   fosc         T2         TX        TY        TZ
        (cm-1)    (nm)                  (au**2)     (au)      (au)      (au)
-----------------------------------------------------------------------------
   0   11678.0    856.3   0.982094129  27.68608   2.70909  -4.46701  -0.62669
   1   18867.8    530.0   0.036220287   0.63198   0.73560  -0.00602  -0.30139
   2   20015.3    499.6   0.101221384   1.66489   0.27119  -1.12330   0.57407
   3   22991.6    434.9   0.064359258   0.92155  -0.50686   0.22817  -0.78267
   4   24168.2    413.8   0.039929603   0.54391   0.18906  -0.49630   0.51172
   5   24751.5    404.0   0.101035248   1.34384  -0.34357   1.10710  -0.01084
   6   25133.6    397.9   0.007578449   0.09927   0.17805  -0.19720   0.16933
   7   26136.5    382.6   0.200798624   2.52924  -0.96533   1.11917  -0.58722
   8   26389.2    378.9   0.253019556   3.15648   1.14085  -1.20631   0.63227
   9   27288.4    366.5   0.054490050   0.65738   0.74879  -0.23192   0.20711
  10   27884.4    358.6   0.029782222   0.35162  -0.03548  -0.58555  -0.08654
  11   28109.5    355.8   0.054232381   0.63516  -0.29105   0.32601  -0.66646
  12   28180.1    354.9   0.043472102   0.50786   0.09610  -0.16033   0.68769
  13   29043.9    344.3   0.005016137   0.05686  -0.14778  -0.15614   0.10314
  14   29470.1    339.3   0.047657064   0.53238  -0.48730   0.48487   0.24458
  15   29613.4    337.7   0.002976507   0.03309   0.15485  -0.05537   0.07775
  16   29901.5    334.4   0.013642632   0.15020  -0.04139  -0.37325   0.09578
  17   30153.5    331.6   0.048148801   0.52568   0.00737   0.68659  -0.23285
  18   31147.0    321.1   0.089342485   0.94432  -0.51391  -0.02052  -0.82449
  19   32350.3    309.1   0.003840698   0.03908  -0.01111  -0.09128   0.17501
  20   32627.6    306.5   0.099779517   1.00677   0.29963  -0.89105   0.35074
  21   33235.3    300.9   0.068025334   0.67382   0.25249  -0.64696   0.43763
  22   33808.3    295.8   0.009954915   0.09694   0.04432   0.28716  -0.11185
  23   33927.0    294.8   0.150236863   1.45783   0.13443  -1.12145   0.42673
  24   34119.6    293.1   0.014823549   0.14303  -0.16030   0.17977  -0.29158
  25   34588.0    289.1   0.105813969   1.00715  -0.74995   0.63409   0.20651
  26   35043.5    285.4   0.206709829   1.94191   0.91595  -0.78954  -0.69250
  27   35399.3    282.5   0.030737827   0.28586   0.16568  -0.35710   0.36179
  28   35859.3    278.9   0.070590920   0.64807  -0.26993   0.75075  -0.10764
  29   35942.9    278.2   0.175734682   1.60961   0.22088  -1.23937  -0.15738
  30   36111.4    276.9   0.306853880   2.79746   0.12600  -1.16010   1.19823
  31   36147.8    276.6   0.139581626   1.27123  -0.42437   0.50337   0.91529
  32   36489.4    274.1   0.052115692   0.47019  -0.37885   0.57004  -0.04149
  33   37273.6    268.3   0.124041458   1.09557   0.12212  -0.32689   0.98682
  34   37815.9    264.4   0.101478567   0.88344  -0.25355  -0.23484   0.87407
  35   38013.3    263.1   0.390629174   3.38302   0.15744  -1.76067   0.50821
  36   38136.1    262.2   0.084469086   0.72918   0.35531   0.01547  -0.77634
  37   38629.7    258.9   0.070043537   0.59693  -0.15610   0.61965  -0.43427
  38   38811.1    257.7   0.018470623   0.15668   0.13777   0.18826  -0.31977
  39   39041.6    256.1   0.049333468   0.41600   0.16354  -0.52788   0.33256
  40   39449.7    253.5   0.079334145   0.66205   0.05885  -0.57751   0.57015
  41   39562.8    252.8   0.240928044   2.00482  -0.48455   1.24918  -0.45781
  42   39684.0    252.0   0.079909958   0.66292  -0.32337   0.56668  -0.48706
  43   39763.0    251.5   0.075628672   0.62616  -0.14845  -0.08985  -0.77204
  44   40091.2    249.4   0.045006917   0.36958  -0.26761  -0.52790  -0.13888

FINAL SINGLE POINT ENERGY     -4606.341770627198

DIPOLE MOMENT
-------------
                                X             Y             Z
Electronic contribution:      1.06275     -16.18078      21.41652
Nuclear contribution   :     -0.24080      13.13177     -20.11567
                        -----------------------------------------
Total Dipole Moment    :      0.82196      -3.04901       1.30085
                        -----------------------------------------
Magnitude (a.u.)       :      3.41530
Magnitude (Debye)      :      8.68100

Rotational constants in cm-1:     0.002882     0.000261     0.000246
Rotational constants in MHz :    86.396323     7.814439     7.364127

                             ****ORCA TERMINATED NORMALLY****
TOTAL RUN TIME: 0 days 0 hours 7 minutes 57 seconds 416 msec
