                         Program Version 4.2.0 -  RELEASE  -
|  1> # ORCA input file
|  2> # SCF done       -157.523589116625          0.000889207828
|  3> ! CAM-B3LYP def2-SVP def2/J RIJCOSX Grid4 TightSCF
|  4> %maxcore 5000
|  5> %tddft
|  6>     Mode sTDDFT
|  7>     Ethresh 5.0
|  8>     maxcore 5000
|  9> end
| 10>
| 11> %pal
| 12>   nprocs 6
| 13>   end
| 14> * xyz 0 1
| 15>    C        2.46186         2.37183         1.87258
| 16>    C        1.65719         3.33125         2.40748
| 17>    S        0.74406         2.71202         3.73224
| 18>    C        1.45219         1.12308         3.56541
| 19>   Cl        1.02691        -0.14747         4.59883
| 20>    C        2.34692         1.10642         2.53606
| 21>    C        3.22840         0.12374         1.90414
| 22>    O        3.31782        -1.05883         2.12727
| 23>    C        3.93321         0.89322         0.81863
| 24>    C        3.43120         2.26588         0.80342
| 25>    C        3.81545         3.29009        -0.01503
| 26>    C        3.24496         4.57706         0.10199
| 27>    N        2.79020         5.62650         0.18324
| 28>    C        4.79138         3.20916        -1.03021
| 29>    N        5.57974         3.20890        -1.86378
| 30>    C        4.79807         0.33825        -0.05407
| 31>    C        5.35521        -0.99601         0.08267
| 32>    C        5.40966        -1.85991        -1.01451
| 33>    F        4.90027        -1.45104        -2.18297
| 34>    C        5.94161        -3.13118        -0.90644
| 35>    F        5.94329        -3.92153        -1.98924
| 36>    C        6.48057        -3.62101         0.29503
| 37>    C        6.45936        -2.73121         1.37986
| 38>    C        5.91318        -1.46280         1.27687
| 39>    F        5.98938        -0.64170         2.32881
| 40>    F        7.00176        -3.08211         2.55190
| 41>    C        7.03637        -4.95560         0.31062
| 42>    C        7.41501        -5.66796         1.38577
| 43>    C        7.97048        -6.99916         1.30164
| 44>    C        8.59847        -7.52742         0.16396
| 45>    N        9.09336        -8.74381         0.12590
| 46>    C        9.00417        -9.47988         1.22698
| 47>    N        8.44267        -9.08119         2.36778
| 48>    C        7.93674        -7.86937         2.40284
| 49>    C        9.60265       -10.82418         1.21952
| 50>    N       10.35487       -11.18545         0.18230
| 51>    C       10.91202       -12.38002         0.24386
| 52>    C       10.76764       -13.22313         1.33831
| 53>    C        9.96502       -12.75188         2.38167
| 54>    N        9.37277       -11.56126         2.28822
| 55>    C        9.75686       -13.46452         3.62911
| 56>    C        8.93088       -12.92192         4.54338
| 57>    C        8.66193       -13.39299         5.85684
| 58>    C        8.10382       -12.61583         6.82086
| 59>    C        7.48302       -13.21244         8.04376
| 60>    O        7.65506       -14.32696         8.47204
| 61>    C        6.58481       -12.15731         8.53488
| 62>    C        5.65956       -12.01332         9.52519
| 63>    S        4.96495       -10.40928         9.48778
| 64>    C        5.93807        -9.94949         8.13780
| 65>    C        6.74185       -10.97129         7.74131
| 66>    C        7.78767       -11.19675         6.76237
| 67>    C        8.44477       -10.22047         6.06216
| 68>    C        7.96784        -8.89500         6.01896
| 69>    N        7.55792        -7.82625         5.93629
| 70>    C        9.69579       -10.39277         5.42811
| 71>    N       10.76061       -10.46310         5.00817
| 72>   Cl        5.18085       -13.15321        10.68287
| 73>    H        1.53508         4.35577         2.11645
| 74>    H        5.10708         0.87987        -0.93938
| 75>    H        7.11446        -5.40807        -0.66864
| 76>    H        7.29209        -5.28690         2.38869
| 77>    H        8.73066        -6.94212        -0.73694
| 78>    H        7.48096        -7.56988         3.33964
| 79>    H       11.51099       -12.66301        -0.61253
| 80>    H       11.25188       -14.18515         1.38423
| 81>    H       10.32822       -14.36303         3.81009
| 82>    H        8.43115       -12.01320         4.22944
| 83>    H        8.84842       -14.43234         6.09969
| 84>    H        5.84318        -8.96301         7.72915
| 85> *
| 86>
| 87>                          ****END OF INPUT****

CARTESIAN COORDINATES (ANGSTROEM)
---------------------------------
  C      2.461860    2.371830    1.872580
  C      1.657190    3.331250    2.407480
  S      0.744060    2.712020    3.732240
  C      1.452190    1.123080    3.565410
  Cl     1.026910   -0.147470    4.598830
  C      2.346920    1.106420    2.536060
  C      3.228400    0.123740    1.904140
  O      3.317820   -1.058830    2.127270
  C      3.933210    0.893220    0.818630
  C      3.431200    2.265880    0.803420
  C      3.815450    3.290090   -0.015030
  C      3.244960    4.577060    0.101990
  N      2.790200    5.626500    0.183240
  C      4.791380    3.209160   -1.030210
  N      5.579740    3.208900   -1.863780
  C      4.798070    0.338250   -0.054070
  C      5.355210   -0.996010    0.082670
  C      5.409660   -1.859910   -1.014510
  F      4.900270   -1.451040   -2.182970
  C      5.941610   -3.131180   -0.906440
  F      5.943290   -3.921530   -1.989240
  C      6.480570   -3.621010    0.295030
  C      6.459360   -2.731210    1.379860
  C      5.913180   -1.462800    1.276870
  F      5.989380   -0.641700    2.328810
  F      7.001760   -3.082110    2.551900
  C      7.036370   -4.955600    0.310620
  C      7.415010   -5.667960    1.385770
  C      7.970480   -6.999160    1.301640
  C      8.598470   -7.527420    0.163960
  N      9.093360   -8.743810    0.125900
  C      9.004170   -9.479880    1.226980
  N      8.442670   -9.081190    2.367780
  C      7.936740   -7.869370    2.402840
  C      9.602650  -10.824180    1.219520
  N     10.354870  -11.185450    0.182300
  C     10.912020  -12.380020    0.243860
  C     10.767640  -13.223130    1.338310
  C      9.965020  -12.751880    2.381670
  N      9.372770  -11.561260    2.288220
  C      9.756860  -13.464520    3.629110
  C      8.930880  -12.921920    4.543380
  C      8.661930  -13.392990    5.856840
  C      8.103820  -12.615830    6.820860
  C      7.483020  -13.212440    8.043760
  O      7.655060  -14.326960    8.472040
  C      6.584810  -12.157310    8.534880
  C      5.659560  -12.013320    9.525190
  S      4.964950  -10.409280    9.487780
  C      5.938070   -9.949490    8.137800
  C      6.741850  -10.971290    7.741310
  C      7.787670  -11.196750    6.762370
  C      8.444770  -10.220470    6.062160
  C      7.967840   -8.895000    6.018960
  N      7.557920   -7.826250    5.936290
  C      9.695790  -10.392770    5.428110
  N     10.760610  -10.463100    5.008170
  Cl     5.180850  -13.153210   10.682870
  H      1.535080    4.355770    2.116450
  H      5.107080    0.879870   -0.939380
  H      7.114460   -5.408070   -0.668640
  H      7.292090   -5.286900    2.388690
  H      8.730660   -6.942120   -0.736940
  H      7.480960   -7.569880    3.339640
  H     11.510990  -12.663010   -0.612530
  H     11.251880  -14.185150    1.384230
  H     10.328220  -14.363030    3.810090
  H      8.431150  -12.013200    4.229440
  H      8.848420  -14.432340    6.099690
  H      5.843180   -8.963010    7.729150

 Total Charge           Charge          ....    0
 Multiplicity           Mult            ....    1
 Number of Electrons    NEL             ....  426
 Basis Dimension        Dim             ....  888

ORBITAL ENERGIES
----------------

  NO   OCC          E(Eh)            E(eV)
   0   2.0000    -101.623320     -2765.3111
   1   2.0000    -101.617998     -2765.1663
   2   2.0000     -89.000781     -2421.8344
   3   2.0000     -88.993638     -2421.6400
   4   2.0000     -24.808567      -675.0754
   5   2.0000     -24.805322      -674.9871
   6   2.0000     -24.805254      -674.9853
   7   2.0000     -24.805180      -674.9833
   8   2.0000     -19.229622      -523.2646
   9   2.0000     -19.220496      -523.0163
  10   2.0000     -14.428358      -392.6156
  11   2.0000     -14.427821      -392.6010
  12   2.0000     -14.425108      -392.5271
  13   2.0000     -14.411560      -392.1585
  14   2.0000     -14.410834      -392.1387
  15   2.0000     -14.410030      -392.1169
  16   2.0000     -14.409234      -392.0952
  17   2.0000     -14.408894      -392.0860
  18   2.0000     -10.387775      -282.6657
  19   2.0000     -10.387238      -282.6511
  20   2.0000     -10.385860      -282.6136
  21   2.0000     -10.383176      -282.5406
  22   2.0000     -10.383002      -282.5358
  23   2.0000     -10.382961      -282.5347
  24   2.0000     -10.376981      -282.3720
  25   2.0000     -10.376712      -282.3647
  26   2.0000     -10.358200      -281.8610
  27   2.0000     -10.356917      -281.8260
  28   2.0000     -10.350450      -281.6501
  29   2.0000     -10.348033      -281.5843
  30   2.0000     -10.340979      -281.3924
  31   2.0000     -10.339746      -281.3588
  32   2.0000     -10.336628      -281.2739
  33   2.0000     -10.334408      -281.2135
  34   2.0000     -10.332010      -281.1483
  35   2.0000     -10.329735      -281.0864
  36   2.0000     -10.329594      -281.0825
  37   2.0000     -10.329292      -281.0743
  38   2.0000     -10.327649      -281.0296
  39   2.0000     -10.323664      -280.9212
  40   2.0000     -10.322446      -280.8880
  41   2.0000     -10.322418      -280.8873
  42   2.0000     -10.322037      -280.8769
  43   2.0000     -10.320311      -280.8299
  44   2.0000     -10.319303      -280.8025
  45   2.0000     -10.319050      -280.7956
  46   2.0000     -10.318951      -280.7929
  47   2.0000     -10.314038      -280.6592
  48   2.0000     -10.313643      -280.6485
  49   2.0000     -10.307081      -280.4699
  50   2.0000     -10.306245      -280.4472
  51   2.0000     -10.301139      -280.3082
  52   2.0000     -10.298664      -280.2409
  53   2.0000     -10.298197      -280.2282
  54   2.0000     -10.296324      -280.1772
  55   2.0000     -10.295635      -280.1585
  56   2.0000     -10.291907      -280.0570
  57   2.0000     -10.290941      -280.0307
  58   2.0000      -9.578089      -260.6330
  59   2.0000      -9.572757      -260.4880
  60   2.0000      -8.096552      -220.3184
  61   2.0000      -8.089416      -220.1242
  62   2.0000      -7.348750      -199.9697
  63   2.0000      -7.343407      -199.8243
  64   2.0000      -7.338118      -199.6803
  65   2.0000      -7.337564      -199.6653
  66   2.0000      -7.332789      -199.5353
  67   2.0000      -7.332254      -199.5208
  68   2.0000      -6.065902      -165.0616
  69   2.0000      -6.061279      -164.9358
  70   2.0000      -6.058847      -164.8696
  71   2.0000      -6.058801      -164.8684
  72   2.0000      -6.054223      -164.7438
  73   2.0000      -6.051612      -164.6727
  74   2.0000      -1.330598       -36.2074
  75   2.0000      -1.329480       -36.1770
  76   2.0000      -1.314393       -35.7665
  77   2.0000      -1.312926       -35.7265
  78   2.0000      -1.147098       -31.2141
  79   2.0000      -1.137248       -30.9461
  80   2.0000      -1.096213       -29.8295
  81   2.0000      -1.073458       -29.2103
  82   2.0000      -1.045441       -28.4479
  83   2.0000      -1.038525       -28.2597
  84   2.0000      -1.025157       -27.8959
  85   2.0000      -1.017378       -27.6843
  86   2.0000      -1.006506       -27.3884
  87   2.0000      -0.999837       -27.2069
  88   2.0000      -0.996786       -27.1239
  89   2.0000      -0.993380       -27.0313
  90   2.0000      -0.988131       -26.8884
  91   2.0000      -0.987051       -26.8590
  92   2.0000      -0.975307       -26.5395
  93   2.0000      -0.962250       -26.1842
  94   2.0000      -0.955794       -26.0085
  95   2.0000      -0.938559       -25.5395
  96   2.0000      -0.924740       -25.1635
  97   2.0000      -0.918053       -24.9815
  98   2.0000      -0.910512       -24.7763
  99   2.0000      -0.904895       -24.6235
 100   2.0000      -0.894086       -24.3293
 101   2.0000      -0.874756       -23.8033
 102   2.0000      -0.858596       -23.3636
 103   2.0000      -0.851302       -23.1651
 104   2.0000      -0.840434       -22.8694
 105   2.0000      -0.837505       -22.7897
 106   2.0000      -0.832781       -22.6611
 107   2.0000      -0.803285       -21.8585
 108   2.0000      -0.793713       -21.5980
 109   2.0000      -0.775845       -21.1118
 110   2.0000      -0.762110       -20.7381
 111   2.0000      -0.759547       -20.6683
 112   2.0000      -0.751405       -20.4468
 113   2.0000      -0.746978       -20.3263
 114   2.0000      -0.739068       -20.1111
 115   2.0000      -0.734108       -19.9761
 116   2.0000      -0.715646       -19.4737
 117   2.0000      -0.699445       -19.0329
 118   2.0000      -0.695856       -18.9352
 119   2.0000      -0.693746       -18.8778
 120   2.0000      -0.684602       -18.6290
 121   2.0000      -0.681196       -18.5363
 122   2.0000      -0.675588       -18.3837
 123   2.0000      -0.674150       -18.3446
 124   2.0000      -0.670643       -18.2491
 125   2.0000      -0.650289       -17.6953
 126   2.0000      -0.647016       -17.6062
 127   2.0000      -0.643608       -17.5135
 128   2.0000      -0.630726       -17.1629
 129   2.0000      -0.625838       -17.0299
 130   2.0000      -0.623180       -16.9576
 131   2.0000      -0.620744       -16.8913
 132   2.0000      -0.616274       -16.7697
 133   2.0000      -0.614977       -16.7344
 134   2.0000      -0.608731       -16.5644
 135   2.0000      -0.604194       -16.4410
 136   2.0000      -0.600425       -16.3384
 137   2.0000      -0.593790       -16.1578
 138   2.0000      -0.584024       -15.8921
 139   2.0000      -0.581829       -15.8324
 140   2.0000      -0.576748       -15.6941
 141   2.0000      -0.564388       -15.3578
 142   2.0000      -0.559555       -15.2263
 143   2.0000      -0.558343       -15.1933
 144   2.0000      -0.556087       -15.1319
 145   2.0000      -0.552719       -15.0402
 146   2.0000      -0.549941       -14.9647
 147   2.0000      -0.546533       -14.8719
 148   2.0000      -0.544356       -14.8127
 149   2.0000      -0.540132       -14.6977
 150   2.0000      -0.539399       -14.6778
 151   2.0000      -0.538355       -14.6494
 152   2.0000      -0.533692       -14.5225
 153   2.0000      -0.532809       -14.4985
 154   2.0000      -0.528363       -14.3775
 155   2.0000      -0.526492       -14.3266
 156   2.0000      -0.522701       -14.2234
 157   2.0000      -0.518233       -14.1018
 158   2.0000      -0.512874       -13.9560
 159   2.0000      -0.512491       -13.9456
 160   2.0000      -0.508678       -13.8418
 161   2.0000      -0.506203       -13.7745
 162   2.0000      -0.503976       -13.7139
 163   2.0000      -0.499373       -13.5886
 164   2.0000      -0.498324       -13.5601
 165   2.0000      -0.496627       -13.5139
 166   2.0000      -0.493268       -13.4225
 167   2.0000      -0.491962       -13.3870
 168   2.0000      -0.487449       -13.2642
 169   2.0000      -0.485995       -13.2246
 170   2.0000      -0.483902       -13.1677
 171   2.0000      -0.473096       -12.8736
 172   2.0000      -0.462685       -12.5903
 173   2.0000      -0.459846       -12.5131
 174   2.0000      -0.459380       -12.5004
 175   2.0000      -0.459059       -12.4916
 176   2.0000      -0.456451       -12.4207
 177   2.0000      -0.453417       -12.3381
 178   2.0000      -0.451288       -12.2802
 179   2.0000      -0.450780       -12.2663
 180   2.0000      -0.448749       -12.2111
 181   2.0000      -0.448120       -12.1940
 182   2.0000      -0.443863       -12.0781
 183   2.0000      -0.440777       -11.9941
 184   2.0000      -0.440595       -11.9892
 185   2.0000      -0.438998       -11.9457
 186   2.0000      -0.432146       -11.7593
 187   2.0000      -0.425811       -11.5869
 188   2.0000      -0.424831       -11.5602
 189   2.0000      -0.424598       -11.5539
 190   2.0000      -0.414458       -11.2780
 191   2.0000      -0.409593       -11.1456
 192   2.0000      -0.409248       -11.1362
 193   2.0000      -0.404861       -11.0168
 194   2.0000      -0.402868       -10.9626
 195   2.0000      -0.392251       -10.6737
 196   2.0000      -0.387044       -10.5320
 197   2.0000      -0.380158       -10.3446
 198   2.0000      -0.377328       -10.2676
 199   2.0000      -0.372035       -10.1236
 200   2.0000      -0.363439        -9.8897
 201   2.0000      -0.354841        -9.6557
 202   2.0000      -0.344704        -9.3799
 203   2.0000      -0.343979        -9.3601
 204   2.0000      -0.336740        -9.1632
 205   2.0000      -0.334008        -9.0888
 206   2.0000      -0.333609        -9.0780
 207   2.0000      -0.321817        -8.7571
 208   2.0000      -0.317861        -8.6494
 209   2.0000      -0.315837        -8.5944
 210   2.0000      -0.306468        -8.3394
 211   2.0000      -0.298550        -8.1240
 212   2.0000      -0.287408        -7.8208
 213   0.0000      -0.103548        -2.8177
 214   0.0000      -0.097573        -2.6551
 215   0.0000      -0.062385        -1.6976
 216   0.0000      -0.054219        -1.4754
 217   0.0000      -0.050814        -1.3827

MULLIKEN ATOMIC CHARGES
-----------------------
   0 C :    0.028728
   1 C :   -0.125843
   2 S :    0.193968
   3 C :   -0.164630
   4 Cl:    0.004323
   5 C :    0.077663
   6 C :    0.145451
   7 O :   -0.123934
   8 C :   -0.075212
   9 C :    0.289324
  10 C :   -0.315796
  11 C :   -0.196903
  12 N :    0.163732
  13 C :   -0.193469
  14 N :    0.172888
  15 C :   -0.025690
  16 C :   -0.113692
  17 C :    0.203180
  18 F :   -0.160780
  19 C :    0.184874
  20 F :   -0.171152
  21 C :   -0.039045
  22 C :    0.179640
  23 C :    0.251575
  24 F :   -0.163834
  25 F :   -0.166653
  26 C :   -0.011429
  27 C :    0.029440
  28 C :    0.017477
  29 C :    0.031813
  30 N :   -0.004425
  31 C :   -0.092606
  32 N :   -0.026087
  33 C :    0.037005
  34 C :   -0.070405
  35 N :   -0.024710
  36 C :    0.081053
  37 C :   -0.030543
  38 C :    0.058363
  39 N :   -0.022797
  40 C :    0.012474
  41 C :    0.019853
  42 C :    0.060214
  43 C :   -0.117649
  44 C :    0.141792
  45 O :   -0.122694
  46 C :    0.072873
  47 C :   -0.168196
  48 S :    0.182952
  49 C :   -0.131573
  50 C :    0.033112
  51 C :    0.252623
  52 C :   -0.306177
  53 C :   -0.144216
  54 N :    0.118407
  55 C :   -0.187112
  56 N :    0.169498
  57 Cl:   -0.000487
  58 H :    0.055913
  59 H :    0.050095
  60 H :    0.004418
  61 H :    0.021734
  62 H :    0.009140
  63 H :    0.005132
  64 H :    0.010464
  65 H :   -0.004027
  66 H :   -0.006471
  67 H :    0.066682
  68 H :    0.019252
  69 H :    0.051110
Sum of atomic charges:   -0.0000000

LOEWDIN ATOMIC CHARGES
----------------------
   0 C :   -0.059248
   1 C :   -0.147694
   2 S :    0.483910
   3 C :   -0.270930
   4 Cl:    0.196763
   5 C :   -0.116803
   6 C :    0.080989
   7 O :   -0.120204
   8 C :   -0.065070
   9 C :    0.072697
  10 C :   -0.124470
  11 C :   -0.015059
  12 N :   -0.043454
  13 C :   -0.023261
  14 N :   -0.035329
  15 C :    0.076165
  16 C :   -0.079219
  17 C :    0.069995
  18 F :   -0.042470
  19 C :    0.058121
  20 F :   -0.046237
  21 C :   -0.052136
  22 C :    0.063879
  23 C :    0.077920
  24 F :   -0.037523
  25 F :   -0.037663
  26 C :   -0.021238
  27 C :    0.008610
  28 C :   -0.068152
  29 C :    0.055108
  30 N :   -0.052970
  31 C :    0.012812
  32 N :   -0.060066
  33 C :    0.053238
  34 C :    0.015023
  35 N :   -0.061151
  36 C :    0.053232
  37 C :   -0.051615
  38 C :    0.033198
  39 N :   -0.051253
  40 C :    0.008505
  41 C :   -0.001684
  42 C :    0.070320
  43 C :   -0.073111
  44 C :    0.079149
  45 O :   -0.129326
  46 C :   -0.118525
  47 C :   -0.272147
  48 S :    0.472210
  49 C :   -0.154312
  50 C :   -0.055982
  51 C :    0.066775
  52 C :   -0.120629
  53 C :   -0.000427
  54 N :   -0.060901
  55 C :   -0.019367
  56 N :   -0.040287
  57 Cl:    0.191855
  58 H :    0.038702
  59 H :    0.050934
  60 H :    0.033514
  61 H :    0.035166
  62 H :    0.025277
  63 H :    0.024568
  64 H :    0.028006
  65 H :    0.034484
  66 H :    0.032633
  67 H :    0.042789
  68 H :    0.046368
  69 H :    0.036997

  Mayer bond orders larger than 0.100000
B(  0-C ,  1-C ) :   1.5378 B(  0-C ,  5-C ) :   1.2237 B(  0-C ,  9-C ) :   1.0091
B(  1-C ,  2-S ) :   1.1680 B(  1-C , 58-H ) :   0.9540 B(  2-S ,  3-C ) :   1.1536
B(  3-C ,  4-Cl) :   1.1327 B(  3-C ,  5-C ) :   1.4708 B(  5-C ,  6-C ) :   0.9566
B(  6-C ,  7-O ) :   2.2439 B(  6-C ,  8-C ) :   0.9160 B(  8-C ,  9-C ) :   1.0412
B(  8-C , 15-C ) :   1.7660 B(  9-C , 10-C ) :   1.6809 B( 10-C , 11-C ) :   1.1426
B( 10-C , 13-C ) :   1.1352 B( 11-C , 12-N ) :   2.9941 B( 13-C , 14-N ) :   2.9815
B( 15-C , 16-C ) :   1.0076 B( 15-C , 59-H ) :   0.9389 B( 16-C , 17-C ) :   1.3097
B( 16-C , 21-C ) :   0.1260 B( 16-C , 23-C ) :   1.3121 B( 17-C , 18-F ) :   1.1890
B( 17-C , 19-C ) :   1.3005 B( 19-C , 20-F ) :   1.1448 B( 19-C , 21-C ) :   1.2866
B( 21-C , 22-C ) :   1.2681 B( 21-C , 26-C ) :   1.1144 B( 22-C , 23-C ) :   1.3226
B( 22-C , 25-F ) :   1.1359 B( 23-C , 24-F ) :   1.1575 B( 26-C , 27-C ) :   1.7155
B( 26-C , 60-H ) :   0.9711 B( 27-C , 28-C ) :   1.0496 B( 27-C , 61-H ) :   0.9744
B( 28-C , 29-C ) :   1.3191 B( 28-C , 33-C ) :   1.3085 B( 29-C , 30-N ) :   1.5687
B( 29-C , 62-H ) :   0.9837 B( 30-N , 31-C ) :   1.6087 B( 31-C , 32-N ) :   1.6047
B( 31-C , 34-C ) :   0.8964 B( 32-N , 33-C ) :   1.5568 B( 33-C , 63-H ) :   0.9798
B( 34-C , 35-N ) :   1.6026 B( 34-C , 39-N ) :   1.6364 B( 35-N , 36-C ) :   1.5538
B( 36-C , 37-C ) :   1.3606 B( 36-C , 64-H ) :   0.9797 B( 37-C , 38-C ) :   1.3468
B( 37-C , 65-H ) :   0.9753 B( 38-C , 39-N ) :   1.4875 B( 38-C , 40-C ) :   1.0443
B( 40-C , 41-C ) :   1.7344 B( 40-C , 66-H ) :   0.9881 B( 41-C , 42-C ) :   1.0734
B( 41-C , 67-H ) :   0.9263 B( 42-C , 43-C ) :   1.6766 B( 42-C , 68-H ) :   0.9668
B( 43-C , 44-C ) :   0.9291 B( 43-C , 51-C ) :   1.0349 B( 44-C , 45-O ) :   2.2949
B( 44-C , 46-C ) :   0.9231 B( 46-C , 47-C ) :   1.4873 B( 46-C , 50-C ) :   1.2206
B( 47-C , 48-S ) :   1.1531 B( 47-C , 57-Cl) :   1.1283 B( 48-S , 49-C ) :   1.1561
B( 49-C , 50-C ) :   1.5541 B( 49-C , 69-H ) :   0.9570 B( 50-C , 51-C ) :   1.0182
B( 51-C , 52-C ) :   1.6591 B( 52-C , 53-C ) :   1.1547 B( 52-C , 55-C ) :   1.1425
B( 53-C , 54-N ) :   2.9106 B( 55-C , 56-N ) :   3.0085

-----------------------------------------------------------------------------
         ABSORPTION SPECTRUM VIA TRANSITION ELECTRIC DIPOLE MOMENTS
-----------------------------------------------------------------------------
State   Energy  Wavelength   fosc         T2         TX        TY        TZ
        (cm-1)    (nm)                  (au**2)     (au)      (au)      (au)
-----------------------------------------------------------------------------
   0   23943.3    417.7   0.714490254   9.82400   1.30142  -2.83059   0.34364
   1   24827.1    402.8   0.049097696   0.65104  -0.31771   0.51146   0.53713
   2   26488.7    377.5   0.276651341   3.43833  -0.48421   0.78879   1.60676
   3   27661.5    361.5   0.197076132   2.34550  -0.46614   1.42338   0.31970
   4   28117.9    355.6   0.040360628   0.47255   0.49719   0.02073  -0.47426
   5   28335.5    352.9   0.005363450   0.06231  -0.03982   0.14130   0.20190
   6   28984.0    345.0   0.060268982   0.68456  -0.29034   0.26633   0.72755
   7   29432.6    339.8   0.050775877   0.56794  -0.52822   0.19785   0.49978
   8   29697.9    336.7   0.021222293   0.23526  -0.25612   0.07301   0.40538
   9   29779.2    335.8   0.115289837   1.27454   0.53899  -0.91435   0.38471
  10   32071.4    311.8   0.003518150   0.03611   0.02256   0.11866  -0.14672
  11   32419.3    308.5   0.092592500   0.94026   0.55613  -0.79128   0.06963
  12   32955.6    303.4   0.068796629   0.68725   0.63993   0.05647  -0.52398
  13   32974.1    303.3   0.002615387   0.02611   0.05004  -0.03324   0.15001
  14   34000.8    294.1   0.034828002   0.33722  -0.01570   0.54422  -0.20200
  15   34809.7    287.3   0.002310096   0.02185   0.04962  -0.02178   0.13752
  16   34970.1    286.0   0.907014393   8.53872  -0.06184   2.48891  -1.52978
  17   35477.3    281.9   0.003625045   0.03364   0.09732   0.15473   0.01509
  18   35887.7    278.6   0.315621699   2.89532  -1.02927  -0.04306   1.35428
  19   36088.3    277.1   0.586403460   5.34940   1.56575  -0.39342  -1.65622
  20   36492.8    274.0   0.128139032   1.15598   0.58416  -0.89404  -0.12417
  21   36572.6    273.4   0.275283777   2.47799  -0.77948   1.35733   0.16751
  22   37237.0    268.6   0.092600916   0.81868   0.60716  -0.36546  -0.56256
  23   37646.2    265.6   0.076906279   0.67254  -0.42786  -0.09821   0.69270
  24   38060.6    262.7   0.569370633   4.92488  -1.18046  -0.99954   1.59132
  25   38287.8    261.2   0.276487269   2.37734   1.12558   0.37178  -0.98600
  26   38623.6    258.9   0.057172949   0.48732   0.24322  -0.13158  -0.64097
  27   38693.3    258.4   0.063871185   0.54343   0.37621  -0.02771  -0.63335
  28   38806.0    257.7   0.084587198   0.71760  -0.52253  -0.17241   0.64407
  29   39384.6    253.9   0.006737224   0.05632   0.20791  -0.11342  -0.01498
  30   39493.1    253.2   0.002679840   0.02234   0.05404   0.12509   0.06140
  31   39741.5    251.6   0.006792816   0.05627   0.16715  -0.12528  -0.11242

FINAL SINGLE POINT ENERGY     -4232.334103693394

DIPOLE MOMENT
-------------
                                X             Y             Z
Electronic contribution:    -29.41362      35.82653      11.96069
Nuclear contribution   :     27.87407     -37.25899     -10.67102
                        -----------------------------------------
Total Dipole Moment    :     -1.53955      -1.43245       1.28967
                        -----------------------------------------
Magnitude (a.u.)       :      2.46685
Magnitude (Debye)      :      6.27025

Rotational constants in cm-1:     0.001812     0.000433     0.000358
Rotational constants in MHz :    54.330778    12.992234    10.733471

                             ****ORCA TERMINATED NORMALLY****
TOTAL RUN TIME: 0 days 0 hours 4 minutes 53 seconds 455 msec
