                         Program Version 4.2.0 -  RELEASE  -
|  1> # ORCA input file
|  2> # SCF done       -190.080087578626          0.000974520607
|  3> ! CAM-B3LYP def2-SVP def2/J RIJCOSX Grid4 TightSCF
|  4> %maxcore 5000
|  5> %tddft
|  6>     Mode sTDDFT
|  7>     Ethresh 5.0
|  8>     maxcore 5000
|  9> end
| 10>
| 11> %pal
| 12>   nprocs 6
| 13>   end
| 14> * xyz 0 1
| 15>    C        3.56165         2.70227        -3.96800
| 16>    C        3.43142         3.98743        -4.39655
| 17>    S        4.93778         4.61236        -4.95839
| 18>    C        5.76595         3.11331        -4.60920
| 19>   Cl        7.42122         2.92680        -4.91287
| 20>    C        4.89777         2.20005        -4.08753
| 21>    C        4.96619         0.81767        -3.60377
| 22>    O        5.93690         0.10085        -3.55180
| 23>    C        3.54863         0.47614        -3.24498
| 24>    C        2.71931         1.66901        -3.40609
| 25>    C        1.41236         1.83325        -3.04048
| 26>    C        0.74448         3.06136        -3.23882
| 27>    N        0.19007         4.05333        -3.39354
| 28>    C        0.60928         0.85719        -2.41529
| 29>    N       -0.08701         0.11001        -1.89169
| 30>    C        3.07467        -0.77191        -3.02258
| 31>    C        3.84598        -1.97962        -2.83174
| 32>    C        3.36829        -3.17149        -3.37713
| 33>    C        4.08563        -4.34562        -3.23939
| 34>    N        3.50248        -5.55186        -3.77026
| 35>    O        2.67624        -5.43183        -4.64798
| 36>    O        3.85165        -6.60801        -3.28578
| 37>    C        5.30124        -4.38947        -2.53295
| 38>    C        5.72709        -3.19910        -1.93185
| 39>    C        5.02524        -2.02372        -2.07573
| 40>    C        6.10768        -5.58622        -2.47186
| 41>    C        6.76656        -5.99514        -1.36776
| 42>    C        7.56840        -7.17079        -1.36520
| 43>    N        8.08592        -7.74835        -0.22784
| 44>    C        7.81812        -7.34742         1.13057
| 45>    C        6.40318        -7.71989         1.56701
| 46>    C        8.84195        -8.88913        -0.51938
| 47>    O        9.40194        -9.55799         0.33730
| 48>    C        8.77725        -9.01246        -1.95622
| 49>    C        7.98701        -7.93992        -2.44308
| 50>    C        7.92979        -8.04365        -3.88542
| 51>    O        7.38837        -7.35944        -4.72899
| 52>    N        8.69364        -9.18602        -4.17988
| 53>    C        8.83354        -9.66404        -5.53479
| 54>    C        7.90124       -10.83814        -5.82138
| 55>    C        9.19940        -9.77534        -3.04806
| 56>    C        9.99968       -10.94533        -3.06435
| 57>    C       10.46838       -11.48803        -1.91170
| 58>    C       11.27541       -12.65853        -1.83180
| 59>    C       11.90570       -13.08853        -0.64641
| 60>    N       12.69332       -14.19429        -0.56721
| 61>    C       12.93620       -14.95057        -1.58457
| 62>    C       12.38206       -14.64029        -2.85046
| 63>    C       11.54232       -13.47366        -2.96878
| 64>    N       11.15309       -13.40939        -4.22905
| 65>    O       11.70996       -14.45427        -4.84462
| 66>    N       12.44877       -15.20455        -4.03896
| 67>    C       11.81216       -12.33034         0.57521
| 68>    C       12.62718       -12.55546         1.63043
| 69>    C       12.58845       -11.82738         2.85007
| 70>    C       12.21447       -10.54624         3.11892
| 71>    C       11.95717       -10.20484         4.55605
| 72>    O       12.21801       -10.89439         5.51260
| 73>    C       11.30372        -8.89304         4.51753
| 74>    C       10.75373        -8.02179         5.40838
| 75>    S       10.19903        -6.58062         4.58883
| 76>    C       10.73144        -7.17237         3.05574
| 77>    C       11.28290        -8.41024         3.16870
| 78>    C       11.91711        -9.38398         2.29633
| 79>    C       12.27654        -9.10567         1.00449
| 80>    C       11.85266        -7.91962         0.36975
| 81>    N       11.49106        -6.97831        -0.17867
| 82>    C       13.08078        -9.90070         0.16983
| 83>    N       13.75913       -10.47247        -0.55923
| 84>   Cl       10.58512        -8.20288         7.08428
| 85>    H        2.55841         4.60874        -4.42736
| 86>    H        2.00084        -0.91866        -3.03555
| 87>    H        2.43847        -3.19422        -3.92725
| 88>    H        6.65187        -3.20360        -1.37615
| 89>    H        5.37711        -1.13137        -1.58522
| 90>    H        6.17640        -6.18205        -3.37339
| 91>    H        6.65623        -5.45679        -0.43661
| 92>    H        7.98799        -6.27194         1.23683
| 93>    H        8.54411        -7.88128         1.74997
| 94>    H        5.65932        -7.24491         0.93171
| 95>    H        6.24131        -7.40534         2.59441
| 96>    H        6.26774        -8.79694         1.50733
| 97>    H        9.87486        -9.94059        -5.71930
| 98>    H        8.57087        -8.82057        -6.17939
| 99>    H        8.13380       -11.68646        -5.18201
|100>    H        8.00687       -11.14395        -6.85827
|101>    H        6.86896       -10.54323        -5.64916
|102>    H       10.23984       -11.40039        -4.01305
|103>    H       10.21510       -10.99351        -0.98819
|104>    H       13.56599       -15.81559        -1.43900
|105>    H       11.05569       -11.56432         0.64744
|106>    H       13.31291       -13.39041         1.57553
|107>    H       12.86587       -12.39063         3.73853
|108>    H       10.60645        -6.55936         2.18621
|109> *
|110>
|111>                          ****END OF INPUT****

CARTESIAN COORDINATES (ANGSTROEM)
---------------------------------
  C      3.561650    2.702270   -3.968000
  C      3.431420    3.987430   -4.396550
  S      4.937780    4.612360   -4.958390
  C      5.765950    3.113310   -4.609200
  Cl     7.421220    2.926800   -4.912870
  C      4.897770    2.200050   -4.087530
  C      4.966190    0.817670   -3.603770
  O      5.936900    0.100850   -3.551800
  C      3.548630    0.476140   -3.244980
  C      2.719310    1.669010   -3.406090
  C      1.412360    1.833250   -3.040480
  C      0.744480    3.061360   -3.238820
  N      0.190070    4.053330   -3.393540
  C      0.609280    0.857190   -2.415290
  N     -0.087010    0.110010   -1.891690
  C      3.074670   -0.771910   -3.022580
  C      3.845980   -1.979620   -2.831740
  C      3.368290   -3.171490   -3.377130
  C      4.085630   -4.345620   -3.239390
  N      3.502480   -5.551860   -3.770260
  O      2.676240   -5.431830   -4.647980
  O      3.851650   -6.608010   -3.285780
  C      5.301240   -4.389470   -2.532950
  C      5.727090   -3.199100   -1.931850
  C      5.025240   -2.023720   -2.075730
  C      6.107680   -5.586220   -2.471860
  C      6.766560   -5.995140   -1.367760
  C      7.568400   -7.170790   -1.365200
  N      8.085920   -7.748350   -0.227840
  C      7.818120   -7.347420    1.130570
  C      6.403180   -7.719890    1.567010
  C      8.841950   -8.889130   -0.519380
  O      9.401940   -9.557990    0.337300
  C      8.777250   -9.012460   -1.956220
  C      7.987010   -7.939920   -2.443080
  C      7.929790   -8.043650   -3.885420
  O      7.388370   -7.359440   -4.728990
  N      8.693640   -9.186020   -4.179880
  C      8.833540   -9.664040   -5.534790
  C      7.901240  -10.838140   -5.821380
  C      9.199400   -9.775340   -3.048060
  C      9.999680  -10.945330   -3.064350
  C     10.468380  -11.488030   -1.911700
  C     11.275410  -12.658530   -1.831800
  C     11.905700  -13.088530   -0.646410
  N     12.693320  -14.194290   -0.567210
  C     12.936200  -14.950570   -1.584570
  C     12.382060  -14.640290   -2.850460
  C     11.542320  -13.473660   -2.968780
  N     11.153090  -13.409390   -4.229050
  O     11.709960  -14.454270   -4.844620
  N     12.448770  -15.204550   -4.038960
  C     11.812160  -12.330340    0.575210
  C     12.627180  -12.555460    1.630430
  C     12.588450  -11.827380    2.850070
  C     12.214470  -10.546240    3.118920
  C     11.957170  -10.204840    4.556050
  O     12.218010  -10.894390    5.512600
  C     11.303720   -8.893040    4.517530
  C     10.753730   -8.021790    5.408380
  S     10.199030   -6.580620    4.588830
  C     10.731440   -7.172370    3.055740
  C     11.282900   -8.410240    3.168700
  C     11.917110   -9.383980    2.296330
  C     12.276540   -9.105670    1.004490
  C     11.852660   -7.919620    0.369750
  N     11.491060   -6.978310   -0.178670
  C     13.080780   -9.900700    0.169830
  N     13.759130  -10.472470   -0.559230
  Cl    10.585120   -8.202880    7.084280
  H      2.558410    4.608740   -4.427360
  H      2.000840   -0.918660   -3.035550
  H      2.438470   -3.194220   -3.927250
  H      6.651870   -3.203600   -1.376150
  H      5.377110   -1.131370   -1.585220
  H      6.176400   -6.182050   -3.373390
  H      6.656230   -5.456790   -0.436610
  H      7.987990   -6.271940    1.236830
  H      8.544110   -7.881280    1.749970
  H      5.659320   -7.244910    0.931710
  H      6.241310   -7.405340    2.594410
  H      6.267740   -8.796940    1.507330
  H      9.874860   -9.940590   -5.719300
  H      8.570870   -8.820570   -6.179390
  H      8.133800  -11.686460   -5.182010
  H      8.006870  -11.143950   -6.858270
  H      6.868960  -10.543230   -5.649160
  H     10.239840  -11.400390   -4.013050
  H     10.215100  -10.993510   -0.988190
  H     13.565990  -15.815590   -1.439000
  H     11.055690  -11.564320    0.647440
  H     13.312910  -13.390410    1.575530
  H     12.865870  -12.390630    3.738530
  H     10.606450   -6.559360    2.186210

 Total Charge           Charge          ....    0
 Multiplicity           Mult            ....    1
 Number of Electrons    NEL             ....  510
 Basis Dimension        Dim             .... 1116

ORBITAL ENERGIES
----------------

  NO   OCC          E(Eh)            E(eV)
   0   2.0000    -101.624706     -2765.3488
   1   2.0000    -101.617227     -2765.1453
   2   2.0000     -89.002126     -2421.8710
   3   2.0000     -88.993462     -2421.6352
   4   2.0000     -19.371789      -527.1332
   5   2.0000     -19.248420      -523.7761
   6   2.0000     -19.246721      -523.7299
   7   2.0000     -19.231923      -523.3272
   8   2.0000     -19.217155      -522.9254
   9   2.0000     -19.200127      -522.4620
  10   2.0000     -19.193071      -522.2700
  11   2.0000     -14.653215      -398.7343
  12   2.0000     -14.500991      -394.5920
  13   2.0000     -14.494155      -394.4060
  14   2.0000     -14.459053      -393.4508
  15   2.0000     -14.455411      -393.3517
  16   2.0000     -14.435702      -392.8154
  17   2.0000     -14.428762      -392.6266
  18   2.0000     -14.428122      -392.6091
  19   2.0000     -14.419763      -392.3817
  20   2.0000     -14.418718      -392.3533
  21   2.0000     -10.389491      -282.7124
  22   2.0000     -10.384634      -282.5803
  23   2.0000     -10.380817      -282.4764
  24   2.0000     -10.375685      -282.3368
  25   2.0000     -10.375511      -282.3320
  26   2.0000     -10.372778      -282.2576
  27   2.0000     -10.357972      -281.8548
  28   2.0000     -10.357314      -281.8369
  29   2.0000     -10.347204      -281.5617
  30   2.0000     -10.346433      -281.5407
  31   2.0000     -10.343395      -281.4581
  32   2.0000     -10.342890      -281.4444
  33   2.0000     -10.341913      -281.4177
  34   2.0000     -10.341119      -281.3962
  35   2.0000     -10.339985      -281.3653
  36   2.0000     -10.339571      -281.3540
  37   2.0000     -10.338277      -281.3188
  38   2.0000     -10.337935      -281.3095
  39   2.0000     -10.333350      -281.1847
  40   2.0000     -10.330593      -281.1097
  41   2.0000     -10.329726      -281.0861
  42   2.0000     -10.327966      -281.0382
  43   2.0000     -10.322698      -280.8949
  44   2.0000     -10.321826      -280.8712
  45   2.0000     -10.321235      -280.8551
  46   2.0000     -10.321024      -280.8494
  47   2.0000     -10.319378      -280.8046
  48   2.0000     -10.319171      -280.7989
  49   2.0000     -10.316357      -280.7223
  50   2.0000     -10.315227      -280.6916
  51   2.0000     -10.313957      -280.6570
  52   2.0000     -10.313027      -280.6317
  53   2.0000     -10.311564      -280.5919
  54   2.0000     -10.308683      -280.5135
  55   2.0000     -10.307739      -280.4878
  56   2.0000     -10.306278      -280.4481
  57   2.0000     -10.303449      -280.3711
  58   2.0000     -10.300593      -280.2934
  59   2.0000     -10.299470      -280.2628
  60   2.0000     -10.298876      -280.2467
  61   2.0000     -10.297648      -280.2132
  62   2.0000     -10.296941      -280.1940
  63   2.0000     -10.296150      -280.1725
  64   2.0000     -10.293966      -280.1130
  65   2.0000     -10.291428      -280.0440
  66   2.0000     -10.269644      -279.4512
  67   2.0000     -10.264344      -279.3070
  68   2.0000     -10.262516      -279.2572
  69   2.0000     -10.259900      -279.1861
  70   2.0000      -9.579449      -260.6700
  71   2.0000      -9.571963      -260.4664
  72   2.0000      -8.097762      -220.3513
  73   2.0000      -8.089104      -220.1157
  74   2.0000      -7.350107      -200.0066
  75   2.0000      -7.342606      -199.8025
  76   2.0000      -7.339479      -199.7174
  77   2.0000      -7.338926      -199.7023
  78   2.0000      -7.331995      -199.5137
  79   2.0000      -7.331477      -199.4996
  80   2.0000      -6.067129      -165.0950
  81   2.0000      -6.062495      -164.9689
  82   2.0000      -6.060091      -164.9035
  83   2.0000      -6.058487      -164.8598
  84   2.0000      -6.053922      -164.7356
  85   2.0000      -6.051365      -164.6660
  86   2.0000      -1.328963       -36.1629
  87   2.0000      -1.325180       -36.0600
  88   2.0000      -1.149756       -31.2864
  89   2.0000      -1.148081       -31.2409
  90   2.0000      -1.138686       -30.9852
  91   2.0000      -1.134209       -30.8634
  92   2.0000      -1.130930       -30.7742
  93   2.0000      -1.071848       -29.1665
  94   2.0000      -1.068219       -29.0677
  95   2.0000      -1.059549       -28.8318
  96   2.0000      -1.046751       -28.4836
  97   2.0000      -1.036919       -28.2160
  98   2.0000      -1.027799       -27.9678
  99   2.0000      -1.025724       -27.9114
 100   2.0000      -1.016370       -27.6568
 101   2.0000      -1.006908       -27.3994
 102   2.0000      -1.003346       -27.3024
 103   2.0000      -0.998081       -27.1592
 104   2.0000      -0.995636       -27.0926
 105   2.0000      -0.986327       -26.8393
 106   2.0000      -0.982516       -26.7356
 107   2.0000      -0.963749       -26.2249
 108   2.0000      -0.953812       -25.9545
 109   2.0000      -0.939621       -25.5684
 110   2.0000      -0.936612       -25.4865
 111   2.0000      -0.930231       -25.3129
 112   2.0000      -0.917371       -24.9629
 113   2.0000      -0.914836       -24.8939
 114   2.0000      -0.911605       -24.8060
 115   2.0000      -0.902860       -24.5681
 116   2.0000      -0.891007       -24.2455
 117   2.0000      -0.884985       -24.0817
 118   2.0000      -0.872937       -23.7538
 119   2.0000      -0.859626       -23.3916
 120   2.0000      -0.851838       -23.1797
 121   2.0000      -0.841107       -22.8877
 122   2.0000      -0.831712       -22.6320
 123   2.0000      -0.822656       -22.3856
 124   2.0000      -0.817403       -22.2427
 125   2.0000      -0.812203       -22.1012
 126   2.0000      -0.797941       -21.7131
 127   2.0000      -0.791854       -21.5474
 128   2.0000      -0.786976       -21.4147
 129   2.0000      -0.768697       -20.9173
 130   2.0000      -0.764162       -20.7939
 131   2.0000      -0.763187       -20.7674
 132   2.0000      -0.763002       -20.7623
 133   2.0000      -0.745804       -20.2944
 134   2.0000      -0.735934       -20.0258
 135   2.0000      -0.723569       -19.6893
 136   2.0000      -0.712420       -19.3859
 137   2.0000      -0.709772       -19.3139
 138   2.0000      -0.707684       -19.2571
 139   2.0000      -0.700631       -19.0651
 140   2.0000      -0.692446       -18.8424
 141   2.0000      -0.687022       -18.6948
 142   2.0000      -0.685505       -18.6535
 143   2.0000      -0.675611       -18.3843
 144   2.0000      -0.673097       -18.3159
 145   2.0000      -0.662915       -18.0388
 146   2.0000      -0.656055       -17.8522
 147   2.0000      -0.654350       -17.8058
 148   2.0000      -0.648338       -17.6422
 149   2.0000      -0.640462       -17.4279
 150   2.0000      -0.638614       -17.3776
 151   2.0000      -0.632706       -17.2168
 152   2.0000      -0.623879       -16.9766
 153   2.0000      -0.623082       -16.9549
 154   2.0000      -0.622224       -16.9316
 155   2.0000      -0.616866       -16.7858
 156   2.0000      -0.611250       -16.6330
 157   2.0000      -0.609943       -16.5974
 158   2.0000      -0.606486       -16.5033
 159   2.0000      -0.601910       -16.3788
 160   2.0000      -0.596494       -16.2314
 161   2.0000      -0.592960       -16.1353
 162   2.0000      -0.588116       -16.0034
 163   2.0000      -0.582447       -15.8492
 164   2.0000      -0.578098       -15.7308
 165   2.0000      -0.572673       -15.5832
 166   2.0000      -0.570020       -15.5110
 167   2.0000      -0.562574       -15.3084
 168   2.0000      -0.559719       -15.2307
 169   2.0000      -0.553439       -15.0598
 170   2.0000      -0.552727       -15.0405
 171   2.0000      -0.548403       -14.9228
 172   2.0000      -0.546751       -14.8778
 173   2.0000      -0.544856       -14.8263
 174   2.0000      -0.543995       -14.8029
 175   2.0000      -0.543102       -14.7786
 176   2.0000      -0.539496       -14.6804
 177   2.0000      -0.535448       -14.5703
 178   2.0000      -0.533803       -14.5255
 179   2.0000      -0.532848       -14.4995
 180   2.0000      -0.529330       -14.4038
 181   2.0000      -0.525502       -14.2996
 182   2.0000      -0.523822       -14.2539
 183   2.0000      -0.521537       -14.1918
 184   2.0000      -0.520919       -14.1749
 185   2.0000      -0.517607       -14.0848
 186   2.0000      -0.514920       -14.0117
 187   2.0000      -0.513236       -13.9659
 188   2.0000      -0.510028       -13.8786
 189   2.0000      -0.504295       -13.7226
 190   2.0000      -0.502297       -13.6682
 191   2.0000      -0.499382       -13.5889
 192   2.0000      -0.498834       -13.5740
 193   2.0000      -0.496337       -13.5060
 194   2.0000      -0.492442       -13.4000
 195   2.0000      -0.488034       -13.2801
 196   2.0000      -0.486079       -13.2269
 197   2.0000      -0.481045       -13.0899
 198   2.0000      -0.478082       -13.0093
 199   2.0000      -0.475633       -12.9426
 200   2.0000      -0.469242       -12.7687
 201   2.0000      -0.465640       -12.6707
 202   2.0000      -0.462942       -12.5973
 203   2.0000      -0.461071       -12.5464
 204   2.0000      -0.460733       -12.5372
 205   2.0000      -0.458308       -12.4712
 206   2.0000      -0.457301       -12.4438
 207   2.0000      -0.456079       -12.4105
 208   2.0000      -0.455408       -12.3923
 209   2.0000      -0.454485       -12.3672
 210   2.0000      -0.454173       -12.3587
 211   2.0000      -0.452801       -12.3213
 212   2.0000      -0.452073       -12.3015
 213   2.0000      -0.449132       -12.2215
 214   2.0000      -0.447651       -12.1812
 215   2.0000      -0.445829       -12.1316
 216   2.0000      -0.442136       -12.0311
 217   2.0000      -0.441259       -12.0073
 218   2.0000      -0.439535       -11.9603
 219   2.0000      -0.438650       -11.9363
 220   2.0000      -0.432538       -11.7700
 221   2.0000      -0.430035       -11.7018
 222   2.0000      -0.427230       -11.6255
 223   2.0000      -0.425798       -11.5866
 224   2.0000      -0.424432       -11.5494
 225   2.0000      -0.420862       -11.4522
 226   2.0000      -0.418997       -11.4015
 227   2.0000      -0.418382       -11.3847
 228   2.0000      -0.411043       -11.1850
 229   2.0000      -0.410690       -11.1754
 230   2.0000      -0.406044       -11.0490
 231   2.0000      -0.403376       -10.9764
 232   2.0000      -0.402041       -10.9401
 233   2.0000      -0.400142       -10.8884
 234   2.0000      -0.389398       -10.5961
 235   2.0000      -0.384910       -10.4739
 236   2.0000      -0.379621       -10.3300
 237   2.0000      -0.376648       -10.2491
 238   2.0000      -0.374368       -10.1871
 239   2.0000      -0.361785        -9.8447
 240   2.0000      -0.359199        -9.7743
 241   2.0000      -0.357398        -9.7253
 242   2.0000      -0.354737        -9.6529
 243   2.0000      -0.345156        -9.3922
 244   2.0000      -0.342401        -9.3172
 245   2.0000      -0.341278        -9.2867
 246   2.0000      -0.338267        -9.2047
 247   2.0000      -0.336614        -9.1597
 248   2.0000      -0.329807        -8.9745
 249   2.0000      -0.325188        -8.8488
 250   2.0000      -0.317591        -8.6421
 251   2.0000      -0.311836        -8.4855
 252   2.0000      -0.309791        -8.4299
 253   2.0000      -0.290627        -7.9084
 254   2.0000      -0.241024        -6.5586
 255   0.0000      -0.113050        -3.0763
 256   0.0000      -0.101896        -2.7727
 257   0.0000      -0.080958        -2.2030
 258   0.0000      -0.065538        -1.7834
 259   0.0000      -0.057540        -1.5657

MULLIKEN ATOMIC CHARGES
-----------------------
   0 C :    0.033589
   1 C :   -0.129304
   2 S :    0.194706
   3 C :   -0.169893
   4 Cl:    0.005297
   5 C :    0.074408
   6 C :    0.146327
   7 O :   -0.125272
   8 C :   -0.090197
   9 C :    0.277792
  10 C :   -0.319735
  11 C :   -0.190420
  12 N :    0.159707
  13 C :   -0.198215
  14 N :    0.172664
  15 C :   -0.030025
  16 C :    0.057899
  17 C :   -0.052522
  18 C :    0.150169
  19 N :    0.245111
  20 O :   -0.229118
  21 O :   -0.222952
  22 C :    0.056275
  23 C :   -0.046114
  24 C :    0.108765
  25 C :    0.029182
  26 C :   -0.033654
  27 C :    0.126152
  28 N :   -0.243077
  29 C :    0.072089
  30 C :    0.008284
  31 C :    0.185466
  32 O :   -0.249532
  33 C :   -0.051810
  34 C :   -0.059112
  35 C :    0.169745
  36 O :   -0.200616
  37 N :   -0.253592
  38 C :    0.099174
  39 C :    0.001702
  40 C :    0.133877
  41 C :   -0.009697
  42 C :   -0.027261
  43 C :    0.138552
  44 C :   -0.018214
  45 N :   -0.040136
  46 C :    0.014728
  47 C :   -0.035981
  48 C :   -0.047001
  49 N :    0.024526
  50 O :   -0.087149
  51 N :    0.079501
  52 C :   -0.021543
  53 C :    0.041601
  54 C :    0.038522
  55 C :   -0.125136
  56 C :    0.121976
  57 O :   -0.132372
  58 C :    0.100516
  59 C :   -0.173370
  60 S :    0.171030
  61 C :   -0.148718
  62 C :    0.015275
  63 C :    0.330249
  64 C :   -0.335000
  65 C :   -0.169975
  66 N :    0.137170
  67 C :   -0.216537
  68 N :    0.183292
  69 Cl:   -0.001788
  70 H :    0.056633
  71 H :    0.041033
  72 H :    0.010730
  73 H :   -0.003735
  74 H :   -0.003158
  75 H :    0.045464
  76 H :   -0.022440
  77 H :    0.022300
  78 H :    0.054335
  79 H :    0.024062
  80 H :    0.021977
  81 H :    0.029829
  82 H :    0.030454
  83 H :    0.043961
  84 H :    0.021264
  85 H :    0.025323
  86 H :    0.030107
  87 H :   -0.003373
  88 H :   -0.010047
  89 H :    0.018493
  90 H :    0.034872
  91 H :    0.024020
  92 H :    0.035914
  93 H :    0.051698
Sum of atomic charges:   -0.0000000

LOEWDIN ATOMIC CHARGES
----------------------
   0 C :   -0.060032
   1 C :   -0.147570
   2 S :    0.482808
   3 C :   -0.270925
   4 Cl:    0.196418
   5 C :   -0.118015
   6 C :    0.081175
   7 O :   -0.121671
   8 C :   -0.080674
   9 C :    0.073461
  10 C :   -0.130228
  11 C :   -0.015557
  12 N :   -0.045307
  13 C :   -0.026378
  14 N :   -0.039294
  15 C :    0.078797
  16 C :   -0.039369
  17 C :    0.026010
  18 C :   -0.027443
  19 N :    0.285452
  20 O :   -0.197143
  21 O :   -0.183187
  22 C :    0.010235
  23 C :   -0.008473
  24 C :    0.044594
  25 C :    0.037347
  26 C :   -0.041866
  27 C :    0.078705
  28 N :    0.009669
  29 C :    0.032646
  30 C :   -0.059706
  31 C :    0.087891
  32 O :   -0.225078
  33 C :   -0.119200
  34 C :   -0.113063
  35 C :    0.084078
  36 O :   -0.190897
  37 N :    0.005425
  38 C :    0.037549
  39 C :   -0.059910
  40 C :    0.081841
  41 C :   -0.026374
  42 C :    0.020594
  43 C :   -0.031055
  44 C :    0.023579
  45 N :   -0.039430
  46 C :    0.053348
  47 C :   -0.082199
  48 C :   -0.034048
  49 N :   -0.029875
  50 O :    0.084229
  51 N :    0.002245
  52 C :    0.021677
  53 C :   -0.010413
  54 C :    0.071250
  55 C :   -0.082818
  56 C :    0.080548
  57 O :   -0.134310
  58 C :   -0.116503
  59 C :   -0.273054
  60 S :    0.463010
  61 C :   -0.156440
  62 C :   -0.050383
  63 C :    0.075879
  64 C :   -0.130578
  65 C :   -0.006166
  66 N :   -0.065768
  67 C :   -0.014872
  68 N :   -0.044191
  69 Cl:    0.190480
  70 H :    0.038870
  71 H :    0.049534
  72 H :    0.044708
  73 H :    0.037586
  74 H :    0.036895
  75 H :    0.039654
  76 H :    0.027753
  77 H :    0.019834
  78 H :    0.032780
  79 H :    0.025060
  80 H :    0.030268
  81 H :    0.032843
  82 H :    0.026521
  83 H :    0.037984
  84 H :    0.024099
  85 H :    0.032155
  86 H :    0.032164
  87 H :    0.031035
  88 H :    0.033287
  89 H :    0.034716
  90 H :    0.038472
  91 H :    0.039843
  92 H :    0.049667
  93 H :    0.032797

  Mayer bond orders larger than 0.100000
B(  0-C ,  1-C ) :   1.5397 B(  0-C ,  5-C ) :   1.2206 B(  0-C ,  9-C ) :   1.0066
B(  1-C ,  2-S ) :   1.1664 B(  1-C , 70-H ) :   0.9549 B(  2-S ,  3-C ) :   1.1559
B(  3-C ,  4-Cl) :   1.1329 B(  3-C ,  5-C ) :   1.4723 B(  5-C ,  6-C ) :   0.9545
B(  6-C ,  7-O ) :   2.2415 B(  6-C ,  8-C ) :   0.9195 B(  8-C ,  9-C ) :   1.0396
B(  8-C , 15-C ) :   1.7040 B(  9-C , 10-C ) :   1.6802 B( 10-C , 11-C ) :   1.1394
B( 10-C , 13-C ) :   1.1336 B( 11-C , 12-N ) :   2.9952 B( 13-C , 14-N ) :   2.9946
B( 15-C , 16-C ) :   1.0499 B( 15-C , 71-H ) :   0.9519 B( 16-C , 17-C ) :   1.2834
B( 16-C , 24-C ) :   1.3377 B( 17-C , 18-C ) :   1.3852 B( 17-C , 72-H ) :   0.9976
B( 18-C , 19-N ) :   0.8809 B( 18-C , 22-C ) :   1.3388 B( 19-N , 20-O ) :   1.5575
B( 19-N , 21-O ) :   1.5326 B( 20-O , 21-O ) :   0.2676 B( 22-C , 23-C ) :   1.3505
B( 22-C , 25-C ) :   1.0448 B( 23-C , 24-C ) :   1.4020 B( 23-C , 73-H ) :   0.9927
B( 24-C , 74-H ) :   0.9818 B( 25-C , 26-C ) :   1.6997 B( 25-C , 75-H ) :   0.9111
B( 26-C , 27-C ) :   1.1414 B( 26-C , 76-H ) :   0.9610 B( 27-C , 28-N ) :   1.1498
B( 27-C , 34-C ) :   1.3726 B( 28-N , 29-C ) :   0.9499 B( 28-N , 31-C ) :   1.0843
B( 29-C , 30-C ) :   1.1169 B( 29-C , 77-H ) :   0.9472 B( 29-C , 78-H ) :   0.9228
B( 30-C , 79-H ) :   0.9669 B( 30-C , 80-H ) :   0.9670 B( 30-C , 81-H ) :   0.9624
B( 31-C , 32-O ) :   1.9208 B( 31-C , 33-C ) :   1.0096 B( 33-C , 34-C ) :   1.2512
B( 33-C , 40-C ) :   1.3251 B( 34-C , 35-C ) :   0.9772 B( 35-C , 36-O ) :   2.0482
B( 35-C , 37-N ) :   1.0529 B( 37-N , 38-C ) :   0.9402 B( 37-N , 40-C ) :   1.1756
B( 38-C , 39-C ) :   1.1226 B( 38-C , 82-H ) :   0.9491 B( 38-C , 83-H ) :   0.9279
B( 39-C , 84-H ) :   0.9674 B( 39-C , 85-H ) :   0.9678 B( 39-C , 86-H ) :   0.9637
B( 40-C , 41-C ) :   1.1294 B( 41-C , 42-C ) :   1.5965 B( 41-C , 87-H ) :   0.9558
B( 42-C , 43-C ) :   1.1448 B( 42-C , 88-H ) :   0.9476 B( 43-C , 44-C ) :   1.3781
B( 43-C , 48-C ) :   1.1116 B( 44-C , 45-N ) :   1.3486 B( 44-C , 52-C ) :   1.1466
B( 45-N , 46-C ) :   1.7732 B( 46-C , 47-C ) :   1.0952 B( 46-C , 89-H ) :   0.9928
B( 47-C , 48-C ) :   1.1719 B( 47-C , 51-N ) :   1.6052 B( 48-C , 49-N ) :   1.5844
B( 49-N , 50-O ) :   1.0464 B( 49-N , 51-N ) :   0.1791 B( 50-O , 51-N ) :   1.0937
B( 52-C , 53-C ) :   1.6929 B( 52-C , 90-H ) :   0.9537 B( 53-C , 54-C ) :   1.0976
B( 53-C , 91-H ) :   0.9498 B( 54-C , 55-C ) :   1.6986 B( 54-C , 92-H ) :   0.9234
B( 55-C , 56-C ) :   0.9405 B( 55-C , 63-C ) :   1.0269 B( 56-C , 57-O ) :   2.2668
B( 56-C , 58-C ) :   0.9250 B( 58-C , 59-C ) :   1.4817 B( 58-C , 62-C ) :   1.2274
B( 59-C , 60-S ) :   1.1462 B( 59-C , 69-Cl) :   1.1266 B( 60-S , 61-C ) :   1.1468
B( 61-C , 62-C ) :   1.5566 B( 61-C , 93-H ) :   0.9454 B( 62-C , 63-C ) :   1.0115
B( 63-C , 64-C ) :   1.6631 B( 64-C , 65-C ) :   1.1337 B( 64-C , 67-C ) :   1.1822
B( 65-C , 66-N ) :   2.9506 B( 67-C , 68-N ) :   2.9769

-----------------------------------------------------------------------------
         ABSORPTION SPECTRUM VIA TRANSITION ELECTRIC DIPOLE MOMENTS
-----------------------------------------------------------------------------
State   Energy  Wavelength   fosc         T2         TX        TY        TZ
        (cm-1)    (nm)                  (au**2)     (au)      (au)      (au)
-----------------------------------------------------------------------------
   0   11500.2    869.5   0.219139274   6.27320   1.72141  -1.75609   0.47550
   1   17162.5    582.7   0.502339747   9.63592  -1.51192   2.70094   0.23436
   2   19753.9    506.2   0.006041959   0.10069  -0.18612   0.11620   0.22924
   3   21722.9    460.3   0.197443688   2.99227   0.44008   1.06897   1.28682
   4   23360.4    428.1   0.043032650   0.60645  -0.04968   0.04466   0.77588
   5   25369.4    394.2   0.072768884   0.94430   0.01004   0.60388   0.76127
   6   25710.0    389.0   0.053143452   0.68049  -0.06509  -0.40710  -0.71451
   7   26163.0    382.2   0.114927305   1.44614  -0.61900   0.54400  -0.87581
   8   26284.2    380.5   0.181825517   2.27738  -0.75876   1.30419  -0.02749
   9   26683.8    374.8   0.089099969   1.09927  -0.08428   0.84200   0.61903
  10   28000.3    357.1   0.086567630   1.01781   0.23859  -0.36500   0.90976
  11   28210.0    354.5   0.138841585   1.62029   0.26476  -0.81372   0.94236
  12   28646.9    349.1   0.014595812   0.16774  -0.32913   0.24347  -0.01165
  13   28685.8    348.6   0.018795308   0.21570  -0.13724  -0.08853   0.43478
  14   29514.7    338.8   0.149524834   1.66782   0.89884  -0.92679   0.03098
  15   30294.4    330.1   0.503683819   5.47358  -0.86616   2.06710  -0.67114
  16   30522.5    327.6   0.053040732   0.57209   0.25322  -0.68870   0.18349
  17   30862.8    324.0   0.016102874   0.17177   0.23655  -0.30408  -0.15279
  18   31388.2    318.6   0.092067449   0.96564   0.40431  -0.88558   0.13388
  19   31577.0    316.7   0.044062851   0.45939   0.15393  -0.65682   0.06536
  20   31976.1    312.7   0.155895953   1.60504  -0.49707   1.09638   0.39487
  21   32396.7    308.7   0.001634628   0.01661   0.00259  -0.07346   0.10587
  22   32650.0    306.3   0.000771221   0.00778   0.01273   0.02967  -0.08206
  23   33040.6    302.7   0.007460939   0.07434   0.04015  -0.25051   0.09987
  24   33347.5    299.9   0.008513193   0.08404  -0.19617  -0.05845   0.20529
  25   33461.9    298.8   0.096493337   0.94934  -0.41605   0.49898   0.72612
  26   33925.9    294.8   0.027090845   0.26289   0.33239   0.08102   0.38189
  27   34253.1    291.9   0.112391079   1.08021   0.51882   0.86550  -0.24887
  28   34915.4    286.4   0.010033319   0.09460  -0.09169   0.23961  -0.16965
  29   35314.3    283.2   0.130979774   1.22104  -0.26166   0.77926   0.73846
  30   35407.7    282.4   0.087547497   0.81400  -0.23211  -0.80400   0.33720
  31   35617.3    280.8   0.042029979   0.38848  -0.09810  -0.01851  -0.61524
  32   35925.0    278.4   0.614421693   5.63048   0.65114  -1.01004  -2.04605
  33   36221.5    276.1   0.007128401   0.06479  -0.13655  -0.10542   0.18716
  34   36290.3    275.6   0.002150479   0.01951   0.02755   0.12275  -0.06067
  35   36851.1    271.4   0.132917106   1.18742   0.61522   0.24541  -0.86527
  36   36965.4    270.5   0.162997184   1.45164   0.78159  -0.03857  -0.91612
  37   37237.6    268.5   0.179267641   1.58488   0.81146   0.94744  -0.16961
  38   37802.1    264.5   0.274849508   2.39361   1.23480   0.83904  -0.40606
  39   37940.1    263.6   0.180156791   1.56325  -1.19065   0.22221  -0.31019
  40   38076.9    262.6   0.013930042   0.12044   0.26181   0.15597   0.16604
  41   38165.7    262.0   0.097939651   0.84481  -0.68956   0.60178   0.08474
  42   38328.9    260.9   0.013022658   0.11185  -0.32174   0.01743   0.08963
  43   38744.2    258.1   0.004879532   0.04146  -0.04024  -0.11115  -0.16579
  44   38764.7    258.0   0.011450027   0.09724   0.23138  -0.05969   0.20035
  45   38971.3    256.6   0.112591763   0.95112   0.82532   0.06511  -0.51549
  46   39228.0    254.9   0.190082766   1.59523   0.34666  -0.04851  -1.21355
  47   39462.0    253.4   0.034366151   0.28670   0.52039  -0.00873   0.12576
  48   39853.1    250.9   0.017812099   0.14714  -0.05769  -0.03216  -0.37786
  49   40036.7    249.8   0.243107537   1.99901   0.18913   1.37469  -0.27105

FINAL SINGLE POINT ENERGY     -4668.031785022579

DIPOLE MOMENT
-------------
                                X             Y             Z
Electronic contribution:      5.86678      47.66526      13.85791
Nuclear contribution   :     -4.94604     -46.51102     -13.12202
                        -----------------------------------------
Total Dipole Moment    :      0.92074       1.15424       0.73589
                        -----------------------------------------
Magnitude (a.u.)       :      1.64972
Magnitude (Debye)      :      4.19325

Rotational constants in cm-1:     0.001381     0.000355     0.000314
Rotational constants in MHz :    41.397892    10.657288     9.419880

                             ****ORCA TERMINATED NORMALLY****
TOTAL RUN TIME: 0 days 0 hours 9 minutes 26 seconds 339 msec
