                         Program Version 4.2.0 -  RELEASE  -
|  1> # ORCA input file
|  2> # SCF done       -193.713523224694          0.000563593567
|  3> ! CAM-B3LYP def2-SVP def2/J RIJCOSX Grid4 TightSCF
|  4> %maxcore 5000
|  5> %tddft
|  6>     Mode sTDDFT
|  7>     Ethresh 5.0
|  8>     maxcore 5000
|  9> end
| 10>
| 11> %pal
| 12>   nprocs 6
| 13>   end
| 14> * xyz 0 1
| 15>    C        2.87288         7.89765         1.09590
| 16>    C        1.88555         8.83313         1.19437
| 17>    C        1.92587        10.10163         0.57746
| 18>    N        1.89541        11.14419         0.10007
| 19>    C        0.73717         8.66893         1.99390
| 20>    N       -0.17128         8.57045         2.69080
| 21>    C        4.20309         8.12183         0.54805
| 22>    C        5.09054         7.14472         1.08957
| 23>    C        6.42247         7.14177         0.78504
| 24>    C        6.92968         8.12067        -0.09788
| 25>    C        6.04316         9.08765        -0.65619
| 26>    C        4.67152         9.07435        -0.31629
| 27>    C        6.56293        10.05163        -1.54420
| 28>    C        7.89279        10.06346        -1.86516
| 29>    C        8.76492         9.11237        -1.31396
| 30>    C        8.29392         8.16259        -0.44903
| 31>    C        4.33699         6.20734         1.93811
| 32>    O        4.75249         5.29175         2.60471
| 33>    C        2.89816         6.58190         1.72743
| 34>    C        1.93962         5.65448         1.87420
| 35>    C        0.60382         5.71479         1.24073
| 36>    C       -0.33934         4.52899         1.21883
| 37>    O       -0.69555         3.71167         2.00361
| 38>    C        0.58610         5.66226        -0.29472
| 39>    O        1.32961         6.04441        -1.13523
| 40>    C       -0.61850         4.71273        -0.29421
| 41>    C       -1.90705         5.38965        -0.56510
| 42>    N       -3.08850         4.73336        -0.75208
| 43>    C       -3.29099         3.30427        -0.76421
| 44>    C       -3.05361         2.71158        -2.15139
| 45>    C       -4.15899         5.64542        -0.96452
| 46>    O       -5.30197         5.29379        -1.15916
| 47>    C       -3.53291         6.94123        -0.87626
| 48>    C       -2.14513         6.74199        -0.61961
| 49>    C       -1.53065         8.04252        -0.53438
| 50>    O       -0.37693         8.37061        -0.32770
| 51>    N       -2.58195         8.95185        -0.72844
| 52>    C       -2.29989        10.36817        -0.71578
| 53>    C       -2.16578        10.93526        -2.12657
| 54>    C       -3.78138         8.30439        -0.94502
| 55>    C       -5.08431         8.82194        -1.20513
| 56>    C       -5.50817        10.09658        -1.32982
| 57>    C       -6.86605        10.48977        -1.62808
| 58>    C       -7.17510        11.85043        -1.67112
| 59>    C       -8.45159        12.28875        -1.97963
| 60>    N       -8.65627        13.71249        -2.05788
| 61>    O       -7.85636        14.42110        -1.48435
| 62>    O       -9.60127        14.12145        -2.69978
| 63>    C       -9.49234        11.38585        -2.25897
| 64>    C       -9.16929        10.02298        -2.20787
| 65>    C       -7.90245         9.58378        -1.90438
| 66>    C      -10.85147        11.80108        -2.52642
| 67>    C      -11.64706        11.17845        -3.41801
| 68>    C      -12.99424        11.54309        -3.72240
| 69>    C      -13.93142        12.05481        -2.88083
| 70>    C      -15.28095        12.44330        -3.26757
| 71>    C      -15.70663        12.73377        -4.53572
| 72>    C      -17.02090        13.13882        -4.85259
| 73>    N      -18.07394        13.46440        -5.17327
| 74>    C      -14.89988        12.69716        -5.69364
| 75>    N      -14.31016        12.69942        -6.67872
| 76>    C      -16.08081        12.54769        -2.05556
| 77>    C      -15.23455        12.31812        -0.93364
| 78>    C      -13.85829        12.06183        -1.39086
| 79>    O      -12.89507        11.84995        -0.68687
| 80>    C      -15.70916        12.35034         0.34642
| 81>    C      -17.07865        12.61710         0.56666
| 82>    C      -17.93350        12.84222        -0.55125
| 83>    C      -17.41348        12.80338        -1.86482
| 84>    C      -19.29978        13.10219        -0.31984
| 85>    C      -19.79923        13.13940         0.95343
| 86>    C      -18.95667        12.91826         2.05333
| 87>    C      -17.62545        12.66354         1.86425
| 88>    H        7.08105         6.39886         1.21003
| 89>    H        4.01533         9.80771        -0.75860
| 90>    H        5.88816        10.78310        -1.96381
| 91>    H        8.28107        10.80616        -2.54590
| 92>    H        9.81136         9.13605        -1.57889
| 93>    H        8.96050         7.42773        -0.02187
| 94>    H        2.21528         4.71786         2.34400
| 95>    H        0.03675         6.60006         1.55504
| 96>    H       -0.50300         3.80523        -0.89029
| 97>    H       -4.33214         3.13876        -0.47441
| 98>    H       -2.63819         2.84272        -0.01941
| 99>    H       -3.74583         3.15223        -2.86444
|100>    H       -3.21834         1.63828        -2.12437
|101>    H       -2.03869         2.89982        -2.49565
|102>    H       -1.34363        10.47882        -0.19508
|103>    H       -3.06702        10.88772        -0.13782
|104>    H       -1.32794        10.46168        -2.63213
|105>    H       -1.97703        12.00375        -2.07502
|106>    H       -3.06597        10.76085        -2.71218
|107>    H       -5.79939         8.01709        -1.31567
|108>    H       -4.82408        10.92240        -1.21352
|109>    H       -6.41476        12.59314        -1.47525
|110>    H       -9.95340         9.30373        -2.38676
|111>    H       -7.71046         8.52293        -1.88275
|112>    H      -11.21362        12.67484        -2.00698
|113>    H      -11.22870        10.40094        -4.04621
|114>    H      -13.29823        11.33087        -4.74111
|115>    H      -15.04648        12.17451         1.18083
|116>    H      -18.08684        12.96991        -2.69057
|117>    H      -19.94389        13.27336        -1.16981
|118>    H      -20.84692        13.33977         1.12041
|119>    H      -19.36798        12.95057         3.05111
|120>    H      -16.97200        12.49277         2.70725
|121> *
|122>
|123>                          ****END OF INPUT****

CARTESIAN COORDINATES (ANGSTROEM)
---------------------------------
  C      2.872880    7.897650    1.095900
  C      1.885550    8.833130    1.194370
  C      1.925870   10.101630    0.577460
  N      1.895410   11.144190    0.100070
  C      0.737170    8.668930    1.993900
  N     -0.171280    8.570450    2.690800
  C      4.203090    8.121830    0.548050
  C      5.090540    7.144720    1.089570
  C      6.422470    7.141770    0.785040
  C      6.929680    8.120670   -0.097880
  C      6.043160    9.087650   -0.656190
  C      4.671520    9.074350   -0.316290
  C      6.562930   10.051630   -1.544200
  C      7.892790   10.063460   -1.865160
  C      8.764920    9.112370   -1.313960
  C      8.293920    8.162590   -0.449030
  C      4.336990    6.207340    1.938110
  O      4.752490    5.291750    2.604710
  C      2.898160    6.581900    1.727430
  C      1.939620    5.654480    1.874200
  C      0.603820    5.714790    1.240730
  C     -0.339340    4.528990    1.218830
  O     -0.695550    3.711670    2.003610
  C      0.586100    5.662260   -0.294720
  O      1.329610    6.044410   -1.135230
  C     -0.618500    4.712730   -0.294210
  C     -1.907050    5.389650   -0.565100
  N     -3.088500    4.733360   -0.752080
  C     -3.290990    3.304270   -0.764210
  C     -3.053610    2.711580   -2.151390
  C     -4.158990    5.645420   -0.964520
  O     -5.301970    5.293790   -1.159160
  C     -3.532910    6.941230   -0.876260
  C     -2.145130    6.741990   -0.619610
  C     -1.530650    8.042520   -0.534380
  O     -0.376930    8.370610   -0.327700
  N     -2.581950    8.951850   -0.728440
  C     -2.299890   10.368170   -0.715780
  C     -2.165780   10.935260   -2.126570
  C     -3.781380    8.304390   -0.945020
  C     -5.084310    8.821940   -1.205130
  C     -5.508170   10.096580   -1.329820
  C     -6.866050   10.489770   -1.628080
  C     -7.175100   11.850430   -1.671120
  C     -8.451590   12.288750   -1.979630
  N     -8.656270   13.712490   -2.057880
  O     -7.856360   14.421100   -1.484350
  O     -9.601270   14.121450   -2.699780
  C     -9.492340   11.385850   -2.258970
  C     -9.169290   10.022980   -2.207870
  C     -7.902450    9.583780   -1.904380
  C    -10.851470   11.801080   -2.526420
  C    -11.647060   11.178450   -3.418010
  C    -12.994240   11.543090   -3.722400
  C    -13.931420   12.054810   -2.880830
  C    -15.280950   12.443300   -3.267570
  C    -15.706630   12.733770   -4.535720
  C    -17.020900   13.138820   -4.852590
  N    -18.073940   13.464400   -5.173270
  C    -14.899880   12.697160   -5.693640
  N    -14.310160   12.699420   -6.678720
  C    -16.080810   12.547690   -2.055560
  C    -15.234550   12.318120   -0.933640
  C    -13.858290   12.061830   -1.390860
  O    -12.895070   11.849950   -0.686870
  C    -15.709160   12.350340    0.346420
  C    -17.078650   12.617100    0.566660
  C    -17.933500   12.842220   -0.551250
  C    -17.413480   12.803380   -1.864820
  C    -19.299780   13.102190   -0.319840
  C    -19.799230   13.139400    0.953430
  C    -18.956670   12.918260    2.053330
  C    -17.625450   12.663540    1.864250
  H      7.081050    6.398860    1.210030
  H      4.015330    9.807710   -0.758600
  H      5.888160   10.783100   -1.963810
  H      8.281070   10.806160   -2.545900
  H      9.811360    9.136050   -1.578890
  H      8.960500    7.427730   -0.021870
  H      2.215280    4.717860    2.344000
  H      0.036750    6.600060    1.555040
  H     -0.503000    3.805230   -0.890290
  H     -4.332140    3.138760   -0.474410
  H     -2.638190    2.842720   -0.019410
  H     -3.745830    3.152230   -2.864440
  H     -3.218340    1.638280   -2.124370
  H     -2.038690    2.899820   -2.495650
  H     -1.343630   10.478820   -0.195080
  H     -3.067020   10.887720   -0.137820
  H     -1.327940   10.461680   -2.632130
  H     -1.977030   12.003750   -2.075020
  H     -3.065970   10.760850   -2.712180
  H     -5.799390    8.017090   -1.315670
  H     -4.824080   10.922400   -1.213520
  H     -6.414760   12.593140   -1.475250
  H     -9.953400    9.303730   -2.386760
  H     -7.710460    8.522930   -1.882750
  H    -11.213620   12.674840   -2.006980
  H    -11.228700   10.400940   -4.046210
  H    -13.298230   11.330870   -4.741110
  H    -15.046480   12.174510    1.180830
  H    -18.086840   12.969910   -2.690570
  H    -19.943890   13.273360   -1.169810
  H    -20.846920   13.339770    1.120410
  H    -19.367980   12.950570    3.051110
  H    -16.972000   12.492770    2.707250

 Total Charge           Charge          ....    0
 Multiplicity           Mult            ....    1
 Number of Electrons    NEL             ....  494
 Basis Dimension        Dim             .... 1187

ORBITAL ENERGIES
----------------

  NO   OCC          E(Eh)            E(eV)
   0   2.0000     -19.253352      -523.9103
   1   2.0000     -19.251277      -523.8539
   2   2.0000     -19.249185      -523.7970
   3   2.0000     -19.247345      -523.7469
   4   2.0000     -19.217905      -522.9458
   5   2.0000     -19.217486      -522.9344
   6   2.0000     -19.204335      -522.5765
   7   2.0000     -19.203813      -522.5623
   8   2.0000     -14.655863      -398.8063
   9   2.0000     -14.468694      -393.7132
  10   2.0000     -14.465531      -393.6271
  11   2.0000     -14.415253      -392.2590
  12   2.0000     -14.414838      -392.2477
  13   2.0000     -14.414228      -392.2311
  14   2.0000     -14.413930      -392.2230
  15   2.0000     -10.398424      -282.9555
  16   2.0000     -10.394187      -282.8402
  17   2.0000     -10.387980      -282.6713
  18   2.0000     -10.387409      -282.6558
  19   2.0000     -10.369358      -282.1646
  20   2.0000     -10.369251      -282.1617
  21   2.0000     -10.364923      -282.0439
  22   2.0000     -10.351946      -281.6908
  23   2.0000     -10.343373      -281.4575
  24   2.0000     -10.342144      -281.4240
  25   2.0000     -10.341940      -281.4185
  26   2.0000     -10.339492      -281.3519
  27   2.0000     -10.339367      -281.3485
  28   2.0000     -10.322506      -280.8897
  29   2.0000     -10.322098      -280.8786
  30   2.0000     -10.320509      -280.8353
  31   2.0000     -10.320126      -280.8249
  32   2.0000     -10.318924      -280.7922
  33   2.0000     -10.317242      -280.7464
  34   2.0000     -10.317241      -280.7464
  35   2.0000     -10.316883      -280.7367
  36   2.0000     -10.316552      -280.7277
  37   2.0000     -10.312595      -280.6200
  38   2.0000     -10.312452      -280.6161
  39   2.0000     -10.310592      -280.5655
  40   2.0000     -10.308589      -280.5110
  41   2.0000     -10.308549      -280.5099
  42   2.0000     -10.305295      -280.4213
  43   2.0000     -10.304464      -280.3987
  44   2.0000     -10.304186      -280.3912
  45   2.0000     -10.304019      -280.3866
  46   2.0000     -10.303045      -280.3601
  47   2.0000     -10.302826      -280.3542
  48   2.0000     -10.302715      -280.3511
  49   2.0000     -10.300185      -280.2823
  50   2.0000     -10.298137      -280.2266
  51   2.0000     -10.297871      -280.2193
  52   2.0000     -10.297752      -280.2161
  53   2.0000     -10.297705      -280.2148
  54   2.0000     -10.297201      -280.2011
  55   2.0000     -10.297108      -280.1986
  56   2.0000     -10.296879      -280.1923
  57   2.0000     -10.295347      -280.1506
  58   2.0000     -10.291140      -280.0362
  59   2.0000     -10.290013      -280.0055
  60   2.0000     -10.289094      -279.9805
  61   2.0000     -10.286933      -279.9217
  62   2.0000     -10.286421      -279.9077
  63   2.0000     -10.286301      -279.9045
  64   2.0000     -10.286164      -279.9007
  65   2.0000     -10.285887      -279.8932
  66   2.0000     -10.285643      -279.8866
  67   2.0000     -10.285600      -279.8854
  68   2.0000     -10.284871      -279.8656
  69   2.0000     -10.273478      -279.5555
  70   2.0000     -10.273351      -279.5521
  71   2.0000     -10.273112      -279.5456
  72   2.0000     -10.266505      -279.3658
  73   2.0000      -1.331488       -36.2316
  74   2.0000      -1.172338       -31.9009
  75   2.0000      -1.163771       -31.6678
  76   2.0000      -1.150056       -31.2946
  77   2.0000      -1.146539       -31.1989
  78   2.0000      -1.139907       -31.0184
  79   2.0000      -1.133708       -30.8498
  80   2.0000      -1.132917       -30.8282
  81   2.0000      -1.078429       -29.3455
  82   2.0000      -1.067854       -29.0578
  83   2.0000      -1.018424       -27.7127
  84   2.0000      -1.017293       -27.6820
  85   2.0000      -1.001655       -27.2564
  86   2.0000      -0.998705       -27.1762
  87   2.0000      -0.997979       -27.1564
  88   2.0000      -0.994486       -27.0613
  89   2.0000      -0.992520       -27.0078
  90   2.0000      -0.987306       -26.8660
  91   2.0000      -0.971695       -26.4412
  92   2.0000      -0.970615       -26.4118
  93   2.0000      -0.941969       -25.6323
  94   2.0000      -0.939254       -25.5584
  95   2.0000      -0.928125       -25.2556
  96   2.0000      -0.924518       -25.1574
  97   2.0000      -0.917186       -24.9579
  98   2.0000      -0.906416       -24.6648
  99   2.0000      -0.901736       -24.5375
 100   2.0000      -0.894256       -24.3339
 101   2.0000      -0.885014       -24.0824
 102   2.0000      -0.881503       -23.9869
 103   2.0000      -0.880867       -23.9696
 104   2.0000      -0.876953       -23.8631
 105   2.0000      -0.872720       -23.7479
 106   2.0000      -0.845088       -22.9960
 107   2.0000      -0.839836       -22.8531
 108   2.0000      -0.829786       -22.5796
 109   2.0000      -0.828420       -22.5424
 110   2.0000      -0.828240       -22.5376
 111   2.0000      -0.811738       -22.0885
 112   2.0000      -0.805603       -21.9216
 113   2.0000      -0.794634       -21.6231
 114   2.0000      -0.776350       -21.1256
 115   2.0000      -0.770156       -20.9570
 116   2.0000      -0.764318       -20.7981
 117   2.0000      -0.761475       -20.7208
 118   2.0000      -0.755897       -20.5690
 119   2.0000      -0.738625       -20.0990
 120   2.0000      -0.721679       -19.6379
 121   2.0000      -0.715280       -19.4638
 122   2.0000      -0.713779       -19.4229
 123   2.0000      -0.711820       -19.3696
 124   2.0000      -0.704353       -19.1664
 125   2.0000      -0.703909       -19.1543
 126   2.0000      -0.700290       -19.0558
 127   2.0000      -0.698032       -18.9944
 128   2.0000      -0.686241       -18.6736
 129   2.0000      -0.678188       -18.4544
 130   2.0000      -0.676969       -18.4213
 131   2.0000      -0.668636       -18.1945
 132   2.0000      -0.664928       -18.0936
 133   2.0000      -0.662169       -18.0185
 134   2.0000      -0.657877       -17.9018
 135   2.0000      -0.646662       -17.5966
 136   2.0000      -0.641713       -17.4619
 137   2.0000      -0.640384       -17.4257
 138   2.0000      -0.635954       -17.3052
 139   2.0000      -0.630824       -17.1656
 140   2.0000      -0.625990       -17.0340
 141   2.0000      -0.618118       -16.8198
 142   2.0000      -0.613657       -16.6985
 143   2.0000      -0.610666       -16.6171
 144   2.0000      -0.607846       -16.5403
 145   2.0000      -0.606796       -16.5118
 146   2.0000      -0.601307       -16.3624
 147   2.0000      -0.598512       -16.2863
 148   2.0000      -0.592448       -16.1213
 149   2.0000      -0.589450       -16.0397
 150   2.0000      -0.588114       -16.0034
 151   2.0000      -0.582929       -15.8623
 152   2.0000      -0.577037       -15.7020
 153   2.0000      -0.570211       -15.5162
 154   2.0000      -0.567678       -15.4473
 155   2.0000      -0.565518       -15.3885
 156   2.0000      -0.561164       -15.2701
 157   2.0000      -0.559135       -15.2148
 158   2.0000      -0.554118       -15.0783
 159   2.0000      -0.550140       -14.9701
 160   2.0000      -0.548552       -14.9269
 161   2.0000      -0.546894       -14.8817
 162   2.0000      -0.546797       -14.8791
 163   2.0000      -0.545106       -14.8331
 164   2.0000      -0.541536       -14.7359
 165   2.0000      -0.540442       -14.7062
 166   2.0000      -0.537715       -14.6320
 167   2.0000      -0.536145       -14.5892
 168   2.0000      -0.535338       -14.5673
 169   2.0000      -0.528882       -14.3916
 170   2.0000      -0.526386       -14.3237
 171   2.0000      -0.524831       -14.2814
 172   2.0000      -0.522423       -14.2158
 173   2.0000      -0.520102       -14.1527
 174   2.0000      -0.519539       -14.1374
 175   2.0000      -0.519072       -14.1247
 176   2.0000      -0.517257       -14.0753
 177   2.0000      -0.515583       -14.0297
 178   2.0000      -0.513097       -13.9621
 179   2.0000      -0.510812       -13.8999
 180   2.0000      -0.509159       -13.8549
 181   2.0000      -0.503092       -13.6898
 182   2.0000      -0.500202       -13.6112
 183   2.0000      -0.496304       -13.5051
 184   2.0000      -0.495749       -13.4900
 185   2.0000      -0.494570       -13.4579
 186   2.0000      -0.490811       -13.3557
 187   2.0000      -0.486006       -13.2249
 188   2.0000      -0.485152       -13.2017
 189   2.0000      -0.483549       -13.1580
 190   2.0000      -0.483289       -13.1510
 191   2.0000      -0.482213       -13.1217
 192   2.0000      -0.480002       -13.0615
 193   2.0000      -0.472900       -12.8683
 194   2.0000      -0.465794       -12.6749
 195   2.0000      -0.465518       -12.6674
 196   2.0000      -0.464901       -12.6506
 197   2.0000      -0.463624       -12.6159
 198   2.0000      -0.459538       -12.5047
 199   2.0000      -0.458449       -12.4750
 200   2.0000      -0.455504       -12.3949
 201   2.0000      -0.451959       -12.2984
 202   2.0000      -0.450119       -12.2484
 203   2.0000      -0.447668       -12.1817
 204   2.0000      -0.445920       -12.1341
 205   2.0000      -0.444676       -12.1002
 206   2.0000      -0.443173       -12.0593
 207   2.0000      -0.440435       -11.9849
 208   2.0000      -0.440224       -11.9791
 209   2.0000      -0.439603       -11.9622
 210   2.0000      -0.433684       -11.8011
 211   2.0000      -0.433456       -11.7949
 212   2.0000      -0.431934       -11.7535
 213   2.0000      -0.430626       -11.7179
 214   2.0000      -0.429023       -11.6743
 215   2.0000      -0.427087       -11.6216
 216   2.0000      -0.425286       -11.5726
 217   2.0000      -0.421462       -11.4686
 218   2.0000      -0.420131       -11.4323
 219   2.0000      -0.418679       -11.3928
 220   2.0000      -0.416919       -11.3449
 221   2.0000      -0.410025       -11.1574
 222   2.0000      -0.407784       -11.0964
 223   2.0000      -0.401669       -10.9300
 224   2.0000      -0.395207       -10.7541
 225   2.0000      -0.392664       -10.6849
 226   2.0000      -0.387680       -10.5493
 227   2.0000      -0.381006       -10.3677
 228   2.0000      -0.378223       -10.2920
 229   2.0000      -0.377059       -10.2603
 230   2.0000      -0.371904       -10.1200
 231   2.0000      -0.369346       -10.0504
 232   2.0000      -0.362429        -9.8622
 233   2.0000      -0.356018        -9.6877
 234   2.0000      -0.347143        -9.4462
 235   2.0000      -0.345064        -9.3897
 236   2.0000      -0.341283        -9.2868
 237   2.0000      -0.339401        -9.2356
 238   2.0000      -0.332699        -9.0532
 239   2.0000      -0.327162        -8.9025
 240   2.0000      -0.326346        -8.8803
 241   2.0000      -0.317691        -8.6448
 242   2.0000      -0.314427        -8.5560
 243   2.0000      -0.300587        -8.1794
 244   2.0000      -0.293338        -7.9821
 245   2.0000      -0.289513        -7.8780
 246   2.0000      -0.259281        -7.0554
 247   0.0000      -0.100356        -2.7308
 248   0.0000      -0.080241        -2.1835
 249   0.0000      -0.078832        -2.1451
 250   0.0000      -0.059211        -1.6112
 251   0.0000      -0.052713        -1.4344

MULLIKEN ATOMIC CHARGES
-----------------------
   0 C :    0.273056
   1 C :   -0.293604
   2 C :   -0.147810
   3 N :    0.143716
   4 C :   -0.165407
   5 N :    0.125213
   6 C :    0.046505
   7 C :    0.005369
   8 C :   -0.080017
   9 C :    0.093937
  10 C :    0.096948
  11 C :   -0.078204
  12 C :   -0.017236
  13 C :    0.036231
  14 C :    0.034842
  15 C :   -0.014938
  16 C :    0.137607
  17 O :   -0.132208
  18 C :   -0.077978
  19 C :    0.009363
  20 C :   -0.081542
  21 C :    0.107820
  22 O :   -0.105270
  23 C :    0.109928
  24 O :   -0.096818
  25 C :   -0.098523
  26 C :    0.064875
  27 N :   -0.266169
  28 C :    0.098325
  29 C :   -0.000489
  30 C :    0.159506
  31 O :   -0.186432
  32 C :   -0.049442
  33 C :   -0.026615
  34 C :    0.169026
  35 O :   -0.222869
  36 N :   -0.261906
  37 C :    0.096488
  38 C :    0.003111
  39 C :    0.123137
  40 C :   -0.012708
  41 C :    0.013599
  42 C :    0.110331
  43 C :   -0.077560
  44 C :    0.156632
  45 N :    0.245914
  46 O :   -0.229100
  47 O :   -0.227060
  48 C :    0.021223
  49 C :   -0.018818
  50 C :    0.017577
  51 C :    0.108885
  52 C :   -0.031971
  53 C :   -0.003623
  54 C :   -0.085592
  55 C :    0.297900
  56 C :   -0.338731
  57 C :   -0.182944
  58 N :    0.152341
  59 C :   -0.208235
  60 N :    0.164028
  61 C :    0.050205
  62 C :   -0.008913
  63 C :    0.152102
  64 O :   -0.149827
  65 C :   -0.076383
  66 C :    0.096504
  67 C :    0.095867
  68 C :   -0.080441
  69 C :   -0.018672
  70 C :    0.036392
  71 C :    0.035871
  72 C :   -0.015396
  73 H :   -0.010586
  74 H :   -0.003294
  75 H :   -0.010488
  76 H :   -0.004777
  77 H :   -0.005169
  78 H :   -0.017522
  79 H :    0.031252
  80 H :    0.110622
  81 H :    0.055061
  82 H :    0.044294
  83 H :    0.034752
  84 H :    0.034645
  85 H :    0.029726
  86 H :    0.013032
  87 H :    0.052195
  88 H :    0.030092
  89 H :    0.031467
  90 H :    0.030988
  91 H :    0.017196
  92 H :    0.005972
  93 H :   -0.017694
  94 H :    0.006269
  95 H :   -0.001907
  96 H :    0.004786
  97 H :    0.033994
  98 H :    0.006710
  99 H :    0.032675
 100 H :   -0.013138
 101 H :   -0.007702
 102 H :   -0.008662
 103 H :   -0.003882
 104 H :   -0.005016
 105 H :   -0.016810
Sum of atomic charges:   -0.0000000

LOEWDIN ATOMIC CHARGES
----------------------
   0 C :    0.072351
   1 C :   -0.114619
   2 C :   -0.008699
   3 N :   -0.054781
   4 C :   -0.009772
   5 N :   -0.065620
   6 C :   -0.017055
   7 C :   -0.059215
   8 C :    0.034316
   9 C :   -0.009506
  10 C :   -0.003291
  11 C :    0.017902
  12 C :   -0.006599
  13 C :   -0.012161
  14 C :   -0.013889
  15 C :   -0.008733
  16 C :    0.087637
  17 O :   -0.133726
  18 C :   -0.063582
  19 C :    0.066769
  20 C :   -0.092671
  21 C :    0.103853
  22 O :   -0.085255
  23 C :    0.106081
  24 O :   -0.073784
  25 C :   -0.081151
  26 C :    0.087913
  27 N :    0.000893
  28 C :    0.036868
  29 C :   -0.060623
  30 C :    0.084375
  31 O :   -0.189059
  32 C :   -0.115216
  33 C :   -0.139404
  34 C :    0.091120
  35 O :   -0.192093
  36 N :    0.003476
  37 C :    0.037319
  38 C :   -0.061933
  39 C :    0.080095
  40 C :   -0.023610
  41 C :    0.003034
  42 C :   -0.021635
  43 C :    0.011518
  44 C :   -0.020980
  45 N :    0.285456
  46 O :   -0.197444
  47 O :   -0.185822
  48 C :   -0.003173
  49 C :    0.003193
  50 C :    0.017807
  51 C :    0.059471
  52 C :   -0.046142
  53 C :    0.071944
  54 C :   -0.085747
  55 C :    0.075356
  56 C :   -0.135629
  57 C :   -0.016817
  58 N :   -0.052140
  59 C :   -0.024926
  60 N :   -0.047716
  61 C :   -0.026251
  62 C :   -0.055641
  63 C :    0.084708
  64 O :   -0.138662
  65 C :    0.032693
  66 C :   -0.008147
  67 C :   -0.005826
  68 C :    0.020073
  69 C :   -0.005202
  70 C :   -0.012913
  71 C :   -0.011899
  72 C :   -0.009382
  73 H :    0.039488
  74 H :    0.039770
  75 H :    0.034340
  76 H :    0.033149
  77 H :    0.032710
  78 H :    0.031829
  79 H :    0.046561
  80 H :    0.083163
  81 H :    0.057868
  82 H :    0.039638
  83 H :    0.027853
  84 H :    0.033584
  85 H :    0.033254
  86 H :    0.019794
  87 H :    0.041786
  88 H :    0.023632
  89 H :    0.034581
  90 H :    0.034563
  91 H :    0.020008
  92 H :    0.044430
  93 H :    0.031963
  94 H :    0.041131
  95 H :    0.038644
  96 H :    0.039318
  97 H :    0.036682
  98 H :    0.033663
  99 H :    0.047274
 100 H :    0.038826
 101 H :    0.039088
 102 H :    0.034938
 103 H :    0.033466
 104 H :    0.032907
 105 H :    0.032022

  Mayer bond orders larger than 0.100000
B(  0-C ,  1-C ) :   1.7084 B(  0-C ,  6-C ) :   1.0035 B(  0-C , 18-C ) :   0.9796
B(  1-C ,  2-C ) :   1.1316 B(  1-C ,  4-C ) :   1.1563 B(  2-C ,  3-N ) :   2.9665
B(  4-C ,  5-N ) :   2.9086 B(  6-C ,  7-C ) :   1.2121 B(  6-C , 11-C ) :   1.4624
B(  7-C ,  8-C ) :   1.4693 B(  7-C , 16-C ) :   0.9230 B(  8-C ,  9-C ) :   1.1936
B(  8-C , 73-H ) :   1.0149 B(  9-C , 10-C ) :   1.2536 B(  9-C , 15-C ) :   1.2425
B( 10-C , 11-C ) :   1.2078 B( 10-C , 12-C ) :   1.2396 B( 11-C , 74-H ) :   0.9939
B( 12-C , 13-C ) :   1.4921 B( 12-C , 75-H ) :   0.9973 B( 13-C , 14-C ) :   1.2581
B( 13-C , 76-H ) :   0.9887 B( 14-C , 15-C ) :   1.4932 B( 14-C , 77-H ) :   0.9885
B( 15-C , 78-H ) :   0.9972 B( 16-C , 17-O ) :   2.2874 B( 16-C , 18-C ) :   0.9179
B( 18-C , 19-C ) :   1.8317 B( 19-C , 20-C ) :   1.0186 B( 19-C , 79-H ) :   0.9522
B( 20-C , 21-C ) :   0.9266 B( 20-C , 23-C ) :   0.8906 B( 20-C , 25-C ) :  -0.1006
B( 20-C , 80-H ) :   0.7961 B( 21-C , 22-O ) :   2.2986 B( 21-C , 25-C ) :   0.8830
B( 23-C , 24-O ) :   2.2935 B( 23-C , 25-C ) :   0.9007 B( 25-C , 26-C ) :   1.0442
B( 25-C , 81-H ) :   0.8617 B( 26-C , 27-N ) :   1.2207 B( 26-C , 33-C ) :   1.4334
B( 27-N , 28-C ) :   0.9386 B( 27-N , 30-C ) :   1.0105 B( 28-C , 29-C ) :   1.1196
B( 28-C , 82-H ) :   0.9309 B( 28-C , 83-H ) :   0.9465 B( 29-C , 84-H ) :   0.9643
B( 29-C , 85-H ) :   0.9677 B( 29-C , 86-H ) :   0.9663 B( 30-C , 31-O ) :   2.1306
B( 30-C , 32-C ) :   0.9880 B( 32-C , 33-C ) :   1.2016 B( 32-C , 39-C ) :   1.3800
B( 33-C , 34-C ) :   0.9642 B( 34-C , 35-O ) :   2.0028 B( 34-C , 36-N ) :   1.0788
B( 36-N , 37-C ) :   0.9362 B( 36-N , 39-C ) :   1.1563 B( 37-C , 38-C ) :   1.1153
B( 37-C , 87-H ) :   0.9257 B( 37-C , 88-H ) :   0.9506 B( 38-C , 89-H ) :   0.9606
B( 38-C , 90-H ) :   0.9684 B( 38-C , 91-H ) :   0.9685 B( 39-C , 40-C ) :   1.1633
B( 40-C , 41-C ) :   1.6104 B( 40-C , 92-H ) :   0.9430 B( 41-C , 42-C ) :   1.0706
B( 41-C , 93-H ) :   0.9912 B( 42-C , 43-C ) :   1.2841 B( 42-C , 50-C ) :   1.3142
B( 43-C , 44-C ) :   1.3699 B( 43-C , 94-H ) :   0.9980 B( 44-C , 45-N ) :   0.8808
B( 44-C , 48-C ) :   1.3454 B( 45-N , 46-O ) :   1.5565 B( 45-N , 47-O ) :   1.5266
B( 46-O , 47-O ) :   0.2672 B( 48-C , 49-C ) :   1.3410 B( 48-C , 51-C ) :   1.0767
B( 49-C , 50-C ) :   1.4185 B( 49-C , 95-H ) :   0.9860 B( 50-C , 96-H ) :   0.9909
B( 51-C , 52-C ) :   1.7244 B( 51-C , 97-H ) :   0.9265 B( 52-C , 53-C ) :   1.1473
B( 52-C , 98-H ) :   0.9578 B( 53-C , 54-C ) :   1.6490 B( 53-C , 99-H ) :   0.9437
B( 54-C , 55-C ) :   1.0473 B( 54-C , 63-C ) :   0.9319 B( 55-C , 56-C ) :   1.6506
B( 55-C , 61-C ) :   0.9965 B( 56-C , 57-C ) :   1.1432 B( 56-C , 59-C ) :   1.1380
B( 57-C , 58-N ) :   2.9701 B( 59-C , 60-N ) :   3.0002 B( 61-C , 62-C ) :   1.2117
B( 61-C , 68-C ) :   1.4482 B( 62-C , 63-C ) :   0.9490 B( 62-C , 65-C ) :   1.4730
B( 63-C , 64-O ) :   2.2105 B( 65-C , 66-C ) :   1.1820 B( 65-C ,100-H ) :   1.0152
B( 66-C , 67-C ) :   1.2548 B( 66-C , 72-C ) :   1.2434 B( 67-C , 68-C ) :   1.2091
B( 67-C , 69-C ) :   1.2386 B( 68-C ,101-H ) :   0.9899 B( 69-C , 70-C ) :   1.4912
B( 69-C ,102-H ) :   0.9970 B( 70-C , 71-C ) :   1.2584 B( 70-C ,103-H ) :   0.9884
B( 71-C , 72-C ) :   1.4900 B( 71-C ,104-H ) :   0.9892 B( 72-C ,105-H ) :   0.9976

-----------------------------------------------------------------------------
         ABSORPTION SPECTRUM VIA TRANSITION ELECTRIC DIPOLE MOMENTS
-----------------------------------------------------------------------------
State   Energy  Wavelength   fosc         T2         TX        TY        TZ
        (cm-1)    (nm)                  (au**2)     (au)      (au)      (au)
-----------------------------------------------------------------------------
   0   20498.6    487.8   0.964605398  15.49177  -3.00118   2.47200  -0.61148
   1   23470.7    426.1   0.026701788   0.37453  -0.55298  -0.18266  -0.18811
   2   24265.5    412.1   0.276007713   3.74461   1.73463   0.79442   0.32335
   3   26515.9    377.1   0.096019435   1.19214   0.53962   0.80839  -0.49746
   4   26978.8    370.7   0.061104111   0.74563   0.50760  -0.61256  -0.33577
   5   28844.6    346.7   0.036128147   0.41234   0.54198  -0.20227   0.27872
   6   29039.2    344.4   0.012214723   0.13848  -0.13614  -0.32903   0.10809
   7   29111.8    343.5   0.186830613   2.11278  -1.36434   0.14011   0.48138
   8   29304.2    341.2   0.265390057   2.98147  -1.64730   0.21366  -0.47139
   9   29430.5    339.8   0.012086333   0.13520  -0.05609   0.33689   0.13621
  10   29656.9    337.2   0.129160396   1.43377  -0.80054   0.78032  -0.42895
  11   30137.9    331.8   0.018097306   0.19769  -0.28758   0.30614   0.14582
  12   31214.6    320.4   0.455300393   4.80193  -1.92321   0.37114   0.98257
  13   31566.0    316.8   0.012487116   0.13023  -0.04655  -0.32147   0.15723
  14   31835.7    314.1   0.013269756   0.13722  -0.36366  -0.06390   0.02982
  15   32118.2    311.4   0.001472711   0.01510   0.11943  -0.02860  -0.00378
  16   32515.6    307.5   0.005071163   0.05134  -0.18972  -0.09391  -0.08081
  17   33300.2    300.3   0.019701034   0.19477   0.13737  -0.03129  -0.41823
  18   33739.6    296.4   0.563846856   5.50170   0.77758   0.17341  -2.20613
  19   33922.6    294.8   0.205218142   1.99160   1.21071  -0.49406  -0.53075
  20   34250.2    292.0   0.164783191   1.58389  -0.51676   1.03201   0.50179
  21   34773.0    287.6   0.033342218   0.31567   0.16165   0.53586  -0.04887
  22   34820.8    287.2   0.170246481   1.60959  -1.23823  -0.23042  -0.15262
  23   35363.5    282.8   0.823454081   7.66584  -2.66777  -0.21344   0.70943
  24   35464.4    282.0   0.015081531   0.14000  -0.26213  -0.00056  -0.26700
  25   36199.9    276.2   0.226518408   2.06002   1.32360   0.37818  -0.40631
  26   36378.0    274.9   0.110028174   0.99573   0.76126  -0.45415  -0.45821
  27   37023.1    270.1   0.038387280   0.34134  -0.34095  -0.03374  -0.47324
  28   37105.8    269.5   0.004499657   0.03992  -0.17630   0.09026  -0.02634
  29   37421.1    267.2   0.015647271   0.13766  -0.20364   0.19435  -0.24169
  30   37585.9    266.1   0.110543266   0.96824  -0.19446  -0.34327   0.90144
  31   37932.9    263.6   0.068739102   0.59657  -0.24815   0.42261  -0.59698
  32   37990.7    263.2   0.021800718   0.18892  -0.32222   0.08843  -0.27797
  33   38106.2    262.4   0.006391699   0.05522   0.01095  -0.13430   0.19252
  34   38154.0    262.1   0.032535660   0.28073   0.49571  -0.04862   0.18068
  35   38429.8    260.2   0.146927281   1.25867  -0.62750   0.22651  -0.90200
  36   38603.4    259.0   0.009957783   0.08492   0.25090   0.13727  -0.05590
  37   38852.0    257.4   0.126955105   1.07575  -0.07759  -0.25016  -1.00357
  38   38915.2    257.0   0.009162286   0.07751  -0.27836  -0.00474  -0.00181
  39   39472.4    253.3   0.002970326   0.02477  -0.05920  -0.06122  -0.13237
  40   39910.3    250.6   0.013693719   0.11296  -0.28532  -0.01746  -0.17676

FINAL SINGLE POINT ENERGY     -3210.891216202874

DIPOLE MOMENT
-------------
                                X             Y             Z
Electronic contribution:     -8.19565      10.79643       4.67486
Nuclear contribution   :      9.47414     -12.76368      -4.11397
                        -----------------------------------------
Total Dipole Moment    :      1.27848      -1.96725       0.56089
                        -----------------------------------------
Magnitude (a.u.)       :      2.41230
Magnitude (Debye)      :      6.13158

Rotational constants in cm-1:     0.002278     0.000237     0.000230
Rotational constants in MHz :    68.294706     7.111795     6.885303

                             ****ORCA TERMINATED NORMALLY****
TOTAL RUN TIME: 0 days 0 hours 14 minutes 3 seconds 622 msec
