                         Program Version 4.2.0 -  RELEASE  -
|  1> # ORCA input file
|  2> # SCF done       -207.052893613413          0.000821168476
|  3> ! CAM-B3LYP def2-SVP def2/J RIJCOSX Grid4 TightSCF
|  4> %maxcore 5000
|  5> %tddft
|  6>     Mode sTDDFT
|  7>     Ethresh 5.0
|  8>     maxcore 5000
|  9> end
| 10>
| 11> %pal
| 12>   nprocs 6
| 13>   end
| 14> * xyz 0 1
| 15>    C        0.20732         4.80273         3.70112
| 16>    C       -0.09074         4.07181         4.80721
| 17>    N        0.83837         3.50991         5.71466
| 18>    O        0.39463         2.87646         6.65311
| 19>    O        2.02035         3.69320         5.49518
| 20>    C       -1.53534         3.94870         4.93527
| 21>    C       -2.09984         4.56669         3.87839
| 22>    C       -1.04657         5.12392         3.04404
| 23>    C       -1.14269         5.84229         1.87923
| 24>    C       -0.09605         6.66188         1.33371
| 25>    C       -0.62052         7.41975         0.34407
| 26>    C       -2.01557         7.07834         0.16633
| 27>    N       -2.74661         7.68366        -0.87389
| 28>    O       -2.10011         8.24474        -1.74083
| 29>    O       -3.96568         7.63602        -0.86077
| 30>    C       -2.35818         6.07124         1.05778
| 31>    C       -3.46871         5.19108         1.14960
| 32>    C       -4.73895         5.39655         0.71843
| 33>    C       -5.81045         4.44491         0.81632
| 34>    C       -7.07389         4.81583         0.33675
| 35>    C       -8.14259         3.94603         0.39841
| 36>    N       -9.37784         4.36127        -0.22620
| 37>    O       -9.58298         5.54932        -0.31554
| 38>    O      -10.10686         3.49226        -0.65675
| 39>    C       -8.02397         2.66141         0.96641
| 40>    C       -6.74937         2.29458         1.42475
| 41>    C       -5.67817         3.15085         1.35149
| 42>    C       -9.16164         1.79919         1.13883
| 43>    C       -9.11558         0.44812         1.07131
| 44>    C      -10.28118        -0.34370         1.24601
| 45>    N      -10.34405        -1.69457         1.00653
| 46>    C       -9.28298        -2.53188         0.50256
| 47>    C       -9.07568        -2.34351        -0.99834
| 48>    C      -11.64384        -2.20808         1.20774
| 49>    O      -11.93984        -3.37316         1.04849
| 50>    C      -12.40962        -1.05791         1.63011
| 51>    C      -11.55183         0.06273         1.65465
| 52>    C      -12.33755         1.19736         2.08676
| 53>    O      -12.04187         2.35552         2.29043
| 54>    N      -13.64417         0.68577         2.26124
| 55>    C      -14.67638         1.55603         2.77643
| 56>    C      -15.00699         1.24108         4.23276
| 57>    C      -13.69857        -0.65846         1.98783
| 58>    C      -14.80164        -1.55630         1.96376
| 59>    C      -16.11367        -1.27734         2.12557
| 60>    C      -17.17680        -2.23509         1.99629
| 61>    C      -17.03013        -3.59435         1.87451
| 62>    S      -18.52096        -4.41999         1.72952
| 63>    C      -19.38985        -2.95464         1.81599
| 64>    C      -18.57114        -1.86697         1.96300
| 65>    C      -19.07751        -0.49418         2.05484
| 66>    O      -18.40923         0.49310         2.25317
| 67>    O      -20.42654        -0.47309         1.92721
| 68>    C      -21.16573         0.67039         1.93251
| 69>    C      -20.73453         1.89326         1.58116
| 70>    C      -21.48882         3.11008         1.59745
| 71>    C      -22.82266         3.39131         1.38018
| 72>    N      -23.92311         2.53579         1.16830
| 73>    O      -23.85980         1.37464         1.53736
| 74>    O      -24.89630         3.02216         0.62327
| 75>    C      -23.00522         4.82774         1.28331
| 76>    C      -21.80907         5.43502         1.41357
| 77>    C      -20.80321         4.42393         1.65333
| 78>    C      -19.51023         4.65183         2.04705
| 79>    C      -18.68726         3.78127         2.85692
| 80>    C      -17.62785         4.48626         3.30968
| 81>    C      -17.66788         5.81497         2.73351
| 82>    N      -16.65622         6.76711         2.98524
| 83>    O      -15.76533         6.43545         3.74505
| 84>    O      -16.73587         7.85969         2.45278
| 85>    C      -18.78043         5.93795         1.93386
| 86>    C      -19.07589         7.02406         1.04209
| 87>    C      -19.66627         6.88852        -0.14729
| 88>    H        1.18891         5.03990         3.34228
| 89>    H       -2.01787         3.45187         5.75460
| 90>    H       -3.15016         4.70925         3.71664
| 91>    H        0.90253         6.71695         1.71869
| 92>    H       -0.12670         8.16880        -0.24592
| 93>    H       -3.22842         4.25059         1.62617
| 94>    H       -5.00002         6.34616         0.27582
| 95>    H       -7.21938         5.78800        -0.11224
| 96>    H       -6.62491         1.32424         1.88052
| 97>    H       -4.72225         2.81656         1.72351
| 98>    H      -10.11744         2.27359         1.31978
| 99>    H       -8.19471        -0.05706         0.81566
|100>    H       -9.59060        -3.56193         0.70374
|101>    H       -8.36074        -2.32647         1.05339
|102>    H       -9.98593        -2.60325        -1.53279
|103>    H       -8.27388        -2.99020        -1.34358
|104>    H       -8.82160        -1.31192        -1.23195
|105>    H      -15.56679         1.50101         2.14612
|106>    H      -14.26729         2.56869         2.70559
|107>    H      -15.31056         0.20364         4.35191
|108>    H      -15.81851         1.87900         4.56974
|109>    H      -14.13743         1.42239         4.85985
|110>    H      -14.49451        -2.56756         1.73070
|111>    H      -16.44668        -0.27527         2.33225
|112>    H      -16.11874        -4.15767         1.87472
|113>    H      -20.46020        -2.95797         1.76028
|114>    H      -22.17902         0.46202         2.24450
|115>    H      -19.70510         2.01652         1.27867
|116>    H      -23.96615         5.28339         1.13842
|117>    H      -21.62799         6.49012         1.44656
|118>    H      -18.94439         2.78331         3.14812
|119>    H      -16.85538         4.16440         3.98164
|120>    H      -18.68955         7.98837         1.34667
|121>    H      -19.97737         5.93030        -0.52993
|122>    H      -19.82424         7.73818        -0.78816
|123> *
|124>
|125>                          ****END OF INPUT****

CARTESIAN COORDINATES (ANGSTROEM)
---------------------------------
  C      0.207320    4.802730    3.701120
  C     -0.090740    4.071810    4.807210
  N      0.838370    3.509910    5.714660
  O      0.394630    2.876460    6.653110
  O      2.020350    3.693200    5.495180
  C     -1.535340    3.948700    4.935270
  C     -2.099840    4.566690    3.878390
  C     -1.046570    5.123920    3.044040
  C     -1.142690    5.842290    1.879230
  C     -0.096050    6.661880    1.333710
  C     -0.620520    7.419750    0.344070
  C     -2.015570    7.078340    0.166330
  N     -2.746610    7.683660   -0.873890
  O     -2.100110    8.244740   -1.740830
  O     -3.965680    7.636020   -0.860770
  C     -2.358180    6.071240    1.057780
  C     -3.468710    5.191080    1.149600
  C     -4.738950    5.396550    0.718430
  C     -5.810450    4.444910    0.816320
  C     -7.073890    4.815830    0.336750
  C     -8.142590    3.946030    0.398410
  N     -9.377840    4.361270   -0.226200
  O     -9.582980    5.549320   -0.315540
  O    -10.106860    3.492260   -0.656750
  C     -8.023970    2.661410    0.966410
  C     -6.749370    2.294580    1.424750
  C     -5.678170    3.150850    1.351490
  C     -9.161640    1.799190    1.138830
  C     -9.115580    0.448120    1.071310
  C    -10.281180   -0.343700    1.246010
  N    -10.344050   -1.694570    1.006530
  C     -9.282980   -2.531880    0.502560
  C     -9.075680   -2.343510   -0.998340
  C    -11.643840   -2.208080    1.207740
  O    -11.939840   -3.373160    1.048490
  C    -12.409620   -1.057910    1.630110
  C    -11.551830    0.062730    1.654650
  C    -12.337550    1.197360    2.086760
  O    -12.041870    2.355520    2.290430
  N    -13.644170    0.685770    2.261240
  C    -14.676380    1.556030    2.776430
  C    -15.006990    1.241080    4.232760
  C    -13.698570   -0.658460    1.987830
  C    -14.801640   -1.556300    1.963760
  C    -16.113670   -1.277340    2.125570
  C    -17.176800   -2.235090    1.996290
  C    -17.030130   -3.594350    1.874510
  S    -18.520960   -4.419990    1.729520
  C    -19.389850   -2.954640    1.815990
  C    -18.571140   -1.866970    1.963000
  C    -19.077510   -0.494180    2.054840
  O    -18.409230    0.493100    2.253170
  O    -20.426540   -0.473090    1.927210
  C    -21.165730    0.670390    1.932510
  C    -20.734530    1.893260    1.581160
  C    -21.488820    3.110080    1.597450
  C    -22.822660    3.391310    1.380180
  N    -23.923110    2.535790    1.168300
  O    -23.859800    1.374640    1.537360
  O    -24.896300    3.022160    0.623270
  C    -23.005220    4.827740    1.283310
  C    -21.809070    5.435020    1.413570
  C    -20.803210    4.423930    1.653330
  C    -19.510230    4.651830    2.047050
  C    -18.687260    3.781270    2.856920
  C    -17.627850    4.486260    3.309680
  C    -17.667880    5.814970    2.733510
  N    -16.656220    6.767110    2.985240
  O    -15.765330    6.435450    3.745050
  O    -16.735870    7.859690    2.452780
  C    -18.780430    5.937950    1.933860
  C    -19.075890    7.024060    1.042090
  C    -19.666270    6.888520   -0.147290
  H      1.188910    5.039900    3.342280
  H     -2.017870    3.451870    5.754600
  H     -3.150160    4.709250    3.716640
  H      0.902530    6.716950    1.718690
  H     -0.126700    8.168800   -0.245920
  H     -3.228420    4.250590    1.626170
  H     -5.000020    6.346160    0.275820
  H     -7.219380    5.788000   -0.112240
  H     -6.624910    1.324240    1.880520
  H     -4.722250    2.816560    1.723510
  H    -10.117440    2.273590    1.319780
  H     -8.194710   -0.057060    0.815660
  H     -9.590600   -3.561930    0.703740
  H     -8.360740   -2.326470    1.053390
  H     -9.985930   -2.603250   -1.532790
  H     -8.273880   -2.990200   -1.343580
  H     -8.821600   -1.311920   -1.231950
  H    -15.566790    1.501010    2.146120
  H    -14.267290    2.568690    2.705590
  H    -15.310560    0.203640    4.351910
  H    -15.818510    1.879000    4.569740
  H    -14.137430    1.422390    4.859850
  H    -14.494510   -2.567560    1.730700
  H    -16.446680   -0.275270    2.332250
  H    -16.118740   -4.157670    1.874720
  H    -20.460200   -2.957970    1.760280
  H    -22.179020    0.462020    2.244500
  H    -19.705100    2.016520    1.278670
  H    -23.966150    5.283390    1.138420
  H    -21.627990    6.490120    1.446560
  H    -18.944390    2.783310    3.148120
  H    -16.855380    4.164400    3.981640
  H    -18.689550    7.988370    1.346670
  H    -19.977370    5.930300   -0.529930
  H    -19.824240    7.738180   -0.788160

 Total Charge           Charge          ....    0
 Multiplicity           Mult            ....    1
 Number of Electrons    NEL             ....  518
 Basis Dimension        Dim             .... 1201

ORBITAL ENERGIES
----------------

  NO   OCC          E(Eh)            E(eV)
   0   2.0000     -88.982948     -2421.3491
   1   2.0000     -19.300814      -525.2019
   2   2.0000     -19.246726      -523.7300
   3   2.0000     -19.246422      -523.7218
   4   2.0000     -19.245521      -523.6973
   5   2.0000     -19.245277      -523.6906
   6   2.0000     -19.244422      -523.6673
   7   2.0000     -19.243999      -523.6558
   8   2.0000     -19.243954      -523.6546
   9   2.0000     -19.243565      -523.6440
  10   2.0000     -19.237713      -523.4848
  11   2.0000     -19.237338      -523.4746
  12   2.0000     -19.236602      -523.4546
  13   2.0000     -19.189329      -522.1682
  14   2.0000     -19.187190      -522.1100
  15   2.0000     -14.654009      -398.7558
  16   2.0000     -14.653202      -398.7339
  17   2.0000     -14.652733      -398.7211
  18   2.0000     -14.650257      -398.6538
  19   2.0000     -14.646196      -398.5433
  20   2.0000     -14.451819      -393.2540
  21   2.0000     -14.450786      -393.2259
  22   2.0000     -10.436940      -284.0036
  23   2.0000     -10.371280      -282.2169
  24   2.0000     -10.371007      -282.2094
  25   2.0000     -10.357165      -281.8328
  26   2.0000     -10.340056      -281.3672
  27   2.0000     -10.339431      -281.3502
  28   2.0000     -10.338826      -281.3338
  29   2.0000     -10.338607      -281.3278
  30   2.0000     -10.337973      -281.3106
  31   2.0000     -10.335557      -281.2448
  32   2.0000     -10.335120      -281.2329
  33   2.0000     -10.334085      -281.2048
  34   2.0000     -10.332482      -281.1611
  35   2.0000     -10.330928      -281.1189
  36   2.0000     -10.330420      -281.1050
  37   2.0000     -10.329341      -281.0756
  38   2.0000     -10.328711      -281.0585
  39   2.0000     -10.323325      -280.9120
  40   2.0000     -10.321432      -280.8604
  41   2.0000     -10.320799      -280.8432
  42   2.0000     -10.314584      -280.6741
  43   2.0000     -10.310910      -280.5741
  44   2.0000     -10.310315      -280.5579
  45   2.0000     -10.309932      -280.5475
  46   2.0000     -10.307997      -280.4949
  47   2.0000     -10.307901      -280.4922
  48   2.0000     -10.307542      -280.4825
  49   2.0000     -10.306326      -280.4494
  50   2.0000     -10.305356      -280.4230
  51   2.0000     -10.305233      -280.4196
  52   2.0000     -10.304545      -280.4009
  53   2.0000     -10.304071      -280.3880
  54   2.0000     -10.303419      -280.3703
  55   2.0000     -10.300854      -280.3005
  56   2.0000     -10.298117      -280.2260
  57   2.0000     -10.297151      -280.1997
  58   2.0000     -10.296316      -280.1770
  59   2.0000     -10.296189      -280.1735
  60   2.0000     -10.295538      -280.1558
  61   2.0000     -10.294916      -280.1389
  62   2.0000     -10.294318      -280.1226
  63   2.0000     -10.291265      -280.0396
  64   2.0000     -10.289018      -279.9784
  65   2.0000     -10.288673      -279.9690
  66   2.0000     -10.288248      -279.9575
  67   2.0000     -10.286290      -279.9042
  68   2.0000     -10.284967      -279.8682
  69   2.0000     -10.264972      -279.3241
  70   2.0000     -10.259536      -279.1762
  71   2.0000     -10.257699      -279.1262
  72   2.0000     -10.257039      -279.1082
  73   2.0000      -8.079245      -219.8474
  74   2.0000      -6.048278      -164.5820
  75   2.0000      -6.043757      -164.4590
  76   2.0000      -6.042126      -164.4146
  77   2.0000      -1.326646       -36.0999
  78   2.0000      -1.325142       -36.0590
  79   2.0000      -1.324835       -36.0506
  80   2.0000      -1.324253       -36.0348
  81   2.0000      -1.317316       -35.8460
  82   2.0000      -1.229384       -33.4532
  83   2.0000      -1.146126       -31.1877
  84   2.0000      -1.143342       -31.1119
  85   2.0000      -1.141759       -31.0688
  86   2.0000      -1.141385       -31.0587
  87   2.0000      -1.136623       -30.9291
  88   2.0000      -1.135078       -30.8870
  89   2.0000      -1.131166       -30.7806
  90   2.0000      -1.124538       -30.6002
  91   2.0000      -1.061276       -28.8788
  92   2.0000      -1.052299       -28.6345
  93   2.0000      -1.023777       -27.8584
  94   2.0000      -1.018448       -27.7134
  95   2.0000      -1.007560       -27.4171
  96   2.0000      -1.003107       -27.2959
  97   2.0000      -0.999610       -27.2008
  98   2.0000      -0.997545       -27.1446
  99   2.0000      -0.938090       -25.5267
 100   2.0000      -0.926367       -25.2077
 101   2.0000      -0.917223       -24.9589
 102   2.0000      -0.913192       -24.8492
 103   2.0000      -0.912778       -24.8379
 104   2.0000      -0.911243       -24.7962
 105   2.0000      -0.909082       -24.7374
 106   2.0000      -0.898343       -24.4452
 107   2.0000      -0.895359       -24.3640
 108   2.0000      -0.887310       -24.1449
 109   2.0000      -0.880634       -23.9633
 110   2.0000      -0.876852       -23.8604
 111   2.0000      -0.871811       -23.7232
 112   2.0000      -0.865948       -23.5636
 113   2.0000      -0.846429       -23.0325
 114   2.0000      -0.844342       -22.9757
 115   2.0000      -0.830785       -22.6068
 116   2.0000      -0.823756       -22.4155
 117   2.0000      -0.818801       -22.2807
 118   2.0000      -0.812655       -22.1135
 119   2.0000      -0.808210       -21.9925
 120   2.0000      -0.791383       -21.5346
 121   2.0000      -0.790696       -21.5159
 122   2.0000      -0.781850       -21.2752
 123   2.0000      -0.766256       -20.8509
 124   2.0000      -0.763203       -20.7678
 125   2.0000      -0.758609       -20.6428
 126   2.0000      -0.738198       -20.0874
 127   2.0000      -0.734489       -19.9865
 128   2.0000      -0.727530       -19.7971
 129   2.0000      -0.720335       -19.6013
 130   2.0000      -0.711247       -19.3540
 131   2.0000      -0.705239       -19.1905
 132   2.0000      -0.701137       -19.0789
 133   2.0000      -0.696616       -18.9559
 134   2.0000      -0.691841       -18.8260
 135   2.0000      -0.682161       -18.5625
 136   2.0000      -0.673786       -18.3347
 137   2.0000      -0.673342       -18.3226
 138   2.0000      -0.669521       -18.2186
 139   2.0000      -0.663291       -18.0491
 140   2.0000      -0.659920       -17.9573
 141   2.0000      -0.654903       -17.8208
 142   2.0000      -0.653022       -17.7696
 143   2.0000      -0.649142       -17.6641
 144   2.0000      -0.646564       -17.5939
 145   2.0000      -0.641026       -17.4432
 146   2.0000      -0.638585       -17.3768
 147   2.0000      -0.636744       -17.3267
 148   2.0000      -0.635068       -17.2811
 149   2.0000      -0.633509       -17.2387
 150   2.0000      -0.633281       -17.2325
 151   2.0000      -0.628298       -17.0969
 152   2.0000      -0.627695       -17.0804
 153   2.0000      -0.625366       -17.0171
 154   2.0000      -0.624092       -16.9824
 155   2.0000      -0.621879       -16.9222
 156   2.0000      -0.614544       -16.7226
 157   2.0000      -0.610534       -16.6135
 158   2.0000      -0.606381       -16.5005
 159   2.0000      -0.599292       -16.3076
 160   2.0000      -0.597207       -16.2508
 161   2.0000      -0.594242       -16.1701
 162   2.0000      -0.591999       -16.1091
 163   2.0000      -0.587556       -15.9882
 164   2.0000      -0.586408       -15.9570
 165   2.0000      -0.584803       -15.9133
 166   2.0000      -0.581184       -15.8148
 167   2.0000      -0.579876       -15.7792
 168   2.0000      -0.575055       -15.6480
 169   2.0000      -0.572038       -15.5660
 170   2.0000      -0.569007       -15.4835
 171   2.0000      -0.564154       -15.3514
 172   2.0000      -0.561881       -15.2896
 173   2.0000      -0.560974       -15.2649
 174   2.0000      -0.553836       -15.0706
 175   2.0000      -0.552768       -15.0416
 176   2.0000      -0.548875       -14.9356
 177   2.0000      -0.544128       -14.8065
 178   2.0000      -0.539663       -14.6850
 179   2.0000      -0.537333       -14.6216
 180   2.0000      -0.536961       -14.6114
 181   2.0000      -0.529950       -14.4207
 182   2.0000      -0.528190       -14.3728
 183   2.0000      -0.525311       -14.2944
 184   2.0000      -0.522275       -14.2118
 185   2.0000      -0.518253       -14.1024
 186   2.0000      -0.515798       -14.0356
 187   2.0000      -0.512661       -13.9502
 188   2.0000      -0.512387       -13.9428
 189   2.0000      -0.510832       -13.9005
 190   2.0000      -0.507610       -13.8128
 191   2.0000      -0.506451       -13.7812
 192   2.0000      -0.505155       -13.7460
 193   2.0000      -0.504184       -13.7196
 194   2.0000      -0.501358       -13.6426
 195   2.0000      -0.497610       -13.5406
 196   2.0000      -0.496918       -13.5218
 197   2.0000      -0.495403       -13.4806
 198   2.0000      -0.491441       -13.3728
 199   2.0000      -0.486988       -13.2516
 200   2.0000      -0.486639       -13.2421
 201   2.0000      -0.484942       -13.1959
 202   2.0000      -0.481387       -13.0992
 203   2.0000      -0.479787       -13.0557
 204   2.0000      -0.476676       -12.9710
 205   2.0000      -0.473098       -12.8736
 206   2.0000      -0.471394       -12.8273
 207   2.0000      -0.470421       -12.8008
 208   2.0000      -0.467856       -12.7310
 209   2.0000      -0.465550       -12.6683
 210   2.0000      -0.463988       -12.6258
 211   2.0000      -0.462490       -12.5850
 212   2.0000      -0.457404       -12.4466
 213   2.0000      -0.453895       -12.3511
 214   2.0000      -0.450820       -12.2674
 215   2.0000      -0.448744       -12.2109
 216   2.0000      -0.446469       -12.1490
 217   2.0000      -0.445695       -12.1280
 218   2.0000      -0.443196       -12.0600
 219   2.0000      -0.440478       -11.9860
 220   2.0000      -0.438240       -11.9251
 221   2.0000      -0.433193       -11.7878
 222   2.0000      -0.426877       -11.6159
 223   2.0000      -0.416209       -11.3256
 224   2.0000      -0.414893       -11.2898
 225   2.0000      -0.393473       -10.7070
 226   2.0000      -0.392944       -10.6925
 227   2.0000      -0.391141       -10.6435
 228   2.0000      -0.390630       -10.6296
 229   2.0000      -0.389593       -10.6014
 230   2.0000      -0.387923       -10.5559
 231   2.0000      -0.385037       -10.4774
 232   2.0000      -0.383941       -10.4476
 233   2.0000      -0.383559       -10.4372
 234   2.0000      -0.381837       -10.3903
 235   2.0000      -0.380882       -10.3643
 236   2.0000      -0.379371       -10.3232
 237   2.0000      -0.378946       -10.3116
 238   2.0000      -0.375138       -10.2080
 239   2.0000      -0.371784       -10.1167
 240   2.0000      -0.371690       -10.1142
 241   2.0000      -0.369090       -10.0434
 242   2.0000      -0.365330        -9.9411
 243   2.0000      -0.365038        -9.9332
 244   2.0000      -0.361818        -9.8456
 245   2.0000      -0.353236        -9.6120
 246   2.0000      -0.347242        -9.4489
 247   2.0000      -0.345834        -9.4106
 248   2.0000      -0.341787        -9.3005
 249   2.0000      -0.340348        -9.2613
 250   2.0000      -0.333044        -9.0626
 251   2.0000      -0.329433        -8.9643
 252   2.0000      -0.328903        -8.9499
 253   2.0000      -0.313849        -8.5403
 254   2.0000      -0.309790        -8.4298
 255   2.0000      -0.304128        -8.2757
 256   2.0000      -0.289389        -7.8747
 257   2.0000      -0.286943        -7.8081
 258   2.0000      -0.235318        -6.4033
 259   0.0000      -0.135751        -3.6940
 260   0.0000      -0.125338        -3.4106
 261   0.0000      -0.086355        -2.3498
 262   0.0000      -0.057065        -1.5528
 263   0.0000      -0.051203        -1.3933

MULLIKEN ATOMIC CHARGES
-----------------------
   0 C :   -0.051083
   1 C :    0.146583
   2 N :    0.263445
   3 O :   -0.239201
   4 O :   -0.241056
   5 C :    0.014570
   6 C :   -0.010300
   7 C :    0.042642
   8 C :    0.035390
   9 C :    0.003907
  10 C :    0.038959
  11 C :    0.057451
  12 N :    0.274242
  13 O :   -0.244162
  14 O :   -0.247707
  15 C :    0.094904
  16 C :   -0.070966
  17 C :    0.024355
  18 C :    0.096349
  19 C :   -0.060914
  20 C :    0.156265
  21 N :    0.244843
  22 O :   -0.223514
  23 O :   -0.222463
  24 C :    0.058795
  25 C :   -0.023212
  26 C :    0.020084
  27 C :    0.020882
  28 C :   -0.035212
  29 C :    0.131202
  30 N :   -0.264079
  31 C :    0.101446
  32 C :    0.001917
  33 C :    0.145059
  34 O :   -0.200568
  35 C :   -0.047787
  36 C :   -0.054755
  37 C :    0.164416
  38 O :   -0.204187
  39 N :   -0.265721
  40 C :    0.095650
  41 C :    0.003286
  42 C :    0.111968
  43 C :   -0.018090
  44 C :   -0.000263
  45 C :    0.098261
  46 C :   -0.142029
  47 S :    0.164961
  48 C :   -0.087610
  49 C :   -0.011762
  50 C :    0.237933
  51 O :   -0.200360
  52 O :   -0.242940
  53 C :    0.159268
  54 C :   -0.071138
  55 C :    0.060927
  56 C :    0.063242
  57 N :    0.272433
  58 O :   -0.256729
  59 O :   -0.240149
  60 C :    0.022629
  61 C :    0.006821
  62 C :    0.005363
  63 C :    0.023926
  64 C :    0.011489
  65 C :    0.019389
  66 C :    0.086455
  67 N :    0.272279
  68 O :   -0.240709
  69 O :   -0.248128
  70 C :    0.007571
  71 C :   -0.046972
  72 C :   -0.000165
  73 H :    0.010792
  74 H :    0.006837
  75 H :    0.002450
  76 H :   -0.006475
  77 H :    0.011558
  78 H :    0.003878
  79 H :    0.023920
  80 H :    0.015995
  81 H :   -0.012272
  82 H :   -0.013372
  83 H :    0.040484
  84 H :   -0.025054
  85 H :    0.042649
  86 H :    0.016930
  87 H :    0.031146
  88 H :    0.021583
  89 H :    0.019065
  90 H :    0.035822
  91 H :    0.048075
  92 H :    0.020297
  93 H :    0.014721
  94 H :    0.026056
  95 H :   -0.006011
  96 H :    0.003977
  97 H :    0.047166
  98 H :    0.045829
  99 H :    0.053280
 100 H :    0.042716
 101 H :    0.003262
 102 H :    0.003395
 103 H :    0.002529
 104 H :    0.002113
 105 H :    0.036446
 106 H :    0.041428
 107 H :    0.041155
Sum of atomic charges:   -0.0000000

LOEWDIN ATOMIC CHARGES
----------------------
   0 C :    0.019351
   1 C :   -0.030166
   2 N :    0.281063
   3 O :   -0.204424
   4 O :   -0.207214
   5 C :    0.009448
   6 C :   -0.042244
   7 C :    0.020041
   8 C :    0.051659
   9 C :   -0.042606
  10 C :    0.025756
  11 C :   -0.044659
  12 N :    0.285835
  13 O :   -0.207407
  14 O :   -0.207286
  15 C :    0.019171
  16 C :   -0.042225
  17 C :    0.035990
  18 C :   -0.032110
  19 C :    0.023161
  20 C :   -0.019693
  21 N :    0.284479
  22 O :   -0.190760
  23 O :   -0.183435
  24 C :    0.001987
  25 C :   -0.005455
  26 C :    0.012172
  27 C :    0.034302
  28 C :   -0.041603
  29 C :    0.076553
  30 N :   -0.004806
  31 C :    0.036155
  32 C :   -0.061234
  33 C :    0.077831
  34 O :   -0.203651
  35 C :   -0.117768
  36 C :   -0.122283
  37 C :    0.084563
  38 O :   -0.190499
  39 N :   -0.001186
  40 C :    0.035390
  41 C :   -0.061655
  42 C :    0.074414
  43 C :   -0.026057
  44 C :   -0.005896
  45 C :   -0.046623
  46 C :   -0.172986
  47 S :    0.493302
  48 C :   -0.146317
  49 C :   -0.112375
  50 C :    0.123862
  51 O :   -0.159245
  52 O :   -0.037166
  53 C :    0.099029
  54 C :   -0.077655
  55 C :    0.016402
  56 C :   -0.041538
  57 N :    0.285490
  58 O :   -0.211511
  59 O :   -0.204683
  60 C :    0.004563
  61 C :   -0.035040
  62 C :    0.040003
  63 C :    0.040237
  64 C :   -0.035704
  65 C :    0.015073
  66 C :   -0.041010
  67 N :    0.284407
  68 O :   -0.205584
  69 O :   -0.208442
  70 C :    0.018029
  71 C :   -0.029164
  72 C :    0.000521
  73 H :    0.039405
  74 H :    0.038787
  75 H :    0.031033
  76 H :    0.031293
  77 H :    0.040138
  78 H :    0.030965
  79 H :    0.034069
  80 H :    0.046908
  81 H :    0.034709
  82 H :    0.032095
  83 H :    0.038463
  84 H :    0.026617
  85 H :    0.037521
  86 H :    0.020364
  87 H :    0.033107
  88 H :    0.029747
  89 H :    0.023002
  90 H :    0.024076
  91 H :    0.038163
  92 H :    0.022850
  93 H :    0.027562
  94 H :    0.031250
  95 H :    0.040232
  96 H :    0.029042
  97 H :    0.030831
  98 H :    0.032842
  99 H :    0.028486
 100 H :    0.041155
 101 H :    0.037113
 102 H :    0.032209
 103 H :    0.030705
 104 H :    0.035553
 105 H :    0.041712
 106 H :    0.026285
 107 H :    0.032837

  Mayer bond orders larger than 0.100000
B(  0-C ,  1-C ) :   1.6337 B(  0-C ,  7-C ) :   1.0280 B(  0-C , 73-H ) :   1.0173
B(  1-C ,  2-N ) :   0.9090 B(  1-C ,  5-C ) :   1.0968 B(  2-N ,  3-O ) :   1.5414
B(  2-N ,  4-O ) :   1.5461 B(  3-O ,  4-O ) :   0.2790 B(  5-C ,  6-C ) :   1.6419
B(  5-C , 74-H ) :   1.0128 B(  6-C ,  7-C ) :   1.0752 B(  6-C , 75-H ) :   1.0033
B(  7-C ,  8-C ) :   1.5445 B(  8-C ,  9-C ) :   1.1046 B(  8-C , 15-C ) :   1.0061
B(  9-C , 10-C ) :   1.6026 B(  9-C , 76-H ) :   1.0075 B( 10-C , 11-C ) :   1.1115
B( 10-C , 77-H ) :   1.0075 B( 11-C , 12-N ) :   0.9522 B( 11-C , 15-C ) :   1.5311
B( 12-N , 13-O ) :   1.5386 B( 12-N , 14-O ) :   1.4790 B( 13-O , 14-O ) :   0.2574
B( 15-C , 16-C ) :   1.1523 B( 16-C , 17-C ) :   1.6336 B( 16-C , 78-H ) :   0.9485
B( 17-C , 18-C ) :   1.0784 B( 17-C , 79-H ) :   0.9733 B( 18-C , 19-C ) :   1.2752
B( 18-C , 26-C ) :   1.3042 B( 19-C , 20-C ) :   1.3800 B( 19-C , 80-H ) :   1.0029
B( 20-C , 21-N ) :   0.8733 B( 20-C , 24-C ) :   1.3409 B( 21-N , 22-O ) :   1.5606
B( 21-N , 23-O ) :   1.5305 B( 22-O , 23-O ) :   0.2707 B( 24-C , 25-C ) :   1.3311
B( 24-C , 27-C ) :   1.0627 B( 25-C , 26-C ) :   1.4272 B( 25-C , 81-H ) :   0.9866
B( 26-C , 82-H ) :   0.9874 B( 27-C , 28-C ) :   1.6724 B( 27-C , 83-H ) :   0.9169
B( 28-C , 29-C ) :   1.1452 B( 28-C , 84-H ) :   0.9628 B( 29-C , 30-N ) :   1.1648
B( 29-C , 36-C ) :   1.3486 B( 30-N , 31-C ) :   0.9485 B( 30-N , 33-C ) :   1.0329
B( 31-C , 32-C ) :   1.1185 B( 31-C , 85-H ) :   0.9288 B( 31-C , 86-H ) :   0.9504
B( 32-C , 87-H ) :   0.9640 B( 32-C , 88-H ) :   0.9678 B( 32-C , 89-H ) :   0.9687
B( 33-C , 34-O ) :   2.1193 B( 33-C , 35-C ) :   0.9866 B( 35-C , 36-C ) :   1.2387
B( 35-C , 42-C ) :   1.3422 B( 36-C , 37-C ) :   0.9875 B( 37-C , 38-O ) :   2.0292
B( 37-C , 39-N ) :   1.0528 B( 38-O , 83-H ) :   0.1048 B( 39-N , 40-C ) :   0.9383
B( 39-N , 42-C ) :   1.1741 B( 40-C , 41-C ) :   1.1159 B( 40-C , 90-H ) :   0.9495
B( 40-C , 91-H ) :   0.9223 B( 41-C , 92-H ) :   0.9654 B( 41-C , 93-H ) :   0.9684
B( 41-C , 94-H ) :   0.9615 B( 42-C , 43-C ) :   1.1721 B( 43-C , 44-C ) :   1.6055
B( 43-C , 95-H ) :   0.9498 B( 44-C , 45-C ) :   1.0968 B( 44-C , 96-H ) :   0.9634
B( 45-C , 46-C ) :   1.5409 B( 45-C , 49-C ) :   1.2114 B( 46-C , 47-S ) :   1.1738
B( 46-C , 97-H ) :   0.9543 B( 47-S , 48-C ) :   1.2244 B( 48-C , 49-C ) :   1.5099
B( 48-C , 98-H ) :   0.9619 B( 49-C , 50-C ) :   0.9740 B( 50-C , 51-O ) :   2.0180
B( 50-C , 52-O ) :   1.1479 B( 52-O , 53-C ) :   1.0240 B( 53-C , 54-C ) :   1.7308
B( 53-C , 99-H ) :   0.9671 B( 54-C , 55-C ) :   1.1239 B( 54-C ,100-H ) :   0.9360
B( 55-C , 56-C ) :   1.5608 B( 55-C , 62-C ) :   1.0272 B( 56-C , 57-N ) :   0.9449
B( 56-C , 60-C ) :   1.1043 B( 57-N , 58-O ) :   1.4818 B( 57-N , 59-O ) :   1.5453
B( 58-O , 59-O ) :   0.2583 B( 60-C , 61-C ) :   1.6241 B( 60-C ,101-H ) :   1.0103
B( 61-C , 62-C ) :   1.0954 B( 61-C ,102-H ) :   1.0007 B( 62-C , 63-C ) :   1.5531
B( 63-C , 64-C ) :   1.1025 B( 63-C , 70-C ) :   1.0044 B( 64-C , 65-C ) :   1.6075
B( 64-C ,103-H ) :   0.9981 B( 65-C , 66-C ) :   1.1099 B( 65-C ,104-H ) :   1.0058
B( 66-C , 67-N ) :   0.9334 B( 66-C , 70-C ) :   1.5925 B( 67-N , 68-O ) :   1.5362
B( 67-N , 69-O ) :   1.5042 B( 68-O , 69-O ) :   0.2671 B( 70-C , 71-C ) :   1.1303
B( 71-C , 72-C ) :   1.8787 B( 71-C ,105-H ) :   0.9412 B( 72-C ,106-H ) :   0.9565
B( 72-C ,107-H ) :   0.9526

-----------------------------------------------------------------------------
         ABSORPTION SPECTRUM VIA TRANSITION ELECTRIC DIPOLE MOMENTS
-----------------------------------------------------------------------------
State   Energy  Wavelength   fosc         T2         TX        TY        TZ
        (cm-1)    (nm)                  (au**2)     (au)      (au)      (au)
-----------------------------------------------------------------------------
   0   11136.3    898.0   0.388108345  11.47331  -3.11660  -1.32268  -0.10324
   1   12753.6    784.1   0.003022283   0.07801   0.20425  -0.18670  -0.03798
   2   15079.8    663.1   0.037028004   0.80837   0.00875   0.89186   0.11348
   3   15154.4    659.9   0.027101013   0.58874   0.17534  -0.49553   0.55897
   4   17286.4    578.5   0.512684850   9.76387   2.97249   0.72799  -0.63102
   5   17945.6    557.2   0.004653272   0.08536  -0.07738   0.18835   0.20952
   6   21310.6    469.3   0.000078471   0.00121  -0.01678   0.02201  -0.02112
   7   23752.3    421.0   0.127478569   1.76688   1.18690  -0.59026  -0.09865
   8   26562.2    376.5   0.007407400   0.09181  -0.15361  -0.11020  -0.23679
   9   26654.5    375.2   0.203260622   2.51049  -1.31518  -0.44695  -0.76225
  10   27054.6    369.6   0.200839204   2.44390  -0.77602  -1.20867   0.61709
  11   27112.8    368.8   0.002803414   0.03404   0.17554  -0.05660   0.00464
  12   27340.2    365.8   0.056665041   0.68232   0.39070   0.72056  -0.10233
  13   27449.8    364.3   0.005752595   0.06899  -0.07188  -0.25259   0.00509
  14   28015.4    356.9   0.021341682   0.25079  -0.35756  -0.35056  -0.00690
  15   28056.1    356.4   0.180171986   2.11415  -1.27717  -0.64707  -0.25355
  16   28129.4    355.5   0.119234978   1.39547   1.05298   0.49700   0.19924
  17   28182.3    354.8   0.000313542   0.00366   0.01497   0.02405   0.05348
  18   28301.8    353.3   0.019433148   0.22605  -0.27913  -0.38317  -0.03626
  19   28342.5    352.8   0.040208592   0.46704  -0.48765  -0.45635  -0.14486
  20   28811.9    347.1   0.035084504   0.40088   0.54371   0.32350   0.02474
  21   29795.5    335.6   0.006512730   0.07196   0.24899   0.06133  -0.07875
  22   29861.6    334.9   0.048427220   0.53389   0.62646   0.35622  -0.12063
  23   30197.5    331.2   0.186097864   2.02883   1.32967   0.40326   0.31336
  24   30422.3    328.7   0.000178396   0.00193   0.00173   0.03189  -0.03018
  25   30523.7    327.6   0.018008389   0.19423   0.44043  -0.00787  -0.01358
  26   30766.2    325.0   0.012428814   0.13299  -0.16211   0.32501  -0.03286
  27   31086.8    321.7   0.109115490   1.15554  -0.08478   1.07152   0.01385
  28   31227.7    320.2   0.222816533   2.34900  -0.08271   1.03563  -1.12678
  29   31534.2    317.1   0.093720391   0.97843  -0.18541  -0.80701   0.54109
  30   31751.4    314.9   0.135767687   1.40770  -0.18914  -0.81083   0.84527
  31   31786.2    314.6   0.116714639   1.20882  -0.37273   0.88682  -0.53240
  32   32198.8    310.6   0.031461017   0.32167   0.53068  -0.06345  -0.18980
  33   32506.4    307.6   0.029972618   0.30355  -0.14085   0.34864  -0.40270
  34   32650.4    306.3   0.040032188   0.40364   0.19977   0.46231  -0.38731
  35   32836.4    304.5   0.053070953   0.53208   0.15298  -0.43653   0.56402
  36   32967.7    303.3   0.005541774   0.05534  -0.06337  -0.17645   0.14209
  37   33137.4    301.8   0.029827098   0.29633  -0.40470  -0.29827   0.20875
  38   33340.1    299.9   0.158898501   1.56902  -0.64789  -0.86113   0.63853
  39   33524.9    298.3   0.033447725   0.32845  -0.39992  -0.39999   0.09234
  40   33778.6    296.0   0.056505363   0.55071  -0.12327   0.38909  -0.61978
  41   33906.1    294.9   0.183977045   1.78633   0.55597  -0.07947   1.21281
  42   34102.8    293.2   0.011099378   0.10715  -0.09295  -0.30158   0.08692
  43   34352.2    291.1   0.027776879   0.26620  -0.30724   0.34002  -0.23704
  44   34502.2    289.8   0.047002745   0.44849  -0.40621  -0.44813   0.28752
  45   34809.7    287.3   0.066729481   0.63109  -0.69064  -0.05682  -0.38843
  46   35045.6    285.3   0.035599573   0.33442   0.42047   0.37473   0.13115
  47   35424.1    282.3   0.570858393   5.30523  -2.04090  -0.25226  -1.03747
  48   35527.3    281.5   0.029057798   0.26926  -0.40714  -0.32093   0.02248
  49   35542.0    281.4   0.001789407   0.01657   0.07727  -0.08958   0.05078
  50   35786.6    279.4   0.046898682   0.43144  -0.38434   0.27364  -0.45699
  51   36020.9    277.6   0.078940176   0.72147   0.76663  -0.12431   0.34394
  52   36045.3    277.4   0.051060730   0.46635  -0.30756  -0.59486   0.13380
  53   36343.9    275.1   0.170841053   1.54752  -1.19530   0.08326  -0.33445
  54   36511.8    273.9   0.272248119   2.45475   1.21123   0.96929   0.21942
  55   36751.6    272.1   0.153516802   1.37516  -0.94372  -0.62843  -0.29938
  56   36925.1    270.8   0.014120306   0.12589  -0.28244  -0.20444  -0.06576
  57   37193.3    268.9   0.007210357   0.06382  -0.13973  -0.20617  -0.04231
  58   37489.0    266.7   0.001858302   0.01632   0.03011  -0.05733   0.11011
  59   37642.0    265.7   0.004169627   0.03647  -0.04727   0.18442  -0.01487
  60   38131.6    262.2   0.062528124   0.53984  -0.05071  -0.70755   0.19144
  61   38406.2    260.4   0.006233041   0.05343  -0.21159  -0.08674  -0.03367
  62   38425.9    260.2   0.007161547   0.06136   0.15139  -0.13811   0.13915
  63   38514.6    259.6   0.127098450   1.08640   0.30570   0.99169  -0.09749
  64   38658.6    258.7   0.000861428   0.00734   0.07187  -0.04285  -0.01827
  65   38743.0    258.1   0.033836432   0.28752   0.07797  -0.30313   0.43537
  66   38947.4    256.8   0.004558397   0.03853  -0.04338   0.10265  -0.16159
  67   39054.3    256.1   0.135905610   1.14563  -1.03507   0.13328  -0.23770
  68   39318.7    254.3   0.007146648   0.05984   0.24250  -0.02462   0.02069
  69   39480.9    253.3   0.003863171   0.03221   0.13304   0.11556  -0.03404
  70   39629.9    252.3   0.007665568   0.06368  -0.18012   0.17637  -0.01138
  71   39924.0    250.5   0.025380084   0.20928  -0.35959  -0.23587   0.15603
  72   40271.2    248.3   0.091636030   0.74911  -0.72502  -0.29889  -0.36624

FINAL SINGLE POINT ENERGY     -3794.157350808613

DIPOLE MOMENT
-------------
                                X             Y             Z
Electronic contribution:     -2.15677      11.08976       1.83806
Nuclear contribution   :      1.84157     -12.97650      -1.83832
                        -----------------------------------------
Total Dipole Moment    :     -0.31519      -1.88675      -0.00026
                        -----------------------------------------
Magnitude (a.u.)       :      1.91289
Magnitude (Debye)      :      4.86219

Rotational constants in cm-1:     0.001343     0.000273     0.000243
Rotational constants in MHz :    40.257407     8.188329     7.285848

                             ****ORCA TERMINATED NORMALLY****
TOTAL RUN TIME: 0 days 0 hours 11 minutes 11 seconds 157 msec
