                         Program Version 4.2.0 -  RELEASE  -
|  1> # ORCA input file
|  2> # SCF done       -201.675806505762          0.000564676535
|  3> ! CAM-B3LYP def2-SVP def2/J RIJCOSX Grid4 TightSCF
|  4> %maxcore 5000
|  5> %tddft
|  6>     Mode sTDDFT
|  7>     Ethresh 5.0
|  8>     maxcore 5000
|  9> end
| 10>
| 11> %pal
| 12>   nprocs 6
| 13>   end
| 14> * xyz 0 1
| 15>    C        7.26571         1.65306         5.92177
| 16>    O        6.86577         2.43596         5.08882
| 17>    C        7.74773         1.90220         7.26581
| 18>    C        8.19039         0.72988         7.87805
| 19>    C        8.66392         0.94985         9.18523
| 20>    C        8.56766         2.26845         9.52232
| 21>    S        7.90993         3.26610         8.28101
| 22>    C        8.01479        -0.38341         6.97431
| 23>    C        8.34203        -1.68229         7.23407
| 24>    C        8.93348        -2.06686         8.45872
| 25>    N        9.41753        -2.39439         9.44500
| 26>    C        8.13673        -2.76858         6.35654
| 27>    N        7.98509        -3.69475         5.69701
| 28>    C        7.40568         0.16256         5.76003
| 29>    C        7.01638        -0.50513         4.66448
| 30>    C        6.37767         0.12151         3.51461
| 31>    C        6.94983         0.01420         2.25154
| 32>    C        8.21910        -0.63698         1.86986
| 33>    O        9.02704        -1.19364         2.56683
| 34>    N        8.32803        -0.47043         0.48278
| 35>    C        7.26004         0.25746        -0.05023
| 36>    O        7.10421         0.54581        -1.20722
| 37>    C        6.38414         0.58156         1.10740
| 38>    C        5.21246         1.31012         1.16626
| 39>    C        4.62625         1.42481         2.42523
| 40>    C        5.17186         0.83983         3.56587
| 41>    C        4.37300         1.03956         4.79191
| 42>    O        4.56212         0.58703         5.88244
| 43>    S        2.96936         2.08604         4.40632
| 44>    C        3.38221         2.18716         2.66088
| 45>    O        2.73029         2.78138         1.85894
| 46>    C        9.41483        -1.00590        -0.20008
| 47>    C        9.58046        -1.00477        -1.53108
| 48>    C       10.70931        -1.58583        -2.18426
| 49>    N       10.76194        -1.65325        -3.55686
| 50>    C       11.92094        -2.26482        -3.91364
| 51>    C       12.66981        -2.70607        -4.99153
| 52>    C       13.84074        -3.26513        -4.45052
| 53>    N       13.79361        -3.18163        -3.07217
| 54>    C       12.62911        -2.58291        -2.72079
| 55>    C       11.86245        -2.16082        -1.63844
| 56>    C       14.91680        -3.77871        -5.19916
| 57>    C       16.08098        -4.27795        -4.70025
| 58>    C       17.14078        -4.75532        -5.52040
| 59>    C       17.37871        -4.29489        -6.83666
| 60>    C       16.87523        -3.08651        -7.51654
| 61>    O       16.28934        -2.13611        -7.06745
| 62>    N       17.34282        -3.17475        -8.84662
| 63>    C       18.24077        -4.24202        -9.00971
| 64>    O       18.80335        -4.51150       -10.03412
| 65>    C       18.30014        -4.90702        -7.68736
| 66>    C       19.11072        -5.95245        -7.28063
| 67>    C       18.98157        -6.33378        -5.95024
| 68>    C       18.04340        -5.76665        -5.09021
| 69>    C       18.06784        -6.32815        -3.73440
| 70>    O       17.39121        -6.04598        -2.78763
| 71>    S       19.34854        -7.59822        -3.63781
| 72>    C       19.82624        -7.38811        -5.34870
| 73>    O       20.69044        -8.01592        -5.88093
| 74>    C       16.90045        -2.42439        -9.91393
| 75>    C       15.96234        -1.46470        -9.82171
| 76>    C       15.40090        -0.79941       -10.94361
| 77>    C       14.23816        -0.09941       -10.92423
| 78>    C       13.89423         0.83246       -12.04502
| 79>    O       14.43041         0.89219       -13.12571
| 80>    C       12.81701         1.64946       -11.49301
| 81>    C       12.45522         1.21529       -10.22171
| 82>    C       13.23589         0.04227        -9.87957
| 83>    C       12.91788        -0.82802        -8.86965
| 84>    C       11.90020        -0.55152        -7.93170
| 85>    N       11.09994        -0.36904        -7.12888
| 86>    C       13.45050        -2.11922        -8.67899
| 87>    N       13.77299        -3.20318        -8.47731
| 88>    C       11.41617         1.98260        -9.66164
| 89>    C       11.02967         2.97387       -10.51489
| 90>    S       11.89496         2.99287       -12.00592
| 91>    H        9.05070         0.19123         9.84003
| 92>    H        8.85281         2.71923        10.45307
| 93>    H        7.21137        -1.56517         4.56454
| 94>    H        4.76933         1.77143         0.29820
| 95>    H       10.12949        -1.45692         0.47339
| 96>    H        8.83175        -0.55692        -2.16757
| 97>    H       10.06793        -1.28186        -4.18382
| 98>    H       12.44268        -2.64322        -6.03552
| 99>    H       14.50106        -3.53388        -2.45084
|100>    H       12.09201        -2.24319        -0.59617
|101>    H       14.74817        -3.77457        -6.26613
|102>    H       16.20530        -4.40497        -3.63577
|103>    H       19.82177        -6.42590        -7.93745
|104>    H       17.31974        -2.74577       -10.85980
|105>    H       15.59034        -1.19226        -8.84649
|106>    H       15.94730        -0.80535       -11.87956
|107>    H       10.98400         1.82631        -8.69068
|108>    H       10.26500         3.70778       -10.35037
|109> *
|110>
|111>                          ****END OF INPUT****

CARTESIAN COORDINATES (ANGSTROEM)
---------------------------------
  C      7.265710    1.653060    5.921770
  O      6.865770    2.435960    5.088820
  C      7.747730    1.902200    7.265810
  C      8.190390    0.729880    7.878050
  C      8.663920    0.949850    9.185230
  C      8.567660    2.268450    9.522320
  S      7.909930    3.266100    8.281010
  C      8.014790   -0.383410    6.974310
  C      8.342030   -1.682290    7.234070
  C      8.933480   -2.066860    8.458720
  N      9.417530   -2.394390    9.445000
  C      8.136730   -2.768580    6.356540
  N      7.985090   -3.694750    5.697010
  C      7.405680    0.162560    5.760030
  C      7.016380   -0.505130    4.664480
  C      6.377670    0.121510    3.514610
  C      6.949830    0.014200    2.251540
  C      8.219100   -0.636980    1.869860
  O      9.027040   -1.193640    2.566830
  N      8.328030   -0.470430    0.482780
  C      7.260040    0.257460   -0.050230
  O      7.104210    0.545810   -1.207220
  C      6.384140    0.581560    1.107400
  C      5.212460    1.310120    1.166260
  C      4.626250    1.424810    2.425230
  C      5.171860    0.839830    3.565870
  C      4.373000    1.039560    4.791910
  O      4.562120    0.587030    5.882440
  S      2.969360    2.086040    4.406320
  C      3.382210    2.187160    2.660880
  O      2.730290    2.781380    1.858940
  C      9.414830   -1.005900   -0.200080
  C      9.580460   -1.004770   -1.531080
  C     10.709310   -1.585830   -2.184260
  N     10.761940   -1.653250   -3.556860
  C     11.920940   -2.264820   -3.913640
  C     12.669810   -2.706070   -4.991530
  C     13.840740   -3.265130   -4.450520
  N     13.793610   -3.181630   -3.072170
  C     12.629110   -2.582910   -2.720790
  C     11.862450   -2.160820   -1.638440
  C     14.916800   -3.778710   -5.199160
  C     16.080980   -4.277950   -4.700250
  C     17.140780   -4.755320   -5.520400
  C     17.378710   -4.294890   -6.836660
  C     16.875230   -3.086510   -7.516540
  O     16.289340   -2.136110   -7.067450
  N     17.342820   -3.174750   -8.846620
  C     18.240770   -4.242020   -9.009710
  O     18.803350   -4.511500  -10.034120
  C     18.300140   -4.907020   -7.687360
  C     19.110720   -5.952450   -7.280630
  C     18.981570   -6.333780   -5.950240
  C     18.043400   -5.766650   -5.090210
  C     18.067840   -6.328150   -3.734400
  O     17.391210   -6.045980   -2.787630
  S     19.348540   -7.598220   -3.637810
  C     19.826240   -7.388110   -5.348700
  O     20.690440   -8.015920   -5.880930
  C     16.900450   -2.424390   -9.913930
  C     15.962340   -1.464700   -9.821710
  C     15.400900   -0.799410  -10.943610
  C     14.238160   -0.099410  -10.924230
  C     13.894230    0.832460  -12.045020
  O     14.430410    0.892190  -13.125710
  C     12.817010    1.649460  -11.493010
  C     12.455220    1.215290  -10.221710
  C     13.235890    0.042270   -9.879570
  C     12.917880   -0.828020   -8.869650
  C     11.900200   -0.551520   -7.931700
  N     11.099940   -0.369040   -7.128880
  C     13.450500   -2.119220   -8.678990
  N     13.772990   -3.203180   -8.477310
  C     11.416170    1.982600   -9.661640
  C     11.029670    2.973870  -10.514890
  S     11.894960    2.992870  -12.005920
  H      9.050700    0.191230    9.840030
  H      8.852810    2.719230   10.453070
  H      7.211370   -1.565170    4.564540
  H      4.769330    1.771430    0.298200
  H     10.129490   -1.456920    0.473390
  H      8.831750   -0.556920   -2.167570
  H     10.067930   -1.281860   -4.183820
  H     12.442680   -2.643220   -6.035520
  H     14.501060   -3.533880   -2.450840
  H     12.092010   -2.243190   -0.596170
  H     14.748170   -3.774570   -6.266130
  H     16.205300   -4.404970   -3.635770
  H     19.821770   -6.425900   -7.937450
  H     17.319740   -2.745770  -10.859800
  H     15.590340   -1.192260   -8.846490
  H     15.947300   -0.805350  -11.879560
  H     10.984000    1.826310   -8.690680
  H     10.265000    3.707780  -10.350370

 Total Charge           Charge          ....    0
 Multiplicity           Mult            ....    1
 Number of Electrons    NEL             ....  542
 Basis Dimension        Dim             .... 1170

ORBITAL ENERGIES
----------------

  NO   OCC          E(Eh)            E(eV)
   0   2.0000     -89.000940     -2421.8387
   1   2.0000     -88.993145     -2421.6266
   2   2.0000     -88.958470     -2420.6830
   3   2.0000     -88.943763     -2420.2828
   4   2.0000     -19.251271      -523.8537
   5   2.0000     -19.250528      -523.8335
   6   2.0000     -19.243573      -523.6442
   7   2.0000     -19.240991      -523.5740
   8   2.0000     -19.238151      -523.4967
   9   2.0000     -19.237093      -523.4679
  10   2.0000     -19.236705      -523.4574
  11   2.0000     -19.235518      -523.4251
  12   2.0000     -19.232707      -523.3486
  13   2.0000     -19.221347      -523.0394
  14   2.0000     -14.492019      -394.3479
  15   2.0000     -14.489269      -394.2730
  16   2.0000     -14.454022      -393.3139
  17   2.0000     -14.452096      -393.2615
  18   2.0000     -14.429574      -392.6487
  19   2.0000     -14.429120      -392.6363
  20   2.0000     -14.427981      -392.6053
  21   2.0000     -14.427252      -392.5855
  22   2.0000     -10.421304      -283.5781
  23   2.0000     -10.421053      -283.5713
  24   2.0000     -10.415615      -283.4233
  25   2.0000     -10.414691      -283.3982
  26   2.0000     -10.414490      -283.3927
  27   2.0000     -10.412281      -283.3326
  28   2.0000     -10.399376      -282.9814
  29   2.0000     -10.397652      -282.9345
  30   2.0000     -10.393940      -282.8335
  31   2.0000     -10.379342      -282.4363
  32   2.0000     -10.361246      -281.9438
  33   2.0000     -10.358107      -281.8584
  34   2.0000     -10.354662      -281.7647
  35   2.0000     -10.353794      -281.7411
  36   2.0000     -10.346940      -281.5545
  37   2.0000     -10.346744      -281.5492
  38   2.0000     -10.337298      -281.2922
  39   2.0000     -10.335566      -281.2450
  40   2.0000     -10.333926      -281.2004
  41   2.0000     -10.332682      -281.1666
  42   2.0000     -10.331975      -281.1473
  43   2.0000     -10.331922      -281.1459
  44   2.0000     -10.331519      -281.1349
  45   2.0000     -10.331268      -281.1281
  46   2.0000     -10.331100      -281.1235
  47   2.0000     -10.330155      -281.0978
  48   2.0000     -10.329868      -281.0900
  49   2.0000     -10.329407      -281.0774
  50   2.0000     -10.327268      -281.0193
  51   2.0000     -10.326827      -281.0073
  52   2.0000     -10.325364      -280.9674
  53   2.0000     -10.321630      -280.8658
  54   2.0000     -10.321161      -280.8531
  55   2.0000     -10.320640      -280.8389
  56   2.0000     -10.319764      -280.8151
  57   2.0000     -10.318923      -280.7922
  58   2.0000     -10.318333      -280.7761
  59   2.0000     -10.317076      -280.7419
  60   2.0000     -10.313252      -280.6378
  61   2.0000     -10.312320      -280.6125
  62   2.0000     -10.310906      -280.5740
  63   2.0000     -10.309273      -280.5296
  64   2.0000     -10.308622      -280.5119
  65   2.0000     -10.304955      -280.4121
  66   2.0000     -10.301383      -280.3149
  67   2.0000     -10.296945      -280.1941
  68   2.0000     -10.293813      -280.1089
  69   2.0000     -10.287896      -279.9479
  70   2.0000     -10.286634      -279.9135
  71   2.0000     -10.285365      -279.8790
  72   2.0000     -10.284221      -279.8479
  73   2.0000     -10.264769      -279.3186
  74   2.0000     -10.264342      -279.3070
  75   2.0000     -10.259442      -279.1736
  76   2.0000      -8.095991      -220.3031
  77   2.0000      -8.088284      -220.0934
  78   2.0000      -8.057707      -219.2613
  79   2.0000      -8.043012      -218.8615
  80   2.0000      -6.065158      -165.0413
  81   2.0000      -6.060680      -164.9195
  82   2.0000      -6.058712      -164.8659
  83   2.0000      -6.057426      -164.8309
  84   2.0000      -6.052982      -164.7100
  85   2.0000      -6.051018      -164.6566
  86   2.0000      -6.026553      -163.9908
  87   2.0000      -6.023280      -163.9018
  88   2.0000      -6.018782      -163.7794
  89   2.0000      -6.011866      -163.5912
  90   2.0000      -6.008628      -163.5031
  91   2.0000      -6.004064      -163.3789
  92   2.0000      -1.188216       -32.3330
  93   2.0000      -1.183770       -32.2120
  94   2.0000      -1.176425       -32.0121
  95   2.0000      -1.172367       -31.9017
  96   2.0000      -1.164643       -31.6916
  97   2.0000      -1.161204       -31.5980
  98   2.0000      -1.159243       -31.5446
  99   2.0000      -1.157244       -31.4902
 100   2.0000      -1.152559       -31.3627
 101   2.0000      -1.138212       -30.9723
 102   2.0000      -1.086158       -29.5559
 103   2.0000      -1.081164       -29.4200
 104   2.0000      -1.077269       -29.3140
 105   2.0000      -1.049581       -28.5605
 106   2.0000      -1.041002       -28.3271
 107   2.0000      -1.034589       -28.1526
 108   2.0000      -1.022956       -27.8360
 109   2.0000      -1.021151       -27.7869
 110   2.0000      -1.019242       -27.7350
 111   2.0000      -1.006817       -27.3969
 112   2.0000      -1.006601       -27.3910
 113   2.0000      -1.004029       -27.3210
 114   2.0000      -0.978894       -26.6371
 115   2.0000      -0.971659       -26.4402
 116   2.0000      -0.962429       -26.1890
 117   2.0000      -0.952635       -25.9225
 118   2.0000      -0.934951       -25.4413
 119   2.0000      -0.922622       -25.1058
 120   2.0000      -0.913469       -24.8567
 121   2.0000      -0.912803       -24.8386
 122   2.0000      -0.908219       -24.7139
 123   2.0000      -0.905090       -24.6287
 124   2.0000      -0.881625       -23.9902
 125   2.0000      -0.881393       -23.9839
 126   2.0000      -0.872408       -23.7394
 127   2.0000      -0.870659       -23.6918
 128   2.0000      -0.861824       -23.4514
 129   2.0000      -0.861160       -23.4334
 130   2.0000      -0.858460       -23.3599
 131   2.0000      -0.843071       -22.9411
 132   2.0000      -0.837949       -22.8018
 133   2.0000      -0.810561       -22.0565
 134   2.0000      -0.801717       -21.8158
 135   2.0000      -0.793555       -21.5937
 136   2.0000      -0.788751       -21.4630
 137   2.0000      -0.787726       -21.4351
 138   2.0000      -0.777682       -21.1618
 139   2.0000      -0.775314       -21.0974
 140   2.0000      -0.769404       -20.9365
 141   2.0000      -0.754651       -20.5351
 142   2.0000      -0.748403       -20.3651
 143   2.0000      -0.744105       -20.2481
 144   2.0000      -0.733069       -19.9478
 145   2.0000      -0.711392       -19.3580
 146   2.0000      -0.706267       -19.2185
 147   2.0000      -0.700691       -19.0668
 148   2.0000      -0.696810       -18.9612
 149   2.0000      -0.692244       -18.8369
 150   2.0000      -0.688372       -18.7316
 151   2.0000      -0.687615       -18.7110
 152   2.0000      -0.682886       -18.5823
 153   2.0000      -0.682718       -18.5777
 154   2.0000      -0.680638       -18.5211
 155   2.0000      -0.673040       -18.3144
 156   2.0000      -0.663390       -18.0517
 157   2.0000      -0.653699       -17.7881
 158   2.0000      -0.647605       -17.6222
 159   2.0000      -0.644361       -17.5340
 160   2.0000      -0.640270       -17.4226
 161   2.0000      -0.635989       -17.3061
 162   2.0000      -0.628849       -17.1119
 163   2.0000      -0.621605       -16.9147
 164   2.0000      -0.620606       -16.8875
 165   2.0000      -0.619191       -16.8490
 166   2.0000      -0.613766       -16.7014
 167   2.0000      -0.611828       -16.6487
 168   2.0000      -0.611082       -16.6284
 169   2.0000      -0.603344       -16.4178
 170   2.0000      -0.598065       -16.2742
 171   2.0000      -0.597207       -16.2508
 172   2.0000      -0.591330       -16.0909
 173   2.0000      -0.582530       -15.8515
 174   2.0000      -0.576716       -15.6932
 175   2.0000      -0.575693       -15.6654
 176   2.0000      -0.573758       -15.6127
 177   2.0000      -0.571462       -15.5503
 178   2.0000      -0.564511       -15.3611
 179   2.0000      -0.563465       -15.3327
 180   2.0000      -0.562934       -15.3182
 181   2.0000      -0.562368       -15.3028
 182   2.0000      -0.557889       -15.1809
 183   2.0000      -0.551766       -15.0143
 184   2.0000      -0.550340       -14.9755
 185   2.0000      -0.547497       -14.8982
 186   2.0000      -0.547080       -14.8868
 187   2.0000      -0.546643       -14.8749
 188   2.0000      -0.545114       -14.8333
 189   2.0000      -0.544477       -14.8160
 190   2.0000      -0.540591       -14.7102
 191   2.0000      -0.538768       -14.6606
 192   2.0000      -0.538740       -14.6599
 193   2.0000      -0.532603       -14.4929
 194   2.0000      -0.532371       -14.4865
 195   2.0000      -0.531380       -14.4596
 196   2.0000      -0.530243       -14.4287
 197   2.0000      -0.528449       -14.3798
 198   2.0000      -0.525488       -14.2993
 199   2.0000      -0.522095       -14.2069
 200   2.0000      -0.520132       -14.1535
 201   2.0000      -0.519259       -14.1297
 202   2.0000      -0.515264       -14.0210
 203   2.0000      -0.513647       -13.9770
 204   2.0000      -0.511566       -13.9204
 205   2.0000      -0.508096       -13.8260
 206   2.0000      -0.506602       -13.7853
 207   2.0000      -0.506274       -13.7764
 208   2.0000      -0.505523       -13.7560
 209   2.0000      -0.502523       -13.6744
 210   2.0000      -0.499746       -13.5988
 211   2.0000      -0.496920       -13.5219
 212   2.0000      -0.494157       -13.4467
 213   2.0000      -0.493058       -13.4168
 214   2.0000      -0.488039       -13.2802
 215   2.0000      -0.485679       -13.2160
 216   2.0000      -0.478817       -13.0293
 217   2.0000      -0.478337       -13.0162
 218   2.0000      -0.477474       -12.9927
 219   2.0000      -0.475265       -12.9326
 220   2.0000      -0.474303       -12.9064
 221   2.0000      -0.471364       -12.8265
 222   2.0000      -0.471253       -12.8234
 223   2.0000      -0.469470       -12.7749
 224   2.0000      -0.465264       -12.6605
 225   2.0000      -0.462448       -12.5838
 226   2.0000      -0.460975       -12.5438
 227   2.0000      -0.459585       -12.5059
 228   2.0000      -0.457611       -12.4522
 229   2.0000      -0.454168       -12.3585
 230   2.0000      -0.453397       -12.3376
 231   2.0000      -0.449494       -12.2314
 232   2.0000      -0.443504       -12.0684
 233   2.0000      -0.441339       -12.0094
 234   2.0000      -0.440544       -11.9878
 235   2.0000      -0.439262       -11.9529
 236   2.0000      -0.435721       -11.8566
 237   2.0000      -0.432999       -11.7825
 238   2.0000      -0.431581       -11.7439
 239   2.0000      -0.430191       -11.7061
 240   2.0000      -0.424500       -11.5512
 241   2.0000      -0.422253       -11.4901
 242   2.0000      -0.421092       -11.4585
 243   2.0000      -0.398868       -10.8537
 244   2.0000      -0.394280       -10.7289
 245   2.0000      -0.391399       -10.6505
 246   2.0000      -0.384544       -10.4640
 247   2.0000      -0.382886       -10.4189
 248   2.0000      -0.378378       -10.2962
 249   2.0000      -0.376327       -10.2404
 250   2.0000      -0.373534       -10.1644
 251   2.0000      -0.367298        -9.9947
 252   2.0000      -0.366351        -9.9689
 253   2.0000      -0.365148        -9.9362
 254   2.0000      -0.363226        -9.8839
 255   2.0000      -0.360560        -9.8113
 256   2.0000      -0.355688        -9.6788
 257   2.0000      -0.353967        -9.6319
 258   2.0000      -0.349105        -9.4996
 259   2.0000      -0.348510        -9.4834
 260   2.0000      -0.345012        -9.3883
 261   2.0000      -0.342672        -9.3246
 262   2.0000      -0.340697        -9.2708
 263   2.0000      -0.338394        -9.2082
 264   2.0000      -0.335927        -9.1410
 265   2.0000      -0.321536        -8.7495
 266   2.0000      -0.319904        -8.7050
 267   2.0000      -0.300043        -8.1646
 268   2.0000      -0.294808        -8.0221
 269   2.0000      -0.285438        -7.7671
 270   2.0000      -0.224645        -6.1129
 271   0.0000      -0.101193        -2.7536
 272   0.0000      -0.094237        -2.5643
 273   0.0000      -0.088301        -2.4028
 274   0.0000      -0.088051        -2.3960
 275   0.0000      -0.084307        -2.2941

MULLIKEN ATOMIC CHARGES
-----------------------
   0 C :    0.137491
   1 O :   -0.150909
   2 C :   -0.167272
   3 C :    0.008898
   4 C :    0.027174
   5 C :   -0.051271
   6 S :    0.224723
   7 C :    0.308636
   8 C :   -0.319440
   9 C :   -0.196942
  10 N :    0.168150
  11 C :   -0.177444
  12 N :    0.169565
  13 C :   -0.036747
  14 C :   -0.074287
  15 C :    0.007530
  16 C :   -0.010661
  17 C :    0.189748
  18 O :   -0.140089
  19 N :   -0.228283
  20 C :    0.211474
  21 O :   -0.138960
  22 C :    0.020640
  23 C :   -0.066020
  24 C :    0.041855
  25 C :    0.090815
  26 C :    0.043467
  27 O :   -0.134685
  28 S :    0.019704
  29 C :    0.047739
  30 O :   -0.113678
  31 C :    0.064167
  32 C :    0.008770
  33 C :    0.093040
  34 N :   -0.024855
  35 C :    0.123976
  36 C :   -0.135517
  37 C :    0.040872
  38 N :   -0.029156
  39 C :    0.121756
  40 C :   -0.175000
  41 C :    0.110691
  42 C :   -0.096986
  43 C :    0.084920
  44 C :   -0.062786
  45 C :    0.211547
  46 O :   -0.144953
  47 N :   -0.236353
  48 C :    0.202699
  49 O :   -0.130320
  50 C :    0.009740
  51 C :   -0.089921
  52 C :    0.050607
  53 C :    0.040663
  54 C :    0.032197
  55 O :   -0.139250
  56 S :    0.002852
  57 C :    0.050738
  58 O :   -0.121981
  59 C :    0.109132
  60 C :   -0.021109
  61 C :    0.035784
  62 C :   -0.130519
  63 C :    0.125083
  64 O :   -0.135445
  65 C :   -0.165446
  66 C :   -0.013630
  67 C :    0.296286
  68 C :   -0.324212
  69 C :   -0.184327
  70 N :    0.136054
  71 C :   -0.168944
  72 N :    0.147699
  73 C :    0.030721
  74 C :   -0.061372
  75 S :    0.214738
  76 H :    0.022455
  77 H :    0.048270
  78 H :    0.053195
  79 H :    0.019521
  80 H :    0.030519
  81 H :    0.007625
  82 H :    0.131150
  83 H :   -0.045282
  84 H :    0.131337
  85 H :   -0.034790
  86 H :   -0.010056
  87 H :   -0.016132
  88 H :    0.013684
  89 H :    0.041374
  90 H :    0.063261
  91 H :    0.019746
  92 H :    0.015866
  93 H :    0.044685
Sum of atomic charges:   -0.0000000

LOEWDIN ATOMIC CHARGES
----------------------
   0 C :    0.071238
   1 O :   -0.142709
   2 C :   -0.206451
   3 C :   -0.029385
   4 C :   -0.042332
   5 C :   -0.139651
   6 S :    0.513290
   7 C :    0.074359
   8 C :   -0.116541
   9 C :   -0.016408
  10 N :   -0.039818
  11 C :   -0.018927
  12 N :   -0.031601
  13 C :   -0.046343
  14 C :    0.062595
  15 C :    0.027816
  16 C :   -0.029398
  17 C :    0.098297
  18 O :   -0.130348
  19 N :   -0.009134
  20 C :    0.100436
  21 O :   -0.129759
  22 C :   -0.028434
  23 C :    0.046472
  24 C :   -0.049584
  25 C :   -0.037886
  26 C :   -0.041588
  27 O :   -0.119137
  28 S :    0.310896
  29 C :   -0.043100
  30 O :   -0.106275
  31 C :    0.021625
  32 C :   -0.046099
  33 C :    0.010473
  34 N :    0.079684
  35 C :   -0.026378
  36 C :   -0.052810
  37 C :   -0.015398
  38 N :    0.071297
  39 C :   -0.000582
  40 C :   -0.103784
  41 C :    0.040149
  42 C :   -0.093339
  43 C :    0.045578
  44 C :   -0.049724
  45 C :    0.111033
  46 O :   -0.122681
  47 N :   -0.012917
  48 C :    0.102940
  49 O :   -0.127186
  50 C :   -0.029812
  51 C :    0.016595
  52 C :   -0.047613
  53 C :   -0.071350
  54 C :   -0.037750
  55 O :   -0.123909
  56 S :    0.293369
  57 C :   -0.048151
  58 O :   -0.114271
  59 C :    0.086126
  60 C :   -0.066362
  61 C :    0.074661
  62 C :   -0.096714
  63 C :    0.066253
  64 O :   -0.137198
  65 C :   -0.209050
  66 C :   -0.040180
  67 C :    0.079996
  68 C :   -0.141297
  69 C :   -0.007375
  70 N :   -0.067700
  71 C :   -0.005167
  72 N :   -0.060467
  73 C :   -0.046832
  74 C :   -0.149362
  75 S :    0.506849
  76 H :    0.045656
  77 H :    0.033968
  78 H :    0.053690
  79 H :    0.052582
  80 H :    0.033891
  81 H :    0.034226
  82 H :    0.094467
  83 H :    0.026238
  84 H :    0.092488
  85 H :    0.023638
  86 H :    0.035503
  87 H :    0.020840
  88 H :    0.048653
  89 H :    0.041540
  90 H :    0.036379
  91 H :    0.046307
  92 H :    0.042543
  93 H :    0.031632

  Mayer bond orders larger than 0.100000
B(  0-C ,  1-O ) :   2.1856 B(  0-C ,  2-C ) :   1.0866 B(  0-C , 13-C ) :   0.9084
B(  2-C ,  3-C ) :   1.4342 B(  2-C ,  6-S ) :   1.1256 B(  3-C ,  4-C ) :   1.2722
B(  3-C ,  7-C ) :   1.0182 B(  4-C ,  5-C ) :   1.5396 B(  4-C , 76-H ) :   0.9943
B(  5-C ,  6-S ) :   1.1923 B(  5-C , 77-H ) :   0.9617 B(  7-C ,  8-C ) :   1.6930
B(  7-C , 13-C ) :   1.0240 B(  8-C ,  9-C ) :   1.1408 B(  8-C , 11-C ) :   1.1359
B(  9-C , 10-N ) :   2.9940 B( 11-C , 12-N ) :   2.9731 B( 13-C , 14-C ) :   1.8164
B( 14-C , 15-C ) :   0.9997 B( 14-C , 78-H ) :   0.9145 B( 15-C , 16-C ) :   1.4440
B( 15-C , 25-C ) :   1.3675 B( 16-C , 17-C ) :   0.8879 B( 16-C , 22-C ) :   1.3628
B( 17-C , 18-O ) :   2.1752 B( 17-C , 19-N ) :   1.0469 B( 19-N , 20-C ) :   1.0324
B( 19-N , 31-C ) :   1.0045 B( 20-C , 21-O ) :   2.2075 B( 20-C , 22-C ) :   0.8745
B( 22-C , 23-C ) :   1.3480 B( 23-C , 24-C ) :   1.3144 B( 23-C , 79-H ) :   1.0279
B( 24-C , 25-C ) :   1.3644 B( 24-C , 29-C ) :   0.8394 B( 25-C , 26-C ) :   0.8453
B( 26-C , 27-O ) :   2.1742 B( 26-C , 28-S ) :   1.0318 B( 27-O , 28-S ) :   0.1086
B( 28-S , 29-C ) :   1.0221 B( 28-S , 30-O ) :   0.1061 B( 29-C , 30-O ) :   2.2294
B( 31-C , 32-C ) :   1.7262 B( 31-C , 80-H ) :   0.9713 B( 32-C , 33-C ) :   1.0808
B( 32-C , 81-H ) :   0.9559 B( 33-C , 34-N ) :   1.2052 B( 33-C , 40-C ) :   1.4089
B( 34-N , 35-C ) :   1.1590 B( 34-N , 82-H ) :   0.9303 B( 35-C , 36-C ) :   1.2644
B( 35-C , 39-C ) :   1.2965 B( 36-C , 37-C ) :   1.3168 B( 36-C , 83-H ) :   1.0442
B( 37-C , 38-N ) :   1.1763 B( 37-C , 41-C ) :   1.2492 B( 38-N , 39-C ) :   1.1857
B( 38-N , 84-H ) :   0.9306 B( 39-C , 40-C ) :   1.2572 B( 40-C , 85-H ) :   1.0306
B( 41-C , 42-C ) :   1.5123 B( 41-C , 86-H ) :   0.9346 B( 42-C , 43-C ) :   1.2189
B( 42-C , 87-H ) :   0.9469 B( 43-C , 44-C ) :   1.2751 B( 43-C , 53-C ) :   1.2929
B( 44-C , 45-C ) :   0.9303 B( 44-C , 50-C ) :   1.3991 B( 45-C , 46-O ) :   2.1488
B( 45-C , 47-N ) :   0.9869 B( 47-N , 48-C ) :   1.0055 B( 47-N , 59-C ) :   1.0674
B( 48-C , 49-O ) :   2.2466 B( 48-C , 50-C ) :   0.8770 B( 50-C , 51-C ) :   1.3267
B( 51-C , 52-C ) :   1.3334 B( 51-C , 88-H ) :   1.0291 B( 52-C , 53-C ) :   1.3498
B( 52-C , 57-C ) :   0.8399 B( 53-C , 54-C ) :   0.8790 B( 54-C , 55-O ) :   2.1431
B( 54-C , 56-S ) :   1.0213 B( 55-O , 56-S ) :   0.1006 B( 56-S , 57-C ) :   1.0289
B( 56-S , 58-O ) :   0.1087 B( 57-C , 58-O ) :   2.2189 B( 59-C , 60-C ) :   1.6743
B( 59-C , 89-H ) :   0.9788 B( 60-C , 61-C ) :   1.1111 B( 60-C , 90-H ) :   0.9288
B( 61-C , 62-C ) :   1.6651 B( 61-C , 91-H ) :   0.9609 B( 62-C , 63-C ) :   0.9401
B( 62-C , 67-C ) :   1.0330 B( 63-C , 64-O ) :   2.2536 B( 63-C , 65-C ) :   1.0224
B( 65-C , 66-C ) :   1.4526 B( 65-C , 75-S ) :   1.1356 B( 66-C , 67-C ) :   1.0258
B( 66-C , 73-C ) :   1.2708 B( 67-C , 68-C ) :   1.6245 B( 68-C , 69-C ) :   1.1495
B( 68-C , 71-C ) :   1.1770 B( 69-C , 70-N ) :   2.9645 B( 71-C , 72-N ) :   2.9010
B( 73-C , 74-C ) :   1.5427 B( 73-C , 92-H ) :   0.9949 B( 74-C , 75-S ) :   1.1900
B( 74-C , 93-H ) :   0.9627

-----------------------------------------------------------------------------
         ABSORPTION SPECTRUM VIA TRANSITION ELECTRIC DIPOLE MOMENTS
-----------------------------------------------------------------------------
State   Energy  Wavelength   fosc         T2         TX        TY        TZ
        (cm-1)    (nm)                  (au**2)     (au)      (au)      (au)
-----------------------------------------------------------------------------
   0   13663.9    731.9   0.031620022   0.76184  -0.04029   0.45082  -0.74631
   1   14139.6    707.2   0.002412600   0.05617  -0.18877   0.11725  -0.08242
   2   15435.1    647.9   0.155391163   3.31430   1.23858  -0.43340  -1.26190
   3   17430.1    573.7   0.445837921   8.42081   2.06666  -0.97555  -1.78830
   4   19340.6    517.0   0.520140556   8.85372   2.30218  -1.03137  -1.57795
   5   20378.4    490.7   0.029874951   0.48263  -0.63026   0.21222   0.20090
   6   23026.1    434.3   0.324005766   4.63242   1.72998  -0.98938  -0.81285
   7   25152.3    397.6   0.332594019   4.35323   1.84110  -0.86538  -0.46336
   8   26609.3    375.8   0.004946233   0.06120  -0.24733   0.00098  -0.00467
   9   27150.8    368.3   0.017837962   0.21629   0.35533  -0.13651  -0.26721
  10   27179.5    367.9   0.037035210   0.44859   0.30154  -0.10475  -0.58880
  11   28000.7    357.1   0.009033707   0.10621  -0.06572   0.10905  -0.30000
  12   28154.1    355.2   0.000212861   0.00249   0.03811  -0.02602   0.01895
  13   28318.9    353.1   0.006272068   0.07291  -0.11853   0.19539  -0.14383
  14   28636.5    349.2   0.003144736   0.03615  -0.19008  -0.00329   0.00365
  15   28728.2    348.1   0.008952375   0.10259   0.16177  -0.23934   0.13834
  16   29540.8    338.5   0.046694263   0.52038   0.40699  -0.55997   0.20290
  17   29618.0    337.6   0.011096970   0.12335   0.00215   0.11623  -0.33141
  18   29741.3    336.2   0.009477726   0.10491  -0.12541   0.02415   0.29766
  19   30328.3    329.7   0.126450786   1.37261   1.05766  -0.46631  -0.19113
  20   30464.3    328.3   0.104630461   1.13069   0.90317  -0.52580   0.19623
  21   30500.5    327.9   0.146184463   1.57787   0.78033  -0.77863   0.60224
  22   30535.9    327.5   0.182249243   1.96486  -1.10117   0.82238   0.27563
  23   30737.6    325.3   0.139893212   1.49831  -0.57061   0.61627  -0.89047
  24   31076.8    321.8   0.057122286   0.60512   0.16218   0.20815  -0.73178
  25   31300.4    319.5   0.038493530   0.40487   0.15343  -0.01602  -0.61731
  26   31698.6    315.5   0.013403556   0.13921  -0.22912   0.19958  -0.21652
  27   32049.0    312.0   0.039792009   0.40875   0.28048  -0.23067   0.52619
  28   32438.4    308.3   0.013899038   0.14106   0.33072  -0.06188   0.16689
  29   32836.1    304.5   0.021078986   0.21134  -0.00444   0.38522   0.25085
  30   32987.6    303.1   0.036738295   0.36664   0.03188   0.02600   0.60411
  31   33319.6    300.1   0.001753333   0.01732   0.02036   0.10915   0.07067
  32   33528.9    298.2   0.195829124   1.92279   0.60044  -0.88743   0.88018
  33   33554.5    298.0   0.451543843   4.43022  -0.64697   1.80274  -0.87280
  34   33740.7    296.4   0.000871838   0.00851   0.06044   0.01688  -0.06759
  35   33805.4    295.8   0.002548883   0.02482  -0.04332   0.01126   0.15106
  36   33935.4    294.7   0.086632846   0.84044  -0.46390   0.66523   0.42743
  37   33979.3    294.3   0.082189699   0.79630   0.15260  -0.09053   0.87454
  38   34338.5    291.2   0.232147584   2.22566   0.00476  -0.91240   1.18032
  39   34566.1    289.3   0.034288032   0.32656  -0.03005  -0.36250   0.44074
  40   34905.5    286.5   0.498205327   4.69884   0.73217  -1.98781  -0.45975
  41   35055.1    285.3   0.182351223   1.71251  -1.18509   0.16296   0.53058
  42   35405.9    282.4   0.303967997   2.82636  -0.59995   1.05864  -1.16004
  43   35590.8    281.0   0.025136089   0.23251   0.27301  -0.32274   0.23197
  44   35616.6    280.8   0.036301458   0.33554   0.39414  -0.42395  -0.02150
  45   35910.8    278.5   0.053244631   0.48812  -0.11654  -0.17289   0.66682
  46   36078.4    277.2   0.136324315   1.24395  -0.42754  -0.48409   0.90929
  47   36347.3    275.1   0.131769224   1.19349  -0.63248   0.47036  -0.75645
  48   36394.7    274.8   0.128949410   1.16642  -0.02104  -1.07715  -0.07569
  49   36559.4    273.5   0.268978034   2.42211  -0.28172   1.20223  -0.94730
  50   36841.3    271.4   0.111161007   0.99333   0.35749   0.68454   0.63003
  51   36932.8    270.8   0.001021943   0.00911  -0.06285   0.07182  -0.00079
  52   37288.3    268.2   0.072551189   0.64054   0.54067  -0.57263  -0.14253
  53   37391.6    267.4   0.009359350   0.08240   0.07680  -0.20565  -0.18497
  54   38027.0    263.0   0.000254830   0.00221  -0.00485   0.01254   0.04501
  55   38101.3    262.5   0.038364319   0.33148  -0.21967  -0.27826  -0.45365
  56   38419.1    260.3   0.003187634   0.02731  -0.09722  -0.13001  -0.03100
  57   38708.4    258.3   0.022884197   0.19463   0.16191   0.20526   0.35536
  58   38861.9    257.3   0.013264355   0.11237  -0.00825   0.03336   0.33344
  59   39041.9    256.1   0.010112650   0.08527  -0.09354   0.16195  -0.22427
  60   39261.2    254.7   0.030770627   0.25802  -0.45281   0.21674   0.07748
  61   39436.2    253.6   0.054026815   0.45101  -0.41174   0.35768  -0.39185
  62   39690.6    251.9   0.003818301   0.03167  -0.12293   0.03224   0.12458
  63   39986.1    250.1   0.256578526   2.11245   0.30134   0.28960   1.39204
  64   40039.5    249.8   0.022455806   0.18464  -0.05462   0.02234  -0.42562
  65   40143.5    249.1   0.027607295   0.22640  -0.12387   0.11326   0.44523
  66   40276.1    248.3   0.000357824   0.00292  -0.01070  -0.00363   0.05289

FINAL SINGLE POINT ENERGY     -4847.089200066475

DIPOLE MOMENT
-------------
                                X             Y             Z
Electronic contribution:    -12.20836       3.73844      19.60476
Nuclear contribution   :     10.96408      -0.27599     -19.21218
                        -----------------------------------------
Total Dipole Moment    :     -1.24428       3.46245       0.39258
                        -----------------------------------------
Magnitude (a.u.)       :      3.70013
Magnitude (Debye)      :      9.40498

Rotational constants in cm-1:     0.001015     0.000256     0.000212
Rotational constants in MHz :    30.440344     7.678851     6.360422

                             ****ORCA TERMINATED NORMALLY****
TOTAL RUN TIME: 0 days 0 hours 9 minutes 53 seconds 806 msec
