                         Program Version 4.2.0 -  RELEASE  -
|  1> # ORCA input file
|  2> # SCF done       -184.091865647806          0.000530371872
|  3> ! CAM-B3LYP def2-SVP def2/J RIJCOSX Grid4 TightSCF
|  4> %maxcore 5000
|  5> %tddft
|  6>     Mode sTDDFT
|  7>     Ethresh 5.0
|  8>     maxcore 5000
|  9> end
| 10>
| 11> %pal
| 12>   nprocs 6
| 13>   end
| 14> * xyz 0 1
| 15>    C       -4.23208        -6.06973        -2.66987
| 16>    C       -4.42407        -6.84610        -1.55449
| 17>    C       -4.06235        -8.20681        -1.46888
| 18>    N       -3.79131        -9.31457        -1.33509
| 19>    C       -5.02607        -6.42808        -0.34916
| 20>    N       -5.52125        -6.17549         0.65664
| 21>    C       -3.67929        -6.54107        -3.93645
| 22>    C       -3.71468        -5.47703        -4.87063
| 23>    C       -3.27480        -5.60780        -6.16478
| 24>    C       -2.77341        -6.85270        -6.55947
| 25>    C       -2.73829        -7.91023        -5.62003
| 26>    C       -3.18368        -7.77622        -4.31042
| 27>    S       -2.08191        -9.36098        -6.31570
| 28>    C       -1.86866        -8.53882        -7.83840
| 29>    C       -2.26623        -7.24428        -7.82858
| 30>   Br       -1.14137        -9.46651        -9.29718
| 31>    C       -4.28346        -4.28136        -4.22149
| 32>    O       -4.45857        -3.19608        -4.74497
| 33>    C       -4.57248        -4.66930        -2.83615
| 34>    C       -5.03722        -3.84798        -1.83954
| 35>    C       -5.44059        -2.50673        -1.86868
| 36>    S       -5.55023        -1.50721        -3.29312
| 37>    C       -6.22825        -0.24246        -2.37144
| 38>    C       -6.38910        -0.52355        -1.04132
| 39>    C       -6.91744         0.47711        -0.06718
| 40>    C       -5.93046        -1.82709        -0.72875
| 41>    C       -5.89207        -2.39777         0.58901
| 42>    C       -6.79911        -2.18890         1.57034
| 43>    C       -6.65983        -2.75696         2.86516
| 44>    C       -7.61267        -2.65262         3.82440
| 45>    C       -7.45829        -3.18922         5.12643
| 46>    O       -8.49614        -3.11941         6.00586
| 47>    C       -6.39102        -3.80074         5.76252
| 48>    C       -4.99935        -4.22857         5.60721
| 49>    O       -4.24316        -4.15123         4.67187
| 50>    N       -4.68238        -4.77157         6.84915
| 51>    C       -5.70644        -4.73290         7.79731
| 52>    O       -5.61196        -5.13577         8.92974
| 53>    C       -6.81233        -4.10443         7.07844
| 54>    C       -8.12649        -3.67339         7.19695
| 55>    C       -9.00436        -3.74966         8.29488
| 56>    C      -10.30230        -3.31635         8.26398
| 57>    C      -11.23662        -3.35578         9.31055
| 58>    C      -11.06668        -3.77448        10.61331
| 59>    C      -12.08303        -3.77717        11.60351
| 60>    C      -11.68023        -4.21336        12.83049
| 61>    C      -10.31837        -4.57884        12.88019
| 62>    S       -9.57441        -4.35831        11.31486
| 63>    C       -9.56773        -5.04176        13.94600
| 64>    C       -9.96790        -5.27419        15.28067
| 65>    C       -8.95672        -5.71041        16.08369
| 66>    C       -7.71060        -5.84329        15.42237
| 67>    S       -7.87059        -5.40638        13.73851
| 68>    C       -6.51213        -6.23642        15.97216
| 69>    C       -5.33077        -6.32553        15.22729
| 70>    O       -5.32983        -6.05450        13.91144
| 71>    C       -4.06597        -6.20914        13.43410
| 72>    C       -3.22727        -6.58475        14.45511
| 73>    C       -4.01864        -6.66904        15.62895
| 74>    C       -3.63340        -7.01055        16.96318
| 75>    O       -4.35464        -7.07142        17.93816
| 76>    C       -2.11933        -7.32262        17.12708
| 77>    F       -1.34915        -6.27728        16.77017
| 78>    F       -1.80247        -7.62888        18.38299
| 79>    F       -1.73085        -8.35734        16.35859
| 80>    C       -3.84647        -5.97030        12.03261
| 81>    C       -2.66244        -6.06492        11.43229
| 82>    H       -3.31795        -4.77710        -6.85158
| 83>    H       -3.13374        -8.61316        -3.63449
| 84>    H       -2.20555        -6.59129        -8.67999
| 85>    H       -5.12464        -4.30171        -0.86134
| 86>    H       -6.47548         0.68504        -2.85264
| 87>    H       -6.76752         1.48321        -0.45200
| 88>    H       -6.41257         0.38254         0.89174
| 89>    H       -7.98653         0.33529         0.08973
| 90>    H       -5.06821        -3.06434         0.81009
| 91>    H       -7.69069        -1.60966         1.37875
| 92>    H       -5.74555        -3.29192         3.08329
| 93>    H       -8.54981        -2.15034         3.62618
| 94>    H       -3.77301        -5.16276         7.04847
| 95>    H       -8.56946        -4.19898         9.17270
| 96>    H      -10.65776        -2.90305         7.32882
| 97>    H      -12.23244        -3.00245         9.07308
| 98>    H      -13.08358        -3.45382        11.37543
| 99>    H      -12.32008        -4.27736        13.69212
|100>    H      -10.97841        -5.11248        15.61088
|101>    H       -9.05922        -5.93913        17.12942
|102>    H       -6.45204        -6.48293        17.02038
|103>    H       -2.17830        -6.77759        14.37221
|104>    H       -4.72922        -5.70091        11.46868
|105>    H       -1.76562        -6.33164        11.96449
|106>    H       -2.56536        -5.87571        10.37874
|107> *
|108>
|109>                          ****END OF INPUT****

CARTESIAN COORDINATES (ANGSTROEM)
---------------------------------
  C     -4.232080   -6.069730   -2.669870
  C     -4.424070   -6.846100   -1.554490
  C     -4.062350   -8.206810   -1.468880
  N     -3.791310   -9.314570   -1.335090
  C     -5.026070   -6.428080   -0.349160
  N     -5.521250   -6.175490    0.656640
  C     -3.679290   -6.541070   -3.936450
  C     -3.714680   -5.477030   -4.870630
  C     -3.274800   -5.607800   -6.164780
  C     -2.773410   -6.852700   -6.559470
  C     -2.738290   -7.910230   -5.620030
  C     -3.183680   -7.776220   -4.310420
  S     -2.081910   -9.360980   -6.315700
  C     -1.868660   -8.538820   -7.838400
  C     -2.266230   -7.244280   -7.828580
  Br    -1.141370   -9.466510   -9.297180
  C     -4.283460   -4.281360   -4.221490
  O     -4.458570   -3.196080   -4.744970
  C     -4.572480   -4.669300   -2.836150
  C     -5.037220   -3.847980   -1.839540
  C     -5.440590   -2.506730   -1.868680
  S     -5.550230   -1.507210   -3.293120
  C     -6.228250   -0.242460   -2.371440
  C     -6.389100   -0.523550   -1.041320
  C     -6.917440    0.477110   -0.067180
  C     -5.930460   -1.827090   -0.728750
  C     -5.892070   -2.397770    0.589010
  C     -6.799110   -2.188900    1.570340
  C     -6.659830   -2.756960    2.865160
  C     -7.612670   -2.652620    3.824400
  C     -7.458290   -3.189220    5.126430
  O     -8.496140   -3.119410    6.005860
  C     -6.391020   -3.800740    5.762520
  C     -4.999350   -4.228570    5.607210
  O     -4.243160   -4.151230    4.671870
  N     -4.682380   -4.771570    6.849150
  C     -5.706440   -4.732900    7.797310
  O     -5.611960   -5.135770    8.929740
  C     -6.812330   -4.104430    7.078440
  C     -8.126490   -3.673390    7.196950
  C     -9.004360   -3.749660    8.294880
  C    -10.302300   -3.316350    8.263980
  C    -11.236620   -3.355780    9.310550
  C    -11.066680   -3.774480   10.613310
  C    -12.083030   -3.777170   11.603510
  C    -11.680230   -4.213360   12.830490
  C    -10.318370   -4.578840   12.880190
  S     -9.574410   -4.358310   11.314860
  C     -9.567730   -5.041760   13.946000
  C     -9.967900   -5.274190   15.280670
  C     -8.956720   -5.710410   16.083690
  C     -7.710600   -5.843290   15.422370
  S     -7.870590   -5.406380   13.738510
  C     -6.512130   -6.236420   15.972160
  C     -5.330770   -6.325530   15.227290
  O     -5.329830   -6.054500   13.911440
  C     -4.065970   -6.209140   13.434100
  C     -3.227270   -6.584750   14.455110
  C     -4.018640   -6.669040   15.628950
  C     -3.633400   -7.010550   16.963180
  O     -4.354640   -7.071420   17.938160
  C     -2.119330   -7.322620   17.127080
  F     -1.349150   -6.277280   16.770170
  F     -1.802470   -7.628880   18.382990
  F     -1.730850   -8.357340   16.358590
  C     -3.846470   -5.970300   12.032610
  C     -2.662440   -6.064920   11.432290
  H     -3.317950   -4.777100   -6.851580
  H     -3.133740   -8.613160   -3.634490
  H     -2.205550   -6.591290   -8.679990
  H     -5.124640   -4.301710   -0.861340
  H     -6.475480    0.685040   -2.852640
  H     -6.767520    1.483210   -0.452000
  H     -6.412570    0.382540    0.891740
  H     -7.986530    0.335290    0.089730
  H     -5.068210   -3.064340    0.810090
  H     -7.690690   -1.609660    1.378750
  H     -5.745550   -3.291920    3.083290
  H     -8.549810   -2.150340    3.626180
  H     -3.773010   -5.162760    7.048470
  H     -8.569460   -4.198980    9.172700
  H    -10.657760   -2.903050    7.328820
  H    -12.232440   -3.002450    9.073080
  H    -13.083580   -3.453820   11.375430
  H    -12.320080   -4.277360   13.692120
  H    -10.978410   -5.112480   15.610880
  H     -9.059220   -5.939130   17.129420
  H     -6.452040   -6.482930   17.020380
  H     -2.178300   -6.777590   14.372210
  H     -4.729220   -5.700910   11.468680
  H     -1.765620   -6.331640   11.964490
  H     -2.565360   -5.875710   10.378740

 Total Charge           Charge          ....    0
 Multiplicity           Mult            ....    1
 Number of Electrons    NEL             ....  520
 Basis Dimension        Dim             .... 1097

ORBITAL ENERGIES
----------------

  NO   OCC          E(Eh)            E(eV)
   0   2.0000    -482.884294    -13139.9497
   1   2.0000     -88.973813     -2421.1005
   2   2.0000     -88.960612     -2420.7413
   3   2.0000     -88.954637     -2420.5787
   4   2.0000     -88.949224     -2420.4314
   5   2.0000     -62.562004     -1702.3987
   6   2.0000     -56.395954     -1534.6119
   7   2.0000     -56.393240     -1534.5381
   8   2.0000     -56.393207     -1534.5372
   9   2.0000     -24.795841      -674.7291
  10   2.0000     -24.795535      -674.7208
  11   2.0000     -24.791465      -674.6101
  12   2.0000     -19.303756      -525.2819
  13   2.0000     -19.300170      -525.1843
  14   2.0000     -19.219423      -522.9871
  15   2.0000     -19.217000      -522.9211
  16   2.0000     -19.207148      -522.6531
  17   2.0000     -19.206574      -522.6375
  18   2.0000     -14.449053      -393.1787
  19   2.0000     -14.414493      -392.2383
  20   2.0000     -14.410867      -392.1396
  21   2.0000     -10.505222      -285.8616
  22   2.0000     -10.394864      -282.8586
  23   2.0000     -10.394274      -282.8426
  24   2.0000     -10.373215      -282.2695
  25   2.0000     -10.365753      -282.0665
  26   2.0000     -10.357311      -281.8368
  27   2.0000     -10.356122      -281.8044
  28   2.0000     -10.354002      -281.7467
  29   2.0000     -10.348742      -281.6036
  30   2.0000     -10.338657      -281.3292
  31   2.0000     -10.337565      -281.2994
  32   2.0000     -10.332569      -281.1635
  33   2.0000     -10.323352      -280.9127
  34   2.0000     -10.318835      -280.7898
  35   2.0000     -10.318354      -280.7767
  36   2.0000     -10.317879      -280.7638
  37   2.0000     -10.317476      -280.7528
  38   2.0000     -10.315940      -280.7110
  39   2.0000     -10.315769      -280.7063
  40   2.0000     -10.314378      -280.6685
  41   2.0000     -10.310245      -280.5560
  42   2.0000     -10.305507      -280.4271
  43   2.0000     -10.305378      -280.4236
  44   2.0000     -10.303145      -280.3628
  45   2.0000     -10.299078      -280.2522
  46   2.0000     -10.299069      -280.2519
  47   2.0000     -10.298227      -280.2290
  48   2.0000     -10.295637      -280.1585
  49   2.0000     -10.295184      -280.1462
  50   2.0000     -10.294557      -280.1291
  51   2.0000     -10.293006      -280.0869
  52   2.0000     -10.292206      -280.0652
  53   2.0000     -10.291922      -280.0574
  54   2.0000     -10.289751      -279.9984
  55   2.0000     -10.289082      -279.9802
  56   2.0000     -10.287359      -279.9333
  57   2.0000     -10.287277      -279.9310
  58   2.0000     -10.287100      -279.9262
  59   2.0000     -10.286297      -279.9044
  60   2.0000     -10.284875      -279.8657
  61   2.0000     -10.284683      -279.8604
  62   2.0000     -10.284424      -279.8534
  63   2.0000     -10.284284      -279.8496
  64   2.0000     -10.282682      -279.8060
  65   2.0000     -10.282616      -279.8042
  66   2.0000     -10.282279      -279.7950
  67   2.0000     -10.277760      -279.6721
  68   2.0000     -10.273897      -279.5670
  69   2.0000     -10.273801      -279.5643
  70   2.0000     -10.264935      -279.3231
  71   2.0000      -8.791431      -239.2270
  72   2.0000      -8.069787      -219.5901
  73   2.0000      -8.054711      -219.1798
  74   2.0000      -8.050419      -219.0630
  75   2.0000      -8.045214      -218.9214
  76   2.0000      -6.627736      -180.3499
  77   2.0000      -6.613169      -179.9535
  78   2.0000      -6.612951      -179.9476
  79   2.0000      -6.039464      -164.3422
  80   2.0000      -6.035206      -164.2263
  81   2.0000      -6.031021      -164.1124
  82   2.0000      -6.023978      -163.9208
  83   2.0000      -6.020059      -163.8141
  84   2.0000      -6.019348      -163.7948
  85   2.0000      -6.017253      -163.7378
  86   2.0000      -6.015981      -163.7032
  87   2.0000      -6.015048      -163.6778
  88   2.0000      -6.011599      -163.5839
  89   2.0000      -6.010648      -163.5581
  90   2.0000      -6.006130      -163.4351
  91   2.0000      -2.743591       -74.6569
  92   2.0000      -2.739522       -74.5462
  93   2.0000      -2.739380       -74.5423
  94   2.0000      -2.727786       -74.2268
  95   2.0000      -2.727777       -74.2266
  96   2.0000      -1.383398       -37.6442
  97   2.0000      -1.286051       -34.9952
  98   2.0000      -1.285686       -34.9853
  99   2.0000      -1.220169       -33.2025
 100   2.0000      -1.218143       -33.1474
 101   2.0000      -1.149967       -31.2922
 102   2.0000      -1.133261       -30.8376
 103   2.0000      -1.132444       -30.8154
 104   2.0000      -1.129551       -30.7367
 105   2.0000      -1.036878       -28.2149
 106   2.0000      -1.020704       -27.7748
 107   2.0000      -1.011271       -27.5181
 108   2.0000      -1.003341       -27.3023
 109   2.0000      -0.994881       -27.0721
 110   2.0000      -0.991588       -26.9825
 111   2.0000      -0.986437       -26.8423
 112   2.0000      -0.981277       -26.7019
 113   2.0000      -0.940582       -25.5945
 114   2.0000      -0.932518       -25.3751
 115   2.0000      -0.921420       -25.0731
 116   2.0000      -0.916092       -24.9281
 117   2.0000      -0.914680       -24.8897
 118   2.0000      -0.910913       -24.7872
 119   2.0000      -0.906352       -24.6631
 120   2.0000      -0.902839       -24.5675
 121   2.0000      -0.894258       -24.3340
 122   2.0000      -0.883743       -24.0479
 123   2.0000      -0.878780       -23.9128
 124   2.0000      -0.872462       -23.7409
 125   2.0000      -0.864800       -23.5324
 126   2.0000      -0.855941       -23.2913
 127   2.0000      -0.843471       -22.9520
 128   2.0000      -0.832377       -22.6501
 129   2.0000      -0.828872       -22.5547
 130   2.0000      -0.827135       -22.5075
 131   2.0000      -0.818995       -22.2860
 132   2.0000      -0.817932       -22.2571
 133   2.0000      -0.800534       -21.7837
 134   2.0000      -0.783974       -21.3330
 135   2.0000      -0.775458       -21.1013
 136   2.0000      -0.761045       -20.7091
 137   2.0000      -0.760409       -20.6918
 138   2.0000      -0.759126       -20.6569
 139   2.0000      -0.749686       -20.4000
 140   2.0000      -0.746248       -20.3064
 141   2.0000      -0.742095       -20.1934
 142   2.0000      -0.718925       -19.5629
 143   2.0000      -0.709756       -19.3134
 144   2.0000      -0.707223       -19.2445
 145   2.0000      -0.697157       -18.9706
 146   2.0000      -0.695471       -18.9247
 147   2.0000      -0.688591       -18.7375
 148   2.0000      -0.685636       -18.6571
 149   2.0000      -0.676038       -18.3959
 150   2.0000      -0.671339       -18.2681
 151   2.0000      -0.666700       -18.1418
 152   2.0000      -0.665431       -18.1073
 153   2.0000      -0.659115       -17.9354
 154   2.0000      -0.651198       -17.7200
 155   2.0000      -0.644871       -17.5478
 156   2.0000      -0.641363       -17.4524
 157   2.0000      -0.638607       -17.3774
 158   2.0000      -0.631830       -17.1930
 159   2.0000      -0.627187       -17.0666
 160   2.0000      -0.620533       -16.8856
 161   2.0000      -0.616113       -16.7653
 162   2.0000      -0.612178       -16.6582
 163   2.0000      -0.600071       -16.3288
 164   2.0000      -0.599136       -16.3033
 165   2.0000      -0.595781       -16.2120
 166   2.0000      -0.592972       -16.1356
 167   2.0000      -0.589722       -16.0472
 168   2.0000      -0.583964       -15.8905
 169   2.0000      -0.577968       -15.7273
 170   2.0000      -0.577047       -15.7022
 171   2.0000      -0.567972       -15.4553
 172   2.0000      -0.567721       -15.4485
 173   2.0000      -0.562719       -15.3124
 174   2.0000      -0.559001       -15.2112
 175   2.0000      -0.554751       -15.0956
 176   2.0000      -0.548118       -14.9150
 177   2.0000      -0.546229       -14.8637
 178   2.0000      -0.542800       -14.7703
 179   2.0000      -0.542314       -14.7571
 180   2.0000      -0.539525       -14.6812
 181   2.0000      -0.538329       -14.6487
 182   2.0000      -0.537326       -14.6214
 183   2.0000      -0.534732       -14.5508
 184   2.0000      -0.530233       -14.4284
 185   2.0000      -0.527171       -14.3451
 186   2.0000      -0.524103       -14.2616
 187   2.0000      -0.519123       -14.1261
 188   2.0000      -0.517029       -14.0691
 189   2.0000      -0.515440       -14.0258
 190   2.0000      -0.514911       -14.0114
 191   2.0000      -0.514123       -13.9900
 192   2.0000      -0.509695       -13.8695
 193   2.0000      -0.509639       -13.8680
 194   2.0000      -0.506837       -13.7917
 195   2.0000      -0.503959       -13.7134
 196   2.0000      -0.503367       -13.6973
 197   2.0000      -0.502100       -13.6628
 198   2.0000      -0.499684       -13.5971
 199   2.0000      -0.497331       -13.5331
 200   2.0000      -0.494484       -13.4556
 201   2.0000      -0.494420       -13.4538
 202   2.0000      -0.493504       -13.4289
 203   2.0000      -0.491237       -13.3672
 204   2.0000      -0.490953       -13.3595
 205   2.0000      -0.487155       -13.2561
 206   2.0000      -0.486626       -13.2418
 207   2.0000      -0.480109       -13.0644
 208   2.0000      -0.477660       -12.9978
 209   2.0000      -0.475871       -12.9491
 210   2.0000      -0.472308       -12.8522
 211   2.0000      -0.471916       -12.8415
 212   2.0000      -0.469477       -12.7751
 213   2.0000      -0.465557       -12.6685
 214   2.0000      -0.463783       -12.6202
 215   2.0000      -0.460345       -12.5266
 216   2.0000      -0.457729       -12.4554
 217   2.0000      -0.456280       -12.4160
 218   2.0000      -0.454216       -12.3598
 219   2.0000      -0.448255       -12.1976
 220   2.0000      -0.447236       -12.1699
 221   2.0000      -0.445476       -12.1220
 222   2.0000      -0.441015       -12.0006
 223   2.0000      -0.437249       -11.8981
 224   2.0000      -0.434958       -11.8358
 225   2.0000      -0.432247       -11.7620
 226   2.0000      -0.431922       -11.7532
 227   2.0000      -0.431294       -11.7361
 228   2.0000      -0.425816       -11.5870
 229   2.0000      -0.424367       -11.5476
 230   2.0000      -0.423503       -11.5241
 231   2.0000      -0.419164       -11.4060
 232   2.0000      -0.415011       -11.2930
 233   2.0000      -0.408349       -11.1118
 234   2.0000      -0.401789       -10.9332
 235   2.0000      -0.399356       -10.8670
 236   2.0000      -0.395063       -10.7502
 237   2.0000      -0.387609       -10.5474
 238   2.0000      -0.381743       -10.3878
 239   2.0000      -0.379942       -10.3387
 240   2.0000      -0.373697       -10.1688
 241   2.0000      -0.373498       -10.1634
 242   2.0000      -0.367613       -10.0032
 243   2.0000      -0.364616        -9.9217
 244   2.0000      -0.358440        -9.7536
 245   2.0000      -0.353001        -9.6056
 246   2.0000      -0.347389        -9.4529
 247   2.0000      -0.344491        -9.3741
 248   2.0000      -0.343564        -9.3489
 249   2.0000      -0.341385        -9.2896
 250   2.0000      -0.334206        -9.0942
 251   2.0000      -0.331811        -9.0290
 252   2.0000      -0.325430        -8.8554
 253   2.0000      -0.314514        -8.5584
 254   2.0000      -0.307632        -8.3711
 255   2.0000      -0.293844        -7.9959
 256   2.0000      -0.287603        -7.8261
 257   2.0000      -0.275502        -7.4968
 258   2.0000      -0.252993        -6.8843
 259   2.0000      -0.214571        -5.8388
 260   0.0000      -0.101002        -2.7484
 261   0.0000      -0.090729        -2.4689
 262   0.0000      -0.061788        -1.6813
 263   0.0000      -0.045409        -1.2356
 264   0.0000      -0.041351        -1.1252

MULLIKEN ATOMIC CHARGES
-----------------------
   0 C :    0.322131
   1 C :   -0.361321
   2 C :   -0.185444
   3 N :    0.146660
   4 C :   -0.188606
   5 N :    0.149978
   6 C :    0.013095
   7 C :   -0.008529
   8 C :   -0.077541
   9 C :    0.119978
  10 C :   -0.090888
  11 C :   -0.024422
  12 S :    0.185722
  13 C :   -0.123436
  14 C :    0.038089
  15 Br:    0.021966
  16 C :    0.150740
  17 O :   -0.174096
  18 C :   -0.090959
  19 C :   -0.026774
  20 C :   -0.110740
  21 S :    0.203970
  22 C :   -0.089946
  23 C :   -0.089471
  24 C :    0.107321
  25 C :    0.121430
  26 C :   -0.049057
  27 C :    0.016301
  28 C :    0.018868
  29 C :   -0.008674
  30 C :    0.131643
  31 O :   -0.212870
  32 C :   -0.070302
  33 C :    0.183363
  34 O :   -0.154311
  35 N :   -0.163354
  36 C :    0.165469
  37 O :   -0.150044
  38 C :   -0.029026
  39 C :    0.083943
  40 C :   -0.042420
  41 C :    0.029254
  42 C :   -0.002822
  43 C :   -0.017109
  44 C :    0.036839
  45 C :    0.028160
  46 C :   -0.033812
  47 S :    0.072839
  48 C :   -0.041314
  49 C :    0.035078
  50 C :    0.036342
  51 C :   -0.004084
  52 S :    0.119260
  53 C :   -0.058060
  54 C :    0.120631
  55 O :   -0.210287
  56 C :    0.187609
  57 C :   -0.045662
  58 C :   -0.026435
  59 C :    0.008659
  60 O :   -0.162687
  61 C :    0.475295
  62 F :   -0.171948
  63 F :   -0.138123
  64 F :   -0.171644
  65 C :   -0.000958
  66 C :   -0.015345
  67 H :   -0.010770
  68 H :   -0.006613
  69 H :   -0.003427
  70 H :   -0.010124
  71 H :    0.019940
  72 H :    0.012577
  73 H :    0.034792
  74 H :    0.035910
  75 H :    0.032737
  76 H :   -0.010160
  77 H :    0.026318
  78 H :   -0.014944
  79 H :    0.135452
  80 H :    0.019110
  81 H :   -0.002694
  82 H :   -0.012832
  83 H :   -0.009237
  84 H :   -0.009226
  85 H :   -0.010596
  86 H :   -0.002169
  87 H :    0.015822
  88 H :   -0.001275
  89 H :    0.018907
  90 H :    0.017397
  91 H :    0.026994
Sum of atomic charges:   -0.0000000

LOEWDIN ATOMIC CHARGES
----------------------
   0 C :    0.078412
   1 C :   -0.146959
   2 C :   -0.017854
   3 N :   -0.057673
   4 C :   -0.021984
   5 N :   -0.054512
   6 C :   -0.020760
   7 C :   -0.049780
   8 C :    0.020787
   9 C :   -0.033370
  10 C :   -0.144505
  11 C :   -0.009704
  12 S :    0.432554
  13 C :   -0.272058
  14 C :   -0.070774
  15 Br:    0.135744
  16 C :    0.081437
  17 O :   -0.165076
  18 C :   -0.111752
  19 C :    0.059379
  20 C :   -0.190703
  21 S :    0.517055
  22 C :   -0.169214
  23 C :   -0.063572
  24 C :   -0.046450
  25 C :   -0.021860
  26 C :   -0.012867
  27 C :   -0.008168
  28 C :    0.018083
  29 C :   -0.045081
  30 C :    0.070149
  31 O :    0.009212
  32 C :   -0.100237
  33 C :    0.088202
  34 O :   -0.161117
  35 N :   -0.004845
  36 C :    0.089177
  37 O :   -0.170953
  38 C :   -0.100696
  39 C :    0.071354
  40 C :   -0.057223
  41 C :   -0.013670
  42 C :   -0.065039
  43 C :   -0.135830
  44 C :   -0.028165
  45 C :   -0.033520
  46 C :   -0.173769
  47 S :    0.410320
  48 C :   -0.176517
  49 C :   -0.025991
  50 C :   -0.026709
  51 C :   -0.128325
  52 S :    0.408653
  53 C :   -0.073749
  54 C :    0.072960
  55 O :    0.017867
  56 C :    0.035829
  57 C :   -0.039497
  58 C :   -0.120542
  59 C :    0.030060
  60 O :   -0.130925
  61 C :    0.144845
  62 F :   -0.065206
  63 F :   -0.038868
  64 F :   -0.064619
  65 C :   -0.032295
  66 C :   -0.026374
  67 H :    0.040584
  68 H :    0.040989
  69 H :    0.038621
  70 H :    0.047455
  71 H :    0.024427
  72 H :    0.033602
  73 H :    0.036751
  74 H :    0.035310
  75 H :    0.039188
  76 H :    0.028657
  77 H :    0.039069
  78 H :    0.035030
  79 H :    0.092680
  80 H :    0.024667
  81 H :    0.034144
  82 H :    0.035388
  83 H :    0.034630
  84 H :    0.033635
  85 H :    0.033043
  86 H :    0.037572
  87 H :    0.046769
  88 H :    0.031296
  89 H :    0.044216
  90 H :    0.022254
  91 H :    0.027302

  Mayer bond orders larger than 0.100000
B(  0-C ,  1-C ) :   1.6121 B(  0-C ,  6-C ) :   0.9979 B(  0-C , 18-C ) :   1.0866
B(  1-C ,  2-C ) :   1.1489 B(  1-C ,  4-C ) :   1.1473 B(  2-C ,  3-N ) :   2.9663
B(  4-C ,  5-N ) :   2.9687 B(  6-C ,  7-C ) :   1.2773 B(  6-C , 11-C ) :   1.4133
B(  7-C ,  8-C ) :   1.4214 B(  7-C , 16-C ) :   0.9546 B(  8-C ,  9-C ) :   1.2415
B(  8-C , 67-H ) :   1.0181 B(  9-C , 10-C ) :   1.3088 B(  9-C , 14-C ) :   1.1639
B( 10-C , 11-C ) :   1.3261 B( 10-C , 12-S ) :   1.0859 B( 11-C , 68-H ) :   0.9803
B( 12-S , 13-C ) :   1.0876 B( 13-C , 14-C ) :   1.6159 B( 13-C , 15-Br) :   1.0178
B( 14-C , 69-H ) :   1.0004 B( 16-C , 17-O ) :   2.1543 B( 16-C , 18-C ) :   0.9676
B( 18-C , 19-C ) :   1.5198 B( 19-C , 20-C ) :   1.2829 B( 19-C , 70-H ) :   0.9291
B( 20-C , 21-S ) :   1.1139 B( 20-C , 25-C ) :   1.3132 B( 21-S , 22-C ) :   1.1835
B( 22-C , 23-C ) :   1.5085 B( 22-C , 71-H ) :   0.9657 B( 23-C , 24-C ) :   1.0868
B( 23-C , 25-C ) :   1.3122 B( 24-C , 72-H ) :   0.9481 B( 24-C , 73-H ) :   0.9456
B( 24-C , 74-H ) :   0.9434 B( 25-C , 26-C ) :   1.0695 B( 26-C , 27-C ) :   1.6791
B( 26-C , 75-H ) :   0.9522 B( 27-C , 28-C ) :   1.1271 B( 27-C , 76-H ) :   0.9895
B( 28-C , 29-C ) :   1.6063 B( 28-C , 77-H ) :   0.9694 B( 29-C , 30-C ) :   1.1507
B( 29-C , 78-H ) :   0.9697 B( 30-C , 31-O ) :   1.1371 B( 30-C , 32-C ) :   1.4193
B( 31-O , 39-C ) :   1.1417 B( 32-C , 33-C ) :   0.8874 B( 32-C , 38-C ) :   1.2791
B( 33-C , 34-O ) :   2.1795 B( 33-C , 35-N ) :   1.0965 B( 35-N , 36-C ) :   1.0807
B( 35-N , 79-H ) :   0.9156 B( 36-C , 37-O ) :   2.2103 B( 36-C , 38-C ) :   0.8948
B( 38-C , 39-C ) :   1.3598 B( 39-C , 40-C ) :   1.2536 B( 40-C , 41-C ) :   1.5454
B( 40-C , 80-H ) :   0.9294 B( 41-C , 42-C ) :   1.2153 B( 41-C , 81-H ) :   0.9744
B( 42-C , 43-C ) :   1.5319 B( 42-C , 82-H ) :   0.9642 B( 43-C , 44-C ) :   1.1606
B( 43-C , 47-S ) :   1.0568 B( 44-C , 45-C ) :   1.5752 B( 44-C , 83-H ) :   0.9992
B( 45-C , 46-C ) :   1.1963 B( 45-C , 84-H ) :   0.9946 B( 46-C , 47-S ) :   1.0494
B( 46-C , 48-C ) :   1.4906 B( 48-C , 49-C ) :   1.1930 B( 48-C , 52-S ) :   1.0377
B( 49-C , 50-C ) :   1.5796 B( 49-C , 85-H ) :   0.9954 B( 50-C , 51-C ) :   1.1513
B( 50-C , 86-H ) :   1.0003 B( 51-C , 52-S ) :   1.0641 B( 51-C , 53-C ) :   1.4977
B( 53-C , 54-C ) :   1.2587 B( 53-C , 87-H ) :   0.9551 B( 54-C , 55-O ) :   1.1645
B( 54-C , 58-C ) :   1.3242 B( 55-O , 56-C ) :   1.0792 B( 56-C , 57-C ) :   1.5038
B( 56-C , 65-C ) :   1.0939 B( 57-C , 58-C ) :   1.2189 B( 57-C , 88-H ) :   0.9873
B( 58-C , 59-C ) :   0.9961 B( 59-C , 60-O ) :   2.1433 B( 59-C , 61-C ) :   0.8883
B( 61-C , 62-F ) :   1.1271 B( 61-C , 63-F ) :   1.1879 B( 61-C , 64-F ) :   1.1261
B( 65-C , 66-C ) :   1.9399 B( 65-C , 89-H ) :   0.9520 B( 66-C , 90-H ) :   0.9537
B( 66-C , 91-H ) :   0.9466

-----------------------------------------------------------------------------
         ABSORPTION SPECTRUM VIA TRANSITION ELECTRIC DIPOLE MOMENTS
-----------------------------------------------------------------------------
State   Energy  Wavelength   fosc         T2         TX        TY        TZ
        (cm-1)    (nm)                  (au**2)     (au)      (au)      (au)
-----------------------------------------------------------------------------
   0   11435.3    874.5   1.007753327  29.01225   1.40478  -1.26368   5.04400
   1   16785.3    595.8   0.331311916   6.49807   1.56388  -0.89045  -1.80539
   2   19269.3    519.0   0.287998557   4.92040  -1.49430   0.46394   1.57233
   3   22009.4    454.4   0.556191902   8.31938   1.74769  -1.74542  -1.48946
   4   22973.2    435.3   0.747623004  10.71362  -2.69675  -0.46329   1.79625
   5   23580.4    424.1   0.183719149   2.56495   1.48816   0.05485   0.58935
   6   25348.9    394.5   0.140350681   1.82277   0.22547   1.03409  -0.83821
   7   25831.3    387.1   0.224216579   2.85757  -0.76376   1.50600   0.07875
   8   26298.8    380.2   0.067297021   0.84243  -0.23334   0.82944  -0.31626
   9   27646.2    361.7   0.130873897   1.55845   0.64361  -0.94398  -0.50311
  10   28775.2    347.5   0.502876931   5.75332   0.57926  -0.29065  -2.30939
  11   29024.3    344.5   0.102068465   1.15773  -0.28112   0.12182   1.03143
  12   29336.4    340.9   0.025743899   0.28890  -0.41959   0.26144   0.21093
  13   29674.1    337.0   0.025932019   0.28770   0.21596   0.21976  -0.43905
  14   29877.4    334.7   0.021405221   0.23586  -0.05110  -0.47171   0.10361
  15   30507.8    327.8   0.069462317   0.74957   0.04276  -0.38473   0.77442
  16   30852.4    324.1   0.113248816   1.20843   0.88821  -0.15695  -0.62840
  17   31181.2    320.7   0.229876915   2.42705   0.89373  -1.26420   0.17344
  18   31817.4    314.3   0.008772460   0.09077   0.28626  -0.03365  -0.08771
  19   32287.3    309.7   0.051610351   0.52624  -0.29280  -0.08453   0.65830
  20   32562.5    307.1   0.116001915   1.17280   0.33405  -0.35721   0.96623
  21   32927.8    303.7   0.011276810   0.11275   0.20876   0.02575  -0.26173
  22   32966.2    303.3   0.189430431   1.89172   0.81083  -0.02883  -1.11061
  23   33275.6    300.5   0.386082122   3.81970   0.43624   0.27917  -1.88453
  24   33450.0    299.0   0.016102549   0.15848  -0.13980  -0.12246  -0.35205
  25   34314.6    291.4   0.136723215   1.31171   0.76575  -0.29603   0.79857
  26   34857.4    286.9   0.097040024   0.91650   0.78112  -0.46503  -0.30017
  27   35670.2    280.3   0.043900898   0.40518   0.15903  -0.60363  -0.12456
  28   35684.5    280.2   0.002721079   0.02510   0.00609   0.14863   0.05455
  29   35930.2    278.3   0.006138409   0.05624   0.05975  -0.10175   0.20572
  30   36073.9    277.2   0.006484421   0.05918   0.08935  -0.20365  -0.09860
  31   36518.3    273.8   0.017876948   0.16116   0.15203   0.21974   0.29960
  32   36898.2    271.0   0.070745022   0.63120  -0.08597  -0.14302   0.77676
  33   37177.9    269.0   0.004351989   0.03854   0.16834  -0.06127   0.08027
  34   37595.8    266.0   0.000319235   0.00280   0.04562   0.01837   0.01942
  35   37749.6    264.9   0.021629220   0.18863   0.21746  -0.26474  -0.26692
  36   38230.0    261.6   0.097199316   0.83702  -0.16448   0.84496  -0.30984
  37   39243.8    254.8   0.008926482   0.07488  -0.16091   0.19832  -0.09830
  38   39476.8    253.3   0.020658683   0.17228   0.24307  -0.02654  -0.33540
  39   39726.2    251.7   0.046900731   0.38867  -0.15303   0.55039  -0.24963

FINAL SINGLE POINT ENERGY     -6998.184709334890

DIPOLE MOMENT
-------------
                                X             Y             Z
Electronic contribution:     78.25488     -76.97715    -122.77299
Nuclear contribution   :    -80.70830      79.59618     120.68947
                        -----------------------------------------
Total Dipole Moment    :     -2.45342       2.61903      -2.08352
                        -----------------------------------------
Magnitude (a.u.)       :      4.14966
Magnitude (Debye)      :     10.54759

Rotational constants in cm-1:     0.001314     0.000200     0.000182
Rotational constants in MHz :    39.402992     6.009903     5.463611

                             ****ORCA TERMINATED NORMALLY****
TOTAL RUN TIME: 0 days 0 hours 13 minutes 5 seconds 870 msec
