                         Program Version 4.2.0 -  RELEASE  -
|  1> # ORCA input file
|  2> # SCF done       -197.873034704074          0.000437909493
|  3> ! CAM-B3LYP def2-SVP def2/J RIJCOSX Grid4 TightSCF
|  4> %maxcore 5000
|  5> %tddft
|  6>     Mode sTDDFT
|  7>     Ethresh 5.0
|  8>     maxcore 5000
|  9> end
| 10>
| 11> %pal
| 12>   nprocs 6
| 13>   end
| 14> * xyz 0 1
| 15>    C       -6.20655       -11.52397        -2.82538
| 16>    C       -6.20151       -11.07669        -1.52353
| 17>    C       -5.24595       -11.45757        -0.56703
| 18>    N       -4.48866       -11.70853         0.26155
| 19>    C       -7.14765       -10.20419        -0.95014
| 20>    N       -7.88222        -9.52172        -0.38826
| 21>    C       -5.28523       -12.51652        -3.37529
| 22>    C       -5.69223       -12.82549        -4.69555
| 23>    C       -5.03339       -13.73871        -5.48001
| 24>    C       -3.91123       -14.37583        -4.93770
| 25>    C       -3.50767       -14.05591        -3.62133
| 26>    C       -4.17908       -13.13413        -2.82573
| 27>    S       -2.09476       -14.95234        -3.15048
| 28>    C       -2.06828       -15.73532        -4.70807
| 29>    C       -3.06376       -15.34676        -5.53905
| 30>   Br       -0.72817       -16.99186        -5.09002
| 31>    C       -6.87863       -12.01259        -5.04118
| 32>    O       -7.48885       -12.04910        -6.09237
| 33>    C       -7.13660       -11.16538        -3.86058
| 34>    C       -8.06897       -10.14517        -3.81445
| 35>    C       -8.96363        -9.85702        -4.83717
| 36>    C       -9.84993        -8.79521        -4.81058
| 37>    C      -10.79631        -8.48174        -5.81008
| 38>    C      -11.54438        -7.37212        -5.53863
| 39>    C      -11.21617        -6.75463        -4.31496
| 40>    S       -9.93785        -7.63041        -3.50909
| 41>    C      -11.77721        -5.60696        -3.77004
| 42>    C      -12.82250        -4.83310        -4.31682
| 43>    C      -13.15764        -3.75512        -3.54997
| 44>    C      -12.38830        -3.63413        -2.37276
| 45>    S      -11.22466        -4.92839        -2.25615
| 46>    C      -12.49534        -2.65215        -1.40879
| 47>    C      -11.67273        -2.62884        -0.28946
| 48>    S      -11.83229        -1.36337         0.96953
| 49>    C      -10.54454        -2.13142         1.79865
| 50>    C      -10.09385        -3.26220         1.07871
| 51>    N      -10.72228        -3.51070        -0.04822
| 52>    C       -8.97000        -3.93316         1.79960
| 53>    C       -8.84063        -3.06172         3.01481
| 54>    C       -9.78587        -2.01596         2.96771
| 55>    S       -9.69357        -0.98789         4.33463
| 56>    C       -8.38012        -1.95923         4.99376
| 57>    C       -8.05585        -3.02576         4.14690
| 58>    C       -7.84116        -1.59569         6.23363
| 59>    C       -6.83260        -2.25073         6.89833
| 60>    C       -6.37390        -1.84547         8.14986
| 61>    C       -5.37986        -2.47640         8.86940
| 62>    C       -4.90679        -2.11698        10.14947
| 63>    C       -3.92184        -2.93023        10.63106
| 64>    C       -3.56383        -3.96938         9.74793
| 65>    S       -4.51679        -3.88948         8.28968
| 66>    C       -2.59238        -4.94137         9.93132
| 67>    C       -1.73641        -5.13018        11.03375
| 68>    C       -0.85797        -6.16119        10.87128
| 69>    C       -0.95157        -6.81940         9.62227
| 70>    S       -2.24520        -6.11855         8.68646
| 71>    C       -0.18206        -7.90650         9.24165
| 72>    C       -0.15007        -8.60238         8.03684
| 73>    C       -0.58578        -8.29187         6.76119
| 74>    C       -0.89538        -7.07005         6.08690
| 75>    C       -0.46841        -5.80313         6.43242
| 76>    C       -0.84274        -4.62816         5.75767
| 77>    N       -1.14684        -3.63007         5.27558
| 78>    C        0.46275        -5.55425         7.45584
| 79>    N        1.24018        -5.31050         8.26597
| 80>    C       -1.57531        -7.40765         4.83732
| 81>    C       -1.51273        -8.81095         4.65372
| 82>    C       -0.83466        -9.41414         5.82104
| 83>    O       -0.56027       -10.58150         5.99494
| 84>    C       -2.01489        -9.43209         3.53752
| 85>    C       -2.61265        -8.62923         2.55865
| 86>    C       -2.68675        -7.23253         2.76115
| 87>    C       -2.17524        -6.60261         3.89048
| 88>    S       -3.45888        -6.43514         1.42323
| 89>    C       -3.64895        -7.97127         0.61543
| 90>    C       -3.17380        -9.02691         1.31317
| 91>   Br       -4.42947        -8.01649        -1.09002
| 92>    H       -5.37013       -13.95504        -6.48175
| 93>    H       -3.82917       -12.92495        -1.82901
| 94>    H       -3.19675       -15.72725        -6.53534
| 95>    H       -8.09834        -9.51215        -2.93564
| 96>    H       -8.97431       -10.49261        -5.71125
| 97>    H      -10.89579        -9.08430        -6.69520
| 98>    H      -12.31085        -6.98769        -6.18687
| 99>    H      -13.30099        -5.08353        -5.24623
|100>    H      -13.92952        -3.04694        -3.79439
|101>    H      -13.23844        -1.87776        -1.52266
|102>    H       -8.05898        -3.94792         1.19839
|103>    H       -9.21229        -4.96768         2.04953
|104>    H       -7.27687        -3.72937         4.37569
|105>    H       -8.27587        -0.72301         6.70466
|106>    H       -6.37156        -3.12107         6.45246
|107>    H       -6.83065        -0.97691         8.60722
|108>    H       -5.30694        -1.26986        10.67820
|109>    H       -3.44541        -2.80538        11.58634
|110>    H       -1.78172        -4.50539        11.90711
|111>    H       -0.12071        -6.45094        11.59818
|112>    H        0.43316        -8.31375        10.03504
|113>    H        0.24387        -9.61365         8.10364
|114>    H       -1.94598       -10.50116         3.41282
|115>    H       -2.25289        -5.53382         4.00148
|116>    H       -3.22822       -10.04759         0.97663
|117> *
|118>
|119>                          ****END OF INPUT****

CARTESIAN COORDINATES (ANGSTROEM)
---------------------------------
  C     -6.206550  -11.523970   -2.825380
  C     -6.201510  -11.076690   -1.523530
  C     -5.245950  -11.457570   -0.567030
  N     -4.488660  -11.708530    0.261550
  C     -7.147650  -10.204190   -0.950140
  N     -7.882220   -9.521720   -0.388260
  C     -5.285230  -12.516520   -3.375290
  C     -5.692230  -12.825490   -4.695550
  C     -5.033390  -13.738710   -5.480010
  C     -3.911230  -14.375830   -4.937700
  C     -3.507670  -14.055910   -3.621330
  C     -4.179080  -13.134130   -2.825730
  S     -2.094760  -14.952340   -3.150480
  C     -2.068280  -15.735320   -4.708070
  C     -3.063760  -15.346760   -5.539050
  Br    -0.728170  -16.991860   -5.090020
  C     -6.878630  -12.012590   -5.041180
  O     -7.488850  -12.049100   -6.092370
  C     -7.136600  -11.165380   -3.860580
  C     -8.068970  -10.145170   -3.814450
  C     -8.963630   -9.857020   -4.837170
  C     -9.849930   -8.795210   -4.810580
  C    -10.796310   -8.481740   -5.810080
  C    -11.544380   -7.372120   -5.538630
  C    -11.216170   -6.754630   -4.314960
  S     -9.937850   -7.630410   -3.509090
  C    -11.777210   -5.606960   -3.770040
  C    -12.822500   -4.833100   -4.316820
  C    -13.157640   -3.755120   -3.549970
  C    -12.388300   -3.634130   -2.372760
  S    -11.224660   -4.928390   -2.256150
  C    -12.495340   -2.652150   -1.408790
  C    -11.672730   -2.628840   -0.289460
  S    -11.832290   -1.363370    0.969530
  C    -10.544540   -2.131420    1.798650
  C    -10.093850   -3.262200    1.078710
  N    -10.722280   -3.510700   -0.048220
  C     -8.970000   -3.933160    1.799600
  C     -8.840630   -3.061720    3.014810
  C     -9.785870   -2.015960    2.967710
  S     -9.693570   -0.987890    4.334630
  C     -8.380120   -1.959230    4.993760
  C     -8.055850   -3.025760    4.146900
  C     -7.841160   -1.595690    6.233630
  C     -6.832600   -2.250730    6.898330
  C     -6.373900   -1.845470    8.149860
  C     -5.379860   -2.476400    8.869400
  C     -4.906790   -2.116980   10.149470
  C     -3.921840   -2.930230   10.631060
  C     -3.563830   -3.969380    9.747930
  S     -4.516790   -3.889480    8.289680
  C     -2.592380   -4.941370    9.931320
  C     -1.736410   -5.130180   11.033750
  C     -0.857970   -6.161190   10.871280
  C     -0.951570   -6.819400    9.622270
  S     -2.245200   -6.118550    8.686460
  C     -0.182060   -7.906500    9.241650
  C     -0.150070   -8.602380    8.036840
  C     -0.585780   -8.291870    6.761190
  C     -0.895380   -7.070050    6.086900
  C     -0.468410   -5.803130    6.432420
  C     -0.842740   -4.628160    5.757670
  N     -1.146840   -3.630070    5.275580
  C      0.462750   -5.554250    7.455840
  N      1.240180   -5.310500    8.265970
  C     -1.575310   -7.407650    4.837320
  C     -1.512730   -8.810950    4.653720
  C     -0.834660   -9.414140    5.821040
  O     -0.560270  -10.581500    5.994940
  C     -2.014890   -9.432090    3.537520
  C     -2.612650   -8.629230    2.558650
  C     -2.686750   -7.232530    2.761150
  C     -2.175240   -6.602610    3.890480
  S     -3.458880   -6.435140    1.423230
  C     -3.648950   -7.971270    0.615430
  C     -3.173800   -9.026910    1.313170
  Br    -4.429470   -8.016490   -1.090020
  H     -5.370130  -13.955040   -6.481750
  H     -3.829170  -12.924950   -1.829010
  H     -3.196750  -15.727250   -6.535340
  H     -8.098340   -9.512150   -2.935640
  H     -8.974310  -10.492610   -5.711250
  H    -10.895790   -9.084300   -6.695200
  H    -12.310850   -6.987690   -6.186870
  H    -13.300990   -5.083530   -5.246230
  H    -13.929520   -3.046940   -3.794390
  H    -13.238440   -1.877760   -1.522660
  H     -8.058980   -3.947920    1.198390
  H     -9.212290   -4.967680    2.049530
  H     -7.276870   -3.729370    4.375690
  H     -8.275870   -0.723010    6.704660
  H     -6.371560   -3.121070    6.452460
  H     -6.830650   -0.976910    8.607220
  H     -5.306940   -1.269860   10.678200
  H     -3.445410   -2.805380   11.586340
  H     -1.781720   -4.505390   11.907110
  H     -0.120710   -6.450940   11.598180
  H      0.433160   -8.313750   10.035040
  H      0.243870   -9.613650    8.103640
  H     -1.945980  -10.501160    3.412820
  H     -2.252890   -5.533820    4.001480
  H     -3.228220  -10.047590    0.976630

 Total Charge           Charge          ....    0
 Multiplicity           Mult            ....    1
 Number of Electrons    NEL             ....  634
 Basis Dimension        Dim             .... 1271

ORBITAL ENERGIES
----------------

  NO   OCC          E(Eh)            E(eV)
   0   2.0000    -482.877781    -13139.7724
   1   2.0000    -482.866524    -13139.4661
   2   2.0000     -88.982603     -2421.3397
   3   2.0000     -88.976904     -2421.1846
   4   2.0000     -88.965933     -2420.8861
   5   2.0000     -88.961148     -2420.7559
   6   2.0000     -88.960361     -2420.7345
   7   2.0000     -88.958113     -2420.6733
   8   2.0000     -88.956000     -2420.6158
   9   2.0000     -88.951938     -2420.5053
  10   2.0000     -62.555481     -1702.2212
  11   2.0000     -62.543816     -1701.9038
  12   2.0000     -56.389425     -1534.4343
  13   2.0000     -56.386724     -1534.3608
  14   2.0000     -56.386686     -1534.3597
  15   2.0000     -56.377747     -1534.1165
  16   2.0000     -56.375106     -1534.0446
  17   2.0000     -56.375054     -1534.0432
  18   2.0000     -19.202789      -522.5345
  19   2.0000     -19.188472      -522.1449
  20   2.0000     -14.428917      -392.6308
  21   2.0000     -14.406477      -392.0202
  22   2.0000     -14.401335      -391.8803
  23   2.0000     -14.391602      -391.6154
  24   2.0000     -14.388200      -391.5228
  25   2.0000     -10.353172      -281.7241
  26   2.0000     -10.349769      -281.6315
  27   2.0000     -10.349554      -281.6257
  28   2.0000     -10.337890      -281.3083
  29   2.0000     -10.332440      -281.1600
  30   2.0000     -10.329718      -281.0859
  31   2.0000     -10.328207      -281.0448
  32   2.0000     -10.327848      -281.0350
  33   2.0000     -10.326722      -281.0044
  34   2.0000     -10.325714      -280.9770
  35   2.0000     -10.325393      -280.9682
  36   2.0000     -10.324901      -280.9549
  37   2.0000     -10.324380      -280.9407
  38   2.0000     -10.322616      -280.8927
  39   2.0000     -10.322320      -280.8846
  40   2.0000     -10.318400      -280.7779
  41   2.0000     -10.316630      -280.7298
  42   2.0000     -10.316086      -280.7150
  43   2.0000     -10.314819      -280.6805
  44   2.0000     -10.313419      -280.6424
  45   2.0000     -10.312533      -280.6183
  46   2.0000     -10.310934      -280.5748
  47   2.0000     -10.308504      -280.5086
  48   2.0000     -10.306223      -280.4466
  49   2.0000     -10.306195      -280.4458
  50   2.0000     -10.305383      -280.4237
  51   2.0000     -10.304698      -280.4051
  52   2.0000     -10.303739      -280.3790
  53   2.0000     -10.302276      -280.3392
  54   2.0000     -10.300978      -280.3039
  55   2.0000     -10.300836      -280.3000
  56   2.0000     -10.300801      -280.2990
  57   2.0000     -10.300497      -280.2908
  58   2.0000     -10.298875      -280.2466
  59   2.0000     -10.297428      -280.2073
  60   2.0000     -10.296740      -280.1885
  61   2.0000     -10.296305      -280.1767
  62   2.0000     -10.296014      -280.1688
  63   2.0000     -10.295866      -280.1648
  64   2.0000     -10.294881      -280.1380
  65   2.0000     -10.294221      -280.1200
  66   2.0000     -10.293924      -280.1119
  67   2.0000     -10.291170      -280.0370
  68   2.0000     -10.291101      -280.0351
  69   2.0000     -10.289752      -279.9984
  70   2.0000     -10.289296      -279.9860
  71   2.0000     -10.287813      -279.9456
  72   2.0000     -10.283834      -279.8373
  73   2.0000     -10.282023      -279.7881
  74   2.0000     -10.280239      -279.7395
  75   2.0000     -10.279788      -279.7272
  76   2.0000     -10.279710      -279.7251
  77   2.0000     -10.279345      -279.7152
  78   2.0000     -10.279074      -279.7078
  79   2.0000     -10.276528      -279.6386
  80   2.0000     -10.275088      -279.5993
  81   2.0000     -10.273372      -279.5527
  82   2.0000     -10.266980      -279.3787
  83   2.0000     -10.266284      -279.3598
  84   2.0000     -10.264910      -279.3224
  85   2.0000      -8.784891      -239.0490
  86   2.0000      -8.773095      -238.7281
  87   2.0000      -8.077659      -219.8043
  88   2.0000      -8.072039      -219.6513
  89   2.0000      -8.061996      -219.3781
  90   2.0000      -8.057236      -219.2485
  91   2.0000      -8.055223      -219.1938
  92   2.0000      -8.054433      -219.1723
  93   2.0000      -8.050999      -219.0788
  94   2.0000      -8.048012      -218.9975
  95   2.0000      -6.621161      -180.1710
  96   2.0000      -6.609202      -179.8455
  97   2.0000      -6.606638      -179.7758
  98   2.0000      -6.606453      -179.7707
  99   2.0000      -6.594905      -179.4565
 100   2.0000      -6.594785      -179.4532
 101   2.0000      -6.046867      -164.5436
 102   2.0000      -6.043059      -164.4400
 103   2.0000      -6.041349      -164.3935
 104   2.0000      -6.039660      -164.3475
 105   2.0000      -6.037347      -164.2846
 106   2.0000      -6.034071      -164.1954
 107   2.0000      -6.031680      -164.1304
 108   2.0000      -6.027428      -164.0147
 109   2.0000      -6.026781      -163.9971
 110   2.0000      -6.025050      -163.9499
 111   2.0000      -6.024067      -163.9232
 112   2.0000      -6.023193      -163.8994
 113   2.0000      -6.022761      -163.8877
 114   2.0000      -6.020553      -163.8276
 115   2.0000      -6.020463      -163.8251
 116   2.0000      -6.020055      -163.8140
 117   2.0000      -6.018484      -163.7713
 118   2.0000      -6.017708      -163.7502
 119   2.0000      -6.016407      -163.7148
 120   2.0000      -6.016309      -163.7121
 121   2.0000      -6.015475      -163.6894
 122   2.0000      -6.013495      -163.6355
 123   2.0000      -6.012682      -163.6134
 124   2.0000      -6.009201      -163.5187
 125   2.0000      -2.737029       -74.4784
 126   2.0000      -2.732951       -74.3674
 127   2.0000      -2.732833       -74.3642
 128   2.0000      -2.725074       -74.1530
 129   2.0000      -2.721285       -74.0499
 130   2.0000      -2.721265       -74.0494
 131   2.0000      -2.721117       -74.0454
 132   2.0000      -2.721025       -74.0428
 133   2.0000      -2.709652       -73.7334
 134   2.0000      -2.709633       -73.7329
 135   2.0000      -1.116320       -30.3766
 136   2.0000      -1.102624       -30.0039
 137   2.0000      -1.084687       -29.5158
 138   2.0000      -1.013392       -27.5758
 139   2.0000      -1.011822       -27.5331
 140   2.0000      -1.009572       -27.4719
 141   2.0000      -1.005708       -27.3667
 142   2.0000      -1.002913       -27.2907
 143   2.0000      -0.996981       -27.1292
 144   2.0000      -0.989971       -26.9385
 145   2.0000      -0.988949       -26.9107
 146   2.0000      -0.983138       -26.7525
 147   2.0000      -0.980201       -26.6726
 148   2.0000      -0.977394       -26.5962
 149   2.0000      -0.968462       -26.3532
 150   2.0000      -0.962645       -26.1949
 151   2.0000      -0.947389       -25.7798
 152   2.0000      -0.932824       -25.3834
 153   2.0000      -0.921045       -25.0629
 154   2.0000      -0.917857       -24.9762
 155   2.0000      -0.914995       -24.8983
 156   2.0000      -0.909815       -24.7573
 157   2.0000      -0.897570       -24.4241
 158   2.0000      -0.896008       -24.3816
 159   2.0000      -0.892187       -24.2776
 160   2.0000      -0.884021       -24.0554
 161   2.0000      -0.875169       -23.8146
 162   2.0000      -0.873080       -23.7577
 163   2.0000      -0.870970       -23.7003
 164   2.0000      -0.862657       -23.4741
 165   2.0000      -0.859782       -23.3959
 166   2.0000      -0.857526       -23.3345
 167   2.0000      -0.852634       -23.2014
 168   2.0000      -0.849786       -23.1239
 169   2.0000      -0.840195       -22.8629
 170   2.0000      -0.835125       -22.7249
 171   2.0000      -0.829198       -22.5636
 172   2.0000      -0.824702       -22.4413
 173   2.0000      -0.818617       -22.2757
 174   2.0000      -0.808461       -21.9994
 175   2.0000      -0.803352       -21.8603
 176   2.0000      -0.800254       -21.7760
 177   2.0000      -0.786640       -21.4056
 178   2.0000      -0.777338       -21.1524
 179   2.0000      -0.764757       -20.8101
 180   2.0000      -0.750665       -20.4266
 181   2.0000      -0.745801       -20.2943
 182   2.0000      -0.737831       -20.0774
 183   2.0000      -0.729410       -19.8483
 184   2.0000      -0.720992       -19.6192
 185   2.0000      -0.706473       -19.2241
 186   2.0000      -0.698882       -19.0176
 187   2.0000      -0.686931       -18.6923
 188   2.0000      -0.685301       -18.6480
 189   2.0000      -0.679972       -18.5030
 190   2.0000      -0.678265       -18.4565
 191   2.0000      -0.673153       -18.3174
 192   2.0000      -0.670555       -18.2467
 193   2.0000      -0.661690       -18.0055
 194   2.0000      -0.658349       -17.9146
 195   2.0000      -0.654850       -17.8194
 196   2.0000      -0.648317       -17.6416
 197   2.0000      -0.646568       -17.5940
 198   2.0000      -0.641728       -17.4623
 199   2.0000      -0.635488       -17.2925
 200   2.0000      -0.634390       -17.2626
 201   2.0000      -0.632948       -17.2234
 202   2.0000      -0.629370       -17.1260
 203   2.0000      -0.622589       -16.9415
 204   2.0000      -0.620237       -16.8775
 205   2.0000      -0.615995       -16.7621
 206   2.0000      -0.612517       -16.6674
 207   2.0000      -0.606569       -16.5056
 208   2.0000      -0.596364       -16.2279
 209   2.0000      -0.593906       -16.1610
 210   2.0000      -0.589501       -16.0411
 211   2.0000      -0.583311       -15.8727
 212   2.0000      -0.579398       -15.7662
 213   2.0000      -0.577652       -15.7187
 214   2.0000      -0.571571       -15.5532
 215   2.0000      -0.568115       -15.4592
 216   2.0000      -0.564521       -15.3614
 217   2.0000      -0.562371       -15.3029
 218   2.0000      -0.556705       -15.1487
 219   2.0000      -0.549993       -14.9661
 220   2.0000      -0.548722       -14.9315
 221   2.0000      -0.539777       -14.6881
 222   2.0000      -0.533714       -14.5231
 223   2.0000      -0.530961       -14.4482
 224   2.0000      -0.528729       -14.3875
 225   2.0000      -0.527628       -14.3575
 226   2.0000      -0.525961       -14.3121
 227   2.0000      -0.521448       -14.1893
 228   2.0000      -0.518122       -14.0988
 229   2.0000      -0.516904       -14.0657
 230   2.0000      -0.516510       -14.0549
 231   2.0000      -0.515807       -14.0358
 232   2.0000      -0.511723       -13.9247
 233   2.0000      -0.507972       -13.8226
 234   2.0000      -0.506056       -13.7705
 235   2.0000      -0.504824       -13.7370
 236   2.0000      -0.503546       -13.7022
 237   2.0000      -0.502437       -13.6720
 238   2.0000      -0.500750       -13.6261
 239   2.0000      -0.498671       -13.5695
 240   2.0000      -0.497539       -13.5387
 241   2.0000      -0.495600       -13.4860
 242   2.0000      -0.490435       -13.3454
 243   2.0000      -0.489061       -13.3080
 244   2.0000      -0.486320       -13.2334
 245   2.0000      -0.485006       -13.1977
 246   2.0000      -0.484412       -13.1815
 247   2.0000      -0.484280       -13.1779
 248   2.0000      -0.482792       -13.1374
 249   2.0000      -0.482136       -13.1196
 250   2.0000      -0.479080       -13.0364
 251   2.0000      -0.475586       -12.9414
 252   2.0000      -0.474723       -12.9179
 253   2.0000      -0.472504       -12.8575
 254   2.0000      -0.471352       -12.8261
 255   2.0000      -0.465183       -12.6583
 256   2.0000      -0.461231       -12.5507
 257   2.0000      -0.460289       -12.5251
 258   2.0000      -0.457694       -12.4545
 259   2.0000      -0.455155       -12.3854
 260   2.0000      -0.451179       -12.2772
 261   2.0000      -0.450029       -12.2459
 262   2.0000      -0.447411       -12.1747
 263   2.0000      -0.441897       -12.0246
 264   2.0000      -0.441111       -12.0032
 265   2.0000      -0.439885       -11.9699
 266   2.0000      -0.437575       -11.9070
 267   2.0000      -0.435133       -11.8406
 268   2.0000      -0.434692       -11.8286
 269   2.0000      -0.433704       -11.8017
 270   2.0000      -0.433228       -11.7887
 271   2.0000      -0.429832       -11.6963
 272   2.0000      -0.429586       -11.6896
 273   2.0000      -0.428443       -11.6585
 274   2.0000      -0.426297       -11.6001
 275   2.0000      -0.422811       -11.5053
 276   2.0000      -0.420779       -11.4500
 277   2.0000      -0.419792       -11.4231
 278   2.0000      -0.418812       -11.3964
 279   2.0000      -0.417222       -11.3532
 280   2.0000      -0.413807       -11.2603
 281   2.0000      -0.412320       -11.2198
 282   2.0000      -0.411847       -11.2069
 283   2.0000      -0.407912       -11.0999
 284   2.0000      -0.402708       -10.9583
 285   2.0000      -0.400681       -10.9031
 286   2.0000      -0.397510       -10.8168
 287   2.0000      -0.394247       -10.7280
 288   2.0000      -0.390009       -10.6127
 289   2.0000      -0.383359       -10.4317
 290   2.0000      -0.379320       -10.3218
 291   2.0000      -0.373207       -10.1555
 292   2.0000      -0.370870       -10.0919
 293   2.0000      -0.367336        -9.9957
 294   2.0000      -0.363886        -9.9018
 295   2.0000      -0.358408        -9.7528
 296   2.0000      -0.356023        -9.6879
 297   2.0000      -0.355078        -9.6622
 298   2.0000      -0.352276        -9.5859
 299   2.0000      -0.349431        -9.5085
 300   2.0000      -0.345498        -9.4015
 301   2.0000      -0.339799        -9.2464
 302   2.0000      -0.337753        -9.1907
 303   2.0000      -0.335453        -9.1281
 304   2.0000      -0.331946        -9.0327
 305   2.0000      -0.323117        -8.7925
 306   2.0000      -0.321076        -8.7369
 307   2.0000      -0.313165        -8.5217
 308   2.0000      -0.305239        -8.3060
 309   2.0000      -0.304331        -8.2813
 310   2.0000      -0.290450        -7.9035
 311   2.0000      -0.288327        -7.8458
 312   2.0000      -0.283149        -7.7049
 313   2.0000      -0.266786        -7.2596
 314   2.0000      -0.263775        -7.1777
 315   2.0000      -0.231345        -6.2952
 316   2.0000      -0.211288        -5.7494
 317   0.0000      -0.121101        -3.2953
 318   0.0000      -0.098616        -2.6835
 319   0.0000      -0.064579        -1.7573
 320   0.0000      -0.051925        -1.4130
 321   0.0000      -0.042379        -1.1532

MULLIKEN ATOMIC CHARGES
-----------------------
   0 C :    0.324518
   1 C :   -0.378595
   2 C :   -0.127507
   3 N :    0.106361
   4 C :   -0.205952
   5 N :    0.148703
   6 C :    0.015562
   7 C :   -0.010942
   8 C :   -0.073784
   9 C :    0.117708
  10 C :   -0.093173
  11 C :   -0.023803
  12 S :    0.181043
  13 C :   -0.122937
  14 C :    0.037207
  15 Br:    0.016775
  16 C :    0.141967
  17 O :   -0.164849
  18 C :   -0.097352
  19 C :   -0.034197
  20 C :   -0.027818
  21 C :    0.003881
  22 C :    0.028492
  23 C :    0.038853
  24 C :   -0.054028
  25 S :    0.123560
  26 C :   -0.027455
  27 C :    0.022890
  28 C :    0.046688
  29 C :   -0.031056
  30 S :    0.154054
  31 C :    0.030057
  32 C :   -0.073978
  33 S :    0.143103
  34 C :   -0.064940
  35 C :   -0.217278
  36 N :   -0.044832
  37 C :    0.384397
  38 C :   -0.158136
  39 C :   -0.093588
  40 S :    0.158660
  41 C :   -0.076783
  42 C :   -0.002072
  43 C :    0.043654
  44 C :   -0.004009
  45 C :    0.011149
  46 C :   -0.032898
  47 C :    0.052041
  48 C :    0.018988
  49 C :   -0.020102
  50 S :    0.106751
  51 C :   -0.063124
  52 C :    0.036130
  53 C :    0.056416
  54 C :   -0.040056
  55 S :    0.127858
  56 C :   -0.002860
  57 C :    0.023907
  58 C :   -0.143408
  59 C :    0.281930
  60 C :   -0.369469
  61 C :   -0.174905
  62 N :    0.135711
  63 C :   -0.208518
  64 N :    0.153141
  65 C :    0.012688
  66 C :    0.008413
  67 C :    0.130589
  68 O :   -0.152388
  69 C :   -0.080667
  70 C :    0.107416
  71 C :   -0.085174
  72 C :   -0.044740
  73 S :    0.152126
  74 C :   -0.125626
  75 C :    0.053429
  76 Br:    0.005271
  77 H :   -0.015423
  78 H :   -0.012271
  79 H :   -0.006931
  80 H :    0.016487
  81 H :    0.019383
  82 H :    0.000616
  83 H :   -0.005155
  84 H :   -0.009637
  85 H :   -0.004944
  86 H :   -0.005903
  87 H :    0.052110
  88 H :    0.053790
  89 H :   -0.008340
  90 H :   -0.011412
  91 H :    0.010787
  92 H :   -0.008299
  93 H :   -0.005760
  94 H :   -0.007176
  95 H :   -0.012187
  96 H :   -0.007495
  97 H :   -0.003668
  98 H :    0.020688
  99 H :   -0.007027
 100 H :   -0.017192
 101 H :   -0.014126
Sum of atomic charges:   -0.0000000

LOEWDIN ATOMIC CHARGES
----------------------
   0 C :    0.073790
   1 C :   -0.161742
   2 C :   -0.000201
   3 N :   -0.076636
   4 C :   -0.028536
   5 N :   -0.065756
   6 C :   -0.018357
   7 C :   -0.048603
   8 C :    0.018128
   9 C :   -0.035401
  10 C :   -0.145474
  11 C :   -0.013959
  12 S :    0.428402
  13 C :   -0.273959
  14 C :   -0.070736
  15 Br:    0.131490
  16 C :    0.082645
  17 O :   -0.157163
  18 C :   -0.106317
  19 C :    0.048877
  20 C :   -0.069623
  21 C :   -0.106166
  22 C :   -0.038067
  23 C :   -0.009913
  24 C :   -0.184109
  25 S :    0.415646
  26 C :   -0.159754
  27 C :   -0.034816
  28 C :   -0.019137
  29 C :   -0.137805
  30 S :    0.443061
  31 C :   -0.073264
  32 C :   -0.129306
  33 S :    0.415242
  34 C :   -0.211840
  35 C :   -0.019834
  36 N :   -0.095326
  37 C :   -0.009333
  38 C :   -0.037776
  39 C :   -0.193952
  40 S :    0.442960
  41 C :   -0.165617
  42 C :   -0.035304
  43 C :   -0.021017
  44 C :   -0.035375
  45 C :   -0.022069
  46 C :   -0.159311
  47 C :   -0.011739
  48 C :   -0.039574
  49 C :   -0.142304
  50 S :    0.398478
  51 C :   -0.196726
  52 C :   -0.022196
  53 C :   -0.031263
  54 C :   -0.114725
  55 S :    0.461747
  56 C :   -0.070803
  57 C :    0.034549
  58 C :   -0.111752
  59 C :    0.038760
  60 C :   -0.171355
  61 C :   -0.020455
  62 N :   -0.076208
  63 C :   -0.026167
  64 N :   -0.066605
  65 C :   -0.013402
  66 C :   -0.056121
  67 C :    0.082635
  68 O :   -0.151735
  69 C :    0.024044
  70 C :   -0.039366
  71 C :   -0.144916
  72 C :   -0.026481
  73 S :    0.406749
  74 C :   -0.279993
  75 C :   -0.061024
  76 Br:    0.134565
  77 H :    0.038953
  78 H :    0.039044
  79 H :    0.037559
  80 H :    0.032668
  81 H :    0.039175
  82 H :    0.039180
  83 H :    0.035288
  84 H :    0.032247
  85 H :    0.036526
  86 H :    0.038075
  87 H :    0.063453
  88 H :    0.064097
  89 H :    0.037005
  90 H :    0.030872
  91 H :    0.025821
  92 H :    0.036746
  93 H :    0.036793
  94 H :    0.034739
  95 H :    0.033043
  96 H :    0.036609
  97 H :    0.039806
  98 H :    0.044873
  99 H :    0.042165
 100 H :    0.036304
 101 H :    0.033657

  Mayer bond orders larger than 0.100000
B(  0-C ,  1-C ) :   1.5776 B(  0-C ,  6-C ) :   0.9903 B(  0-C , 18-C ) :   1.1150
B(  1-C ,  2-C ) :   1.1698 B(  1-C ,  4-C ) :   1.1536 B(  2-C ,  3-N ) :   2.8379
B(  4-C ,  5-N ) :   2.9727 B(  6-C ,  7-C ) :   1.2757 B(  6-C , 11-C ) :   1.4193
B(  7-C ,  8-C ) :   1.4337 B(  7-C , 16-C ) :   0.9368 B(  8-C ,  9-C ) :   1.2396
B(  8-C , 77-H ) :   1.0157 B(  9-C , 10-C ) :   1.3140 B(  9-C , 14-C ) :   1.1607
B( 10-C , 11-C ) :   1.3225 B( 10-C , 12-S ) :   1.0842 B( 11-C , 78-H ) :   0.9793
B( 12-S , 13-C ) :   1.0855 B( 13-C , 14-C ) :   1.6211 B( 13-C , 15-Br) :   1.0141
B( 14-C , 79-H ) :   1.0000 B( 16-C , 17-O ) :   2.1821 B( 16-C , 18-C ) :   0.9660
B( 18-C , 19-C ) :   1.4707 B( 19-C , 20-C ) :   1.2690 B( 19-C , 80-H ) :   0.9492
B( 20-C , 21-C ) :   1.4077 B( 20-C , 81-H ) :   0.9754 B( 21-C , 22-C ) :   1.1873
B( 21-C , 25-S ) :   1.0857 B( 22-C , 23-C ) :   1.5310 B( 22-C , 82-H ) :   1.0024
B( 23-C , 24-C ) :   1.2219 B( 23-C , 83-H ) :   0.9954 B( 24-C , 25-S ) :   1.0533
B( 24-C , 26-C ) :   1.4547 B( 26-C , 27-C ) :   1.2044 B( 26-C , 30-S ) :   1.0409
B( 27-C , 28-C ) :   1.5641 B( 27-C , 84-H ) :   0.9960 B( 28-C , 29-C ) :   1.1640
B( 28-C , 85-H ) :   1.0003 B( 29-C , 30-S ) :   1.0739 B( 29-C , 31-C ) :   1.5375
B( 31-C , 32-C ) :   1.2167 B( 31-C , 86-H ) :   0.9568 B( 32-C , 33-S ) :   1.0472
B( 32-C , 36-N ) :   1.5293 B( 33-S , 34-C ) :   1.0907 B( 34-C , 35-C ) :   1.4190
B( 34-C , 39-C ) :   1.2433 B( 35-C , 36-N ) :   1.5010 B( 35-C , 37-C ) :   1.0426
B( 37-C , 38-C ) :   0.9772 B( 37-C , 87-H ) :   0.8626 B( 37-C , 88-H ) :   0.8639
B( 38-C , 39-C ) :   1.4545 B( 38-C , 42-C ) :   1.3768 B( 39-C , 40-S ) :   1.0944
B( 40-S , 41-C ) :   1.0887 B( 41-C , 42-C ) :   1.3936 B( 41-C , 43-C ) :   1.1763
B( 42-C , 89-H ) :   0.9961 B( 43-C , 44-C ) :   1.5836 B( 43-C , 90-H ) :   0.9664
B( 44-C , 45-C ) :   1.2142 B( 44-C , 91-H ) :   0.9698 B( 45-C , 46-C ) :   1.5041
B( 45-C , 92-H ) :   0.9841 B( 46-C , 47-C ) :   1.1711 B( 46-C , 50-S ) :   1.0337
B( 47-C , 48-C ) :   1.5535 B( 47-C , 93-H ) :   1.0000 B( 48-C , 49-C ) :   1.2158
B( 48-C , 94-H ) :   0.9948 B( 49-C , 50-S ) :   1.0870 B( 49-C , 51-C ) :   1.4468
B( 51-C , 52-C ) :   1.2194 B( 51-C , 55-S ) :   1.0437 B( 52-C , 53-C ) :   1.5498
B( 52-C , 95-H ) :   0.9915 B( 53-C , 54-C ) :   1.1826 B( 53-C , 96-H ) :   0.9975
B( 54-C , 55-S ) :   1.1147 B( 54-C , 56-C ) :   1.4323 B( 56-C , 57-C ) :   1.3368
B( 56-C , 97-H ) :   0.9537 B( 57-C , 58-C ) :   1.4647 B( 57-C , 98-H ) :   0.9285
B( 58-C , 59-C ) :   1.1419 B( 58-C , 67-C ) :   0.9600 B( 59-C , 60-C ) :   1.5368
B( 59-C , 65-C ) :   1.0062 B( 60-C , 61-C ) :   1.1457 B( 60-C , 63-C ) :   1.1739
B( 61-C , 62-N ) :   2.9720 B( 63-C , 64-N ) :   3.0003 B( 65-C , 66-C ) :   1.2777
B( 65-C , 72-C ) :   1.4266 B( 66-C , 67-C ) :   0.9178 B( 66-C , 69-C ) :   1.4211
B( 67-C , 68-O ) :   2.2532 B( 69-C , 70-C ) :   1.2440 B( 69-C , 99-H ) :   1.0203
B( 70-C , 71-C ) :   1.3194 B( 70-C , 75-C ) :   1.1620 B( 71-C , 72-C ) :   1.3068
B( 71-C , 73-S ) :   1.0806 B( 72-C ,100-H ) :   0.9845 B( 73-S , 74-C ) :   1.0690
B( 74-C , 75-C ) :   1.6267 B( 74-C , 76-Br) :   1.0088 B( 75-C ,101-H ) :   0.9765

-----------------------------------------------------------------------------
         ABSORPTION SPECTRUM VIA TRANSITION ELECTRIC DIPOLE MOMENTS
-----------------------------------------------------------------------------
State   Energy  Wavelength   fosc         T2         TX        TY        TZ
        (cm-1)    (nm)                  (au**2)     (au)      (au)      (au)
-----------------------------------------------------------------------------
   0    7573.7   1320.4   0.550519052  23.92971  -1.87449  -2.00933  -4.04705
   1   12248.4    816.4   1.600210010  43.01033  -4.48617   4.72596   0.74156
   2   13246.1    754.9   0.183152191   4.55197  -1.29466   1.68237   0.21324
   3   18300.3    546.4   0.626544312  11.27118  -1.33832  -0.09275  -3.07758
   4   18786.7    532.3   0.253023430   4.43389   1.21243  -0.40366   1.67360
   5   19680.2    508.1   0.142990207   2.39195   0.92603  -0.14077   1.23069
   6   20502.2    487.8   0.754983106  12.12304  -1.70377   0.32681  -3.01884
   7   21398.3    467.3   0.097241387   1.49605  -0.46342   0.76736  -0.83214
   8   22667.1    441.2   0.054601360   0.79302   0.28484   0.20701   0.81794
   9   23070.2    433.5   0.096759749   1.38076  -0.06545   1.12274   0.34049
  10   23624.0    423.3   0.076527730   1.06645   0.37499   0.23628   0.93274
  11   23942.8    417.7   0.138218147   1.90049  -1.13892   0.76249  -0.14824
  12   24783.1    403.5   0.111399934   1.47981   0.05593   0.09879   1.21116
  13   25085.2    398.6   0.002657045   0.03487  -0.14560   0.06340   0.09824
  14   25383.1    394.0   0.068018929   0.88219   0.32406   0.33300   0.81626
  15   26175.4    382.0   0.060798573   0.76467  -0.28672   0.27016   0.78069
  16   26379.4    379.1   0.005528599   0.06900   0.05232   0.01423   0.25702
  17   26893.6    371.8   0.032206289   0.39425  -0.55782   0.12848  -0.25803
  18   27612.1    362.2   0.008502477   0.10137   0.15746  -0.21260  -0.17714
  19   27846.1    359.1   0.000594634   0.00703  -0.04656   0.03501   0.06030
  20   28245.2    354.0   0.017103029   0.19934   0.04636   0.04568  -0.44171
  21   28568.4    350.0   0.000462375   0.00533  -0.04168   0.04541  -0.03910
  22   28972.9    345.1   0.013951822   0.15853  -0.30538  -0.10413  -0.23330
  23   29429.3    339.8   0.030061709   0.33629  -0.53387   0.22640   0.00333
  24   29778.0    335.8   0.029566916   0.32688  -0.15459  -0.01383   0.55026
  25   29991.4    333.4   0.033870605   0.37179   0.39450  -0.23599   0.40059
  26   30347.1    329.5   0.063331464   0.68703   0.38463  -0.60447   0.41678
  27   30879.3    323.8   0.185888379   1.98180   0.36918  -1.16608  -0.69697
  28   31102.7    321.5   0.020614111   0.21819  -0.33109  -0.20663  -0.25667
  29   31254.0    320.0   0.493224849   5.19536  -0.23309   1.45325   1.74043
  30   31635.5    316.1   0.000725823   0.00755   0.08246   0.01693  -0.02162
  31   31715.8    315.3   0.288832649   2.99810  -1.49007   0.43656  -0.76629
  32   31887.5    313.6   0.016516658   0.17052  -0.33420   0.00638  -0.24246
  33   32092.7    311.6   0.084410240   0.86589   0.31561  -0.53506  -0.69282
  34   32292.3    309.7   0.024852577   0.25337   0.29544  -0.31795  -0.25493
  35   32433.0    308.3   0.151873463   1.54159  -0.93719   0.38530  -0.71750
  36   32718.0    305.6   0.171354258   1.72419  -0.01858   0.87241   0.98120
  37   32861.4    304.3   0.073040480   0.73173   0.37905  -0.01530   0.76669
  38   33102.9    302.1   0.038593780   0.38382   0.49349  -0.20137   0.31581
  39   33379.5    299.6   0.049767873   0.49085   0.29210  -0.57657  -0.27036
  40   33460.4    298.9   0.016047102   0.15788   0.22209   0.32918   0.01426
  41   33692.5    296.8   0.033762585   0.32990   0.10366  -0.49142  -0.27867
  42   33889.3    295.1   0.018078611   0.17562  -0.39123   0.10436  -0.10803
  43   34312.1    291.4   0.014227479   0.13651  -0.33037  -0.16442   0.01811
  44   34653.6    288.6   0.030567959   0.29040  -0.34729   0.27516  -0.30672
  45   35069.3    285.1   0.009192664   0.08630   0.13456   0.00203   0.26112
  46   35201.7    284.1   0.012184791   0.11395  -0.20743  -0.00466  -0.26628
  47   35410.8    282.4   0.039748146   0.36954  -0.01049   0.07270  -0.60344
  48   35577.6    281.1   0.162198080   1.50088   0.21285  -0.86669  -0.83929
  49   35678.2    280.3   0.019090642   0.17615  -0.34369  -0.16588   0.17469
  50   36168.0    276.5   0.165596214   1.50731   0.35073  -1.17542   0.05173
  51   36337.4    275.2   0.176781754   1.60162   0.56562   0.57554   0.97491
  52   36584.5    273.3   0.081783790   0.73595  -0.10705  -0.37289  -0.76514
  53   37017.4    270.1   0.027942276   0.24850  -0.10940   0.45716   0.16596
  54   37315.2    268.0   0.026191089   0.23107   0.09724  -0.46852  -0.04582
  55   37334.1    267.9   0.020404847   0.17993   0.04441   0.40853   0.10516
  56   37502.6    266.6   0.060299680   0.52933  -0.06039  -0.46418  -0.55697
  57   37602.7    265.9   0.002133566   0.01868   0.11076  -0.01091  -0.07932
  58   37667.7    265.5   0.014701012   0.12849   0.08033   0.00165   0.34933
  59   37841.5    264.3   0.070027135   0.60922  -0.01881  -0.67318  -0.39459
  60   37902.8    263.8   0.037139162   0.32258   0.11174  -0.55235  -0.07073
  61   38103.9    262.4   0.003944668   0.03408   0.18453  -0.00093   0.00525
  62   38211.5    261.7   0.021430513   0.18463   0.32488   0.11142   0.25821
  63   38627.5    258.9   0.022820829   0.19450   0.04180  -0.24928  -0.36140
  64   38768.6    257.9   0.035014693   0.29733   0.23880   0.12602   0.47374
  65   38880.8    257.2   0.011888053   0.10066  -0.07746   0.19825   0.23528
  66   39053.7    256.1   0.019425612   0.16375   0.06649  -0.25130  -0.31013
  67   39250.5    254.8   0.010578229   0.08872   0.18790  -0.13855   0.18499
  68   39459.2    253.4   0.092601938   0.77259   0.01217  -0.21144  -0.85307
  69   39570.6    252.7   0.033128974   0.27562   0.37957  -0.26745   0.24500
  70   39846.2    251.0   0.019775768   0.16339   0.30047   0.17238   0.20832
  71   40073.9    249.5   0.020958046   0.17217  -0.08028   0.37767  -0.15196
  72   40231.1    248.6   0.022570600   0.18470  -0.16363   0.37329  -0.13629

FINAL SINGLE POINT ENERGY    -11054.502283776555

DIPOLE MOMENT
-------------
                                X             Y             Z
Electronic contribution:     66.95712    -111.21424    -103.69130
Nuclear contribution   :    -72.12386     114.23618     102.78166
                        -----------------------------------------
Total Dipole Moment    :     -5.16673       3.02193      -0.90964
                        -----------------------------------------
Magnitude (a.u.)       :      6.05431
Magnitude (Debye)      :     15.38883

Rotational constants in cm-1:     0.000540     0.000350     0.000218
Rotational constants in MHz :    16.202976    10.491578     6.544772

                             ****ORCA TERMINATED NORMALLY****
TOTAL RUN TIME: 0 days 0 hours 20 minutes 40 seconds 675 msec
