                         Program Version 4.2.0 -  RELEASE  -
|  1> # ORCA input file
|  2> # SCF done       -179.809937827973          0.000581142552
|  3> ! CAM-B3LYP def2-SVP def2/J RIJCOSX Grid4 TightSCF
|  4> %maxcore 5000
|  5> %tddft
|  6>     Mode sTDDFT
|  7>     Ethresh 5.0
|  8>     maxcore 5000
|  9> end
| 10>
| 11> %pal
| 12>   nprocs 6
| 13>   end
| 14> * xyz 0 1
| 15>    C       -9.47386         9.36675        -9.18395
| 16>    C       -8.18604         9.28036        -9.65040
| 17>    C       -7.79054         9.65329       -10.95173
| 18>    N       -7.40629         9.93942       -11.99506
| 19>    C       -7.07596         8.80527        -8.92209
| 20>    N       -6.12233         8.42882        -8.40352
| 21>    C      -10.61847         9.84548        -9.95538
| 22>    C      -11.77865         9.76444        -9.14605
| 23>    C      -13.02200        10.14550        -9.58702
| 24>    C      -13.12808        10.63129       -10.89470
| 25>    C      -11.96561        10.70783       -11.69754
| 26>    C      -10.70747        10.32239       -11.24936
| 27>    S      -12.32113        11.33523       -13.27819
| 28>    C      -14.00350        11.48357       -12.84512
| 29>    C      -14.28675        11.08516       -11.58220
| 30>   Br      -15.22696        12.14952       -14.10066
| 31>    C      -11.40587         9.22710        -7.82609
| 32>    O      -12.16229         9.01464        -6.89285
| 33>    C       -9.96032         9.00073        -7.87010
| 34>    C       -9.20263         8.52956        -6.82492
| 35>    C       -9.58935         8.15547        -5.53641
| 36>    S      -11.19937         8.15883        -4.83082
| 37>    C      -10.63906         7.54815        -3.30530
| 38>    C       -9.25815         7.34791        -3.32859
| 39>    C       -8.68774         7.69287        -4.57546
| 40>    S       -6.98399         7.42835        -4.54288
| 41>    C       -7.18335         6.88293        -2.88014
| 42>    N       -8.36668         6.89520        -2.40456
| 43>    C      -11.56050         7.30582        -2.25336
| 44>    C      -11.19507         6.82890        -1.04158
| 45>    C      -12.07126         6.54130         0.06010
| 46>    C      -13.34371         6.11286         0.01907
| 47>    C      -14.11023         5.80485        -1.22627
| 48>    C      -14.11928         5.92978         1.30485
| 49>    N      -15.08006         7.00022         1.45827
| 50>    C      -16.30302         6.98522         0.90675
| 51>    C      -17.08609         8.09510         0.77425
| 52>    C      -18.35192         8.09444         0.17648
| 53>    C      -19.09391         9.23601        -0.01689
| 54>    C      -20.28642         9.39427        -0.75629
| 55>    C      -20.70629        10.68867        -0.87197
| 56>    C      -19.87896        11.61385        -0.20246
| 57>    S      -18.56360        10.79919         0.59321
| 58>    C      -19.95067        12.99889        -0.17186
| 59>    C      -20.70978        13.88546        -0.95386
| 60>    C      -20.35232        15.19489        -0.78862
| 61>    C      -19.30077        15.40718         0.13177
| 62>    S      -18.82837        13.88911         0.83321
| 63>    C      -18.78632        16.65060         0.48056
| 64>    C      -17.79520        16.99107         1.38685
| 65>    C      -16.84409        16.24962         2.08142
| 66>    C      -16.20680        14.99650         1.85904
| 67>    C      -16.06402        14.33941         0.64794
| 68>    C      -15.46429        13.07921         0.50325
| 69>    N      -15.01621        12.03123         0.34344
| 70>    C      -16.44270        14.92016        -0.57549
| 71>    N      -16.72260        15.38051        -1.59044
| 72>    C      -15.54922        14.59836         3.10468
| 73>    C      -15.61490        15.68223         4.01195
| 74>    C      -16.36730        16.78874         3.37357
| 75>    O      -16.57671        17.89126         3.83522
| 76>    C      -15.06693        15.62850         5.26801
| 77>    C      -14.43808        14.43757         5.65470
| 78>    C      -14.39081        13.35875         4.74609
| 79>    C      -14.93281        13.41900         3.46629
| 80>    S      -13.58311        11.98015         5.43460
| 81>    C      -13.32149        12.86621         6.91425
| 82>    C      -13.81266        14.12609         6.89514
| 83>   Br      -12.42627        12.03697         8.34188
| 84>    H      -13.88500        10.07256        -8.94407
| 85>    H       -9.85380        10.40278       -11.90097
| 86>    H      -15.27089        11.11046       -11.15120
| 87>    H       -8.13704         8.42251        -6.99277
| 88>    H       -6.32461         6.56394        -2.32292
| 89>    H      -12.58516         7.56757        -2.46964
| 90>    H      -10.13873         6.68116        -0.85757
| 91>    H      -11.60600         6.64039         1.03425
| 92>    H      -13.43827         5.54966        -2.04123
| 93>    H      -14.71404         6.66001        -1.53357
| 94>    H      -14.78548         4.96755        -1.05561
| 95>    H      -13.44953         5.94347         2.16795
| 96>    H      -14.66239         4.98065         1.29560
| 97>    H      -14.69285         7.91119         1.66736
| 98>    H      -16.66702         6.01624         0.59131
| 99>    H      -16.69392         9.04811         1.10467
|100>    H      -18.75040         7.16270        -0.20359
|101>    H      -20.78524         8.55299        -1.20517
|102>    H      -21.58073        10.99947        -1.41488
|103>    H      -21.45939        13.54275        -1.64445
|104>    H      -20.79451        16.01451        -1.32639
|105>    H      -19.31221        17.48276         0.02794
|106>    H      -17.80936        18.03117         1.70291
|107>    H      -15.12258        16.47296         5.93693
|108>    H      -14.87413        12.56897         2.80747
|109>    H      -13.74059        14.81100         7.72033
|110> *
|111>
|112>                          ****END OF INPUT****

CARTESIAN COORDINATES (ANGSTROEM)
---------------------------------
  C     -9.473860    9.366750   -9.183950
  C     -8.186040    9.280360   -9.650400
  C     -7.790540    9.653290  -10.951730
  N     -7.406290    9.939420  -11.995060
  C     -7.075960    8.805270   -8.922090
  N     -6.122330    8.428820   -8.403520
  C    -10.618470    9.845480   -9.955380
  C    -11.778650    9.764440   -9.146050
  C    -13.022000   10.145500   -9.587020
  C    -13.128080   10.631290  -10.894700
  C    -11.965610   10.707830  -11.697540
  C    -10.707470   10.322390  -11.249360
  S    -12.321130   11.335230  -13.278190
  C    -14.003500   11.483570  -12.845120
  C    -14.286750   11.085160  -11.582200
  Br   -15.226960   12.149520  -14.100660
  C    -11.405870    9.227100   -7.826090
  O    -12.162290    9.014640   -6.892850
  C     -9.960320    9.000730   -7.870100
  C     -9.202630    8.529560   -6.824920
  C     -9.589350    8.155470   -5.536410
  S    -11.199370    8.158830   -4.830820
  C    -10.639060    7.548150   -3.305300
  C     -9.258150    7.347910   -3.328590
  C     -8.687740    7.692870   -4.575460
  S     -6.983990    7.428350   -4.542880
  C     -7.183350    6.882930   -2.880140
  N     -8.366680    6.895200   -2.404560
  C    -11.560500    7.305820   -2.253360
  C    -11.195070    6.828900   -1.041580
  C    -12.071260    6.541300    0.060100
  C    -13.343710    6.112860    0.019070
  C    -14.110230    5.804850   -1.226270
  C    -14.119280    5.929780    1.304850
  N    -15.080060    7.000220    1.458270
  C    -16.303020    6.985220    0.906750
  C    -17.086090    8.095100    0.774250
  C    -18.351920    8.094440    0.176480
  C    -19.093910    9.236010   -0.016890
  C    -20.286420    9.394270   -0.756290
  C    -20.706290   10.688670   -0.871970
  C    -19.878960   11.613850   -0.202460
  S    -18.563600   10.799190    0.593210
  C    -19.950670   12.998890   -0.171860
  C    -20.709780   13.885460   -0.953860
  C    -20.352320   15.194890   -0.788620
  C    -19.300770   15.407180    0.131770
  S    -18.828370   13.889110    0.833210
  C    -18.786320   16.650600    0.480560
  C    -17.795200   16.991070    1.386850
  C    -16.844090   16.249620    2.081420
  C    -16.206800   14.996500    1.859040
  C    -16.064020   14.339410    0.647940
  C    -15.464290   13.079210    0.503250
  N    -15.016210   12.031230    0.343440
  C    -16.442700   14.920160   -0.575490
  N    -16.722600   15.380510   -1.590440
  C    -15.549220   14.598360    3.104680
  C    -15.614900   15.682230    4.011950
  C    -16.367300   16.788740    3.373570
  O    -16.576710   17.891260    3.835220
  C    -15.066930   15.628500    5.268010
  C    -14.438080   14.437570    5.654700
  C    -14.390810   13.358750    4.746090
  C    -14.932810   13.419000    3.466290
  S    -13.583110   11.980150    5.434600
  C    -13.321490   12.866210    6.914250
  C    -13.812660   14.126090    6.895140
  Br   -12.426270   12.036970    8.341880
  H    -13.885000   10.072560   -8.944070
  H     -9.853800   10.402780  -11.900970
  H    -15.270890   11.110460  -11.151200
  H     -8.137040    8.422510   -6.992770
  H     -6.324610    6.563940   -2.322920
  H    -12.585160    7.567570   -2.469640
  H    -10.138730    6.681160   -0.857570
  H    -11.606000    6.640390    1.034250
  H    -13.438270    5.549660   -2.041230
  H    -14.714040    6.660010   -1.533570
  H    -14.785480    4.967550   -1.055610
  H    -13.449530    5.943470    2.167950
  H    -14.662390    4.980650    1.295600
  H    -14.692850    7.911190    1.667360
  H    -16.667020    6.016240    0.591310
  H    -16.693920    9.048110    1.104670
  H    -18.750400    7.162700   -0.203590
  H    -20.785240    8.552990   -1.205170
  H    -21.580730   10.999470   -1.414880
  H    -21.459390   13.542750   -1.644450
  H    -20.794510   16.014510   -1.326390
  H    -19.312210   17.482760    0.027940
  H    -17.809360   18.031170    1.702910
  H    -15.122580   16.472960    5.936930
  H    -14.874130   12.568970    2.807470
  H    -13.740590   14.811000    7.720330

 Total Charge           Charge          ....    0
 Multiplicity           Mult            ....    1
 Number of Electrons    NEL             ....  568
 Basis Dimension        Dim             .... 1156

ORBITAL ENERGIES
----------------

  NO   OCC          E(Eh)            E(eV)
   0   2.0000    -482.884071    -13139.9436
   1   2.0000    -482.873334    -13139.6514
   2   2.0000     -88.976718     -2421.1796
   3   2.0000     -88.974612     -2421.1223
   4   2.0000     -88.973977     -2421.1050
   5   2.0000     -88.959218     -2420.7034
   6   2.0000     -88.955407     -2420.5997
   7   2.0000     -88.951410     -2420.4909
   8   2.0000     -62.561794     -1702.3930
   9   2.0000     -62.551049     -1702.1006
  10   2.0000     -56.395743     -1534.6062
  11   2.0000     -56.393031     -1534.5324
  12   2.0000     -56.392992     -1534.5313
  13   2.0000     -56.384978     -1534.3133
  14   2.0000     -56.382315     -1534.2408
  15   2.0000     -56.382258     -1534.2392
  16   2.0000     -19.220292      -523.0107
  17   2.0000     -19.184780      -522.0444
  18   2.0000     -14.470327      -393.7576
  19   2.0000     -14.430195      -392.6656
  20   2.0000     -14.415395      -392.2628
  21   2.0000     -14.411302      -392.1515
  22   2.0000     -14.391428      -391.6107
  23   2.0000     -14.380168      -391.3043
  24   2.0000     -10.367923      -282.1255
  25   2.0000     -10.357140      -281.8321
  26   2.0000     -10.351910      -281.6898
  27   2.0000     -10.350423      -281.6493
  28   2.0000     -10.341524      -281.4072
  29   2.0000     -10.339662      -281.3565
  30   2.0000     -10.338173      -281.3160
  31   2.0000     -10.336174      -281.2616
  32   2.0000     -10.334679      -281.2209
  33   2.0000     -10.330327      -281.1025
  34   2.0000     -10.324506      -280.9441
  35   2.0000     -10.324136      -280.9340
  36   2.0000     -10.323620      -280.9200
  37   2.0000     -10.323183      -280.9081
  38   2.0000     -10.322695      -280.8948
  39   2.0000     -10.318550      -280.7820
  40   2.0000     -10.317874      -280.7636
  41   2.0000     -10.314760      -280.6789
  42   2.0000     -10.313219      -280.6370
  43   2.0000     -10.309807      -280.5441
  44   2.0000     -10.308523      -280.5092
  45   2.0000     -10.306180      -280.4454
  46   2.0000     -10.306088      -280.4429
  47   2.0000     -10.305768      -280.4342
  48   2.0000     -10.305149      -280.4174
  49   2.0000     -10.303496      -280.3724
  50   2.0000     -10.303071      -280.3608
  51   2.0000     -10.303039      -280.3599
  52   2.0000     -10.302348      -280.3411
  53   2.0000     -10.299815      -280.2722
  54   2.0000     -10.299468      -280.2628
  55   2.0000     -10.298000      -280.2228
  56   2.0000     -10.295314      -280.1497
  57   2.0000     -10.295093      -280.1437
  58   2.0000     -10.294215      -280.1198
  59   2.0000     -10.292027      -280.0603
  60   2.0000     -10.290745      -280.0254
  61   2.0000     -10.289989      -280.0048
  62   2.0000     -10.288412      -279.9619
  63   2.0000     -10.284817      -279.8641
  64   2.0000     -10.284697      -279.8608
  65   2.0000     -10.284695      -279.8608
  66   2.0000     -10.284207      -279.8475
  67   2.0000     -10.282695      -279.8064
  68   2.0000     -10.282050      -279.7888
  69   2.0000     -10.281080      -279.7624
  70   2.0000     -10.280996      -279.7601
  71   2.0000     -10.278605      -279.6951
  72   2.0000     -10.276631      -279.6414
  73   2.0000     -10.270823      -279.4833
  74   2.0000     -10.265708      -279.3441
  75   2.0000     -10.264714      -279.3171
  76   2.0000     -10.258496      -279.1479
  77   2.0000      -8.791224      -239.2214
  78   2.0000      -8.780454      -238.9283
  79   2.0000      -8.072680      -219.6688
  80   2.0000      -8.069948      -219.5944
  81   2.0000      -8.067307      -219.5226
  82   2.0000      -8.055230      -219.1939
  83   2.0000      -8.051538      -219.0935
  84   2.0000      -8.046091      -218.9453
  85   2.0000      -6.627542      -180.3446
  86   2.0000      -6.616635      -180.0478
  87   2.0000      -6.612939      -179.9472
  88   2.0000      -6.612770      -179.9426
  89   2.0000      -6.602203      -179.6551
  90   2.0000      -6.602109      -179.6525
  91   2.0000      -6.042025      -164.4118
  92   2.0000      -6.039658      -164.3474
  93   2.0000      -6.037970      -164.3015
  94   2.0000      -6.036766      -164.2687
  95   2.0000      -6.035341      -164.2300
  96   2.0000      -6.034374      -164.2037
  97   2.0000      -6.032233      -164.1454
  98   2.0000      -6.031182      -164.1168
  99   2.0000      -6.029525      -164.0717
 100   2.0000      -6.024922      -163.9465
 101   2.0000      -6.021143      -163.8436
 102   2.0000      -6.020732      -163.8325
 103   2.0000      -6.017031      -163.7317
 104   2.0000      -6.016436      -163.7155
 105   2.0000      -6.015468      -163.6892
 106   2.0000      -6.012734      -163.6148
 107   2.0000      -6.011248      -163.5744
 108   2.0000      -6.008083      -163.4883
 109   2.0000      -2.743387       -74.6514
 110   2.0000      -2.739336       -74.5411
 111   2.0000      -2.739160       -74.5363
 112   2.0000      -2.732538       -74.3561
 113   2.0000      -2.728449       -74.2449
 114   2.0000      -2.728387       -74.2432
 115   2.0000      -2.727593       -74.2216
 116   2.0000      -2.727567       -74.2209
 117   2.0000      -2.716923       -73.9312
 118   2.0000      -2.716911       -73.9309
 119   2.0000      -1.135217       -30.8908
 120   2.0000      -1.098484       -29.8913
 121   2.0000      -1.083489       -29.4832
 122   2.0000      -1.070323       -29.1250
 123   2.0000      -1.021295       -27.7909
 124   2.0000      -1.011875       -27.5345
 125   2.0000      -1.002604       -27.2822
 126   2.0000      -1.000378       -27.2217
 127   2.0000      -0.992542       -27.0085
 128   2.0000      -0.992506       -27.0075
 129   2.0000      -0.987572       -26.8732
 130   2.0000      -0.986959       -26.8565
 131   2.0000      -0.975829       -26.5537
 132   2.0000      -0.965148       -26.2630
 133   2.0000      -0.960580       -26.1387
 134   2.0000      -0.944255       -25.6945
 135   2.0000      -0.939423       -25.5630
 136   2.0000      -0.925922       -25.1956
 137   2.0000      -0.919870       -25.0309
 138   2.0000      -0.913638       -24.8614
 139   2.0000      -0.906921       -24.6786
 140   2.0000      -0.898068       -24.4377
 141   2.0000      -0.890244       -24.2248
 142   2.0000      -0.885099       -24.0848
 143   2.0000      -0.884138       -24.0586
 144   2.0000      -0.880819       -23.9683
 145   2.0000      -0.866684       -23.5837
 146   2.0000      -0.863940       -23.5090
 147   2.0000      -0.861383       -23.4394
 148   2.0000      -0.850923       -23.1548
 149   2.0000      -0.846972       -23.0473
 150   2.0000      -0.835992       -22.7485
 151   2.0000      -0.827928       -22.5291
 152   2.0000      -0.823950       -22.4208
 153   2.0000      -0.821823       -22.3629
 154   2.0000      -0.818134       -22.2626
 155   2.0000      -0.807753       -21.9801
 156   2.0000      -0.800137       -21.7728
 157   2.0000      -0.792878       -21.5753
 158   2.0000      -0.774025       -21.0623
 159   2.0000      -0.761099       -20.7106
 160   2.0000      -0.754113       -20.5205
 161   2.0000      -0.748524       -20.3684
 162   2.0000      -0.732425       -19.9303
 163   2.0000      -0.724740       -19.7212
 164   2.0000      -0.720870       -19.6159
 165   2.0000      -0.711852       -19.3705
 166   2.0000      -0.704043       -19.1580
 167   2.0000      -0.697478       -18.9793
 168   2.0000      -0.690548       -18.7908
 169   2.0000      -0.683928       -18.6106
 170   2.0000      -0.679690       -18.4953
 171   2.0000      -0.677301       -18.4303
 172   2.0000      -0.662665       -18.0320
 173   2.0000      -0.658111       -17.9081
 174   2.0000      -0.654973       -17.8227
 175   2.0000      -0.649829       -17.6828
 176   2.0000      -0.640584       -17.4312
 177   2.0000      -0.638276       -17.3684
 178   2.0000      -0.636444       -17.3185
 179   2.0000      -0.632463       -17.2102
 180   2.0000      -0.623517       -16.9667
 181   2.0000      -0.619716       -16.8633
 182   2.0000      -0.614110       -16.7108
 183   2.0000      -0.606283       -16.4978
 184   2.0000      -0.603341       -16.4177
 185   2.0000      -0.599528       -16.3140
 186   2.0000      -0.598235       -16.2788
 187   2.0000      -0.591668       -16.1001
 188   2.0000      -0.589473       -16.0404
 189   2.0000      -0.586369       -15.9559
 190   2.0000      -0.575350       -15.6561
 191   2.0000      -0.571360       -15.5475
 192   2.0000      -0.566196       -15.4070
 193   2.0000      -0.563841       -15.3429
 194   2.0000      -0.555568       -15.1178
 195   2.0000      -0.554693       -15.0940
 196   2.0000      -0.550129       -14.9698
 197   2.0000      -0.547114       -14.8877
 198   2.0000      -0.543544       -14.7906
 199   2.0000      -0.540618       -14.7110
 200   2.0000      -0.538324       -14.6485
 201   2.0000      -0.534570       -14.5464
 202   2.0000      -0.529305       -14.4031
 203   2.0000      -0.527983       -14.3672
 204   2.0000      -0.526552       -14.3282
 205   2.0000      -0.521450       -14.1894
 206   2.0000      -0.519341       -14.1320
 207   2.0000      -0.516483       -14.0542
 208   2.0000      -0.514946       -14.0124
 209   2.0000      -0.510931       -13.9031
 210   2.0000      -0.507504       -13.8099
 211   2.0000      -0.507401       -13.8071
 212   2.0000      -0.504759       -13.7352
 213   2.0000      -0.502720       -13.6797
 214   2.0000      -0.500465       -13.6183
 215   2.0000      -0.497733       -13.5440
 216   2.0000      -0.494688       -13.4612
 217   2.0000      -0.493358       -13.4249
 218   2.0000      -0.490666       -13.3517
 219   2.0000      -0.489105       -13.3092
 220   2.0000      -0.487830       -13.2745
 221   2.0000      -0.484726       -13.1901
 222   2.0000      -0.481739       -13.1088
 223   2.0000      -0.480684       -13.0801
 224   2.0000      -0.476927       -12.9778
 225   2.0000      -0.474133       -12.9018
 226   2.0000      -0.473859       -12.8944
 227   2.0000      -0.470163       -12.7938
 228   2.0000      -0.462316       -12.5803
 229   2.0000      -0.461425       -12.5560
 230   2.0000      -0.460740       -12.5374
 231   2.0000      -0.459620       -12.5069
 232   2.0000      -0.457449       -12.4478
 233   2.0000      -0.454925       -12.3791
 234   2.0000      -0.448455       -12.2031
 235   2.0000      -0.446098       -12.1389
 236   2.0000      -0.444121       -12.0851
 237   2.0000      -0.442929       -12.0527
 238   2.0000      -0.441053       -12.0017
 239   2.0000      -0.438057       -11.9201
 240   2.0000      -0.436593       -11.8803
 241   2.0000      -0.436270       -11.8715
 242   2.0000      -0.433055       -11.7840
 243   2.0000      -0.429848       -11.6968
 244   2.0000      -0.427766       -11.6401
 245   2.0000      -0.426914       -11.6169
 246   2.0000      -0.425506       -11.5786
 247   2.0000      -0.425095       -11.5674
 248   2.0000      -0.422253       -11.4901
 249   2.0000      -0.421387       -11.4665
 250   2.0000      -0.414011       -11.2658
 251   2.0000      -0.411445       -11.1960
 252   2.0000      -0.411102       -11.1867
 253   2.0000      -0.410004       -11.1568
 254   2.0000      -0.405990       -11.0475
 255   2.0000      -0.404657       -11.0113
 256   2.0000      -0.397131       -10.8065
 257   2.0000      -0.392395       -10.6776
 258   2.0000      -0.386728       -10.5234
 259   2.0000      -0.385275       -10.4839
 260   2.0000      -0.383355       -10.4316
 261   2.0000      -0.381997       -10.3947
 262   2.0000      -0.373579       -10.1656
 263   2.0000      -0.372973       -10.1491
 264   2.0000      -0.369926       -10.0662
 265   2.0000      -0.364603        -9.9214
 266   2.0000      -0.363382        -9.8881
 267   2.0000      -0.360719        -9.8157
 268   2.0000      -0.347312        -9.4508
 269   2.0000      -0.343599        -9.3498
 270   2.0000      -0.335910        -9.1406
 271   2.0000      -0.335780        -9.1370
 272   2.0000      -0.326078        -8.8730
 273   2.0000      -0.322866        -8.7856
 274   2.0000      -0.320445        -8.7198
 275   2.0000      -0.313782        -8.5385
 276   2.0000      -0.313375        -8.5274
 277   2.0000      -0.303352        -8.2546
 278   2.0000      -0.293732        -7.9929
 279   2.0000      -0.292428        -7.9574
 280   2.0000      -0.273451        -7.4410
 281   2.0000      -0.267154        -7.2696
 282   2.0000      -0.259453        -7.0601
 283   2.0000      -0.215701        -5.8695
 284   0.0000      -0.097421        -2.6510
 285   0.0000      -0.089448        -2.4340
 286   0.0000      -0.062606        -1.7036
 287   0.0000      -0.041166        -1.1202
 288   0.0000      -0.039023        -1.0619

MULLIKEN ATOMIC CHARGES
-----------------------
   0 C :    0.332062
   1 C :   -0.362876
   2 C :   -0.186107
   3 N :    0.149287
   4 C :   -0.186076
   5 N :    0.140515
   6 C :    0.011880
   7 C :   -0.010824
   8 C :   -0.074101
   9 C :    0.120299
  10 C :   -0.090495
  11 C :   -0.023989
  12 S :    0.187202
  13 C :   -0.121370
  14 C :    0.035167
  15 Br:    0.022624
  16 C :    0.164742
  17 O :   -0.185837
  18 C :   -0.102158
  19 C :   -0.032868
  20 C :   -0.145028
  21 S :    0.221785
  22 C :   -0.146137
  23 C :    0.102857
  24 C :   -0.027892
  25 S :    0.135074
  26 C :    0.017167
  27 N :   -0.048681
  28 C :    0.018727
  29 C :    0.020671
  30 C :    0.021236
  31 C :   -0.198204
  32 C :    0.086734
  33 C :    0.184260
  34 N :   -0.125269
  35 C :    0.067883
  36 C :   -0.036797
  37 C :    0.030916
  38 C :   -0.063436
  39 C :    0.066250
  40 C :    0.005398
  41 C :   -0.007754
  42 S :    0.109556
  43 C :   -0.074688
  44 C :    0.044778
  45 C :    0.033346
  46 C :   -0.023616
  47 S :    0.115102
  48 C :   -0.001034
  49 C :    0.024766
  50 C :   -0.155681
  51 C :    0.287829
  52 C :   -0.402277
  53 C :   -0.160336
  54 N :    0.105737
  55 C :   -0.209386
  56 N :    0.153296
  57 C :    0.016602
  58 C :    0.008211
  59 C :    0.130401
  60 O :   -0.159427
  61 C :   -0.088185
  62 C :    0.113056
  63 C :   -0.082852
  64 C :   -0.046118
  65 S :    0.148681
  66 C :   -0.125513
  67 C :    0.039224
  68 Br:    0.000841
  69 H :   -0.010012
  70 H :   -0.007107
  71 H :   -0.003206
  72 H :    0.002134
  73 H :    0.049587
  74 H :   -0.018028
  75 H :    0.021445
  76 H :   -0.010519
  77 H :    0.039632
  78 H :    0.054001
  79 H :    0.004554
  80 H :    0.021814
  81 H :    0.023516
  82 H :    0.139448
  83 H :    0.011030
  84 H :    0.017048
  85 H :   -0.009366
  86 H :   -0.008251
  87 H :   -0.010035
  88 H :   -0.015764
  89 H :   -0.013791
  90 H :   -0.012025
  91 H :    0.017224
  92 H :   -0.017152
  93 H :   -0.027521
  94 H :   -0.007811
Sum of atomic charges:   -0.0000000

LOEWDIN ATOMIC CHARGES
----------------------
   0 C :    0.077705
   1 C :   -0.147787
   2 C :   -0.018368
   3 N :   -0.057373
   4 C :   -0.020784
   5 N :   -0.058384
   6 C :   -0.019784
   7 C :   -0.050175
   8 C :    0.021768
   9 C :   -0.033278
  10 C :   -0.144208
  11 C :   -0.009594
  12 S :    0.433318
  13 C :   -0.271955
  14 C :   -0.070174
  15 Br:    0.136196
  16 C :    0.085134
  17 O :   -0.172008
  18 C :   -0.114558
  19 C :    0.051313
  20 C :   -0.212788
  21 S :    0.529931
  22 C :   -0.149360
  23 C :   -0.079121
  24 C :   -0.174381
  25 S :    0.414854
  26 C :   -0.093359
  27 N :   -0.082708
  28 C :   -0.045222
  29 C :    0.007076
  30 C :   -0.046558
  31 C :   -0.028378
  32 C :   -0.054373
  33 C :    0.047785
  34 N :    0.031133
  35 C :    0.074241
  36 C :   -0.121119
  37 C :    0.011152
  38 C :   -0.189762
  39 C :    0.000715
  40 C :   -0.061204
  41 C :   -0.126107
  42 S :    0.412581
  43 C :   -0.220554
  44 C :   -0.018955
  45 C :   -0.051350
  46 C :   -0.112637
  47 S :    0.479401
  48 C :   -0.078971
  49 C :    0.032434
  50 C :   -0.125313
  51 C :    0.033216
  52 C :   -0.189966
  53 C :   -0.014254
  54 N :   -0.105930
  55 C :   -0.033920
  56 N :   -0.074504
  57 C :   -0.007336
  58 C :   -0.051471
  59 C :    0.081449
  60 O :   -0.159431
  61 C :    0.016641
  62 C :   -0.044484
  63 C :   -0.145909
  64 C :   -0.030356
  65 S :    0.405391
  66 C :   -0.281569
  67 C :   -0.068169
  68 Br:    0.118758
  69 H :    0.041000
  70 H :    0.041036
  71 H :    0.038878
  72 H :    0.045628
  73 H :    0.023317
  74 H :    0.029696
  75 H :    0.036041
  76 H :    0.030096
  77 H :    0.040107
  78 H :    0.041633
  79 H :    0.026806
  80 H :    0.032228
  81 H :    0.030755
  82 H :    0.092322
  83 H :    0.031641
  84 H :    0.027115
  85 H :    0.035702
  86 H :    0.035482
  87 H :    0.033102
  88 H :    0.031794
  89 H :    0.033148
  90 H :    0.037180
  91 H :    0.043265
  92 H :    0.037834
  93 H :    0.033056
  94 H :    0.036898

  Mayer bond orders larger than 0.100000
B(  0-C ,  1-C ) :   1.6113 B(  0-C ,  6-C ) :   0.9958 B(  0-C , 18-C ) :   1.0891
B(  1-C ,  2-C ) :   1.1477 B(  1-C ,  4-C ) :   1.1499 B(  2-C ,  3-N ) :   2.9665
B(  4-C ,  5-N ) :   2.9513 B(  6-C ,  7-C ) :   1.2770 B(  6-C , 11-C ) :   1.4144
B(  7-C ,  8-C ) :   1.4229 B(  7-C , 16-C ) :   0.9580 B(  8-C ,  9-C ) :   1.2398
B(  8-C , 69-H ) :   1.0179 B(  9-C , 10-C ) :   1.3106 B(  9-C , 14-C ) :   1.1614
B( 10-C , 11-C ) :   1.3236 B( 10-C , 12-S ) :   1.0878 B( 11-C , 70-H ) :   0.9804
B( 12-S , 13-C ) :   1.0869 B( 13-C , 14-C ) :   1.6181 B( 13-C , 15-Br) :   1.0178
B( 14-C , 71-H ) :   1.0009 B( 16-C , 17-O ) :   2.1194 B( 16-C , 18-C ) :   0.9859
B( 18-C , 19-C ) :   1.4913 B( 19-C , 20-C ) :   1.3107 B( 19-C , 72-H ) :   0.9367
B( 20-C , 21-S ) :   1.0748 B( 20-C , 24-C ) :   1.3799 B( 21-S , 22-C ) :   1.1519
B( 22-C , 23-C ) :   1.3332 B( 22-C , 28-C ) :   1.1517 B( 23-C , 24-C ) :   1.3071
B( 23-C , 27-N ) :   1.2895 B( 24-C , 25-S ) :   1.1013 B( 25-S , 26-C ) :   1.0893
B( 25-S , 27-N ) :   0.1019 B( 26-C , 27-N ) :   1.7803 B( 26-C , 73-H ) :   0.9634
B( 28-C , 29-C ) :   1.7014 B( 28-C , 74-H ) :   0.9533 B( 29-C , 30-C ) :   1.0926
B( 29-C , 75-H ) :   0.9388 B( 30-C , 31-C ) :   1.8186 B( 30-C , 76-H ) :   0.9514
B( 31-C , 32-C ) :   1.0812 B( 31-C , 33-C ) :   1.0433 B( 32-C , 77-H ) :   0.9415
B( 32-C , 78-H ) :   0.9357 B( 32-C , 79-H ) :   0.9453 B( 33-C , 34-N ) :   0.9981
B( 33-C , 80-H ) :   0.9440 B( 33-C , 81-H ) :   0.9342 B( 34-N , 35-C ) :   1.2969
B( 34-N , 82-H ) :   0.9302 B( 35-C , 36-C ) :   1.5113 B( 35-C , 83-H ) :   0.9688
B( 36-C , 37-C ) :   1.2384 B( 36-C , 84-H ) :   0.9600 B( 37-C , 38-C ) :   1.5121
B( 37-C , 85-H ) :   0.9807 B( 38-C , 39-C ) :   1.1877 B( 38-C , 42-S ) :   1.0268
B( 39-C , 40-C ) :   1.5325 B( 39-C , 86-H ) :   0.9982 B( 40-C , 41-C ) :   1.2333
B( 40-C , 87-H ) :   0.9972 B( 41-C , 42-S ) :   1.1232 B( 41-C , 43-C ) :   1.3924
B( 43-C , 44-C ) :   1.2492 B( 43-C , 47-S ) :   1.0447 B( 44-C , 45-C ) :   1.5142
B( 44-C , 88-H ) :   0.9924 B( 45-C , 46-C ) :   1.2212 B( 45-C , 89-H ) :   0.9977
B( 46-C , 47-S ) :   1.1314 B( 46-C , 48-C ) :   1.3697 B( 48-C , 49-C ) :   1.4203
B( 48-C , 90-H ) :   0.9554 B( 49-C , 50-C ) :   1.3800 B( 49-C , 91-H ) :   0.9302
B( 50-C , 51-C ) :   1.1868 B( 50-C , 59-C ) :   0.9797 B( 51-C , 52-C ) :   1.4940
B( 51-C , 57-C ) :   0.9970 B( 52-C , 53-C ) :   1.1649 B( 52-C , 55-C ) :   1.1680
B( 53-C , 54-N ) :   2.9451 B( 55-C , 56-N ) :   3.0149 B( 57-C , 58-C ) :   1.2826
B( 57-C , 64-C ) :   1.4401 B( 58-C , 59-C ) :   0.9090 B( 58-C , 61-C ) :   1.4396
B( 59-C , 60-O ) :   2.2446 B( 61-C , 62-C ) :   1.2343 B( 61-C , 92-H ) :   1.0164
B( 62-C , 63-C ) :   1.3366 B( 62-C , 67-C ) :   1.1567 B( 63-C , 64-C ) :   1.3001
B( 63-C , 65-S ) :   1.0731 B( 64-C , 93-H ) :   0.9820 B( 65-S , 66-C ) :   1.0792
B( 66-C , 67-C ) :   1.6291 B( 66-C , 68-Br) :   1.0048 B( 67-C , 94-H ) :   0.9997

-----------------------------------------------------------------------------
         ABSORPTION SPECTRUM VIA TRANSITION ELECTRIC DIPOLE MOMENTS
-----------------------------------------------------------------------------
State   Energy  Wavelength   fosc         T2         TX        TY        TZ
        (cm-1)    (nm)                  (au**2)     (au)      (au)      (au)
-----------------------------------------------------------------------------
   0   12144.6    823.4   0.552819361  14.98560  -0.35704  -3.67451  -1.16451
   1   16472.6    607.1   0.100486245   2.00826   0.94053   0.46928  -0.95049
   2   19807.8    504.9   1.107694981  18.41023   1.23537   1.22275  -3.92288
   3   21143.4    473.0   0.045690437   0.71142   0.38785  -0.74370  -0.08891
   4   22937.5    436.0   0.202928820   2.91254   0.96911  -1.39993   0.11650
   5   24060.6    415.6   0.036943196   0.50548   0.28885  -0.23783   0.60455
   6   24483.9    408.4   0.061149743   0.82222  -0.86849   0.21173  -0.15203
   7   25674.8    389.5   0.023048863   0.29554   0.46303   0.02600  -0.28368
   8   26119.9    382.9   0.617678837   7.78516  -2.21135   1.23872  -1.16648
   9   26902.4    371.7   0.372203198   4.55475  -1.60699   1.21274  -0.70823
  10   27701.4    361.0   0.553489847   6.57785  -1.82326   1.30252  -1.24780
  11   27812.2    359.6   0.089109764   1.05479  -0.70801   0.09169  -0.73831
  12   28623.5    349.4   0.041332203   0.47538   0.22049  -0.50750   0.41135
  13   29044.3    344.3   0.001845935   0.02092   0.08329   0.08229   0.08494
  14   29256.3    341.8   0.019418524   0.21851   0.04916  -0.21557   0.41185
  15   29545.4    338.5   0.006962427   0.07758  -0.18528   0.00710  -0.20785
  16   29741.3    336.2   0.014932845   0.16529  -0.04794  -0.14390   0.37721
  17   30112.8    332.1   0.006285409   0.06872  -0.11400   0.14803   0.18386
  18   30949.2    323.1   0.015657549   0.16655  -0.13253  -0.20105   0.32950
  19   31242.0    320.1   0.102699999   1.08220  -0.84679  -0.00846  -0.60421
  20   31516.9    317.3   0.027345442   0.28564  -0.31639  -0.29308  -0.31567
  21   31982.7    312.7   0.101292129   1.04264  -0.89431  -0.01257  -0.49264
  22   32042.8    312.1   0.273860555   2.81368   0.80158  -0.37778   1.42423
  23   32396.7    308.7   0.306775904   3.11743  -0.40232  -0.01457  -1.71911
  24   32898.3    304.0   0.001837649   0.01839   0.11387  -0.06923   0.02510
  25   33146.7    301.7   0.990312669   9.83575  -3.05923   0.47889  -0.49754
  26   33223.7    301.0   0.080312089   0.79581  -0.44036  -0.06206   0.77333
  27   33616.9    297.5   0.101816949   0.99710   0.29512  -0.10217   0.94845
  28   33968.7    294.4   0.044933407   0.43548   0.19296   0.47357  -0.41711
  29   34662.5    288.5   0.095907965   0.91090   0.14800  -0.51296   0.79112
  30   34730.8    287.9   0.013311843   0.12618  -0.26979  -0.10155  -0.20757
  31   35363.5    282.8   0.029582344   0.27539  -0.15017  -0.28629  -0.41338
  32   35855.5    278.9   0.001068300   0.00981  -0.03582   0.03254   0.08641
  33   36194.4    276.3   0.000854699   0.00777   0.07518   0.02810   0.03650
  34   36479.9    274.1   0.032020624   0.28897  -0.20732  -0.37336  -0.32648
  35   36620.8    273.1   0.013222267   0.11887   0.25929   0.15968  -0.16168
  36   37365.4    267.6   0.211574388   1.86410  -0.21496  -0.78055  -1.09938
  37   37443.0    267.1   0.001253734   0.01102  -0.00624   0.06819  -0.07959
  38   37586.2    266.1   0.033514207   0.29355   0.09518   0.39869   0.35431
  39   37745.0    264.9   0.077712068   0.67780  -0.29956  -0.44728   0.62291
  40   37982.6    263.3   0.017033191   0.14763   0.36776   0.10606   0.03371
  41   38127.3    262.3   0.025830645   0.22304  -0.00292  -0.37057  -0.29275
  42   38778.2    257.9   0.101208555   0.85922  -0.17526  -0.90238  -0.11926
  43   38986.6    256.5   0.002763999   0.02334  -0.04202   0.14119   0.04048
  44   39088.9    255.8   0.012119198   0.10207  -0.09043  -0.29188   0.09327
  45   39183.7    255.2   0.088024948   0.73956   0.29596   0.24266  -0.77012
  46   39523.0    253.0   0.059860312   0.49861   0.36649   0.34583  -0.49468
  47   39603.2    252.5   0.060336391   0.50156  -0.04443   0.34920   0.61453
  48   39797.3    251.3   0.038517999   0.31863  -0.15820  -0.54163   0.01543
  49   39917.2    250.5   0.060697181   0.50059   0.07159  -0.04405   0.70251
  50   40007.5    250.0   0.024887397   0.20479   0.24105   0.15864  -0.34860
  51   40068.0    249.6   0.023352771   0.19187  -0.38074  -0.04338   0.21221
  52   40116.9    249.3   0.024376219   0.20004  -0.36254   0.02267   0.26094

FINAL SINGLE POINT ENERGY    -10047.246094971915

DIPOLE MOMENT
-------------
                                X             Y             Z
Electronic contribution:     27.30141      45.45160     -39.75892
Nuclear contribution   :    -29.77477     -50.37240      40.87162
                        -----------------------------------------
Total Dipole Moment    :     -2.47336      -4.92080       1.11270
                        -----------------------------------------
Magnitude (a.u.)       :      5.61871
Magnitude (Debye)      :     14.28163

Rotational constants in cm-1:     0.000767     0.000290     0.000243
Rotational constants in MHz :    22.999115     8.682767     7.273839

                             ****ORCA TERMINATED NORMALLY****
TOTAL RUN TIME: 0 days 0 hours 10 minutes 5 seconds 398 msec
