                         Program Version 4.2.0 -  RELEASE  -
|  1> # ORCA input file
|  2> # SCF done       -177.361067138213          0.000901172973
|  3> ! CAM-B3LYP def2-SVP def2/J RIJCOSX Grid4 TightSCF
|  4> %maxcore 5000
|  5> %tddft
|  6>     Mode sTDDFT
|  7>     Ethresh 5.0
|  8>     maxcore 5000
|  9> end
| 10>
| 11> %pal
| 12>   nprocs 6
| 13>   end
| 14> * xyz 0 1
| 15>    C       -3.69935        -1.48430        -3.60518
| 16>    C       -4.54772        -2.20787        -4.39853
| 17>    C       -4.32160        -3.54653        -4.78474
| 18>    N       -4.18679        -4.63211        -5.13098
| 19>    C       -5.77291        -1.73079        -4.91251
| 20>    N       -6.78810        -1.42127        -5.34930
| 21>    C       -2.46991        -1.97043        -2.99623
| 22>    C       -1.93876        -0.96026        -2.15453
| 23>    C       -0.77712        -1.12774        -1.43927
| 24>    C       -0.10689        -2.34934        -1.55709
| 25>    C       -0.64263        -3.35160        -2.40257
| 26>    C       -1.81567        -3.18274        -3.12659
| 27>    S        0.34776        -4.77834        -2.40859
| 28>    C        1.45113        -4.02248        -1.28956
| 29>    C        1.09875        -2.76499        -0.92967
| 30>   Br        2.96356        -4.96230        -0.70390
| 31>    C       -2.79703         0.23499        -2.21547
| 32>    O       -2.60315         1.29824        -1.66817
| 33>    C       -3.89665        -0.11137        -3.16143
| 34>    C       -4.80913         0.78102        -3.60287
| 35>    C       -4.95752         2.10007        -3.02561
| 36>    N       -4.92393         3.15683        -3.81122
| 37>    N       -5.02191         4.37547        -3.37092
| 38>    C       -5.09677         4.68706        -2.08961
| 39>    C       -5.17080         3.62888        -1.13924
| 40>    C       -5.13951         2.28519        -1.62801
| 41>    N       -5.29684         1.38834        -0.65920
| 42>    S       -5.42583         2.17113         0.73745
| 43>    N       -5.31732         3.67752         0.18226
| 44>    C       -5.10843         6.05914        -1.64728
| 45>    C       -4.77931         7.13392        -2.37934
| 46>    C       -4.39014         7.08849        -3.81611
| 47>    C       -4.76497         8.50621        -1.74209
| 48>    N       -5.50299         9.46183        -2.52869
| 49>    C       -6.71207         9.95222        -2.22556
| 50>    C       -7.46489        10.67013        -3.10965
| 51>    C       -8.69037        11.27391        -2.80510
| 52>    C       -9.44800        11.95426        -3.72961
| 53>    C      -10.67039        12.63242        -3.53358
| 54>    C      -11.18166        13.20533        -4.66288
| 55>    C      -10.39398        12.99657        -5.81389
| 56>    S       -8.97213        12.07422        -5.42104
| 57>    C      -10.64083        13.40220        -7.11846
| 58>    C      -11.71460        14.15851        -7.61844
| 59>    C      -11.66412        14.35442        -8.97205
| 60>    C      -10.55668        13.75134        -9.60040
| 61>    S       -9.55479        12.95434        -8.41668
| 62>    C      -10.26398        13.74751       -10.95604
| 63>    C       -9.19542        13.04934       -11.49376
| 64>    C       -8.81710        12.93407       -12.81915
| 65>    C       -9.18679        13.66813       -13.99270
| 66>    C       -9.62241        14.97413       -14.05758
| 67>    C       -9.94130        15.63783       -15.25601
| 68>    N      -10.23704        16.22352       -16.19972
| 69>    C       -9.69351        15.84097       -12.95114
| 70>    N       -9.72744        16.60933       -12.09725
| 71>    C       -8.82004        12.85244       -15.15265
| 72>    C       -8.06906        11.73943       -14.70111
| 73>    C       -7.98398        11.78571       -13.22404
| 74>    O       -7.38850        11.01652       -12.49727
| 75>    C       -7.56297        10.79363       -15.55657
| 76>    C       -7.82118        10.94577       -16.92425
| 77>    C       -8.57814        12.05505       -17.36342
| 78>    C       -9.08183        13.02000       -16.49721
| 79>    S       -8.79086        12.04090       -19.08900
| 80>    C       -7.87017        10.56377       -19.19310
| 81>    C       -7.42557        10.10382       -18.00064
| 82>   Br       -7.58688         9.76546       -20.86792
| 83>    H       -0.39635        -0.33892        -0.80957
| 84>    H       -2.17948        -3.97294        -3.76187
| 85>    H        1.66548        -2.15450        -0.25066
| 86>    H       -5.45304         0.55797        -4.44242
| 87>    H       -5.35521         6.17278        -0.60012
| 88>    H       -3.95659         6.12064        -4.05634
| 89>    H       -3.68806         7.88474        -4.05806
| 90>    H       -5.27172         7.18937        -4.44905
| 91>    H       -3.72353         8.84761        -1.66642
| 92>    H       -5.18941         8.47224        -0.73726
| 93>    H       -5.18891         9.58477        -3.48155
| 94>    H       -7.05650         9.77946        -1.21499
| 95>    H       -7.09506        10.79267        -4.11966
| 96>    H       -9.06760        11.20961        -1.79317
| 97>    H      -11.13668        12.68088        -2.56511
| 98>    H      -12.10192        13.75995        -4.69746
| 99>    H      -12.49332        14.53858        -6.98159
|100>    H      -12.39236        14.91115        -9.53420
|101>    H      -10.94671        14.28348       -11.59830
|102>    H       -8.62953        12.41600       -10.81559
|103>    H       -6.98925         9.95889       -15.18533
|104>    H       -9.65813        13.84613       -16.87953
|105>    H       -6.84497         9.20726       -17.88094
|106> *
|107>
|108>                          ****END OF INPUT****

CARTESIAN COORDINATES (ANGSTROEM)
---------------------------------
  C     -3.699350   -1.484300   -3.605180
  C     -4.547720   -2.207870   -4.398530
  C     -4.321600   -3.546530   -4.784740
  N     -4.186790   -4.632110   -5.130980
  C     -5.772910   -1.730790   -4.912510
  N     -6.788100   -1.421270   -5.349300
  C     -2.469910   -1.970430   -2.996230
  C     -1.938760   -0.960260   -2.154530
  C     -0.777120   -1.127740   -1.439270
  C     -0.106890   -2.349340   -1.557090
  C     -0.642630   -3.351600   -2.402570
  C     -1.815670   -3.182740   -3.126590
  S      0.347760   -4.778340   -2.408590
  C      1.451130   -4.022480   -1.289560
  C      1.098750   -2.764990   -0.929670
  Br     2.963560   -4.962300   -0.703900
  C     -2.797030    0.234990   -2.215470
  O     -2.603150    1.298240   -1.668170
  C     -3.896650   -0.111370   -3.161430
  C     -4.809130    0.781020   -3.602870
  C     -4.957520    2.100070   -3.025610
  N     -4.923930    3.156830   -3.811220
  N     -5.021910    4.375470   -3.370920
  C     -5.096770    4.687060   -2.089610
  C     -5.170800    3.628880   -1.139240
  C     -5.139510    2.285190   -1.628010
  N     -5.296840    1.388340   -0.659200
  S     -5.425830    2.171130    0.737450
  N     -5.317320    3.677520    0.182260
  C     -5.108430    6.059140   -1.647280
  C     -4.779310    7.133920   -2.379340
  C     -4.390140    7.088490   -3.816110
  C     -4.764970    8.506210   -1.742090
  N     -5.502990    9.461830   -2.528690
  C     -6.712070    9.952220   -2.225560
  C     -7.464890   10.670130   -3.109650
  C     -8.690370   11.273910   -2.805100
  C     -9.448000   11.954260   -3.729610
  C    -10.670390   12.632420   -3.533580
  C    -11.181660   13.205330   -4.662880
  C    -10.393980   12.996570   -5.813890
  S     -8.972130   12.074220   -5.421040
  C    -10.640830   13.402200   -7.118460
  C    -11.714600   14.158510   -7.618440
  C    -11.664120   14.354420   -8.972050
  C    -10.556680   13.751340   -9.600400
  S     -9.554790   12.954340   -8.416680
  C    -10.263980   13.747510  -10.956040
  C     -9.195420   13.049340  -11.493760
  C     -8.817100   12.934070  -12.819150
  C     -9.186790   13.668130  -13.992700
  C     -9.622410   14.974130  -14.057580
  C     -9.941300   15.637830  -15.256010
  N    -10.237040   16.223520  -16.199720
  C     -9.693510   15.840970  -12.951140
  N     -9.727440   16.609330  -12.097250
  C     -8.820040   12.852440  -15.152650
  C     -8.069060   11.739430  -14.701110
  C     -7.983980   11.785710  -13.224040
  O     -7.388500   11.016520  -12.497270
  C     -7.562970   10.793630  -15.556570
  C     -7.821180   10.945770  -16.924250
  C     -8.578140   12.055050  -17.363420
  C     -9.081830   13.020000  -16.497210
  S     -8.790860   12.040900  -19.089000
  C     -7.870170   10.563770  -19.193100
  C     -7.425570   10.103820  -18.000640
  Br    -7.586880    9.765460  -20.867920
  H     -0.396350   -0.338920   -0.809570
  H     -2.179480   -3.972940   -3.761870
  H      1.665480   -2.154500   -0.250660
  H     -5.453040    0.557970   -4.442420
  H     -5.355210    6.172780   -0.600120
  H     -3.956590    6.120640   -4.056340
  H     -3.688060    7.884740   -4.058060
  H     -5.271720    7.189370   -4.449050
  H     -3.723530    8.847610   -1.666420
  H     -5.189410    8.472240   -0.737260
  H     -5.188910    9.584770   -3.481550
  H     -7.056500    9.779460   -1.214990
  H     -7.095060   10.792670   -4.119660
  H     -9.067600   11.209610   -1.793170
  H    -11.136680   12.680880   -2.565110
  H    -12.101920   13.759950   -4.697460
  H    -12.493320   14.538580   -6.981590
  H    -12.392360   14.911150   -9.534200
  H    -10.946710   14.283480  -11.598300
  H     -8.629530   12.416000  -10.815590
  H     -6.989250    9.958890  -15.185330
  H     -9.658130   13.846130  -16.879530
  H     -6.844970    9.207260  -17.880940

 Total Charge           Charge          ....    0
 Multiplicity           Mult            ....    1
 Number of Electrons    NEL             ....  552
 Basis Dimension        Dim             .... 1123

ORBITAL ENERGIES
----------------

  NO   OCC          E(Eh)            E(eV)
   0   2.0000    -482.896616    -13140.2850
   1   2.0000    -482.867399    -13139.4899
   2   2.0000     -89.052978     -2423.2547
   3   2.0000     -88.988632     -2421.5038
   4   2.0000     -88.954817     -2420.5836
   5   2.0000     -88.953156     -2420.5384
   6   2.0000     -88.945500     -2420.3301
   7   2.0000     -62.574333     -1702.7342
   8   2.0000     -62.545134     -1701.9396
   9   2.0000     -56.408299     -1534.9479
  10   2.0000     -56.405553     -1534.8731
  11   2.0000     -56.405529     -1534.8725
  12   2.0000     -56.379057     -1534.1521
  13   2.0000     -56.376393     -1534.0796
  14   2.0000     -56.376345     -1534.0783
  15   2.0000     -19.236385      -523.4486
  16   2.0000     -19.179781      -521.9084
  17   2.0000     -14.471367      -393.7859
  18   2.0000     -14.468259      -393.7014
  19   2.0000     -14.465117      -393.6158
  20   2.0000     -14.458191      -393.4274
  21   2.0000     -14.451317      -393.2403
  22   2.0000     -14.430811      -392.6823
  23   2.0000     -14.429767      -392.6539
  24   2.0000     -14.383822      -391.4037
  25   2.0000     -14.380554      -391.3148
  26   2.0000     -10.386649      -282.6351
  27   2.0000     -10.371909      -282.2340
  28   2.0000     -10.361362      -281.9470
  29   2.0000     -10.357398      -281.8391
  30   2.0000     -10.351967      -281.6914
  31   2.0000     -10.349474      -281.6235
  32   2.0000     -10.349233      -281.6170
  33   2.0000     -10.348237      -281.5898
  34   2.0000     -10.348222      -281.5894
  35   2.0000     -10.342269      -281.4274
  36   2.0000     -10.340407      -281.3768
  37   2.0000     -10.336657      -281.2747
  38   2.0000     -10.332411      -281.1592
  39   2.0000     -10.332103      -281.1508
  40   2.0000     -10.331130      -281.1243
  41   2.0000     -10.330722      -281.1132
  42   2.0000     -10.327315      -281.0205
  43   2.0000     -10.324409      -280.9415
  44   2.0000     -10.322471      -280.8887
  45   2.0000     -10.322040      -280.8770
  46   2.0000     -10.320461      -280.8340
  47   2.0000     -10.316596      -280.7288
  48   2.0000     -10.315823      -280.7078
  49   2.0000     -10.311886      -280.6007
  50   2.0000     -10.309261      -280.5293
  51   2.0000     -10.309057      -280.5237
  52   2.0000     -10.308706      -280.5141
  53   2.0000     -10.307659      -280.4857
  54   2.0000     -10.306994      -280.4676
  55   2.0000     -10.304724      -280.4058
  56   2.0000     -10.303310      -280.3673
  57   2.0000     -10.300414      -280.2885
  58   2.0000     -10.299686      -280.2687
  59   2.0000     -10.293492      -280.1001
  60   2.0000     -10.290810      -280.0272
  61   2.0000     -10.289310      -279.9864
  62   2.0000     -10.288507      -279.9645
  63   2.0000     -10.284693      -279.8607
  64   2.0000     -10.281712      -279.7796
  65   2.0000     -10.281514      -279.7742
  66   2.0000     -10.279990      -279.7327
  67   2.0000     -10.279771      -279.7268
  68   2.0000     -10.277930      -279.6767
  69   2.0000     -10.277101      -279.6541
  70   2.0000     -10.275691      -279.6158
  71   2.0000     -10.274553      -279.5848
  72   2.0000     -10.273956      -279.5686
  73   2.0000     -10.263481      -279.2835
  74   2.0000     -10.259599      -279.1779
  75   2.0000     -10.254034      -279.0265
  76   2.0000      -8.803766      -239.5627
  77   2.0000      -8.774563      -238.7680
  78   2.0000      -8.144707      -221.6287
  79   2.0000      -8.084614      -219.9935
  80   2.0000      -8.051135      -219.0825
  81   2.0000      -8.049176      -219.0292
  82   2.0000      -8.041791      -218.8282
  83   2.0000      -6.640139      -180.6874
  84   2.0000      -6.625484      -180.2886
  85   2.0000      -6.625231      -180.2817
  86   2.0000      -6.610758      -179.8879
  87   2.0000      -6.596314      -179.4948
  88   2.0000      -6.596214      -179.4921
  89   2.0000      -6.115771      -166.4186
  90   2.0000      -6.107981      -166.2066
  91   2.0000      -6.107388      -166.1905
  92   2.0000      -6.054294      -164.7457
  93   2.0000      -6.050008      -164.6291
  94   2.0000      -6.045848      -164.5159
  95   2.0000      -6.020739      -163.8326
  96   2.0000      -6.018887      -163.7822
  97   2.0000      -6.016751      -163.7241
  98   2.0000      -6.014612      -163.6659
  99   2.0000      -6.012248      -163.6016
 100   2.0000      -6.011325      -163.5765
 101   2.0000      -6.010377      -163.5507
 102   2.0000      -6.007354      -163.4684
 103   2.0000      -6.003033      -163.3508
 104   2.0000      -2.755979       -74.9940
 105   2.0000      -2.751895       -74.8829
 106   2.0000      -2.751726       -74.8783
 107   2.0000      -2.740066       -74.5610
 108   2.0000      -2.740051       -74.5606
 109   2.0000      -2.726651       -74.1959
 110   2.0000      -2.722588       -74.0854
 111   2.0000      -2.722482       -74.0825
 112   2.0000      -2.711026       -73.7708
 113   2.0000      -2.711012       -73.7704
 114   2.0000      -1.157866       -31.5071
 115   2.0000      -1.150030       -31.2939
 116   2.0000      -1.131495       -30.7895
 117   2.0000      -1.093821       -29.7644
 118   2.0000      -1.072748       -29.1910
 119   2.0000      -1.037935       -28.2436
 120   2.0000      -1.027580       -27.9619
 121   2.0000      -1.010654       -27.5013
 122   2.0000      -1.008186       -27.4341
 123   2.0000      -1.004513       -27.3342
 124   2.0000      -1.000965       -27.2377
 125   2.0000      -0.996187       -27.1076
 126   2.0000      -0.982809       -26.7436
 127   2.0000      -0.976478       -26.5713
 128   2.0000      -0.966351       -26.2958
 129   2.0000      -0.961525       -26.1644
 130   2.0000      -0.958953       -26.0944
 131   2.0000      -0.956065       -26.0158
 132   2.0000      -0.939908       -25.5762
 133   2.0000      -0.926013       -25.1981
 134   2.0000      -0.922961       -25.1150
 135   2.0000      -0.916610       -24.9422
 136   2.0000      -0.909374       -24.7453
 137   2.0000      -0.902097       -24.5473
 138   2.0000      -0.900436       -24.5021
 139   2.0000      -0.889056       -24.1924
 140   2.0000      -0.880868       -23.9696
 141   2.0000      -0.868744       -23.6397
 142   2.0000      -0.862646       -23.4738
 143   2.0000      -0.859461       -23.3871
 144   2.0000      -0.849801       -23.1243
 145   2.0000      -0.847844       -23.0710
 146   2.0000      -0.843471       -22.9520
 147   2.0000      -0.825725       -22.4691
 148   2.0000      -0.823690       -22.4137
 149   2.0000      -0.817171       -22.2364
 150   2.0000      -0.804234       -21.8843
 151   2.0000      -0.801666       -21.8144
 152   2.0000      -0.792746       -21.5717
 153   2.0000      -0.780078       -21.2270
 154   2.0000      -0.773201       -21.0399
 155   2.0000      -0.770034       -20.9537
 156   2.0000      -0.754317       -20.5260
 157   2.0000      -0.746223       -20.3058
 158   2.0000      -0.732253       -19.9256
 159   2.0000      -0.728070       -19.8118
 160   2.0000      -0.722968       -19.6730
 161   2.0000      -0.707978       -19.2651
 162   2.0000      -0.706435       -19.2231
 163   2.0000      -0.702572       -19.1179
 164   2.0000      -0.687476       -18.7072
 165   2.0000      -0.684077       -18.6147
 166   2.0000      -0.674570       -18.3560
 167   2.0000      -0.672596       -18.3023
 168   2.0000      -0.666893       -18.1471
 169   2.0000      -0.660028       -17.9603
 170   2.0000      -0.650348       -17.6969
 171   2.0000      -0.644264       -17.5313
 172   2.0000      -0.639572       -17.4036
 173   2.0000      -0.635907       -17.3039
 174   2.0000      -0.635226       -17.2854
 175   2.0000      -0.627734       -17.0815
 176   2.0000      -0.619476       -16.8568
 177   2.0000      -0.617916       -16.8143
 178   2.0000      -0.615557       -16.7501
 179   2.0000      -0.609692       -16.5906
 180   2.0000      -0.604366       -16.4456
 181   2.0000      -0.600759       -16.3475
 182   2.0000      -0.595254       -16.1977
 183   2.0000      -0.594910       -16.1883
 184   2.0000      -0.592895       -16.1335
 185   2.0000      -0.582537       -15.8516
 186   2.0000      -0.574289       -15.6272
 187   2.0000      -0.571349       -15.5472
 188   2.0000      -0.567375       -15.4391
 189   2.0000      -0.563839       -15.3428
 190   2.0000      -0.558899       -15.2084
 191   2.0000      -0.556147       -15.1335
 192   2.0000      -0.553518       -15.0620
 193   2.0000      -0.550037       -14.9673
 194   2.0000      -0.545371       -14.8403
 195   2.0000      -0.542819       -14.7709
 196   2.0000      -0.539050       -14.6683
 197   2.0000      -0.533418       -14.5150
 198   2.0000      -0.528108       -14.3706
 199   2.0000      -0.523218       -14.2375
 200   2.0000      -0.521486       -14.1904
 201   2.0000      -0.521038       -14.1782
 202   2.0000      -0.517529       -14.0827
 203   2.0000      -0.513632       -13.9766
 204   2.0000      -0.509516       -13.8646
 205   2.0000      -0.508960       -13.8495
 206   2.0000      -0.507591       -13.8123
 207   2.0000      -0.506165       -13.7734
 208   2.0000      -0.502678       -13.6786
 209   2.0000      -0.502110       -13.6631
 210   2.0000      -0.501501       -13.6465
 211   2.0000      -0.496961       -13.5230
 212   2.0000      -0.495710       -13.4890
 213   2.0000      -0.489633       -13.3236
 214   2.0000      -0.487598       -13.2682
 215   2.0000      -0.484960       -13.1964
 216   2.0000      -0.481795       -13.1103
 217   2.0000      -0.477821       -13.0022
 218   2.0000      -0.474559       -12.9134
 219   2.0000      -0.472471       -12.8566
 220   2.0000      -0.472149       -12.8478
 221   2.0000      -0.468303       -12.7432
 222   2.0000      -0.466652       -12.6983
 223   2.0000      -0.465664       -12.6714
 224   2.0000      -0.462644       -12.5892
 225   2.0000      -0.462123       -12.5750
 226   2.0000      -0.462097       -12.5743
 227   2.0000      -0.457353       -12.4452
 228   2.0000      -0.456279       -12.4160
 229   2.0000      -0.453746       -12.3470
 230   2.0000      -0.451856       -12.2956
 231   2.0000      -0.448363       -12.2006
 232   2.0000      -0.443034       -12.0556
 233   2.0000      -0.442458       -12.0399
 234   2.0000      -0.440403       -11.9840
 235   2.0000      -0.437962       -11.9175
 236   2.0000      -0.436041       -11.8653
 237   2.0000      -0.433954       -11.8085
 238   2.0000      -0.428350       -11.6560
 239   2.0000      -0.424985       -11.5644
 240   2.0000      -0.422986       -11.5100
 241   2.0000      -0.421004       -11.4561
 242   2.0000      -0.418751       -11.3948
 243   2.0000      -0.415486       -11.3060
 244   2.0000      -0.412520       -11.2252
 245   2.0000      -0.409027       -11.1302
 246   2.0000      -0.403719       -10.9857
 247   2.0000      -0.399843       -10.8803
 248   2.0000      -0.398629       -10.8473
 249   2.0000      -0.398208       -10.8358
 250   2.0000      -0.394037       -10.7223
 251   2.0000      -0.390850       -10.6356
 252   2.0000      -0.389965       -10.6115
 253   2.0000      -0.387154       -10.5350
 254   2.0000      -0.385611       -10.4930
 255   2.0000      -0.384524       -10.4634
 256   2.0000      -0.379355       -10.3228
 257   2.0000      -0.377676       -10.2771
 258   2.0000      -0.367231        -9.9929
 259   2.0000      -0.359845        -9.7919
 260   2.0000      -0.357232        -9.7208
 261   2.0000      -0.354318        -9.6415
 262   2.0000      -0.347353        -9.4520
 263   2.0000      -0.344114        -9.3638
 264   2.0000      -0.336511        -9.1569
 265   2.0000      -0.329578        -8.9683
 266   2.0000      -0.323381        -8.7996
 267   2.0000      -0.314971        -8.5708
 268   2.0000      -0.312840        -8.5128
 269   2.0000      -0.312219        -8.4959
 270   2.0000      -0.306440        -8.3386
 271   2.0000      -0.302723        -8.2375
 272   2.0000      -0.290226        -7.8974
 273   2.0000      -0.272330        -7.4105
 274   2.0000      -0.265979        -7.2376
 275   2.0000      -0.208618        -5.6768
 276   0.0000      -0.111434        -3.0323
 277   0.0000      -0.091409        -2.4874
 278   0.0000      -0.087382        -2.3778
 279   0.0000      -0.067228        -1.8294
 280   0.0000      -0.042014        -1.1432

MULLIKEN ATOMIC CHARGES
-----------------------
   0 C :    0.298402
   1 C :   -0.331183
   2 C :   -0.185539
   3 N :    0.162673
   4 C :   -0.196782
   5 N :    0.178022
   6 C :    0.020776
   7 C :   -0.017320
   8 C :   -0.067102
   9 C :    0.120507
  10 C :   -0.089660
  11 C :   -0.019937
  12 S :    0.195580
  13 C :   -0.121783
  14 C :    0.036661
  15 Br:    0.033743
  16 C :    0.159948
  17 O :   -0.150443
  18 C :   -0.058389
  19 C :   -0.015004
  20 C :   -0.087720
  21 N :   -0.022593
  22 N :   -0.095599
  23 C :   -0.016603
  24 C :    0.031040
  25 C :    0.095023
  26 N :   -0.248569
  27 S :    0.536558
  28 N :   -0.258103
  29 C :   -0.020302
  30 C :   -0.171380
  31 C :    0.106065
  32 C :    0.207749
  33 N :   -0.140210
  34 C :    0.078375
  35 C :   -0.046036
  36 C :    0.028261
  37 C :   -0.056844
  38 C :    0.055886
  39 C :    0.007716
  40 C :   -0.018069
  41 S :    0.084052
  42 C :   -0.067304
  43 C :    0.039368
  44 C :    0.024194
  45 C :   -0.014845
  46 S :    0.096637
  47 C :   -0.003232
  48 C :    0.019628
  49 C :   -0.137332
  50 C :    0.289284
  51 C :   -0.357641
  52 C :   -0.180610
  53 N :    0.123780
  54 C :   -0.221953
  55 N :    0.151781
  56 C :    0.007130
  57 C :   -0.001263
  58 C :    0.132646
  59 O :   -0.167460
  60 C :   -0.082858
  61 C :    0.115019
  62 C :   -0.090553
  63 C :   -0.030882
  64 S :    0.171868
  65 C :   -0.125945
  66 C :    0.038177
  67 Br:    0.005607
  68 H :   -0.009089
  69 H :   -0.003328
  70 H :    0.000175
  71 H :    0.054109
  72 H :   -0.014072
  73 H :    0.056675
  74 H :    0.004640
  75 H :    0.047635
  76 H :    0.040613
  77 H :    0.016290
  78 H :    0.132378
  79 H :    0.012710
  80 H :    0.000357
  81 H :   -0.009944
  82 H :   -0.009561
  83 H :   -0.011380
  84 H :   -0.010520
  85 H :   -0.003959
  86 H :    0.001438
  87 H :    0.007854
  88 H :   -0.019057
  89 H :   -0.009016
  90 H :   -0.010056
Sum of atomic charges:   -0.0000000

LOEWDIN ATOMIC CHARGES
----------------------
   0 C :    0.072415
   1 C :   -0.121856
   2 C :   -0.017467
   3 N :   -0.040117
   4 C :   -0.022594
   5 N :   -0.034456
   6 C :   -0.020058
   7 C :   -0.051645
   8 C :    0.025277
   9 C :   -0.029740
  10 C :   -0.140867
  11 C :   -0.006946
  12 S :    0.439595
  13 C :   -0.268087
  14 C :   -0.070560
  15 Br:    0.144629
  16 C :    0.090581
  17 O :   -0.137156
  18 C :   -0.058580
  19 C :    0.077914
  20 C :   -0.018347
  21 N :   -0.032087
  22 N :   -0.051357
  23 C :    0.010171
  24 C :   -0.058351
  25 C :   -0.051654
  26 N :   -0.270035
  27 S :    0.675810
  28 N :   -0.273400
  29 C :   -0.061717
  30 C :    0.014513
  31 C :   -0.056665
  32 C :    0.047948
  33 N :    0.025728
  34 C :    0.074713
  35 C :   -0.128363
  36 C :    0.001721
  37 C :   -0.186822
  38 C :   -0.006692
  39 C :   -0.057648
  40 C :   -0.137487
  41 S :    0.389870
  42 C :   -0.212235
  43 C :   -0.007015
  44 C :   -0.053503
  45 C :   -0.097668
  46 S :    0.401203
  47 C :   -0.082306
  48 C :    0.048337
  49 C :   -0.123292
  50 C :    0.068073
  51 C :   -0.165582
  52 C :   -0.020245
  53 N :   -0.077712
  54 C :   -0.023927
  55 N :   -0.071569
  56 C :   -0.013368
  57 C :   -0.049198
  58 C :    0.075941
  59 O :   -0.168797
  60 C :    0.014032
  61 C :   -0.039950
  62 C :   -0.146624
  63 C :   -0.019430
  64 S :    0.421570
  65 C :   -0.278667
  66 C :   -0.071032
  67 Br:    0.122624
  68 H :    0.041816
  69 H :    0.042289
  70 H :    0.040042
  71 H :    0.055679
  72 H :    0.032520
  73 H :    0.045201
  74 H :    0.021060
  75 H :    0.049886
  76 H :    0.036930
  77 H :    0.033192
  78 H :    0.085058
  79 H :    0.033207
  80 H :    0.020724
  81 H :    0.035641
  82 H :    0.035199
  83 H :    0.032546
  84 H :    0.033479
  85 H :    0.037184
  86 H :    0.035790
  87 H :    0.030318
  88 H :    0.037311
  89 H :    0.039026
  90 H :    0.036110

  Mayer bond orders larger than 0.100000
B(  0-C ,  1-C ) :   1.6730 B(  0-C ,  6-C ) :   1.0190 B(  0-C , 18-C ) :   1.0275
B(  1-C ,  2-C ) :   1.1389 B(  1-C ,  4-C ) :   1.1428 B(  2-C ,  3-N ) :   2.9738
B(  4-C ,  5-N ) :   2.9890 B(  6-C ,  7-C ) :   1.2677 B(  6-C , 11-C ) :   1.4010
B(  7-C ,  8-C ) :   1.4165 B(  7-C , 16-C ) :   0.9611 B(  8-C ,  9-C ) :   1.2514
B(  8-C , 68-H ) :   1.0173 B(  9-C , 10-C ) :   1.2956 B(  9-C , 14-C ) :   1.1640
B( 10-C , 11-C ) :   1.3380 B( 10-C , 12-S ) :   1.0905 B( 11-C , 69-H ) :   0.9806
B( 12-S , 13-C ) :   1.0868 B( 13-C , 14-C ) :   1.6157 B( 13-C , 15-Br) :   1.0249
B( 14-C , 70-H ) :   1.0006 B( 16-C , 17-O ) :   2.2051 B( 16-C , 18-C ) :   0.9180
B( 18-C , 19-C ) :   1.7733 B( 19-C , 20-C ) :   1.0221 B( 19-C , 71-H ) :   0.9383
B( 20-C , 21-N ) :   1.7076 B( 20-C , 23-C ) :   0.1087 B( 20-C , 25-C ) :   1.1214
B( 21-N , 22-N ) :   1.2070 B( 22-N , 23-C ) :   1.6122 B( 23-C , 24-C ) :   1.1034
B( 23-C , 29-C ) :   1.1426 B( 24-C , 25-C ) :   1.2112 B( 24-C , 28-N ) :   1.5563
B( 25-C , 26-N ) :   1.5325 B( 26-N , 27-S ) :   1.2847 B( 26-N , 28-N ) :   0.1477
B( 27-S , 28-N ) :   1.2813 B( 29-C , 30-C ) :   1.7787 B( 29-C , 72-H ) :   0.9583
B( 30-C , 31-C ) :   1.0901 B( 30-C , 32-C ) :   1.0299 B( 31-C , 73-H ) :   0.9140
B( 31-C , 74-H ) :   0.9443 B( 31-C , 75-H ) :   0.9350 B( 32-C , 33-N ) :   0.9995
B( 32-C , 76-H ) :   0.9278 B( 32-C , 77-H ) :   0.9389 B( 33-N , 34-C ) :   1.2860
B( 33-N , 78-H ) :   0.9302 B( 34-C , 35-C ) :   1.5321 B( 34-C , 79-H ) :   0.9689
B( 35-C , 36-C ) :   1.2231 B( 35-C , 80-H ) :   0.9627 B( 36-C , 37-C ) :   1.5326
B( 36-C , 81-H ) :   0.9796 B( 37-C , 38-C ) :   1.1805 B( 37-C , 41-S ) :   1.0147
B( 38-C , 39-C ) :   1.5449 B( 38-C , 82-H ) :   0.9983 B( 39-C , 40-C ) :   1.2270
B( 39-C , 83-H ) :   0.9948 B( 40-C , 41-S ) :   1.1005 B( 40-C , 42-C ) :   1.4200
B( 42-C , 43-C ) :   1.2565 B( 42-C , 46-S ) :   1.0373 B( 43-C , 44-C ) :   1.5031
B( 43-C , 84-H ) :   0.9941 B( 44-C , 45-C ) :   1.2162 B( 44-C , 85-H ) :   1.0008
B( 45-C , 46-S ) :   1.1012 B( 45-C , 47-C ) :   1.4413 B( 47-C , 48-C ) :   1.2802
B( 47-C , 86-H ) :   0.9649 B( 48-C , 49-C ) :   1.4687 B( 48-C , 87-H ) :   0.9374
B( 49-C , 50-C ) :   1.1163 B( 49-C , 58-C ) :   0.9826 B( 50-C , 51-C ) :   1.5752
B( 50-C , 56-C ) :   0.9974 B( 51-C , 52-C ) :   1.1369 B( 51-C , 54-C ) :   1.1737
B( 52-C , 53-N ) :   2.9705 B( 54-C , 55-N ) :   3.0091 B( 56-C , 57-C ) :   1.2788
B( 56-C , 63-C ) :   1.4274 B( 57-C , 58-C ) :   0.9155 B( 57-C , 60-C ) :   1.4393
B( 58-C , 59-O ) :   2.2315 B( 60-C , 61-C ) :   1.2370 B( 60-C , 88-H ) :   1.0158
B( 61-C , 62-C ) :   1.3255 B( 61-C , 66-C ) :   1.1601 B( 62-C , 63-C ) :   1.3129
B( 62-C , 64-S ) :   1.0792 B( 63-C , 89-H ) :   0.9813 B( 64-S , 65-C ) :   1.0844
B( 65-C , 66-C ) :   1.6223 B( 65-C , 67-Br) :   1.0081 B( 66-C , 90-H ) :   1.0000

-----------------------------------------------------------------------------
         ABSORPTION SPECTRUM VIA TRANSITION ELECTRIC DIPOLE MOMENTS
-----------------------------------------------------------------------------
State   Energy  Wavelength   fosc         T2         TX        TY        TZ
        (cm-1)    (nm)                  (au**2)     (au)      (au)      (au)
-----------------------------------------------------------------------------
   0   11842.6    844.4   1.341364581  37.28867  -0.73522   1.73960  -5.80706
   1   12934.3    773.1   0.097519325   2.48213   0.02041   0.04503  -1.57470
   2   18701.4    534.7   0.002147256   0.03780  -0.11624   0.14271   0.06261
   3   18768.9    532.8   0.001877553   0.03293  -0.00074   0.02876  -0.17918
   4   21290.2    469.7   0.015905755   0.24595   0.44913  -0.07696   0.19574
   5   23511.9    425.3   0.035123538   0.49180   0.62334  -0.31820   0.04469
   6   23541.9    424.8   0.005815234   0.08132  -0.27002   0.08598  -0.03188
   7   25103.0    398.4   0.295190665   3.87127   0.97853  -1.69473  -0.20404
   8   25482.7    392.4   0.063270678   0.81740   0.62950   0.32318   0.56274
   9   25889.4    386.3   0.338730525   4.30733   0.09716  -1.92875  -0.76014
  10   26704.3    374.5   0.445029500   5.48635   1.88573  -1.32695   0.41180
  11   27054.6    369.6   0.462032751   5.62221  -1.69552   1.40008   0.88724
  12   27960.8    357.6   0.054532076   0.64206  -0.26365   0.75659   0.01087
  13   28422.9    351.8   0.013461615   0.15592   0.29044  -0.12202   0.23806
  14   28644.3    349.1   0.004622442   0.05313   0.13636  -0.00601  -0.18573
  15   28789.9    347.3   0.083615610   0.95614   0.06311  -0.96530   0.14267
  16   29145.0    343.1   0.075738393   0.85552  -0.18542   0.90251  -0.08127
  17   29763.4    336.0   0.002927100   0.03238   0.00864  -0.04722   0.17341
  18   30981.2    322.8   0.040853204   0.43411   0.39824  -0.42929   0.30204
  19   31168.5    320.8   0.003874259   0.04092  -0.13604  -0.08603   0.12254
  20   31486.5    317.6   0.027286602   0.28530   0.33892  -0.12735   0.39270
  21   32038.9    312.1   0.257391336   2.64479  -0.79657   1.23129   0.70298
  22   32108.5    311.4   0.017359374   0.17799   0.35814  -0.13667  -0.17620
  23   32332.6    309.3   0.185913972   1.89298  -1.33296   0.08816  -0.32927
  24   32351.8    309.1   0.446108934   4.53960  -1.62918  -0.14619  -1.36528
  25   32464.4    308.0   0.108699601   1.10229   0.84927  -0.51600  -0.33878
  26   32898.7    304.0   0.006451431   0.06456   0.11220  -0.17755  -0.14299
  27   33087.5    302.2   0.018469482   0.18377   0.24897  -0.34897  -0.00167
  28   33238.7    300.9   0.213426819   2.11388   0.52658  -1.00815  -0.90566
  29   33308.8    300.2   0.028902263   0.28566   0.32956  -0.04821   0.41800
  30   33966.8    294.4   0.050475149   0.48921  -0.20181   0.39589   0.54015
  31   34074.4    293.5   0.007185814   0.06943   0.12220   0.19123  -0.13389
  32   34146.1    292.9   0.217938929   2.10121  -0.34343   1.07496   0.90979
  33   34484.9    290.0   0.006606914   0.06307   0.06352  -0.17282  -0.17079
  34   34933.2    286.3   0.000172323   0.00162  -0.03109   0.01582  -0.02018
  35   35268.6    283.5   0.019073600   0.17804   0.37133  -0.14920  -0.13377
  36   35358.2    282.8   0.110293503   1.02692  -0.76344   0.32922  -0.57938
  37   35549.7    281.3   0.009102941   0.08430  -0.16227   0.12907   0.20324
  38   35804.6    279.3   0.001834365   0.01687  -0.03521   0.10990   0.05957
  39   36130.3    276.8   0.006575077   0.05991  -0.24239   0.02327  -0.02480
  40   36276.9    275.7   0.003185504   0.02891  -0.13521  -0.01183   0.10240
  41   36407.0    274.7   0.071919248   0.65033   0.14014  -0.75236   0.25426
  42   36652.3    272.8   0.090634805   0.81409  -0.62813  -0.53994  -0.35776
  43   36782.4    271.9   0.132977117   1.19018   0.54174  -0.49459  -0.80751
  44   37186.6    268.9   0.026273107   0.23259  -0.34853  -0.03879   0.33108
  45   37496.6    266.7   0.020763511   0.18230   0.05644   0.39732   0.14578
  46   37592.8    266.0   0.137441696   1.20362  -0.09352  -0.89951  -0.62110
  47   37796.6    264.6   0.015130285   0.13179  -0.28024   0.19264   0.12705
  48   38046.9    262.8   0.137613605   1.19074  -0.62230   0.79425   0.41552
  49   38399.4    260.4   0.000964352   0.00827   0.01876  -0.08681   0.01948
  50   38412.0    260.3   0.002127989   0.01824  -0.05672   0.12004   0.02474
  51   38511.4    259.7   0.019948285   0.17053   0.11628  -0.39496   0.03185
  52   38527.5    259.6   0.022258311   0.19019   0.11056  -0.38184   0.17936
  53   38737.2    258.1   0.000453144   0.00385  -0.06068  -0.01281   0.00230
  54   39639.6    252.3   0.041083221   0.34120   0.56029   0.05042  -0.15727
  55   40007.5    250.0   0.023702527   0.19504  -0.31790   0.28644  -0.10925
  56   40095.2    249.4   0.187979527   1.54345   0.44393  -0.52783   1.03333
  57   40153.3    249.0   0.103679225   0.85005  -0.57558   0.66307  -0.28123

FINAL SINGLE POINT ENERGY     -9697.221665007981

DIPOLE MOMENT
-------------
                                X             Y             Z
Electronic contribution:     85.89174    -123.84461     -90.37414
Nuclear contribution   :    -83.16928     120.23669      99.18997
                        -----------------------------------------
Total Dipole Moment    :      2.72246      -3.60792       8.81583
                        -----------------------------------------
Magnitude (a.u.)       :      9.90695
Magnitude (Debye)      :     25.18147

Rotational constants in cm-1:     0.000738     0.000167     0.000141
Rotational constants in MHz :    22.115374     5.010478     4.234359

                             ****ORCA TERMINATED NORMALLY****
TOTAL RUN TIME: 0 days 0 hours 8 minutes 31 seconds 494 msec
