                         Program Version 4.2.0 -  RELEASE  -
|  1> # ORCA input file
|  2> # SCF done       -142.092086198151          0.000810908158
|  3> ! CAM-B3LYP def2-SVP def2/J RIJCOSX Grid4 TightSCF
|  4> %maxcore 5000
|  5> %tddft
|  6>     Mode sTDDFT
|  7>     Ethresh 5.0
|  8>     maxcore 5000
|  9> end
| 10>
| 11> %pal
| 12>   nprocs 6
| 13>   end
| 14> * xyz 0 1
| 15>    C       -2.08162        -3.90353         2.16506
| 16>    N       -1.37121        -4.91832         1.58314
| 17>    C       -0.08421        -4.49379         1.42697
| 18>    C        1.17893        -4.86138         0.96173
| 19>    C        2.00932        -3.76110         1.18827
| 20>    N        1.27360        -2.74764         1.77021
| 21>    C       -0.00494        -3.17825         1.92636
| 22>    C       -1.27908        -2.81143         2.39302
| 23>    C        3.39165        -3.66830         0.87562
| 24>    C        4.20475        -2.61941         1.14945
| 25>    C        5.58475        -2.53902         0.81164
| 26>    S        6.61078        -1.48484         1.74298
| 27>    C        7.99737        -2.01188         0.87155
| 28>    C        7.71567        -2.94202        -0.07603
| 29>    C        8.75971        -3.50504        -0.98301
| 30>    C        6.31753        -3.24710        -0.13796
| 31>    C        5.68215        -4.06675        -1.13030
| 32>    C        6.17987        -5.19097        -1.69668
| 33>    C        5.47707        -5.92183        -2.68633
| 34>    C        5.89647        -7.11238        -3.18962
| 35>    C        5.20221        -7.86068        -4.15978
| 36>    S        3.72142        -7.31138        -4.92719
| 37>    C        3.55301        -8.75495        -5.90926
| 38>    C        4.61615        -9.62079        -5.63066
| 39>    C        5.52216        -9.10838        -4.66754
| 40>    S        6.79763       -10.25024        -4.39923
| 41>    C        6.00891       -11.29204        -5.58447
| 42>    N        4.93722       -10.84879        -6.11110
| 43>    C        2.49204        -8.91458        -6.80302
| 44>    C        2.31927       -10.05175        -7.55853
| 45>    C        1.28241       -10.23438        -8.46732
| 46>    C        1.10145       -11.39780        -9.19338
| 47>    C        0.10070       -11.67112       -10.14800
| 48>    C        0.17465       -12.92311       -10.69365
| 49>    C        1.23676       -13.69605       -10.18693
| 50>    S        2.14995       -12.78932        -9.00679
| 51>    C        1.58943       -15.00231       -10.49814
| 52>    C        0.99951       -15.89030       -11.41724
| 53>    C        1.60014       -17.11524       -11.45771
| 54>    C        2.69602       -17.25769       -10.57002
| 55>    S        2.93782       -15.76333        -9.68912
| 56>    C        3.43792       -18.40394       -10.40568
| 57>    C        4.52537       -18.61141        -9.53846
| 58>    S        5.22610       -20.22102        -9.39221
| 59>    C        6.40375       -19.75330        -8.22574
| 60>    C        6.28568       -18.41344        -7.94649
| 61>    C        5.23680       -17.78075        -8.68710
| 62>    O        5.18103       -16.46564        -8.39433
| 63>    C        6.15700       -16.24996        -7.47648
| 64>    N        6.30599       -14.93296        -7.00411
| 65>    O        7.15693       -14.74294        -6.14656
| 66>    O        5.59417       -14.06918        -7.47529
| 67>    C        6.86460       -17.38105        -7.15864
| 68>    H       -3.12530        -4.02342         2.38196
| 69>    H       -1.74231        -5.81676         1.32869
| 70>    H        1.48338        -5.78834         0.51789
| 71>    H        1.64175        -1.85184         2.03595
| 72>    H       -1.58145        -1.88405         2.83628
| 73>    H        3.80586        -4.54753         0.40418
| 74>    H        3.82889        -1.78147         1.72306
| 75>    H        8.95358        -1.58957         1.11098
| 76>    H        9.64346        -2.87116        -0.97326
| 77>    H        8.38166        -3.57475        -2.00107
| 78>    H        9.05610        -4.50193        -0.65762
| 79>    H        4.69592        -3.73554        -1.43606
| 80>    H        7.12224        -5.60061        -1.36426
| 81>    H        4.54348        -5.50738        -3.04770
| 82>    H        6.81756        -7.55718        -2.83339
| 83>    H        6.44218       -12.24342        -5.81979
| 84>    H        1.78600        -8.09849        -6.88607
| 85>    H        3.03651       -10.85310        -7.43615
| 86>    H        0.57167        -9.43258        -8.62510
| 87>    H       -0.64473       -10.93985       -10.40830
| 88>    H       -0.50530       -13.30229       -11.43562
| 89>    H        0.15575       -15.61054       -12.02265
| 90>    H        1.29021       -17.92383       -12.09601
| 91>    H        3.14401       -19.26122       -10.99643
| 92>    H        7.08887       -20.47484        -7.83439
| 93>    H        7.67682       -17.44377        -6.46490
| 94> *
| 95>
| 96>                          ****END OF INPUT****

CARTESIAN COORDINATES (ANGSTROEM)
---------------------------------
  C     -2.081620   -3.903530    2.165060
  N     -1.371210   -4.918320    1.583140
  C     -0.084210   -4.493790    1.426970
  C      1.178930   -4.861380    0.961730
  C      2.009320   -3.761100    1.188270
  N      1.273600   -2.747640    1.770210
  C     -0.004940   -3.178250    1.926360
  C     -1.279080   -2.811430    2.393020
  C      3.391650   -3.668300    0.875620
  C      4.204750   -2.619410    1.149450
  C      5.584750   -2.539020    0.811640
  S      6.610780   -1.484840    1.742980
  C      7.997370   -2.011880    0.871550
  C      7.715670   -2.942020   -0.076030
  C      8.759710   -3.505040   -0.983010
  C      6.317530   -3.247100   -0.137960
  C      5.682150   -4.066750   -1.130300
  C      6.179870   -5.190970   -1.696680
  C      5.477070   -5.921830   -2.686330
  C      5.896470   -7.112380   -3.189620
  C      5.202210   -7.860680   -4.159780
  S      3.721420   -7.311380   -4.927190
  C      3.553010   -8.754950   -5.909260
  C      4.616150   -9.620790   -5.630660
  C      5.522160   -9.108380   -4.667540
  S      6.797630  -10.250240   -4.399230
  C      6.008910  -11.292040   -5.584470
  N      4.937220  -10.848790   -6.111100
  C      2.492040   -8.914580   -6.803020
  C      2.319270  -10.051750   -7.558530
  C      1.282410  -10.234380   -8.467320
  C      1.101450  -11.397800   -9.193380
  C      0.100700  -11.671120  -10.148000
  C      0.174650  -12.923110  -10.693650
  C      1.236760  -13.696050  -10.186930
  S      2.149950  -12.789320   -9.006790
  C      1.589430  -15.002310  -10.498140
  C      0.999510  -15.890300  -11.417240
  C      1.600140  -17.115240  -11.457710
  C      2.696020  -17.257690  -10.570020
  S      2.937820  -15.763330   -9.689120
  C      3.437920  -18.403940  -10.405680
  C      4.525370  -18.611410   -9.538460
  S      5.226100  -20.221020   -9.392210
  C      6.403750  -19.753300   -8.225740
  C      6.285680  -18.413440   -7.946490
  C      5.236800  -17.780750   -8.687100
  O      5.181030  -16.465640   -8.394330
  C      6.157000  -16.249960   -7.476480
  N      6.305990  -14.932960   -7.004110
  O      7.156930  -14.742940   -6.146560
  O      5.594170  -14.069180   -7.475290
  C      6.864600  -17.381050   -7.158640
  H     -3.125300   -4.023420    2.381960
  H     -1.742310   -5.816760    1.328690
  H      1.483380   -5.788340    0.517890
  H      1.641750   -1.851840    2.035950
  H     -1.581450   -1.884050    2.836280
  H      3.805860   -4.547530    0.404180
  H      3.828890   -1.781470    1.723060
  H      8.953580   -1.589570    1.110980
  H      9.643460   -2.871160   -0.973260
  H      8.381660   -3.574750   -2.001070
  H      9.056100   -4.501930   -0.657620
  H      4.695920   -3.735540   -1.436060
  H      7.122240   -5.600610   -1.364260
  H      4.543480   -5.507380   -3.047700
  H      6.817560   -7.557180   -2.833390
  H      6.442180  -12.243420   -5.819790
  H      1.786000   -8.098490   -6.886070
  H      3.036510  -10.853100   -7.436150
  H      0.571670   -9.432580   -8.625100
  H     -0.644730  -10.939850  -10.408300
  H     -0.505300  -13.302290  -11.435620
  H      0.155750  -15.610540  -12.022650
  H      1.290210  -17.923830  -12.096010
  H      3.144010  -19.261220  -10.996430
  H      7.088870  -20.474840   -7.834390
  H      7.676820  -17.443770   -6.464900

 Total Charge           Charge          ....    0
 Multiplicity           Mult            ....    1
 Number of Electrons    NEL             ....  414
 Basis Dimension        Dim             ....  896

ORBITAL ENERGIES
----------------

  NO   OCC          E(Eh)            E(eV)
   0   2.0000     -88.968128     -2420.9459
   1   2.0000     -88.947342     -2420.3802
   2   2.0000     -88.944684     -2420.3079
   3   2.0000     -88.934491     -2420.0305
   4   2.0000     -88.930804     -2419.9302
   5   2.0000     -88.929985     -2419.9079
   6   2.0000     -19.303389      -525.2719
   7   2.0000     -19.248735      -523.7847
   8   2.0000     -19.246308      -523.7187
   9   2.0000     -14.657512      -398.8512
  10   2.0000     -14.442026      -392.9875
  11   2.0000     -14.438447      -392.8901
  12   2.0000     -14.398930      -391.8148
  13   2.0000     -10.386278      -282.6250
  14   2.0000     -10.340610      -281.3823
  15   2.0000     -10.319243      -280.8009
  16   2.0000     -10.313446      -280.6431
  17   2.0000     -10.311291      -280.5845
  18   2.0000     -10.304786      -280.4075
  19   2.0000     -10.301916      -280.3294
  20   2.0000     -10.300571      -280.2928
  21   2.0000     -10.297105      -280.1985
  22   2.0000     -10.294443      -280.1260
  23   2.0000     -10.293588      -280.1028
  24   2.0000     -10.293374      -280.0969
  25   2.0000     -10.292459      -280.0720
  26   2.0000     -10.291751      -280.0528
  27   2.0000     -10.289092      -279.9804
  28   2.0000     -10.284095      -279.8444
  29   2.0000     -10.283474      -279.8275
  30   2.0000     -10.283284      -279.8224
  31   2.0000     -10.278467      -279.6913
  32   2.0000     -10.278361      -279.6884
  33   2.0000     -10.276271      -279.6315
  34   2.0000     -10.275567      -279.6124
  35   2.0000     -10.272851      -279.5385
  36   2.0000     -10.272320      -279.5240
  37   2.0000     -10.272111      -279.5184
  38   2.0000     -10.270049      -279.4622
  39   2.0000     -10.269878      -279.4576
  40   2.0000     -10.269297      -279.4418
  41   2.0000     -10.268930      -279.4318
  42   2.0000     -10.266917      -279.3770
  43   2.0000     -10.265028      -279.3256
  44   2.0000     -10.264324      -279.3065
  45   2.0000     -10.263569      -279.2859
  46   2.0000     -10.262948      -279.2690
  47   2.0000     -10.259451      -279.1739
  48   2.0000     -10.259380      -279.1719
  49   2.0000     -10.258013      -279.1347
  50   2.0000     -10.254303      -279.0338
  51   2.0000     -10.248378      -278.8725
  52   2.0000     -10.244672      -278.7717
  53   2.0000      -8.063126      -219.4088
  54   2.0000      -8.042305      -218.8422
  55   2.0000      -8.040917      -218.8045
  56   2.0000      -8.030711      -218.5268
  57   2.0000      -8.027006      -218.4259
  58   2.0000      -8.026345      -218.4079
  59   2.0000      -6.032495      -164.1525
  60   2.0000      -6.028193      -164.0355
  61   2.0000      -6.025361      -163.9584
  62   2.0000      -6.011644      -163.5852
  63   2.0000      -6.010356      -163.5501
  64   2.0000      -6.007756      -163.4794
  65   2.0000      -6.006337      -163.4407
  66   2.0000      -6.004185      -163.3822
  67   2.0000      -6.002431      -163.3344
  68   2.0000      -5.999951      -163.2670
  69   2.0000      -5.996698      -163.1785
  70   2.0000      -5.996083      -163.1617
  71   2.0000      -5.995842      -163.1552
  72   2.0000      -5.992897      -163.0750
  73   2.0000      -5.992602      -163.0670
  74   2.0000      -5.991921      -163.0485
  75   2.0000      -5.988009      -162.9420
  76   2.0000      -5.987118      -162.9178
  77   2.0000      -1.328096       -36.1393
  78   2.0000      -1.226944       -33.3869
  79   2.0000      -1.142859       -31.0988
  80   2.0000      -1.069960       -29.1151
  81   2.0000      -1.053901       -28.6781
  82   2.0000      -1.033408       -28.1205
  83   2.0000      -0.990073       -26.9413
  84   2.0000      -0.983001       -26.7488
  85   2.0000      -0.966652       -26.3039
  86   2.0000      -0.963454       -26.2169
  87   2.0000      -0.961764       -26.1709
  88   2.0000      -0.934713       -25.4348
  89   2.0000      -0.908453       -24.7203
  90   2.0000      -0.896349       -24.3909
  91   2.0000      -0.892698       -24.2915
  92   2.0000      -0.884178       -24.0597
  93   2.0000      -0.880756       -23.9666
  94   2.0000      -0.868649       -23.6371
  95   2.0000      -0.858601       -23.3637
  96   2.0000      -0.853881       -23.2353
  97   2.0000      -0.844621       -22.9833
  98   2.0000      -0.843778       -22.9604
  99   2.0000      -0.834141       -22.6981
 100   2.0000      -0.828087       -22.5334
 101   2.0000      -0.816281       -22.2121
 102   2.0000      -0.809157       -22.0183
 103   2.0000      -0.807322       -21.9683
 104   2.0000      -0.800668       -21.7873
 105   2.0000      -0.789417       -21.4811
 106   2.0000      -0.779648       -21.2153
 107   2.0000      -0.769237       -20.9320
 108   2.0000      -0.748476       -20.3671
 109   2.0000      -0.741466       -20.1763
 110   2.0000      -0.727799       -19.8044
 111   2.0000      -0.705293       -19.1920
 112   2.0000      -0.699966       -19.0470
 113   2.0000      -0.693714       -18.8769
 114   2.0000      -0.684695       -18.6315
 115   2.0000      -0.678480       -18.4624
 116   2.0000      -0.673362       -18.3231
 117   2.0000      -0.669465       -18.2171
 118   2.0000      -0.663193       -18.0464
 119   2.0000      -0.656493       -17.8641
 120   2.0000      -0.648021       -17.6335
 121   2.0000      -0.645571       -17.5669
 122   2.0000      -0.641503       -17.4562
 123   2.0000      -0.635240       -17.2858
 124   2.0000      -0.627969       -17.0879
 125   2.0000      -0.623133       -16.9563
 126   2.0000      -0.621966       -16.9245
 127   2.0000      -0.618174       -16.8214
 128   2.0000      -0.611202       -16.6317
 129   2.0000      -0.607439       -16.5293
 130   2.0000      -0.604187       -16.4408
 131   2.0000      -0.597016       -16.2456
 132   2.0000      -0.588386       -16.0108
 133   2.0000      -0.587198       -15.9785
 134   2.0000      -0.578557       -15.7433
 135   2.0000      -0.568511       -15.4700
 136   2.0000      -0.562718       -15.3123
 137   2.0000      -0.555875       -15.1261
 138   2.0000      -0.549439       -14.9510
 139   2.0000      -0.548082       -14.9141
 140   2.0000      -0.537714       -14.6320
 141   2.0000      -0.535554       -14.5732
 142   2.0000      -0.533073       -14.5057
 143   2.0000      -0.528515       -14.3816
 144   2.0000      -0.519967       -14.1490
 145   2.0000      -0.514717       -14.0062
 146   2.0000      -0.513620       -13.9763
 147   2.0000      -0.512615       -13.9490
 148   2.0000      -0.510918       -13.9028
 149   2.0000      -0.508640       -13.8408
 150   2.0000      -0.505096       -13.7443
 151   2.0000      -0.499641       -13.5959
 152   2.0000      -0.495625       -13.4866
 153   2.0000      -0.494155       -13.4467
 154   2.0000      -0.487868       -13.2756
 155   2.0000      -0.486161       -13.2291
 156   2.0000      -0.482834       -13.1386
 157   2.0000      -0.480183       -13.0664
 158   2.0000      -0.475908       -12.9501
 159   2.0000      -0.472077       -12.8459
 160   2.0000      -0.469171       -12.7668
 161   2.0000      -0.466437       -12.6924
 162   2.0000      -0.461602       -12.5608
 163   2.0000      -0.460590       -12.5333
 164   2.0000      -0.454572       -12.3695
 165   2.0000      -0.451801       -12.2941
 166   2.0000      -0.450689       -12.2639
 167   2.0000      -0.449766       -12.2388
 168   2.0000      -0.441516       -12.0143
 169   2.0000      -0.439137       -11.9495
 170   2.0000      -0.438130       -11.9221
 171   2.0000      -0.436393       -11.8749
 172   2.0000      -0.435883       -11.8610
 173   2.0000      -0.429013       -11.6740
 174   2.0000      -0.428082       -11.6487
 175   2.0000      -0.422079       -11.4854
 176   2.0000      -0.421830       -11.4786
 177   2.0000      -0.417471       -11.3600
 178   2.0000      -0.415569       -11.3082
 179   2.0000      -0.409134       -11.1331
 180   2.0000      -0.406172       -11.0525
 181   2.0000      -0.403057       -10.9677
 182   2.0000      -0.399108       -10.8603
 183   2.0000      -0.397786       -10.8243
 184   2.0000      -0.393141       -10.6979
 185   2.0000      -0.386517       -10.5176
 186   2.0000      -0.382756       -10.4153
 187   2.0000      -0.378650       -10.3036
 188   2.0000      -0.373761       -10.1706
 189   2.0000      -0.372932       -10.1480
 190   2.0000      -0.368639       -10.0312
 191   2.0000      -0.351659        -9.5691
 192   2.0000      -0.333607        -9.0779
 193   2.0000      -0.332186        -9.0392
 194   2.0000      -0.330006        -8.9799
 195   2.0000      -0.326577        -8.8866
 196   2.0000      -0.318827        -8.6757
 197   2.0000      -0.314169        -8.5490
 198   2.0000      -0.310529        -8.4499
 199   2.0000      -0.298275        -8.1165
 200   2.0000      -0.289547        -7.8790
 201   2.0000      -0.282768        -7.6945
 202   2.0000      -0.271112        -7.3773
 203   2.0000      -0.266292        -7.2462
 204   2.0000      -0.233355        -6.3499
 205   2.0000      -0.211765        -5.7624
 206   2.0000      -0.186018        -5.0618
 207   0.0000      -0.081640        -2.2215
 208   0.0000      -0.063683        -1.7329
 209   0.0000      -0.033564        -0.9133
 210   0.0000      -0.013007        -0.3540
 211   0.0000       0.009916         0.2698

MULLIKEN ATOMIC CHARGES
-----------------------
   0 C :    0.058919
   1 N :   -0.042130
   2 C :    0.103213
   3 C :   -0.166075
   4 C :    0.060623
   5 N :   -0.039026
   6 C :    0.082994
   7 C :   -0.126144
   8 C :    0.023135
   9 C :    0.010928
  10 C :   -0.145052
  11 S :    0.096122
  12 C :   -0.133448
  13 C :   -0.072431
  14 C :    0.110235
  15 C :    0.111946
  16 C :   -0.067005
  17 C :    0.003885
  18 C :    0.005351
  19 C :    0.002010
  20 C :   -0.159037
  21 S :    0.117759
  22 C :   -0.127616
  23 C :    0.079450
  24 C :   -0.008369
  25 S :    0.077039
  26 C :    0.027200
  27 N :   -0.040694
  28 C :    0.001992
  29 C :   -0.003159
  30 C :    0.002859
  31 C :   -0.030288
  32 C :    0.038162
  33 C :    0.015369
  34 C :   -0.040438
  35 S :    0.098889
  36 C :   -0.044341
  37 C :    0.034625
  38 C :    0.021262
  39 C :   -0.025021
  40 S :    0.090615
  41 C :    0.031718
  42 C :   -0.217667
  43 S :    0.140284
  44 C :   -0.148280
  45 C :    0.131564
  46 C :    0.186104
  47 O :   -0.190849
  48 C :    0.251632
  49 N :    0.278337
  50 O :   -0.251541
  51 O :   -0.209601
  52 C :   -0.083861
  53 H :   -0.008732
  54 H :    0.122313
  55 H :   -0.039461
  56 H :    0.119293
  57 H :   -0.039495
  58 H :   -0.001899
  59 H :   -0.045130
  60 H :    0.006250
  61 H :    0.004350
  62 H :    0.030262
  63 H :    0.029325
  64 H :    0.005632
  65 H :   -0.019429
  66 H :   -0.009062
  67 H :   -0.018206
  68 H :    0.021768
  69 H :   -0.029793
  70 H :    0.030652
  71 H :   -0.020723
  72 H :   -0.016183
  73 H :   -0.018329
  74 H :   -0.017663
  75 H :   -0.019369
  76 H :   -0.028053
  77 H :    0.028128
  78 H :    0.011406
Sum of atomic charges:   -0.0000000

LOEWDIN ATOMIC CHARGES
----------------------
   0 C :   -0.003446
   1 N :    0.065755
   2 C :   -0.043164
   3 C :   -0.086388
   4 C :   -0.017642
   5 N :    0.067428
   6 C :   -0.025343
   7 C :   -0.113710
   8 C :   -0.016431
   9 C :   -0.079539
  10 C :   -0.159855
  11 S :    0.413585
  12 C :   -0.202823
  13 C :   -0.053334
  14 C :   -0.045640
  15 C :   -0.074071
  16 C :   -0.015598
  17 C :   -0.039728
  18 C :   -0.025485
  19 C :   -0.054012
  20 C :   -0.187034
  21 S :    0.428842
  22 C :   -0.174145
  23 C :   -0.064099
  24 C :   -0.205705
  25 S :    0.364296
  26 C :   -0.080984
  27 N :   -0.079218
  28 C :   -0.038230
  29 C :   -0.025874
  30 C :   -0.045103
  31 C :   -0.153304
  32 C :   -0.031191
  33 C :   -0.042000
  34 C :   -0.169988
  35 S :    0.399112
  36 C :   -0.194192
  37 C :   -0.029013
  38 C :   -0.047296
  39 C :   -0.138539
  40 S :    0.400382
  41 C :   -0.103417
  42 C :   -0.192549
  43 S :    0.465771
  44 C :   -0.198887
  45 C :   -0.081037
  46 C :    0.004320
  47 O :    0.000897
  48 C :    0.023627
  49 N :    0.276836
  50 O :   -0.220314
  51 O :   -0.175206
  52 C :   -0.006681
  53 H :    0.017229
  54 H :    0.087800
  55 H :    0.022790
  56 H :    0.084475
  57 H :    0.021415
  58 H :    0.039142
  59 H :    0.014906
  60 H :    0.017598
  61 H :    0.030497
  62 H :    0.035135
  63 H :    0.032373
  64 H :    0.030806
  65 H :    0.026046
  66 H :    0.021710
  67 H :    0.030655
  68 H :    0.007594
  69 H :    0.025886
  70 H :    0.027652
  71 H :    0.029852
  72 H :    0.031919
  73 H :    0.029595
  74 H :    0.030320
  75 H :    0.029852
  76 H :    0.031168
  77 H :    0.026646
  78 H :    0.046303

  Mayer bond orders larger than 0.100000
B(  0-C ,  1-N ) :   1.2055 B(  0-C ,  7-C ) :   1.4871 B(  0-C , 53-H ) :   0.9855
B(  1-N ,  2-C ) :   1.1574 B(  1-N , 54-H ) :   0.9451 B(  2-C ,  3-C ) :   1.2306
B(  2-C ,  6-C ) :   1.3581 B(  3-C ,  4-C ) :   1.3787 B(  3-C , 55-H ) :   1.0399
B(  4-C ,  5-N ) :   1.1976 B(  4-C ,  8-C ) :   1.1559 B(  5-N ,  6-C ) :   1.1665
B(  5-N , 56-H ) :   0.9353 B(  6-C ,  7-C ) :   1.2463 B(  7-C , 57-H ) :   1.0352
B(  8-C ,  9-C ) :   1.6336 B(  8-C , 58-H ) :   0.9555 B(  9-C , 10-C ) :   1.1442
B(  9-C , 59-H ) :   0.9499 B( 10-C , 11-S ) :   1.1342 B( 10-C , 15-C ) :   1.4432
B( 11-S , 12-C ) :   1.1246 B( 12-C , 13-C ) :   1.6029 B( 12-C , 60-H ) :   0.9675
B( 13-C , 14-C ) :   1.0933 B( 13-C , 15-C ) :   1.2358 B( 14-C , 61-H ) :   0.9474
B( 14-C , 62-H ) :   0.9449 B( 14-C , 63-H ) :   0.9434 B( 15-C , 16-C ) :   1.0783
B( 16-C , 17-C ) :   1.6551 B( 16-C , 64-H ) :   0.9625 B( 17-C , 18-C ) :   1.1441
B( 17-C , 65-H ) :   0.9877 B( 18-C , 19-C ) :   1.6126 B( 18-C , 66-H ) :   0.9838
B( 19-C , 20-C ) :   1.1790 B( 19-C , 67-H ) :   0.9774 B( 20-C , 21-S ) :   1.1012
B( 20-C , 22-C ) :   0.1007 B( 20-C , 24-C ) :   1.4714 B( 21-S , 22-C ) :   1.0962
B( 22-C , 23-C ) :   1.3722 B( 22-C , 28-C ) :   1.1993 B( 23-C , 24-C ) :   1.2632
B( 23-C , 27-N ) :   1.2987 B( 24-C , 25-S ) :   1.0420 B( 25-S , 26-C ) :   1.0798
B( 25-S , 27-N ) :   0.1019 B( 26-C , 27-N ) :   1.7717 B( 26-C , 68-H ) :   0.9431
B( 28-C , 29-C ) :   1.5628 B( 28-C , 69-H ) :   0.9653 B( 29-C , 30-C ) :   1.2005
B( 29-C , 70-H ) :   0.9508 B( 30-C , 31-C ) :   1.5007 B( 30-C , 71-H ) :   0.9846
B( 31-C , 32-C ) :   1.1713 B( 31-C , 35-S ) :   1.0419 B( 32-C , 33-C ) :   1.5524
B( 32-C , 72-H ) :   0.9992 B( 33-C , 34-C ) :   1.2125 B( 33-C , 73-H ) :   0.9960
B( 34-C , 35-S ) :   1.0653 B( 34-C , 36-C ) :   1.4619 B( 36-C , 37-C ) :   1.2080
B( 36-C , 40-S ) :   1.0357 B( 37-C , 38-C ) :   1.5694 B( 37-C , 74-H ) :   0.9941
B( 38-C , 39-C ) :   1.1540 B( 38-C , 75-H ) :   1.0000 B( 39-C , 40-S ) :   1.0558
B( 39-C , 41-C ) :   1.5765 B( 41-C , 42-C ) :   1.1619 B( 41-C , 76-H ) :   0.9442
B( 42-C , 43-S ) :   1.1323 B( 42-C , 44-C ) :   0.1070 B( 42-C , 46-C ) :   1.4212
B( 43-S , 44-C ) :   1.1705 B( 44-C , 45-C ) :   1.4278 B( 44-C , 77-H ) :   0.9775
B( 45-C , 46-C ) :   1.2317 B( 45-C , 52-C ) :   1.0675 B( 46-C , 47-O ) :   1.0856
B( 47-O , 48-C ) :   1.1247 B( 48-C , 49-N ) :   0.9227 B( 48-C , 52-C ) :   1.5625
B( 49-N , 50-O ) :   1.5009 B( 49-N , 51-O ) :   1.5138 B( 50-O , 51-O ) :   0.2690
B( 52-C , 78-H ) :   1.0273

-----------------------------------------------------------------------------
         ABSORPTION SPECTRUM VIA TRANSITION ELECTRIC DIPOLE MOMENTS
-----------------------------------------------------------------------------
State   Energy  Wavelength   fosc         T2         TX        TY        TZ
        (cm-1)    (nm)                  (au**2)     (au)      (au)      (au)
-----------------------------------------------------------------------------
   0    9616.4   1039.9   0.609743758  20.87415   0.41598  -4.14992  -1.86529
   1   11776.4    849.2   0.728672885  20.37028  -0.55345  -3.63883  -2.61206
   2   17472.7    572.3   0.080756075   1.52156   0.30002  -0.13902   1.18837
   3   19236.4    519.8   0.133376237   2.28260  -0.19489   0.10470   1.49454
   4   20940.5    477.5   0.077932968   1.22520  -0.92114   0.09222  -0.60680
   5   22138.2    451.7   0.606749031   9.02283  -1.87955  -0.34204  -2.31800
   6   24528.5    407.7   0.605942923   8.13274   2.79844  -0.54904   0.00173
   7   25403.2    393.7   0.042624694   0.55239  -0.59552  -0.36214  -0.25807
   8   26612.6    375.8   0.562928919   6.96374  -2.61204   0.36790  -0.07502
   9   27445.3    364.4   0.034705694   0.41630  -0.24747  -0.53080   0.27075
  10   29442.8    339.6   0.030447973   0.34045   0.05120  -0.46808   0.34458
  11   29658.2    337.2   0.036389556   0.40393   0.53304   0.07639   0.33759
  12   30402.7    328.9   0.231846744   2.51052  -1.45126  -0.63485  -0.03645
  13   30469.2    328.2   0.182516775   1.97205  -0.93466  -1.04685  -0.05064
  14   31324.1    319.2   0.109787921   1.15385   0.25916   1.03535   0.12139
  15   32095.0    311.6   0.014397286   0.14768   0.24166   0.00370  -0.29877
  16   32330.3    309.3   0.047482665   0.48350  -0.67885   0.00381   0.15052
  17   32624.9    306.5   0.014008912   0.14136   0.09714   0.26387   0.24960
  18   32750.5    305.3   0.045204482   0.45440   0.37776   0.16249   0.53413
  19   33135.5    301.8   0.177918082   1.76767   0.48233  -1.15385  -0.45128
  20   33212.9    301.1   0.007526791   0.07461   0.20009  -0.18091   0.04293
  21   33781.9    296.0   0.061775517   0.60202   0.08123   0.63311   0.44113
  22   34432.3    290.4   0.002958769   0.02829   0.00821  -0.15093  -0.07378
  23   34903.7    286.5   0.069951822   0.65979  -0.22714   0.65504   0.42323
  24   35007.7    285.7   0.703610016   6.61674  -0.83643  -2.24031  -0.94770
  25   35148.5    284.5   0.053227373   0.49854   0.61121   0.16215   0.31413
  26   35672.3    280.3   0.000914750   0.00844  -0.01456   0.09072   0.00062
  27   35700.1    280.1   0.035114414   0.32381  -0.07876   0.52289   0.21022
  28   35923.3    278.4   0.157895017   1.44700   0.30385  -1.08319  -0.42587
  29   36045.0    277.4   0.077068835   0.70390   0.15212  -0.78855  -0.24280
  30   36673.9    272.7   0.102505559   0.92017   0.62772   0.71801   0.10296
  31   37070.3    269.8   0.019059951   0.16927  -0.30801  -0.25734  -0.09039
  32   37231.0    268.6   0.000424378   0.00375  -0.04500   0.02472   0.03341
  33   37711.8    265.2   0.016862710   0.14721  -0.04209  -0.34957  -0.15244
  34   37965.9    263.4   0.054277657   0.47066   0.10674  -0.63415  -0.23899
  35   38188.5    261.9   0.077452811   0.66770  -0.18650  -0.67606  -0.41936
  36   38378.7    260.6   0.006403307   0.05493  -0.03608   0.00755  -0.23145
  37   39038.7    256.2   0.016651646   0.14042   0.08325  -0.36295  -0.04197
  38   39475.5    253.3   0.046364124   0.38666   0.52020   0.23044   0.25090
  39   39733.4    251.7   0.000082936   0.00069  -0.01732  -0.01241  -0.01527
  40   39932.1    250.4   0.008213029   0.06771   0.19628   0.16476  -0.04517

FINAL SINGLE POINT ENERGY     -4370.281819944164

DIPOLE MOMENT
-------------
                                X             Y             Z
Electronic contribution:      7.76116     -47.01965     -27.91242
Nuclear contribution   :     -8.70388      45.88255      27.73258
                        -----------------------------------------
Total Dipole Moment    :     -0.94272      -1.13710      -0.17984
                        -----------------------------------------
Magnitude (a.u.)       :      1.48797
Magnitude (Debye)      :      3.78213

Rotational constants in cm-1:     0.002290     0.000394     0.000362
Rotational constants in MHz :    68.656191    11.804891    10.842480

                             ****ORCA TERMINATED NORMALLY****
TOTAL RUN TIME: 0 days 0 hours 5 minutes 57 seconds 73 msec
