                         Program Version 4.2.0 -  RELEASE  -
|  1> # ORCA input file
|  2> # SCF done       -178.721279027914          0.000588821543
|  3> ! CAM-B3LYP def2-SVP def2/J RIJCOSX Grid4 TightSCF
|  4> %maxcore 5000
|  5> %tddft
|  6>     Mode sTDDFT
|  7>     Ethresh 5.0
|  8>     maxcore 5000
|  9> end
| 10>
| 11> %pal
| 12>   nprocs 6
| 13>   end
| 14> * xyz 0 1
| 15>    C        3.78171        -3.47746        -7.15121
| 16>    C        4.59080        -2.96538        -6.14170
| 17>    C        4.19729        -3.03007        -4.75464
| 18>    N        4.94379        -2.41961        -3.82023
| 19>    C        6.09005        -1.90246        -4.16092
| 20>    C        6.55401        -1.96602        -5.52835
| 21>    N        5.78792        -2.43352        -6.47182
| 22>    C        7.83696        -1.45404        -5.85520
| 23>    N        8.87988        -1.03675        -6.07513
| 24>    C        6.86305        -1.21121        -3.19275
| 25>    N        7.52065        -0.64434        -2.44653
| 26>    C        3.00343        -3.66976        -4.36098
| 27>    C        2.19614        -4.18886        -5.38404
| 28>    C        2.58558        -4.07536        -6.77773
| 29>    N        1.68278        -4.65017        -7.58561
| 30>    S        0.50960        -5.26774        -6.70128
| 31>    N        1.04429        -4.85742        -5.24926
| 32>    C        2.72883        -3.84964        -2.95766
| 33>    N        3.70718        -4.20091        -2.14989
| 34>    C        3.14692        -4.37679        -0.93068
| 35>    C        1.70260        -4.11767        -0.98237
| 36>    C        1.08469        -4.30658         0.34234
| 37>    O       -0.07571        -4.17313         0.65583
| 38>    C        2.24157        -4.69729         1.17341
| 39>    C        3.47851        -4.72846         0.35147
| 40>    N        4.54652        -5.07212         1.11292
| 41>    C        4.06920        -5.24297         2.31835
| 42>    C        2.63625        -5.01745         2.42926
| 43>    C        1.41904        -3.74328        -2.26969
| 44>    C        0.15491        -3.30919        -2.76090
| 45>    C       -0.04833        -2.56559        -3.86910
| 46>    C       -1.33498        -2.16950        -4.33620
| 47>    S       -1.51340        -1.55253        -5.95262
| 48>    C       -3.23133        -1.36522        -5.76980
| 49>    C       -3.62103        -1.75738        -4.48223
| 50>    C       -2.55355        -2.21461        -3.69254
| 51>    C       -4.92313        -1.71642        -3.95457
| 52>    N       -5.94932        -1.70309        -3.43978
| 53>    C       -3.99174        -0.89278        -6.86397
| 54>    C       -5.33331        -0.67680        -6.85045
| 55>    C       -6.04114        -0.22691        -7.99324
| 56>    N       -5.46435        -0.04346        -9.17431
| 57>    C       -6.44543         0.36175       -10.00344
| 58>    C       -7.73891         0.45369        -9.30600
| 59>    C       -8.79929         0.88977       -10.23139
| 60>    O       -9.97315         1.07043        -9.99934
| 61>    C       -8.06787         1.04341       -11.50411
| 62>    C       -6.63713         0.71297       -11.31847
| 63>    N       -5.96005         0.84734       -12.48474
| 64>    C       -6.85815         1.22981       -13.35942
| 65>    C       -8.19558         1.37087       -12.81443
| 66>    C       -7.49656         0.07688        -8.01002
| 67>    C       -8.33408        -0.03168        -6.87133
| 68>    C       -9.65496         0.27046        -6.83489
| 69>    C      -10.43984         0.14037        -5.64676
| 70>    C      -11.80586         0.51742        -5.65785
| 71>    C      -12.63724         0.40554        -4.48135
| 72>    N      -13.93387         0.77905        -4.53666
| 73>    C      -14.41392         1.23844        -5.65729
| 74>    C      -13.58310         1.35240        -6.83081
| 75>    N      -12.32822         0.99510        -6.79712
| 76>    C      -14.14039         1.86093        -8.03109
| 77>    N      -14.64064         2.27861        -8.97278
| 78>    C      -15.77566         1.63315        -5.72368
| 79>    N      -16.86895         1.96155        -5.81106
| 80>    C      -12.13472        -0.08066        -3.27876
| 81>    C      -10.79909        -0.45772        -3.24513
| 82>    C       -9.95060        -0.34973        -4.41621
| 83>    N       -8.70958        -0.76997        -4.14579
| 84>    S       -8.61722        -1.24016        -2.62253
| 85>    N      -10.12653        -0.94894        -2.19320
| 86>    H        4.10289        -3.44565        -8.17874
| 87>    H        4.72059        -5.52926         3.12580
| 88>    H        2.06134        -5.10232         3.33001
| 89>    H       -0.68469        -3.59070        -2.13956
| 90>    H        0.79026        -2.24296        -4.46984
| 91>    H       -2.67951        -2.54440        -2.67704
| 92>    H       -3.45776        -0.69218        -7.78340
| 93>    H       -5.89976        -0.84941        -5.94781
| 94>    H       -6.57698         1.41052       -14.38247
| 95>    H       -9.06504         1.67104       -13.36477
| 96>    H       -7.87158        -0.38106        -5.96039
| 97>    H      -10.17115         0.63224        -7.71453
| 98>    H      -12.76924        -0.15655        -2.41224
| 99> *
|100>
|101>                          ****END OF INPUT****

CARTESIAN COORDINATES (ANGSTROEM)
---------------------------------
  C      3.781710   -3.477460   -7.151210
  C      4.590800   -2.965380   -6.141700
  C      4.197290   -3.030070   -4.754640
  N      4.943790   -2.419610   -3.820230
  C      6.090050   -1.902460   -4.160920
  C      6.554010   -1.966020   -5.528350
  N      5.787920   -2.433520   -6.471820
  C      7.836960   -1.454040   -5.855200
  N      8.879880   -1.036750   -6.075130
  C      6.863050   -1.211210   -3.192750
  N      7.520650   -0.644340   -2.446530
  C      3.003430   -3.669760   -4.360980
  C      2.196140   -4.188860   -5.384040
  C      2.585580   -4.075360   -6.777730
  N      1.682780   -4.650170   -7.585610
  S      0.509600   -5.267740   -6.701280
  N      1.044290   -4.857420   -5.249260
  C      2.728830   -3.849640   -2.957660
  N      3.707180   -4.200910   -2.149890
  C      3.146920   -4.376790   -0.930680
  C      1.702600   -4.117670   -0.982370
  C      1.084690   -4.306580    0.342340
  O     -0.075710   -4.173130    0.655830
  C      2.241570   -4.697290    1.173410
  C      3.478510   -4.728460    0.351470
  N      4.546520   -5.072120    1.112920
  C      4.069200   -5.242970    2.318350
  C      2.636250   -5.017450    2.429260
  C      1.419040   -3.743280   -2.269690
  C      0.154910   -3.309190   -2.760900
  C     -0.048330   -2.565590   -3.869100
  C     -1.334980   -2.169500   -4.336200
  S     -1.513400   -1.552530   -5.952620
  C     -3.231330   -1.365220   -5.769800
  C     -3.621030   -1.757380   -4.482230
  C     -2.553550   -2.214610   -3.692540
  C     -4.923130   -1.716420   -3.954570
  N     -5.949320   -1.703090   -3.439780
  C     -3.991740   -0.892780   -6.863970
  C     -5.333310   -0.676800   -6.850450
  C     -6.041140   -0.226910   -7.993240
  N     -5.464350   -0.043460   -9.174310
  C     -6.445430    0.361750  -10.003440
  C     -7.738910    0.453690   -9.306000
  C     -8.799290    0.889770  -10.231390
  O     -9.973150    1.070430   -9.999340
  C     -8.067870    1.043410  -11.504110
  C     -6.637130    0.712970  -11.318470
  N     -5.960050    0.847340  -12.484740
  C     -6.858150    1.229810  -13.359420
  C     -8.195580    1.370870  -12.814430
  C     -7.496560    0.076880   -8.010020
  C     -8.334080   -0.031680   -6.871330
  C     -9.654960    0.270460   -6.834890
  C    -10.439840    0.140370   -5.646760
  C    -11.805860    0.517420   -5.657850
  C    -12.637240    0.405540   -4.481350
  N    -13.933870    0.779050   -4.536660
  C    -14.413920    1.238440   -5.657290
  C    -13.583100    1.352400   -6.830810
  N    -12.328220    0.995100   -6.797120
  C    -14.140390    1.860930   -8.031090
  N    -14.640640    2.278610   -8.972780
  C    -15.775660    1.633150   -5.723680
  N    -16.868950    1.961550   -5.811060
  C    -12.134720   -0.080660   -3.278760
  C    -10.799090   -0.457720   -3.245130
  C     -9.950600   -0.349730   -4.416210
  N     -8.709580   -0.769970   -4.145790
  S     -8.617220   -1.240160   -2.622530
  N    -10.126530   -0.948940   -2.193200
  H      4.102890   -3.445650   -8.178740
  H      4.720590   -5.529260    3.125800
  H      2.061340   -5.102320    3.330010
  H     -0.684690   -3.590700   -2.139560
  H      0.790260   -2.242960   -4.469840
  H     -2.679510   -2.544400   -2.677040
  H     -3.457760   -0.692180   -7.783400
  H     -5.899760   -0.849410   -5.947810
  H     -6.576980    1.410520  -14.382470
  H     -9.065040    1.671040  -13.364770
  H     -7.871580   -0.381060   -5.960390
  H    -10.171150    0.632240   -7.714530
  H    -12.769240   -0.156550   -2.412240

 Total Charge           Charge          ....    0
 Multiplicity           Mult            ....    1
 Number of Electrons    NEL             ....  490
 Basis Dimension        Dim             .... 1071

ORBITAL ENERGIES
----------------

  NO   OCC          E(Eh)            E(eV)
   0   2.0000     -89.073635     -2423.8168
   1   2.0000     -89.042127     -2422.9595
   2   2.0000     -89.003523     -2421.9090
   3   2.0000     -19.228323      -523.2293
   4   2.0000     -19.211898      -522.7823
   5   2.0000     -14.479157      -393.9979
   6   2.0000     -14.477023      -393.9398
   7   2.0000     -14.476415      -393.9233
   8   2.0000     -14.475889      -393.9090
   9   2.0000     -14.456068      -393.3696
  10   2.0000     -14.455711      -393.3599
  11   2.0000     -14.447098      -393.1255
  12   2.0000     -14.445238      -393.0749
  13   2.0000     -14.442804      -393.0087
  14   2.0000     -14.442534      -393.0013
  15   2.0000     -14.441532      -392.9741
  16   2.0000     -14.434283      -392.7768
  17   2.0000     -14.424358      -392.5067
  18   2.0000     -14.424223      -392.5031
  19   2.0000     -14.421412      -392.4266
  20   2.0000     -14.414660      -392.2428
  21   2.0000     -14.407139      -392.0382
  22   2.0000     -10.399838      -282.9940
  23   2.0000     -10.399274      -282.9786
  24   2.0000     -10.388705      -282.6910
  25   2.0000     -10.376697      -282.3643
  26   2.0000     -10.375311      -282.3266
  27   2.0000     -10.373362      -282.2735
  28   2.0000     -10.371574      -282.2249
  29   2.0000     -10.370449      -282.1943
  30   2.0000     -10.369163      -282.1593
  31   2.0000     -10.368293      -282.1356
  32   2.0000     -10.367081      -282.1026
  33   2.0000     -10.355537      -281.7885
  34   2.0000     -10.349874      -281.6344
  35   2.0000     -10.347589      -281.5722
  36   2.0000     -10.347330      -281.5652
  37   2.0000     -10.347218      -281.5621
  38   2.0000     -10.346688      -281.5477
  39   2.0000     -10.345929      -281.5271
  40   2.0000     -10.344840      -281.4974
  41   2.0000     -10.343158      -281.4516
  42   2.0000     -10.342761      -281.4408
  43   2.0000     -10.342379      -281.4304
  44   2.0000     -10.338392      -281.3219
  45   2.0000     -10.336857      -281.2802
  46   2.0000     -10.336306      -281.2652
  47   2.0000     -10.335208      -281.2353
  48   2.0000     -10.334870      -281.2261
  49   2.0000     -10.333776      -281.1963
  50   2.0000     -10.326862      -281.0082
  51   2.0000     -10.326745      -281.0050
  52   2.0000     -10.325845      -280.9805
  53   2.0000     -10.325545      -280.9724
  54   2.0000     -10.322135      -280.8796
  55   2.0000     -10.319398      -280.8051
  56   2.0000     -10.317364      -280.7498
  57   2.0000     -10.315662      -280.7034
  58   2.0000     -10.314663      -280.6763
  59   2.0000     -10.314513      -280.6722
  60   2.0000     -10.309596      -280.5384
  61   2.0000     -10.308616      -280.5117
  62   2.0000     -10.307844      -280.4907
  63   2.0000     -10.307470      -280.4805
  64   2.0000     -10.305321      -280.4221
  65   2.0000     -10.302664      -280.3497
  66   2.0000     -10.292905      -280.0842
  67   2.0000     -10.290565      -280.0205
  68   2.0000     -10.289210      -279.9836
  69   2.0000     -10.285372      -279.8792
  70   2.0000     -10.284514      -279.8559
  71   2.0000      -8.164634      -222.1710
  72   2.0000      -8.132078      -221.2851
  73   2.0000      -8.099169      -220.3896
  74   2.0000      -6.135423      -166.9534
  75   2.0000      -6.128112      -166.7544
  76   2.0000      -6.127568      -166.7396
  77   2.0000      -6.102945      -166.0696
  78   2.0000      -6.095584      -165.8693
  79   2.0000      -6.094945      -165.8519
  80   2.0000      -6.068247      -165.1254
  81   2.0000      -6.064164      -165.0143
  82   2.0000      -6.061604      -164.9446
  83   2.0000      -1.167809       -31.7777
  84   2.0000      -1.143061       -31.1043
  85   2.0000      -1.139003       -30.9939
  86   2.0000      -1.137125       -30.9427
  87   2.0000      -1.126659       -30.6580
  88   2.0000      -1.114628       -30.3306
  89   2.0000      -1.100339       -29.9417
  90   2.0000      -1.080853       -29.4115
  91   2.0000      -1.080615       -29.4050
  92   2.0000      -1.063620       -28.9426
  93   2.0000      -1.061149       -28.8753
  94   2.0000      -1.041372       -28.3372
  95   2.0000      -1.040937       -28.3253
  96   2.0000      -1.027015       -27.9465
  97   2.0000      -1.020017       -27.7561
  98   2.0000      -1.018870       -27.7249
  99   2.0000      -1.015440       -27.6315
 100   2.0000      -1.007328       -27.4108
 101   2.0000      -0.998143       -27.1608
 102   2.0000      -0.997060       -27.1314
 103   2.0000      -0.989139       -26.9158
 104   2.0000      -0.971374       -26.4324
 105   2.0000      -0.956160       -26.0184
 106   2.0000      -0.951745       -25.8983
 107   2.0000      -0.940366       -25.5887
 108   2.0000      -0.926788       -25.2192
 109   2.0000      -0.923375       -25.1263
 110   2.0000      -0.916339       -24.9349
 111   2.0000      -0.908549       -24.7229
 112   2.0000      -0.900441       -24.5022
 113   2.0000      -0.899070       -24.4649
 114   2.0000      -0.885570       -24.0976
 115   2.0000      -0.878901       -23.9161
 116   2.0000      -0.876691       -23.8560
 117   2.0000      -0.860285       -23.4095
 118   2.0000      -0.854860       -23.2619
 119   2.0000      -0.839087       -22.8327
 120   2.0000      -0.832661       -22.6579
 121   2.0000      -0.824694       -22.4411
 122   2.0000      -0.822319       -22.3764
 123   2.0000      -0.799728       -21.7617
 124   2.0000      -0.791832       -21.5468
 125   2.0000      -0.787853       -21.4386
 126   2.0000      -0.778552       -21.1855
 127   2.0000      -0.763693       -20.7812
 128   2.0000      -0.762892       -20.7593
 129   2.0000      -0.752938       -20.4885
 130   2.0000      -0.743234       -20.2244
 131   2.0000      -0.740088       -20.1388
 132   2.0000      -0.735789       -20.0218
 133   2.0000      -0.723283       -19.6815
 134   2.0000      -0.720337       -19.6014
 135   2.0000      -0.710366       -19.3300
 136   2.0000      -0.707027       -19.2392
 137   2.0000      -0.697424       -18.9779
 138   2.0000      -0.686531       -18.6815
 139   2.0000      -0.685438       -18.6517
 140   2.0000      -0.679345       -18.4859
 141   2.0000      -0.676049       -18.3962
 142   2.0000      -0.669709       -18.2237
 143   2.0000      -0.665489       -18.1089
 144   2.0000      -0.654810       -17.8183
 145   2.0000      -0.652002       -17.7419
 146   2.0000      -0.649388       -17.6707
 147   2.0000      -0.646049       -17.5799
 148   2.0000      -0.642915       -17.4946
 149   2.0000      -0.637223       -17.3397
 150   2.0000      -0.625056       -17.0086
 151   2.0000      -0.621537       -16.9129
 152   2.0000      -0.620297       -16.8791
 153   2.0000      -0.615927       -16.7602
 154   2.0000      -0.609825       -16.5942
 155   2.0000      -0.600455       -16.3392
 156   2.0000      -0.592441       -16.1211
 157   2.0000      -0.587067       -15.9749
 158   2.0000      -0.585343       -15.9280
 159   2.0000      -0.580676       -15.8010
 160   2.0000      -0.578058       -15.7298
 161   2.0000      -0.575472       -15.6594
 162   2.0000      -0.572550       -15.5799
 163   2.0000      -0.567562       -15.4441
 164   2.0000      -0.563532       -15.3345
 165   2.0000      -0.559930       -15.2365
 166   2.0000      -0.552259       -15.0277
 167   2.0000      -0.551537       -15.0081
 168   2.0000      -0.549447       -14.9512
 169   2.0000      -0.548253       -14.9187
 170   2.0000      -0.544525       -14.8173
 171   2.0000      -0.544193       -14.8082
 172   2.0000      -0.539558       -14.6821
 173   2.0000      -0.537128       -14.6160
 174   2.0000      -0.532987       -14.5033
 175   2.0000      -0.530188       -14.4271
 176   2.0000      -0.526272       -14.3206
 177   2.0000      -0.521658       -14.1950
 178   2.0000      -0.520259       -14.1570
 179   2.0000      -0.512621       -13.9491
 180   2.0000      -0.509615       -13.8673
 181   2.0000      -0.507521       -13.8104
 182   2.0000      -0.505708       -13.7610
 183   2.0000      -0.500738       -13.6258
 184   2.0000      -0.498546       -13.5661
 185   2.0000      -0.496837       -13.5196
 186   2.0000      -0.495213       -13.4754
 187   2.0000      -0.493024       -13.4159
 188   2.0000      -0.489853       -13.3296
 189   2.0000      -0.487356       -13.2616
 190   2.0000      -0.485915       -13.2224
 191   2.0000      -0.480530       -13.0759
 192   2.0000      -0.479824       -13.0567
 193   2.0000      -0.475484       -12.9386
 194   2.0000      -0.474741       -12.9184
 195   2.0000      -0.474095       -12.9008
 196   2.0000      -0.472393       -12.8545
 197   2.0000      -0.466932       -12.7059
 198   2.0000      -0.466841       -12.7034
 199   2.0000      -0.464653       -12.6439
 200   2.0000      -0.463257       -12.6059
 201   2.0000      -0.458324       -12.4716
 202   2.0000      -0.456382       -12.4188
 203   2.0000      -0.455974       -12.4077
 204   2.0000      -0.453658       -12.3447
 205   2.0000      -0.451185       -12.2774
 206   2.0000      -0.449383       -12.2283
 207   2.0000      -0.447288       -12.1713
 208   2.0000      -0.446324       -12.1451
 209   2.0000      -0.442579       -12.0432
 210   2.0000      -0.438885       -11.9427
 211   2.0000      -0.437921       -11.9164
 212   2.0000      -0.436270       -11.8715
 213   2.0000      -0.433498       -11.7961
 214   2.0000      -0.430666       -11.7190
 215   2.0000      -0.429784       -11.6950
 216   2.0000      -0.426445       -11.6041
 217   2.0000      -0.415596       -11.3090
 218   2.0000      -0.413898       -11.2627
 219   2.0000      -0.408122       -11.1056
 220   2.0000      -0.407933       -11.1004
 221   2.0000      -0.399944       -10.8830
 222   2.0000      -0.397752       -10.8234
 223   2.0000      -0.393269       -10.7014
 224   2.0000      -0.389324       -10.5940
 225   2.0000      -0.373043       -10.1510
 226   2.0000      -0.371670       -10.1137
 227   2.0000      -0.369491       -10.0544
 228   2.0000      -0.365330        -9.9411
 229   2.0000      -0.364749        -9.9253
 230   2.0000      -0.363619        -9.8946
 231   2.0000      -0.362743        -9.8707
 232   2.0000      -0.361440        -9.8353
 233   2.0000      -0.355519        -9.6742
 234   2.0000      -0.352864        -9.6019
 235   2.0000      -0.352848        -9.6015
 236   2.0000      -0.346128        -9.4186
 237   2.0000      -0.341211        -9.2848
 238   2.0000      -0.337826        -9.1927
 239   2.0000      -0.330420        -8.9912
 240   2.0000      -0.330305        -8.9880
 241   2.0000      -0.321511        -8.7488
 242   2.0000      -0.318687        -8.6719
 243   2.0000      -0.281920        -7.6714
 244   2.0000      -0.269526        -7.3342
 245   0.0000      -0.145719        -3.9652
 246   0.0000      -0.131221        -3.5707
 247   0.0000      -0.119050        -3.2395
 248   0.0000      -0.110536        -3.0078
 249   0.0000      -0.075199        -2.0463

MULLIKEN ATOMIC CHARGES
-----------------------
   0 C :   -0.066128
   1 C :    0.007276
   2 C :   -0.027803
   3 N :    0.099909
   4 C :   -0.137425
   5 C :   -0.145170
   6 N :    0.055138
   7 C :   -0.186213
   8 N :    0.239790
   9 C :   -0.185646
  10 N :    0.237153
  11 C :    0.078371
  12 C :   -0.035014
  13 C :    0.102633
  14 N :   -0.259032
  15 S :    0.568702
  16 N :   -0.254916
  17 C :   -0.086746
  18 N :   -0.009303
  19 C :    0.087020
  20 C :   -0.143952
  21 C :    0.212265
  22 O :   -0.124438
  23 C :   -0.036993
  24 C :   -0.022839
  25 N :   -0.050487
  26 C :    0.098934
  27 C :   -0.084136
  28 C :    0.074470
  29 C :   -0.020749
  30 C :    0.081818
  31 C :   -0.092822
  32 S :    0.168890
  33 C :   -0.054791
  34 C :   -0.069446
  35 C :    0.020086
  36 C :   -0.148934
  37 N :    0.113598
  38 C :    0.087519
  39 C :   -0.063611
  40 C :    0.032751
  41 N :   -0.045728
  42 C :    0.074835
  43 C :   -0.164249
  44 C :    0.214542
  45 O :   -0.122646
  46 C :   -0.012090
  47 C :   -0.036079
  48 N :   -0.055676
  49 C :    0.091644
  50 C :   -0.098924
  51 C :    0.088404
  52 C :   -0.029364
  53 C :   -0.064215
  54 C :    0.112591
  55 C :   -0.061999
  56 C :    0.021738
  57 N :    0.055916
  58 C :   -0.157505
  59 C :   -0.145480
  60 N :    0.076200
  61 C :   -0.190990
  62 N :    0.233734
  63 C :   -0.197500
  64 N :    0.233578
  65 C :   -0.081849
  66 C :    0.095194
  67 C :    0.005884
  68 N :   -0.306131
  69 S :    0.571969
  70 N :   -0.254204
  71 H :   -0.003241
  72 H :    0.020086
  73 H :    0.003284
  74 H :    0.011729
  75 H :   -0.000661
  76 H :    0.012976
  77 H :    0.017543
  78 H :    0.008641
  79 H :    0.010040
  80 H :   -0.002022
  81 H :    0.011328
  82 H :    0.016016
  83 H :   -0.017047
Sum of atomic charges:   -0.0000000

LOEWDIN ATOMIC CHARGES
----------------------
   0 C :    0.025963
   1 C :   -0.013751
   2 C :    0.012924
   3 N :    0.018523
   4 C :   -0.017093
   5 C :   -0.019758
   6 N :    0.002664
   7 C :   -0.036344
   8 N :    0.007293
   9 C :   -0.034421
  10 N :    0.007701
  11 C :   -0.038272
  12 C :   -0.043500
  13 C :   -0.051928
  14 N :   -0.278432
  15 S :    0.711465
  16 N :   -0.283590
  17 C :    0.075697
  18 N :   -0.068120
  19 C :    0.040183
  20 C :   -0.038103
  21 C :    0.066068
  22 O :   -0.134980
  23 C :   -0.037650
  24 C :    0.041853
  25 N :   -0.090496
  26 C :    0.089923
  27 C :   -0.025447
  28 C :   -0.025480
  29 C :    0.008171
  30 C :   -0.036037
  31 C :   -0.157705
  32 S :    0.476284
  33 C :   -0.147831
  34 C :   -0.093558
  35 C :   -0.017769
  36 C :   -0.004565
  37 N :   -0.070873
  38 C :    0.020248
  39 C :   -0.032051
  40 C :    0.066242
  41 N :   -0.107508
  42 C :    0.043508
  43 C :   -0.038589
  44 C :    0.066159
  45 O :   -0.128722
  46 C :   -0.039768
  47 C :    0.024065
  48 N :   -0.098855
  49 C :    0.076369
  50 C :   -0.033843
  51 C :   -0.027130
  52 C :   -0.015533
  53 C :    0.012379
  54 C :   -0.009985
  55 C :   -0.009364
  56 C :   -0.013610
  57 N :   -0.000275
  58 C :   -0.027900
  59 C :   -0.029770
  60 N :    0.012392
  61 C :   -0.034500
  62 N :   -0.004304
  63 C :   -0.034844
  64 N :   -0.005008
  65 C :   -0.000279
  66 C :   -0.049391
  67 C :   -0.038814
  68 N :   -0.284416
  69 S :    0.725452
  70 N :   -0.287804
  71 H :    0.054604
  72 H :    0.028252
  73 H :    0.037967
  74 H :    0.041506
  75 H :    0.026811
  76 H :    0.044663
  77 H :    0.044060
  78 H :    0.039022
  79 H :    0.023790
  80 H :    0.035806
  81 H :    0.025939
  82 H :    0.035873
  83 H :    0.048148

  Mayer bond orders larger than 0.100000
B(  0-C ,  1-C ) :   1.2841 B(  0-C , 11-C ) :   0.1538 B(  0-C , 13-C ) :   1.1763
B(  0-C , 71-H ) :   1.0640 B(  1-C ,  2-C ) :   1.1330 B(  1-C ,  6-N ) :   1.3358
B(  2-C ,  3-N ) :   1.4357 B(  2-C , 11-C ) :   1.3348 B(  3-N ,  4-C ) :   1.7744
B(  4-C ,  5-C ) :   1.1616 B(  4-C ,  9-C ) :   1.1405 B(  5-C ,  6-N ) :   1.7983
B(  5-C ,  7-C ) :   1.1417 B(  7-C ,  8-N ) :   3.0535 B(  9-C , 10-N ) :   3.0485
B( 11-C , 12-C ) :   1.2980 B( 11-C , 17-C ) :   0.9564 B( 12-C , 13-C ) :   1.1137
B( 12-C , 16-N ) :   1.5007 B( 13-C , 14-N ) :   1.4467 B( 14-N , 15-S ) :   1.3318
B( 14-N , 16-N ) :   0.1603 B( 15-S , 16-N ) :   1.2951 B( 17-C , 18-N ) :   1.6872
B( 17-C , 19-C ) :   0.1327 B( 17-C , 28-C ) :   1.0331 B( 18-N , 19-C ) :   1.3099
B( 19-C , 20-C ) :   1.0472 B( 19-C , 24-C ) :   1.4449 B( 20-C , 21-C ) :   0.8865
B( 20-C , 28-C ) :   1.5490 B( 21-C , 22-O ) :   2.2846 B( 21-C , 23-C ) :   0.8969
B( 23-C , 24-C ) :   1.0453 B( 23-C , 27-C ) :   1.6394 B( 24-C , 25-N ) :   1.2989
B( 25-N , 26-C ) :   1.6711 B( 26-C , 27-C ) :   1.0499 B( 26-C , 72-H ) :   0.9884
B( 27-C , 73-H ) :   1.0097 B( 28-C , 29-C ) :   1.1304 B( 29-C , 30-C ) :   1.6926
B( 29-C , 74-H ) :   0.9576 B( 30-C , 31-C ) :   1.1044 B( 30-C , 75-H ) :   0.9476
B( 31-C , 32-S ) :   1.1329 B( 31-C , 35-C ) :   1.4815 B( 32-S , 33-C ) :   1.1328
B( 33-C , 34-C ) :   1.4251 B( 33-C , 38-C ) :   1.1249 B( 34-C , 35-C ) :   1.3084
B( 34-C , 36-C ) :   1.1084 B( 35-C , 76-H ) :   1.0003 B( 36-C , 37-N ) :   2.9764
B( 38-C , 39-C ) :   1.6460 B( 38-C , 77-H ) :   0.9597 B( 39-C , 40-C ) :   1.1612
B( 39-C , 78-H ) :   0.9463 B( 40-C , 41-N ) :   1.5957 B( 40-C , 42-C ) :   0.1082
B( 40-C , 51-C ) :   1.0023 B( 41-N , 42-C ) :   1.3517 B( 42-C , 43-C ) :   1.0560
B( 42-C , 47-C ) :   1.4035 B( 43-C , 44-C ) :   0.8914 B( 43-C , 51-C ) :   1.5381
B( 44-C , 45-O ) :   2.2221 B( 44-C , 46-C ) :   0.9179 B( 46-C , 47-C ) :   1.0680
B( 46-C , 50-C ) :   1.6067 B( 47-C , 48-N ) :   1.3156 B( 48-N , 49-C ) :   1.6520
B( 49-C , 50-C ) :   1.0688 B( 49-C , 79-H ) :   0.9886 B( 50-C , 80-H ) :   1.0105
B( 51-C , 52-C ) :   1.1174 B( 52-C , 53-C ) :   1.5991 B( 52-C , 81-H ) :   0.9423
B( 53-C , 54-C ) :   1.1529 B( 53-C , 82-H ) :   0.9652 B( 54-C , 55-C ) :   1.2455
B( 54-C , 65-C ) :   0.1408 B( 54-C , 67-C ) :   1.1992 B( 55-C , 56-C ) :   1.1300
B( 55-C , 60-N ) :   1.4444 B( 56-C , 57-N ) :   1.3389 B( 56-C , 65-C ) :   1.3051
B( 57-N , 58-C ) :   1.7913 B( 58-C , 59-C ) :   1.1780 B( 58-C , 63-C ) :   1.1493
B( 59-C , 60-N ) :   1.7719 B( 59-C , 61-C ) :   1.1455 B( 61-C , 62-N ) :   3.0451
B( 63-C , 64-N ) :   3.0552 B( 65-C , 66-C ) :   1.1818 B( 65-C , 83-H ) :   1.0559
B( 66-C , 67-C ) :   1.1288 B( 66-C , 70-N ) :   1.4556 B( 67-C , 68-N ) :   1.4674
B( 68-N , 69-S ) :   1.2849 B( 68-N , 70-N ) :   0.1537 B( 69-S , 70-N ) :   1.3213

-----------------------------------------------------------------------------
         ABSORPTION SPECTRUM VIA TRANSITION ELECTRIC DIPOLE MOMENTS
-----------------------------------------------------------------------------
State   Energy  Wavelength   fosc         T2         TX        TY        TZ
        (cm-1)    (nm)                  (au**2)     (au)      (au)      (au)
-----------------------------------------------------------------------------
   0   13971.0    715.8   0.061207335   1.44229  -0.88401   0.42588  -0.69242
   1   14623.6    683.8   0.123531762   2.78099  -1.01555  -0.08895   1.31975
   2   17416.5    574.2   0.411940117   7.78661  -2.72060   0.61871   0.04653
   3   18341.6    545.2   0.920942189  16.52991  -1.85717   1.31714  -3.36838
   4   19518.2    512.3   0.010352165   0.17461  -0.12387   0.11527  -0.38207
   5   20042.0    499.0   0.272956763   4.48363   0.64400  -0.56818   1.93547
   6   20680.6    483.5   0.005857699   0.09325  -0.12082   0.14056  -0.24268
   7   20919.2    478.0   0.065515673   1.03104  -0.21708  -0.32474   0.93726
   8   21633.0    462.3   0.444776508   6.76862  -0.16480  -0.55838   2.53568
   9   23495.0    425.6   0.018308765   0.25654  -0.48540   0.06644  -0.12851
  10   23738.2    421.3   0.266409255   3.69468  -1.27387   0.66512  -1.27654
  11   23966.1    417.3   0.062916789   0.86426   0.71728  -0.31973   0.49753
  12   24423.5    409.4   0.005778226   0.07789  -0.02537  -0.02084  -0.27714
  13   24799.6    403.2   0.018108078   0.24038  -0.25285  -0.09513   0.40915
  14   25071.8    398.9   0.000394946   0.00519  -0.06151  -0.00656  -0.03686
  15   25313.6    395.0   0.035883133   0.46667   0.10695  -0.16594   0.65398
  16   25531.3    391.7   0.013237168   0.17069  -0.00455  -0.13258   0.39127
  17   25682.0    389.4   0.001312240   0.01682   0.12496   0.03301   0.01079
  18   26248.3    381.0   0.005838176   0.07322   0.03678   0.26236   0.05514
  19   26508.4    377.2   0.002110824   0.02621  -0.14814   0.06310   0.01695
  20   26681.5    374.8   0.091460578   1.12849   0.92388  -0.12712  -0.50870
  21   27176.3    368.0   0.019076692   0.23109   0.12506  -0.32126   0.33503
  22   27829.2    359.3   0.022126548   0.26175  -0.47788  -0.09415   0.15658
  23   28421.2    351.8   0.299975301   3.47471  -0.76329   0.60560  -1.58913
  24   28713.9    348.3   0.000255949   0.00293   0.01043  -0.04642   0.02591
  25   29066.1    344.0   0.013712955   0.15532   0.13022   0.35492   0.11132
  26   29164.1    342.9   0.065878439   0.74365  -0.73788  -0.32102  -0.31005
  27   29333.8    340.9   0.170437687   1.91281  -1.12241   0.67585   0.44300
  28   29469.3    339.3   0.275810070   3.08117   1.64949   0.58009   0.15443
  29   29864.1    334.9   0.183641075   2.02440   0.79060   0.05218  -1.18179
  30   30249.7    330.6   0.003507017   0.03817  -0.12725   0.14799  -0.00848
  31   30423.9    328.7   0.002832450   0.03065   0.12265   0.02585  -0.12222
  32   30518.0    327.7   0.044820411   0.48350  -0.59968  -0.27978   0.21356
  33   30728.7    325.4   0.028404589   0.30431   0.15628  -0.03838   0.52765
  34   30937.9    323.2   0.011185144   0.11902  -0.29747   0.06125   0.16366
  35   31567.6    316.8   0.004013504   0.04186   0.14266   0.07348  -0.12691
  36   31854.0    313.9   0.265007277   2.73886   0.47597  -0.64940   1.44588
  37   32501.8    307.7   0.002818675   0.02855  -0.03513   0.11053  -0.12288
  38   32607.4    306.7   0.000807540   0.00815  -0.08124  -0.01749  -0.03533
  39   32620.0    306.6   0.006477137   0.06537  -0.23249  -0.09670  -0.04432
  40   32807.7    304.8   0.042811936   0.42960  -0.53963   0.25955  -0.26652
  41   32874.6    304.2   0.001560848   0.01563  -0.11860   0.02580   0.02997
  42   33317.0    300.1   0.027095564   0.26774   0.49760  -0.13811   0.03258
  43   33368.7    299.7   0.035142866   0.34672   0.57788  -0.10176  -0.04921
  44   33688.4    296.8   0.018105139   0.17693  -0.35293   0.11859  -0.19572
  45   33789.9    295.9   0.030659378   0.29871   0.04190   0.17029  -0.51764
  46   33921.9    294.8   0.048679723   0.47244   0.24309  -0.21111   0.60727
  47   34123.9    293.0   0.009069806   0.08750   0.06108  -0.10813   0.26847
  48   34200.9    292.4   0.000495819   0.00477  -0.06608  -0.00042   0.02014
  49   34249.9    292.0   0.008797819   0.08457   0.09040   0.00436  -0.27636
  50   34492.8    289.9   0.009584442   0.09148   0.02531   0.00110   0.30139
  51   34968.7    286.0   0.020320512   0.19131  -0.15546   0.13270  -0.38669
  52   35330.8    283.0   0.012731316   0.11863   0.20418  -0.03539  -0.27512
  53   35410.1    282.4   0.442192463   4.11111   1.76627  -0.58310   0.80710
  54   35522.8    281.5   0.033779301   0.31305   0.17147  -0.32492   0.42200
  55   35599.5    280.9   0.000199370   0.00184   0.03022   0.02540   0.01689
  56   35781.7    279.5   0.178561851   1.64287  -0.79478   0.44236  -0.90306
  57   35899.4    278.6   0.134202233   1.23069  -0.77743  -0.36351   0.70295
  58   36011.2    277.7   0.478373739   4.37326   1.41223  -0.77730   1.33217
  59   36198.9    276.3   0.012592555   0.11452   0.31351   0.07062   0.10607
  60   36266.7    275.7   0.226743793   2.05827  -1.29117   0.32364  -0.53517
  61   36616.7    273.1   0.034456354   0.30979  -0.25589   0.23105  -0.43695
  62   36933.8    270.8   0.005877988   0.05239   0.08056  -0.10773   0.18520
  63   37183.6    268.9   0.081402416   0.72071  -0.11367  -0.34957   0.76524
  64   37387.9    267.5   0.000163615   0.00144  -0.00510   0.01739   0.03335
  65   37415.5    267.3   0.001603138   0.01411   0.11529   0.01773  -0.02236
  66   37624.5    265.8   0.000054658   0.00048   0.00401   0.00171  -0.02143
  67   37723.6    265.1   0.017981839   0.15693   0.31821   0.16111  -0.17238
  68   37989.8    263.2   0.077554865   0.67208   0.80734   0.13605  -0.04197
  69   38068.7    262.7   0.000596612   0.00516   0.02146   0.03386   0.05960
  70   38093.5    262.5   0.029195076   0.25231  -0.48210  -0.13596   0.03747
  71   38140.7    262.2   0.013322978   0.11500   0.16738   0.17972  -0.23384
  72   38155.0    262.1   0.014084329   0.12152  -0.06883  -0.08409   0.33123
  73   38360.0    260.7   0.061131397   0.52464  -0.10657   0.49013  -0.52255
  74   38504.0    259.7   0.000235906   0.00202  -0.03002   0.01076  -0.03162
  75   38836.1    257.5   0.002872261   0.02435  -0.04971  -0.09340  -0.11469
  76   38846.0    257.4   0.022560380   0.19119   0.14142   0.25155   0.32851
  77   38944.5    256.8   0.212999076   1.80056   1.27963   0.37213   0.15690
  78   39105.4    255.7   0.000194188   0.00163   0.00314  -0.03875   0.01111
  79   39243.2    254.8   0.002821900   0.02367   0.11882   0.01475   0.09663
  80   39323.7    254.3   0.110000653   0.92091   0.56244   0.46512  -0.62308
  81   39384.9    253.9   0.603006864   5.04044  -1.97750  -0.91411  -0.54254
  82   39641.4    252.3   0.033207407   0.27578  -0.23210  -0.43013  -0.19209
  83   39876.8    250.8   0.036963302   0.30516  -0.22680  -0.49258   0.10530
  84   39967.2    250.2   0.062441636   0.51434  -0.25159   0.39128  -0.54584
  85   40043.8    249.7   0.001832824   0.01507  -0.06126  -0.09020  -0.05639
  86   40304.2    248.1   0.048074676   0.39268   0.43066   0.32604   0.31767

FINAL SINGLE POINT ENERGY     -4146.449750801809

DIPOLE MOMENT
-------------
                                X             Y             Z
Electronic contribution:      6.02507      -2.39948       1.54466
Nuclear contribution   :     -3.32803      -0.45720      -0.49564
                        -----------------------------------------
Total Dipole Moment    :      2.69703      -2.85667       1.04902
                        -----------------------------------------
Magnitude (a.u.)       :      4.06633
Magnitude (Debye)      :     10.33578

Rotational constants in cm-1:     0.001582     0.000330     0.000283
Rotational constants in MHz :    47.427709     9.883273     8.485729

                             ****ORCA TERMINATED NORMALLY****
TOTAL RUN TIME: 0 days 0 hours 7 minutes 39 seconds 21 msec
