                         Program Version 4.2.0 -  RELEASE  -
|  1> # ORCA input file
|  2> # SCF done       -216.739431458470          0.000571367319
|  3> ! CAM-B3LYP def2-SVP def2/J RIJCOSX Grid4 TightSCF
|  4> %maxcore 5000
|  5> %tddft
|  6>     Mode sTDDFT
|  7>     Ethresh 5.0
|  8>     maxcore 5000
|  9> end
| 10>
| 11> %pal
| 12>   nprocs 6
| 13>   end
| 14> * xyz 0 1
| 15>    C       -6.30159        -1.43207         1.20549
| 16>    O       -6.59068        -1.06107         0.09290
| 17>    C       -6.19977        -2.83934         1.66675
| 18>    C       -5.87290        -2.87533         3.03324
| 19>    C       -5.73786        -4.08443         3.69436
| 20>    C       -5.93367        -5.25021         2.96769
| 21>    C       -6.25623        -5.23237         1.61203
| 22>    C       -6.39310        -4.00873         0.95199
| 23>    F       -6.70675        -3.99503        -0.33792
| 24>    F       -6.43754        -6.37663         0.94985
| 25>    F       -5.81498        -6.42684         3.58522
| 26>    C       -5.73639        -1.50074         3.51428
| 27>    C       -5.30432        -1.13763         4.76320
| 28>    C       -4.99070        -2.05223         5.79144
| 29>    N       -4.73071        -2.74393         6.66920
| 30>    C       -5.07955         0.18915         5.19069
| 31>    N       -4.85369         1.23612         5.60397
| 32>    C       -6.05689        -0.61372         2.41592
| 33>    C       -6.29185         0.73154         2.54724
| 34>    C       -6.51676         1.69955         1.55424
| 35>    C       -6.23327         1.71636         0.19064
| 36>    C       -6.62319         2.90205        -0.40859
| 37>    C       -7.22570         3.81428         0.49461
| 38>    S       -7.25362         3.22046         2.08587
| 39>    C       -7.65830         4.94888        -0.22178
| 40>    C       -7.32420         4.76565        -1.58256
| 41>    C       -6.63881         3.49158        -1.73751
| 42>    C       -6.10414         2.97759        -2.88104
| 43>    C       -6.19728         3.65229        -4.11784
| 44>    N       -6.27383         4.19461        -5.12493
| 45>    C       -5.39032         1.75899        -2.90657
| 46>    N       -4.78118         0.78909        -2.94256
| 47>    C       -7.74502         5.81614        -2.38292
| 48>    C       -8.40419         6.79712        -1.64796
| 49>    S       -8.48535         6.42403         0.06246
| 50>    C       -9.01324         7.97280        -2.15374
| 51>    C       -9.68716         8.86551        -1.28580
| 52>    C      -10.38288        10.01784        -1.76541
| 53>    N      -11.01702        10.82103        -0.89456
| 54>    C      -10.98302        10.53582         0.37781
| 55>    C      -10.29775         9.39842         0.85089
| 56>    N       -9.67589         8.59710         0.03081
| 57>    C      -10.44818        10.34371        -3.14158
| 58>    C       -9.73912         9.48350        -4.00917
| 59>    C       -9.03223         8.31860        -3.52324
| 60>    N       -8.44688         7.65351        -4.52176
| 61>    S       -8.74120         8.39875        -5.90726
| 62>    N       -9.62916         9.60109        -5.33448
| 63>    C      -11.21626        11.44926        -3.58511
| 64>    C      -11.41452        11.85291        -4.90183
| 65>    C      -12.27195        12.93882        -4.98550
| 66>    C      -12.72565        13.37722        -3.72067
| 67>    S      -12.08946        12.44145        -2.43337
| 68>    C      -13.60774        14.46175        -3.91925
| 69>    C      -13.72209        14.70509        -5.30880
| 70>    C      -12.87092        13.76683        -6.01893
| 71>    C      -12.66898        13.70545        -7.36649
| 72>    C      -13.31781        14.60292        -8.24106
| 73>    N      -13.86104        15.34009        -8.93123
| 74>    C      -11.81313        12.75326        -7.95948
| 75>    N      -11.12453        11.97252        -8.43937
| 76>    C      -14.57864        15.75003        -5.60827
| 77>    C      -15.12384        16.32983        -4.46613
| 78>    S      -14.56740        15.52310        -3.00018
| 79>    C      -16.06525        17.36830        -4.35905
| 80>    C      -16.48692        18.25895        -5.30636
| 81>    C      -17.79506        18.93755        -5.09310
| 82>    O      -18.43465        18.96354        -4.07211
| 83>    C      -18.14167        19.51423        -6.41539
| 84>    C      -17.07182        19.32060        -7.30870
| 85>    C      -15.97107        18.67355        -6.58923
| 86>    C      -14.65786        18.71336        -6.98017
| 87>    C      -14.21256        19.26312        -8.20163
| 88>    N      -13.79910        19.70384        -9.17628
| 89>    C      -13.58831        18.29889        -6.16183
| 90>    N      -12.69099        17.99121        -5.51567
| 91>    C      -17.16561        19.72722        -8.62767
| 92>    C      -18.34273        20.33832        -9.03710
| 93>    C      -19.40683        20.55391        -8.16289
| 94>    C      -19.30573        20.13509        -6.83388
| 95>    F      -20.32550        20.33476        -6.00679
| 96>    F      -20.51943        21.15122        -8.59461
| 97>    F      -18.46471        20.72914       -10.30608
| 98>    H       -5.49563        -4.15979         4.74137
| 99>    H       -6.35924         1.11611         3.55844
|100>    H       -5.76693         0.89402        -0.31860
|101>    H       -7.61058         5.89769        -3.44585
|102>    H      -11.50191        11.20873         1.04487
|103>    H      -10.26154         9.14883         1.90134
|104>    H      -10.94688        11.34912        -5.72782
|105>    H      -14.84840        16.05174        -6.60349
|106>    H      -16.60149        17.43094        -3.41663
|107>    H      -16.37602        19.57832        -9.34580
|108> *
|109>
|110>                          ****END OF INPUT****

CARTESIAN COORDINATES (ANGSTROEM)
---------------------------------
  C     -6.301590   -1.432070    1.205490
  O     -6.590680   -1.061070    0.092900
  C     -6.199770   -2.839340    1.666750
  C     -5.872900   -2.875330    3.033240
  C     -5.737860   -4.084430    3.694360
  C     -5.933670   -5.250210    2.967690
  C     -6.256230   -5.232370    1.612030
  C     -6.393100   -4.008730    0.951990
  F     -6.706750   -3.995030   -0.337920
  F     -6.437540   -6.376630    0.949850
  F     -5.814980   -6.426840    3.585220
  C     -5.736390   -1.500740    3.514280
  C     -5.304320   -1.137630    4.763200
  C     -4.990700   -2.052230    5.791440
  N     -4.730710   -2.743930    6.669200
  C     -5.079550    0.189150    5.190690
  N     -4.853690    1.236120    5.603970
  C     -6.056890   -0.613720    2.415920
  C     -6.291850    0.731540    2.547240
  C     -6.516760    1.699550    1.554240
  C     -6.233270    1.716360    0.190640
  C     -6.623190    2.902050   -0.408590
  C     -7.225700    3.814280    0.494610
  S     -7.253620    3.220460    2.085870
  C     -7.658300    4.948880   -0.221780
  C     -7.324200    4.765650   -1.582560
  C     -6.638810    3.491580   -1.737510
  C     -6.104140    2.977590   -2.881040
  C     -6.197280    3.652290   -4.117840
  N     -6.273830    4.194610   -5.124930
  C     -5.390320    1.758990   -2.906570
  N     -4.781180    0.789090   -2.942560
  C     -7.745020    5.816140   -2.382920
  C     -8.404190    6.797120   -1.647960
  S     -8.485350    6.424030    0.062460
  C     -9.013240    7.972800   -2.153740
  C     -9.687160    8.865510   -1.285800
  C    -10.382880   10.017840   -1.765410
  N    -11.017020   10.821030   -0.894560
  C    -10.983020   10.535820    0.377810
  C    -10.297750    9.398420    0.850890
  N     -9.675890    8.597100    0.030810
  C    -10.448180   10.343710   -3.141580
  C     -9.739120    9.483500   -4.009170
  C     -9.032230    8.318600   -3.523240
  N     -8.446880    7.653510   -4.521760
  S     -8.741200    8.398750   -5.907260
  N     -9.629160    9.601090   -5.334480
  C    -11.216260   11.449260   -3.585110
  C    -11.414520   11.852910   -4.901830
  C    -12.271950   12.938820   -4.985500
  C    -12.725650   13.377220   -3.720670
  S    -12.089460   12.441450   -2.433370
  C    -13.607740   14.461750   -3.919250
  C    -13.722090   14.705090   -5.308800
  C    -12.870920   13.766830   -6.018930
  C    -12.668980   13.705450   -7.366490
  C    -13.317810   14.602920   -8.241060
  N    -13.861040   15.340090   -8.931230
  C    -11.813130   12.753260   -7.959480
  N    -11.124530   11.972520   -8.439370
  C    -14.578640   15.750030   -5.608270
  C    -15.123840   16.329830   -4.466130
  S    -14.567400   15.523100   -3.000180
  C    -16.065250   17.368300   -4.359050
  C    -16.486920   18.258950   -5.306360
  C    -17.795060   18.937550   -5.093100
  O    -18.434650   18.963540   -4.072110
  C    -18.141670   19.514230   -6.415390
  C    -17.071820   19.320600   -7.308700
  C    -15.971070   18.673550   -6.589230
  C    -14.657860   18.713360   -6.980170
  C    -14.212560   19.263120   -8.201630
  N    -13.799100   19.703840   -9.176280
  C    -13.588310   18.298890   -6.161830
  N    -12.690990   17.991210   -5.515670
  C    -17.165610   19.727220   -8.627670
  C    -18.342730   20.338320   -9.037100
  C    -19.406830   20.553910   -8.162890
  C    -19.305730   20.135090   -6.833880
  F    -20.325500   20.334760   -6.006790
  F    -20.519430   21.151220   -8.594610
  F    -18.464710   20.729140  -10.306080
  H     -5.495630   -4.159790    4.741370
  H     -6.359240    1.116110    3.558440
  H     -5.766930    0.894020   -0.318600
  H     -7.610580    5.897690   -3.445850
  H    -11.501910   11.208730    1.044870
  H    -10.261540    9.148830    1.901340
  H    -10.946880   11.349120   -5.727820
  H    -14.848400   16.051740   -6.603490
  H    -16.601490   17.430940   -3.416630
  H    -16.376020   19.578320   -9.345800

 Total Charge           Charge          ....    0
 Multiplicity           Mult            ....    1
 Number of Electrons    NEL             ....  592
 Basis Dimension        Dim             .... 1232

ORBITAL ENERGIES
----------------

  NO   OCC          E(Eh)            E(eV)
   0   2.0000     -89.058251     -2423.3982
   1   2.0000     -89.003769     -2421.9157
   2   2.0000     -89.001694     -2421.8592
   3   2.0000     -88.995201     -2421.6825
   4   2.0000     -88.994282     -2421.6575
   5   2.0000     -24.813808      -675.2180
   6   2.0000     -24.813446      -675.2082
   7   2.0000     -24.813296      -675.2041
   8   2.0000     -24.812125      -675.1722
   9   2.0000     -24.811059      -675.1433
  10   2.0000     -24.811022      -675.1422
  11   2.0000     -19.228078      -523.2226
  12   2.0000     -19.226477      -523.1790
  13   2.0000     -14.468659      -393.7122
  14   2.0000     -14.468340      -393.7035
  15   2.0000     -14.465735      -393.6327
  16   2.0000     -14.465429      -393.6243
  17   2.0000     -14.438377      -392.8882
  18   2.0000     -14.436175      -392.8283
  19   2.0000     -14.434966      -392.7954
  20   2.0000     -14.432626      -392.7317
  21   2.0000     -14.427820      -392.6009
  22   2.0000     -14.426266      -392.5586
  23   2.0000     -14.424188      -392.5021
  24   2.0000     -14.422756      -392.4632
  25   2.0000     -10.402450      -283.0650
  26   2.0000     -10.401935      -283.0510
  27   2.0000     -10.399330      -282.9802
  28   2.0000     -10.398984      -282.9707
  29   2.0000     -10.397025      -282.9174
  30   2.0000     -10.396595      -282.9057
  31   2.0000     -10.384820      -282.5853
  32   2.0000     -10.382446      -282.5207
  33   2.0000     -10.372357      -282.2462
  34   2.0000     -10.371061      -282.2109
  35   2.0000     -10.362111      -281.9674
  36   2.0000     -10.361793      -281.9587
  37   2.0000     -10.359607      -281.8992
  38   2.0000     -10.357650      -281.8460
  39   2.0000     -10.357187      -281.8334
  40   2.0000     -10.356927      -281.8263
  41   2.0000     -10.356564      -281.8164
  42   2.0000     -10.356389      -281.8117
  43   2.0000     -10.356243      -281.8077
  44   2.0000     -10.355204      -281.7794
  45   2.0000     -10.354404      -281.7576
  46   2.0000     -10.353407      -281.7305
  47   2.0000     -10.351976      -281.6916
  48   2.0000     -10.351162      -281.6694
  49   2.0000     -10.338706      -281.3305
  50   2.0000     -10.336975      -281.2834
  51   2.0000     -10.336963      -281.2831
  52   2.0000     -10.336404      -281.2679
  53   2.0000     -10.336348      -281.2663
  54   2.0000     -10.336205      -281.2624
  55   2.0000     -10.334988      -281.2293
  56   2.0000     -10.334937      -281.2279
  57   2.0000     -10.334778      -281.2236
  58   2.0000     -10.333859      -281.1986
  59   2.0000     -10.332973      -281.1745
  60   2.0000     -10.332803      -281.1699
  61   2.0000     -10.332048      -281.1493
  62   2.0000     -10.331230      -281.1271
  63   2.0000     -10.331092      -281.1233
  64   2.0000     -10.330303      -281.1018
  65   2.0000     -10.328854      -281.0624
  66   2.0000     -10.328353      -281.0488
  67   2.0000     -10.326675      -281.0031
  68   2.0000     -10.324606      -280.9468
  69   2.0000     -10.321737      -280.8687
  70   2.0000     -10.316221      -280.7186
  71   2.0000     -10.315766      -280.7063
  72   2.0000     -10.314921      -280.6833
  73   2.0000     -10.314865      -280.6817
  74   2.0000     -10.314645      -280.6758
  75   2.0000     -10.313893      -280.6553
  76   2.0000     -10.313264      -280.6382
  77   2.0000     -10.312720      -280.6234
  78   2.0000     -10.312215      -280.6096
  79   2.0000     -10.310038      -280.5504
  80   2.0000     -10.309934      -280.5476
  81   2.0000     -10.306581      -280.4563
  82   2.0000     -10.305639      -280.4307
  83   2.0000      -8.149253      -221.7525
  84   2.0000      -8.098416      -220.3691
  85   2.0000      -8.096636      -220.3207
  86   2.0000      -8.087373      -220.0686
  87   2.0000      -8.086618      -220.0481
  88   2.0000      -6.120276      -166.5412
  89   2.0000      -6.112362      -166.3258
  90   2.0000      -6.112260      -166.3230
  91   2.0000      -6.067503      -165.1051
  92   2.0000      -6.065718      -165.0566
  93   2.0000      -6.063432      -164.9944
  94   2.0000      -6.061620      -164.9451
  95   2.0000      -6.060991      -164.9280
  96   2.0000      -6.059143      -164.8777
  97   2.0000      -6.057017      -164.8198
  98   2.0000      -6.056236      -164.7985
  99   2.0000      -6.052066      -164.6851
 100   2.0000      -6.051356      -164.6658
 101   2.0000      -6.049873      -164.6254
 102   2.0000      -6.049049      -164.6030
 103   2.0000      -1.340707       -36.4825
 104   2.0000      -1.340542       -36.4780
 105   2.0000      -1.330117       -36.1943
 106   2.0000      -1.329557       -36.1791
 107   2.0000      -1.318909       -35.8893
 108   2.0000      -1.318849       -35.8877
 109   2.0000      -1.155383       -31.4396
 110   2.0000      -1.146463       -31.1969
 111   2.0000      -1.144635       -31.1471
 112   2.0000      -1.125735       -30.6328
 113   2.0000      -1.057105       -28.7653
 114   2.0000      -1.053884       -28.6777
 115   2.0000      -1.049793       -28.5663
 116   2.0000      -1.032616       -28.0989
 117   2.0000      -1.032050       -28.0835
 118   2.0000      -1.029019       -28.0010
 119   2.0000      -1.026217       -27.9248
 120   2.0000      -1.015284       -27.6273
 121   2.0000      -1.013685       -27.5838
 122   2.0000      -1.013645       -27.5827
 123   2.0000      -1.012955       -27.5639
 124   2.0000      -1.011807       -27.5327
 125   2.0000      -1.010267       -27.4908
 126   2.0000      -1.003935       -27.3185
 127   2.0000      -1.003340       -27.3023
 128   2.0000      -1.000892       -27.2357
 129   2.0000      -0.987827       -26.8801
 130   2.0000      -0.971592       -26.4384
 131   2.0000      -0.969201       -26.3733
 132   2.0000      -0.964733       -26.2517
 133   2.0000      -0.961338       -26.1593
 134   2.0000      -0.931188       -25.3389
 135   2.0000      -0.926281       -25.2054
 136   2.0000      -0.915015       -24.8988
 137   2.0000      -0.912950       -24.8426
 138   2.0000      -0.903774       -24.5929
 139   2.0000      -0.903497       -24.5854
 140   2.0000      -0.893307       -24.3081
 141   2.0000      -0.888019       -24.1642
 142   2.0000      -0.880622       -23.9629
 143   2.0000      -0.880487       -23.9593
 144   2.0000      -0.876512       -23.8511
 145   2.0000      -0.869070       -23.6486
 146   2.0000      -0.864262       -23.5178
 147   2.0000      -0.862765       -23.4770
 148   2.0000      -0.837669       -22.7941
 149   2.0000      -0.826707       -22.4958
 150   2.0000      -0.822124       -22.3711
 151   2.0000      -0.805440       -21.9171
 152   2.0000      -0.792330       -21.5604
 153   2.0000      -0.788024       -21.4432
 154   2.0000      -0.786830       -21.4107
 155   2.0000      -0.784478       -21.3467
 156   2.0000      -0.783017       -21.3070
 157   2.0000      -0.770803       -20.9746
 158   2.0000      -0.759407       -20.6645
 159   2.0000      -0.743207       -20.2237
 160   2.0000      -0.738425       -20.0936
 161   2.0000      -0.730767       -19.8852
 162   2.0000      -0.728457       -19.8223
 163   2.0000      -0.723946       -19.6996
 164   2.0000      -0.713645       -19.4193
 165   2.0000      -0.709191       -19.2981
 166   2.0000      -0.707374       -19.2486
 167   2.0000      -0.701119       -19.0784
 168   2.0000      -0.694454       -18.8970
 169   2.0000      -0.693109       -18.8604
 170   2.0000      -0.688647       -18.7390
 171   2.0000      -0.683827       -18.6079
 172   2.0000      -0.679883       -18.5006
 173   2.0000      -0.668454       -18.1896
 174   2.0000      -0.666186       -18.1278
 175   2.0000      -0.662143       -18.0178
 176   2.0000      -0.659758       -17.9529
 177   2.0000      -0.659570       -17.9478
 178   2.0000      -0.656504       -17.8644
 179   2.0000      -0.655198       -17.8289
 180   2.0000      -0.647241       -17.6123
 181   2.0000      -0.645130       -17.5549
 182   2.0000      -0.639637       -17.4054
 183   2.0000      -0.636487       -17.3197
 184   2.0000      -0.633933       -17.2502
 185   2.0000      -0.625854       -17.0303
 186   2.0000      -0.622772       -16.9465
 187   2.0000      -0.618147       -16.8206
 188   2.0000      -0.613294       -16.6886
 189   2.0000      -0.610694       -16.6178
 190   2.0000      -0.610608       -16.6155
 191   2.0000      -0.609852       -16.5949
 192   2.0000      -0.606889       -16.5143
 193   2.0000      -0.596887       -16.2421
 194   2.0000      -0.593083       -16.1386
 195   2.0000      -0.591675       -16.1003
 196   2.0000      -0.589173       -16.0322
 197   2.0000      -0.587979       -15.9997
 198   2.0000      -0.582025       -15.8377
 199   2.0000      -0.579851       -15.7786
 200   2.0000      -0.575176       -15.6513
 201   2.0000      -0.574762       -15.6401
 202   2.0000      -0.567753       -15.4493
 203   2.0000      -0.559639       -15.2286
 204   2.0000      -0.559007       -15.2114
 205   2.0000      -0.557440       -15.1687
 206   2.0000      -0.556844       -15.1525
 207   2.0000      -0.556492       -15.1429
 208   2.0000      -0.554732       -15.0950
 209   2.0000      -0.551369       -15.0035
 210   2.0000      -0.550253       -14.9731
 211   2.0000      -0.547349       -14.8941
 212   2.0000      -0.544139       -14.8068
 213   2.0000      -0.542430       -14.7603
 214   2.0000      -0.540158       -14.6984
 215   2.0000      -0.535304       -14.5664
 216   2.0000      -0.533838       -14.5265
 217   2.0000      -0.528465       -14.3803
 218   2.0000      -0.527728       -14.3602
 219   2.0000      -0.523415       -14.2429
 220   2.0000      -0.520585       -14.1658
 221   2.0000      -0.515151       -14.0180
 222   2.0000      -0.514298       -13.9948
 223   2.0000      -0.513514       -13.9734
 224   2.0000      -0.510632       -13.8950
 225   2.0000      -0.508481       -13.8365
 226   2.0000      -0.507512       -13.8101
 227   2.0000      -0.506863       -13.7924
 228   2.0000      -0.506178       -13.7738
 229   2.0000      -0.501571       -13.6484
 230   2.0000      -0.501040       -13.6340
 231   2.0000      -0.498112       -13.5543
 232   2.0000      -0.497041       -13.5252
 233   2.0000      -0.496471       -13.5097
 234   2.0000      -0.492428       -13.3996
 235   2.0000      -0.485377       -13.2078
 236   2.0000      -0.484572       -13.1859
 237   2.0000      -0.480796       -13.0831
 238   2.0000      -0.479582       -13.0501
 239   2.0000      -0.474960       -12.9243
 240   2.0000      -0.474665       -12.9163
 241   2.0000      -0.472871       -12.8675
 242   2.0000      -0.471330       -12.8255
 243   2.0000      -0.468319       -12.7436
 244   2.0000      -0.466032       -12.6814
 245   2.0000      -0.465195       -12.6586
 246   2.0000      -0.464989       -12.6530
 247   2.0000      -0.462604       -12.5881
 248   2.0000      -0.461657       -12.5623
 249   2.0000      -0.460663       -12.5353
 250   2.0000      -0.459458       -12.5025
 251   2.0000      -0.458685       -12.4815
 252   2.0000      -0.457978       -12.4622
 253   2.0000      -0.456739       -12.4285
 254   2.0000      -0.454255       -12.3609
 255   2.0000      -0.451948       -12.2981
 256   2.0000      -0.450551       -12.2601
 257   2.0000      -0.447307       -12.1718
 258   2.0000      -0.445610       -12.1257
 259   2.0000      -0.443485       -12.0678
 260   2.0000      -0.442872       -12.0512
 261   2.0000      -0.441805       -12.0221
 262   2.0000      -0.437763       -11.9121
 263   2.0000      -0.436923       -11.8893
 264   2.0000      -0.435716       -11.8564
 265   2.0000      -0.435654       -11.8547
 266   2.0000      -0.434631       -11.8269
 267   2.0000      -0.430664       -11.7190
 268   2.0000      -0.427878       -11.6432
 269   2.0000      -0.426737       -11.6121
 270   2.0000      -0.422688       -11.5019
 271   2.0000      -0.419014       -11.4020
 272   2.0000      -0.418974       -11.4009
 273   2.0000      -0.412949       -11.2369
 274   2.0000      -0.412349       -11.2206
 275   2.0000      -0.394322       -10.7300
 276   2.0000      -0.393284       -10.7018
 277   2.0000      -0.391462       -10.6522
 278   2.0000      -0.388029       -10.5588
 279   2.0000      -0.366877        -9.9832
 280   2.0000      -0.366503        -9.9731
 281   2.0000      -0.359727        -9.7887
 282   2.0000      -0.356135        -9.6909
 283   2.0000      -0.353806        -9.6275
 284   2.0000      -0.352152        -9.5825
 285   2.0000      -0.350606        -9.5405
 286   2.0000      -0.350222        -9.5300
 287   2.0000      -0.349204        -9.5023
 288   2.0000      -0.345338        -9.3971
 289   2.0000      -0.330314        -8.9883
 290   2.0000      -0.329328        -8.9615
 291   2.0000      -0.327805        -8.9200
 292   2.0000      -0.324448        -8.8287
 293   2.0000      -0.310282        -8.4432
 294   2.0000      -0.283871        -7.7245
 295   2.0000      -0.250571        -6.8184
 296   0.0000      -0.142552        -3.8790
 297   0.0000      -0.114593        -3.1182
 298   0.0000      -0.105707        -2.8764
 299   0.0000      -0.095151        -2.5892
 300   0.0000      -0.095088        -2.5875

MULLIKEN ATOMIC CHARGES
-----------------------
   0 C :    0.150646
   1 O :   -0.126290
   2 C :   -0.094906
   3 C :    0.060318
   4 C :   -0.096221
   5 C :    0.234188
   6 C :    0.153288
   7 C :    0.158448
   8 F :   -0.135724
   9 F :   -0.151439
  10 F :   -0.157827
  11 C :    0.289044
  12 C :   -0.338194
  13 C :   -0.189744
  14 N :    0.160618
  15 C :   -0.202682
  16 N :    0.162391
  17 C :   -0.100691
  18 C :    0.028806
  19 C :   -0.113967
  20 C :    0.033043
  21 C :   -0.020220
  22 C :   -0.085652
  23 S :    0.205063
  24 C :   -0.068122
  25 C :    0.045368
  26 C :    0.310392
  27 C :   -0.294185
  28 C :   -0.187213
  29 N :    0.172652
  30 C :   -0.190499
  31 N :    0.189409
  32 C :   -0.068349
  33 C :   -0.170967
  34 S :    0.205390
  35 C :    0.175733
  36 C :   -0.048584
  37 C :   -0.050837
  38 N :   -0.076747
  39 C :    0.047290
  40 C :    0.048885
  41 N :   -0.078612
  42 C :    0.179277
  43 C :   -0.008119
  44 C :   -0.007064
  45 N :   -0.284076
  46 S :    0.588985
  47 N :   -0.285163
  48 C :   -0.174052
  49 C :   -0.062152
  50 C :    0.043663
  51 C :   -0.069521
  52 S :    0.205289
  53 C :   -0.076844
  54 C :   -0.005879
  55 C :    0.308321
  56 C :   -0.288123
  57 C :   -0.182643
  58 N :    0.167492
  59 C :   -0.186251
  60 N :    0.175801
  61 C :    0.000040
  62 C :   -0.109216
  63 S :    0.214438
  64 C :    0.087438
  65 C :   -0.143628
  66 C :    0.131469
  67 O :   -0.120981
  68 C :   -0.060878
  69 C :    0.036374
  70 C :    0.254669
  71 C :   -0.321369
  72 C :   -0.172455
  73 N :    0.171513
  74 C :   -0.204139
  75 N :    0.172305
  76 C :   -0.095929
  77 C :    0.234740
  78 C :    0.154354
  79 C :    0.150426
  80 F :   -0.137808
  81 F :   -0.152720
  82 F :   -0.157095
  83 H :    0.016839
  84 H :    0.022614
  85 H :    0.035076
  86 H :    0.023341
  87 H :    0.026734
  88 H :    0.027440
  89 H :    0.022736
  90 H :    0.024376
  91 H :    0.022990
  92 H :    0.024065
Sum of atomic charges:   -0.0000000

LOEWDIN ATOMIC CHARGES
----------------------
   0 C :    0.084440
   1 O :   -0.123478
   2 C :   -0.079063
   3 C :   -0.004840
   4 C :   -0.029652
   5 C :    0.079336
   6 C :    0.040694
   7 C :    0.086815
   8 F :   -0.019155
   9 F :   -0.032336
  10 F :   -0.035854
  11 C :    0.073323
  12 C :   -0.135926
  13 C :   -0.020856
  14 N :   -0.044843
  15 C :   -0.024796
  16 N :   -0.047106
  17 C :   -0.102770
  18 C :    0.045734
  19 C :   -0.178620
  20 C :    0.027030
  21 C :   -0.071285
  22 C :   -0.154147
  23 S :    0.491904
  24 C :   -0.195881
  25 C :   -0.057142
  26 C :    0.075394
  27 C :   -0.093804
  28 C :   -0.015546
  29 N :   -0.029496
  30 C :   -0.020589
  31 N :   -0.019027
  32 C :   -0.013928
  33 C :   -0.153181
  34 S :    0.510693
  35 C :   -0.042785
  36 C :   -0.014756
  37 C :   -0.016202
  38 N :   -0.045142
  39 C :    0.024387
  40 C :    0.025502
  41 N :   -0.045774
  42 C :   -0.039045
  43 C :   -0.038404
  44 C :   -0.037577
  45 N :   -0.274991
  46 S :    0.708408
  47 N :   -0.274733
  48 C :   -0.156454
  49 C :   -0.010234
  50 C :   -0.061325
  51 C :   -0.189780
  52 S :    0.512610
  53 C :   -0.154937
  54 C :   -0.063445
  55 C :    0.080968
  56 C :   -0.097681
  57 C :   -0.012143
  58 N :   -0.033926
  59 C :   -0.017030
  60 N :   -0.027664
  61 C :    0.013339
  62 C :   -0.181731
  63 S :    0.499115
  64 C :    0.045292
  65 C :   -0.097577
  66 C :    0.083879
  67 O :   -0.128633
  68 C :   -0.083073
  69 C :   -0.000939
  70 C :    0.062068
  71 C :   -0.129886
  72 C :   -0.021430
  73 N :   -0.036747
  74 C :   -0.015351
  75 N :   -0.039126
  76 C :   -0.029344
  77 C :    0.081088
  78 C :    0.038934
  79 C :    0.086622
  80 F :   -0.020985
  81 F :   -0.033232
  82 F :   -0.034426
  83 H :    0.052552
  84 H :    0.044319
  85 H :    0.046139
  86 H :    0.039078
  87 H :    0.033447
  88 H :    0.033715
  89 H :    0.039304
  90 H :    0.042467
  91 H :    0.046860
  92 H :    0.054370

  Mayer bond orders larger than 0.100000
B(  0-C ,  1-O ) :   2.2374 B(  0-C ,  2-C ) :   0.9347 B(  0-C , 17-C ) :   0.9558
B(  2-C ,  3-C ) :   1.3514 B(  2-C ,  7-C ) :   1.2734 B(  3-C ,  4-C ) :   1.3297
B(  3-C , 11-C ) :   1.0047 B(  4-C ,  5-C ) :   1.3250 B(  4-C , 83-H ) :   0.9965
B(  5-C ,  6-C ) :   1.2961 B(  5-C , 10-F ) :   1.1521 B(  6-C ,  7-C ) :   1.2576
B(  6-C ,  9-F ) :   1.1753 B(  7-C ,  8-F ) :   1.2465 B( 11-C , 12-C ) :   1.6384
B( 11-C , 17-C ) :   1.0960 B( 12-C , 13-C ) :   1.1378 B( 12-C , 15-C ) :   1.1404
B( 13-C , 14-N ) :   2.9796 B( 15-C , 16-N ) :   2.9915 B( 17-C , 18-C ) :   1.5678
B( 18-C , 19-C ) :   1.2232 B( 18-C , 84-H ) :   0.9250 B( 19-C , 20-C ) :   1.3829
B( 19-C , 23-S ) :   1.0693 B( 20-C , 21-C ) :   1.3549 B( 20-C , 85-H ) :   0.9747
B( 21-C , 22-C ) :   1.3606 B( 21-C , 26-C ) :   0.9911 B( 22-C , 23-S ) :   1.1660
B( 22-C , 24-C ) :   1.2223 B( 24-C , 25-C ) :   1.3955 B( 24-C , 34-S ) :   1.0609
B( 25-C , 26-C ) :   0.9911 B( 25-C , 32-C ) :   1.2815 B( 26-C , 27-C ) :   1.7175
B( 27-C , 28-C ) :   1.1405 B( 27-C , 30-C ) :   1.1322 B( 28-C , 29-N ) :   2.9839
B( 30-C , 31-N ) :   2.9952 B( 32-C , 33-C ) :   1.4086 B( 32-C , 86-H ) :   0.9834
B( 33-C , 34-S ) :   1.1046 B( 33-C , 35-C ) :   1.1965 B( 35-C , 36-C ) :   1.2699
B( 35-C , 42-C ) :   0.1352 B( 35-C , 44-C ) :   1.2071 B( 36-C , 37-C ) :   1.1380
B( 36-C , 41-N ) :   1.3983 B( 37-C , 38-N ) :   1.3990 B( 37-C , 42-C ) :   1.2706
B( 38-N , 39-C ) :   1.6534 B( 39-C , 40-C ) :   1.2026 B( 39-C , 87-H ) :   0.9745
B( 40-C , 41-N ) :   1.6522 B( 40-C , 88-H ) :   0.9745 B( 42-C , 43-C ) :   1.2046
B( 42-C , 48-C ) :   1.2001 B( 43-C , 44-C ) :   1.0989 B( 43-C , 47-N ) :   1.5051
B( 44-C , 45-N ) :   1.5061 B( 45-N , 46-S ) :   1.2892 B( 45-N , 47-N ) :   0.1507
B( 46-S , 47-N ) :   1.2906 B( 48-C , 49-C ) :   1.4084 B( 48-C , 52-S ) :   1.1003
B( 49-C , 50-C ) :   1.2836 B( 49-C , 89-H ) :   0.9834 B( 50-C , 51-C ) :   1.3973
B( 50-C , 55-C ) :   0.9904 B( 51-C , 52-S ) :   1.0673 B( 51-C , 53-C ) :   1.2159
B( 53-C , 54-C ) :   1.3869 B( 53-C , 63-S ) :   1.1558 B( 54-C , 55-C ) :   0.9967
B( 54-C , 61-C ) :   1.3810 B( 55-C , 56-C ) :   1.7163 B( 56-C , 57-C ) :   1.1320
B( 56-C , 59-C ) :   1.1367 B( 57-C , 58-N ) :   2.9816 B( 59-C , 60-N ) :   2.9871
B( 61-C , 62-C ) :   1.3664 B( 61-C , 90-H ) :   0.9765 B( 62-C , 63-S ) :   1.0843
B( 62-C , 64-C ) :   1.1672 B( 64-C , 65-C ) :   1.6416 B( 64-C , 91-H ) :   0.9261
B( 65-C , 66-C ) :   0.9564 B( 65-C , 70-C ) :   1.0573 B( 66-C , 67-O ) :   2.2988
B( 66-C , 68-C ) :   0.9077 B( 68-C , 69-C ) :   1.3553 B( 68-C , 79-C ) :   1.2731
B( 69-C , 70-C ) :   1.0097 B( 69-C , 76-C ) :   1.3351 B( 70-C , 71-C ) :   1.6532
B( 71-C , 72-C ) :   1.1218 B( 71-C , 74-C ) :   1.1745 B( 72-C , 73-N ) :   2.9995
B( 74-C , 75-N ) :   2.9937 B( 76-C , 77-C ) :   1.3234 B( 76-C , 92-H ) :   1.0001
B( 77-C , 78-C ) :   1.2975 B( 77-C , 82-F ) :   1.1483 B( 78-C , 79-C ) :   1.2596
B( 78-C , 81-F ) :   1.1720 B( 79-C , 80-F ) :   1.2469

-----------------------------------------------------------------------------
         ABSORPTION SPECTRUM VIA TRANSITION ELECTRIC DIPOLE MOMENTS
-----------------------------------------------------------------------------
State   Energy  Wavelength   fosc         T2         TX        TY        TZ
        (cm-1)    (nm)                  (au**2)     (au)      (au)      (au)
-----------------------------------------------------------------------------
   0    8989.6   1112.4   1.175159332  43.03613  -2.93762   5.34559  -2.41479
   1   13494.8    741.0   0.011779618   0.28737   0.17412   0.30374  -0.40595
   2   14724.2    679.2   0.001571530   0.03514  -0.16591   0.01053   0.08661
   3   17479.1    572.1   0.008085561   0.15229   0.31334   0.09567  -0.21202
   4   19518.2    512.3   0.600211025  10.12373  -1.24296   2.68341  -1.17391
   5   20435.6    489.3   0.625281685  10.07314   0.73521  -2.39958   1.94283
   6   22413.9    446.2   0.082605448   1.21330  -0.06949   0.82427  -0.72736
   7   23659.7    422.7   0.000932963   0.01298  -0.11071  -0.02563   0.00826
   8   24450.9    409.0   0.070778753   0.95298  -0.54391   0.56224  -0.58397
   9   24741.5    404.2   0.094876652   1.26243   0.46513  -1.02276  -0.00614
  10   25321.0    394.9   0.040968826   0.53266   0.00424  -0.69490   0.22304
  11   25693.6    389.2   0.083208866   1.06615   0.58663  -0.52594  -0.66739
  12   25910.5    385.9   0.018045937   0.22929  -0.01756  -0.47843   0.00933
  13   26275.7    380.6   0.176642429   2.21318   0.96154  -1.13301   0.07011
  14   27306.2    366.2   0.007911590   0.09538   0.16888  -0.04093  -0.25532
  15   27661.9    361.5   0.056295878   0.66999  -0.62423  -0.18156  -0.49736
  16   28206.5    354.5   0.105655333   1.23316  -0.84674   0.66341   0.27583
  17   28672.9    348.8   0.037570654   0.43137  -0.02003   0.65594  -0.02681
  18   28906.9    345.9   0.035296403   0.40198  -0.22366   0.56313  -0.18665
  19   29397.2    340.2   0.030906771   0.34612   0.06911   0.12271   0.57121
  20   30009.6    333.2   0.128166117   1.40601   0.72527  -0.59894  -0.72199
  21   30363.9    329.3   0.036195504   0.39244  -0.26863   0.40538  -0.39490
  22   30620.3    326.6   0.002962475   0.03185  -0.02565  -0.01710  -0.17579
  23   31026.8    322.3   0.028920719   0.30686   0.19452   0.37273   0.36069
  24   31198.3    320.5   0.111650251   1.17816   0.16197  -0.07891  -1.07037
  25   31277.8    319.7   0.008507518   0.08955  -0.09828   0.25995  -0.11095
  26   31369.7    318.8   0.375088636   3.93640   0.00976  -0.93988   1.74726
  27   31504.3    317.4   0.448210937   4.68370  -1.41355   1.61218  -0.29401
  28   32197.3    310.6   0.198239704   2.02697   0.66773  -1.07669   0.64949
  29   32268.9    309.9   0.108623450   1.10819  -0.28911   0.11788   1.00534
  30   32507.9    307.6   0.203110066   2.05692   0.17033  -1.08597  -0.92119
  31   32837.6    304.5   0.091108541   0.91341  -0.42392   0.44239  -0.73348
  32   33155.7    301.6   0.078630954   0.78075   0.85195  -0.06612   0.22483
  33   33215.9    301.1   0.015850232   0.15710  -0.17261  -0.32522  -0.14673
  34   33311.4    300.2   0.005081604   0.05022  -0.00542   0.20114   0.09865
  35   33734.1    296.4   0.043492283   0.42444  -0.00065  -0.53852   0.36666
  36   33864.4    295.3   0.039223899   0.38131   0.12584   0.41179   0.44262
  37   34300.2    291.5   0.036965665   0.35480  -0.09552   0.47043  -0.35266
  38   34406.0    290.6   0.053442922   0.51137   0.18522   0.68903  -0.04796
  39   34450.0    290.3   0.009611056   0.09185   0.15957  -0.00066  -0.25765
  40   34591.9    289.1   0.127186401   1.21043  -0.13768   0.07863   1.08871
  41   34696.9    288.2   0.098732674   0.93680   0.30426  -0.10395  -0.91292
  42   34977.5    285.9   0.241584678   2.27382  -0.57646   1.01960   0.94970
  43   35158.3    284.4   0.161996016   1.51688   1.14979   0.42426   0.12191
  44   35403.1    282.5   0.063718747   0.59252   0.68664   0.05224   0.34397
  45   35665.0    280.4   0.491434582   4.53627   1.31714  -1.35009  -0.98927
  46   35733.1    279.9   0.121510058   1.11948  -0.33983  -0.10294  -0.99669
  47   35803.9    279.3   0.407363596   3.74565  -0.26006   0.26850   1.89893
  48   35892.9    278.6   0.008365885   0.07673   0.19739  -0.16776   0.09811
  49   35975.7    278.0   0.010774614   0.09860   0.01993   0.12094   0.28909
  50   36281.0    275.6   0.168445081   1.52846  -0.45256   1.15021  -0.02563
  51   36906.0    271.0   0.137754170   1.22881   0.68656   0.58537   0.64404
  52   37051.9    269.9   0.108069721   0.96022  -0.59178   0.17650  -0.76082
  53   37216.6    268.7   0.264678154   2.34130  -1.40907   0.55736   0.21250
  54   37541.9    266.4   0.015725954   0.13790  -0.08028   0.07160  -0.35543
  55   37790.7    264.6   0.048857647   0.42562  -0.10057  -0.61694  -0.18681
  56   37852.0    264.2   0.046317312   0.40284  -0.31653   0.29447   0.46469
  57   38037.1    262.9   0.138961109   1.20271  -0.08880   0.67651   0.85858
  58   38063.8    262.7   0.001480682   0.01281   0.00269   0.04543  -0.10361
  59   38243.7    261.5   0.052021183   0.44781  -0.15922   0.06765   0.64644
  60   38504.6    259.7   0.008230052   0.07037   0.07670  -0.07132   0.24371
  61   38997.1    256.4   0.058155482   0.49095  -0.55907   0.41584   0.07394
  62   39312.4    254.4   0.078502303   0.65740  -0.66855   0.16247  -0.42900
  63   39402.8    253.8   0.193319577   1.61519   0.34269   0.15300  -1.21423
  64   39446.6    253.5   0.139587904   1.16497  -0.24275   0.01577   1.05157
  65   39838.2    251.0   0.168140305   1.38947  -0.44967  -0.18928  -1.07305
  66   40271.2    248.3   0.004940922   0.04039  -0.00547  -0.11597   0.16405

FINAL SINGLE POINT ENERGY     -5608.380394677841

DIPOLE MOMENT
-------------
                                X             Y             Z
Electronic contribution:    -15.66606      -7.22453     -10.19254
Nuclear contribution   :     13.81915       7.76077      12.45196
                        -----------------------------------------
Total Dipole Moment    :     -1.84692       0.53624       2.25943
                        -----------------------------------------
Magnitude (a.u.)       :      2.96710
Magnitude (Debye)      :      7.54176

Rotational constants in cm-1:     0.002214     0.000143     0.000140
Rotational constants in MHz :    66.376245     4.299257     4.186752

                             ****ORCA TERMINATED NORMALLY****
TOTAL RUN TIME: 0 days 0 hours 10 minutes 47 seconds 98 msec
