                         Program Version 4.2.0 -  RELEASE  -
|  1> # ORCA input file
|  2> # SCF done       -191.272478089558          0.000550020264
|  3> ! CAM-B3LYP def2-SVP def2/J RIJCOSX Grid4 TightSCF
|  4> %maxcore 5000
|  5> %tddft
|  6>     Mode sTDDFT
|  7>     Ethresh 5.0
|  8>     maxcore 5000
|  9> end
| 10>
| 11> %pal
| 12>   nprocs 6
| 13>   end
| 14> * xyz 0 1
| 15>    C        4.44756        -2.31141         2.28355
| 16>    C        5.80375        -2.10707         2.39658
| 17>    C        6.16375        -0.70958         2.30115
| 18>    N        7.42470        -0.30785         2.45988
| 19>    C        8.32761        -1.24015         2.67227
| 20>    C        9.71453        -0.78124         2.92540
| 21>    O       10.00095         0.38686         3.07594
| 22>    C       10.71934        -1.85788         3.01144
| 23>    C       10.41304        -3.15805         2.98337
| 24>    C        9.03740        -3.67437         2.85683
| 25>    O        8.78968        -4.85915         2.87765
| 26>    C        7.98386        -2.63296         2.69263
| 27>    N        6.74932        -3.04903         2.57025
| 28>    C        5.05192         0.11900         2.09429
| 29>    S        3.60939        -0.83980         2.05741
| 30>    C        5.06746         1.52065         1.94188
| 31>    C        6.19527         2.30955         1.75505
| 32>    C        5.86885         3.65499         1.64650
| 33>    C        4.48362         3.90435         1.77648
| 34>    S        3.58404         2.46841         1.98613
| 35>    C        4.25962         5.29547         1.71275
| 36>    C        5.50694         5.93566         1.53621
| 37>    C        6.54948         4.92452         1.45121
| 38>    C        7.86917         5.12713         1.17615
| 39>    C        8.78250         4.06773         0.97852
| 40>    N        9.53145         3.22784         0.76177
| 41>    C        8.40726         6.42097         1.00544
| 42>    N        8.85608         7.46731         0.86879
| 43>    C        5.40194         7.31569         1.47744
| 44>    C        4.08613         7.74834         1.61060
| 45>    S        2.96268         6.40710         1.80002
| 46>    C        3.59930         9.08068         1.61633
| 47>    C        4.42376        10.23323         1.49850
| 48>    C        3.85994        11.55014         1.52528
| 49>    N        4.66071        12.62442         1.41581
| 50>    C        5.94727        12.45730         1.28512
| 51>    C        6.50139        11.16318         1.25895
| 52>    N        5.75633        10.09770         1.36323
| 53>    C        2.47231        11.80325         1.66434
| 54>    C        1.65230        10.66023         1.77616
| 55>    C        2.21700         9.33394         1.75281
| 56>    N        1.27593         8.39596         1.87559
| 57>    S       -0.16232         9.10122         2.00546
| 58>    N        0.32577        10.62346         1.91423
| 59>    C        1.98021        13.12980         1.68721
| 60>    C        0.65194        13.52689         1.80981
| 61>    C        0.51968        14.90642         1.79214
| 62>    C        1.75954        15.57128         1.66055
| 63>    S        3.08435        14.48626         1.55457
| 64>    C        1.51229        16.95929         1.64797
| 65>    C        0.12183        17.18466         1.76380
| 66>    C       -0.54138        15.89695         1.89513
| 67>    C       -1.86305        15.66400         2.13395
| 68>    C       -2.38417        14.35644         2.24152
| 69>    N       -2.81872        13.29872         2.32689
| 70>    C       -2.79659        16.70132         2.35222
| 71>    N       -3.56297        17.52141         2.58285
| 72>    C       -0.22035        18.52970         1.71026
| 73>    C        0.90097        19.33981         1.58138
| 74>    S        2.39664        18.41335         1.51943
| 75>    C        0.90827        20.74730         1.49901
| 76>    C       -0.20189        21.58171         1.30826
| 77>    C        0.15507        22.98328         1.29052
| 78>    N       -0.78922        23.93036         1.14036
| 79>    C       -2.01877        23.51769         0.96719
| 80>    C       -3.07078        24.56409         0.82687
| 81>    O       -2.82528        25.74896         0.86574
| 82>    C       -4.44152        24.05214         0.64310
| 83>    C       -4.74289        22.75420         0.54527
| 84>    C       -3.73720        21.67635         0.60332
| 85>    O       -4.01701        20.51656         0.38955
| 86>    C       -2.35803        22.12464         0.91188
| 87>    N       -1.45737        21.18494         1.10062
| 88>    C        1.50735        23.18595         1.44544
| 89>    S        2.34592        21.70750         1.61703
| 90>    H        3.91788        -3.24117         2.32197
| 91>    H       11.74138        -1.52124         3.12192
| 92>    H       11.17770        -3.91873         3.06756
| 93>    H        7.18409         1.88844         1.72099
| 94>    H        6.21250         8.00878         1.35176
| 95>    H        6.55261        13.34817         1.19992
| 96>    H        7.56411        10.99795         1.15139
| 97>    H       -0.14716        12.81431         1.90091
| 98>    H       -1.21468        18.93741         1.74665
| 99>    H       -5.20617        24.81458         0.57696
|100>    H       -5.76098        22.42125         0.39433
|101>    H        2.03380        24.11813         1.46543
|102> *
|103>
|104>                          ****END OF INPUT****

CARTESIAN COORDINATES (ANGSTROEM)
---------------------------------
  C      4.447560   -2.311410    2.283550
  C      5.803750   -2.107070    2.396580
  C      6.163750   -0.709580    2.301150
  N      7.424700   -0.307850    2.459880
  C      8.327610   -1.240150    2.672270
  C      9.714530   -0.781240    2.925400
  O     10.000950    0.386860    3.075940
  C     10.719340   -1.857880    3.011440
  C     10.413040   -3.158050    2.983370
  C      9.037400   -3.674370    2.856830
  O      8.789680   -4.859150    2.877650
  C      7.983860   -2.632960    2.692630
  N      6.749320   -3.049030    2.570250
  C      5.051920    0.119000    2.094290
  S      3.609390   -0.839800    2.057410
  C      5.067460    1.520650    1.941880
  C      6.195270    2.309550    1.755050
  C      5.868850    3.654990    1.646500
  C      4.483620    3.904350    1.776480
  S      3.584040    2.468410    1.986130
  C      4.259620    5.295470    1.712750
  C      5.506940    5.935660    1.536210
  C      6.549480    4.924520    1.451210
  C      7.869170    5.127130    1.176150
  C      8.782500    4.067730    0.978520
  N      9.531450    3.227840    0.761770
  C      8.407260    6.420970    1.005440
  N      8.856080    7.467310    0.868790
  C      5.401940    7.315690    1.477440
  C      4.086130    7.748340    1.610600
  S      2.962680    6.407100    1.800020
  C      3.599300    9.080680    1.616330
  C      4.423760   10.233230    1.498500
  C      3.859940   11.550140    1.525280
  N      4.660710   12.624420    1.415810
  C      5.947270   12.457300    1.285120
  C      6.501390   11.163180    1.258950
  N      5.756330   10.097700    1.363230
  C      2.472310   11.803250    1.664340
  C      1.652300   10.660230    1.776160
  C      2.217000    9.333940    1.752810
  N      1.275930    8.395960    1.875590
  S     -0.162320    9.101220    2.005460
  N      0.325770   10.623460    1.914230
  C      1.980210   13.129800    1.687210
  C      0.651940   13.526890    1.809810
  C      0.519680   14.906420    1.792140
  C      1.759540   15.571280    1.660550
  S      3.084350   14.486260    1.554570
  C      1.512290   16.959290    1.647970
  C      0.121830   17.184660    1.763800
  C     -0.541380   15.896950    1.895130
  C     -1.863050   15.664000    2.133950
  C     -2.384170   14.356440    2.241520
  N     -2.818720   13.298720    2.326890
  C     -2.796590   16.701320    2.352220
  N     -3.562970   17.521410    2.582850
  C     -0.220350   18.529700    1.710260
  C      0.900970   19.339810    1.581380
  S      2.396640   18.413350    1.519430
  C      0.908270   20.747300    1.499010
  C     -0.201890   21.581710    1.308260
  C      0.155070   22.983280    1.290520
  N     -0.789220   23.930360    1.140360
  C     -2.018770   23.517690    0.967190
  C     -3.070780   24.564090    0.826870
  O     -2.825280   25.748960    0.865740
  C     -4.441520   24.052140    0.643100
  C     -4.742890   22.754200    0.545270
  C     -3.737200   21.676350    0.603320
  O     -4.017010   20.516560    0.389550
  C     -2.358030   22.124640    0.911880
  N     -1.457370   21.184940    1.100620
  C      1.507350   23.185950    1.445440
  S      2.345920   21.707500    1.617030
  H      3.917880   -3.241170    2.321970
  H     11.741380   -1.521240    3.121920
  H     11.177700   -3.918730    3.067560
  H      7.184090    1.888440    1.720990
  H      6.212500    8.008780    1.351760
  H      6.552610   13.348170    1.199920
  H      7.564110   10.997950    1.151390
  H     -0.147160   12.814310    1.900910
  H     -1.214680   18.937410    1.746650
  H     -5.206170   24.814580    0.576960
  H     -5.760980   22.421250    0.394330
  H      2.033800   24.118130    1.465430

 Total Charge           Charge          ....    0
 Multiplicity           Mult            ....    1
 Number of Electrons    NEL             ....  552
 Basis Dimension        Dim             .... 1138

ORBITAL ENERGIES
----------------

  NO   OCC          E(Eh)            E(eV)
   0   2.0000     -89.046599     -2423.0812
   1   2.0000     -88.996930     -2421.7296
   2   2.0000     -88.996673     -2421.7226
   3   2.0000     -88.988977     -2421.5132
   4   2.0000     -88.988130     -2421.4901
   5   2.0000     -88.979267     -2421.2490
   6   2.0000     -88.977736     -2421.2073
   7   2.0000     -19.221236      -523.0364
   8   2.0000     -19.220992      -523.0298
   9   2.0000     -19.219579      -522.9913
  10   2.0000     -19.219251      -522.9824
  11   2.0000     -14.455378      -393.3508
  12   2.0000     -14.455020      -393.3411
  13   2.0000     -14.449245      -393.1839
  14   2.0000     -14.443314      -393.0226
  15   2.0000     -14.443131      -393.0176
  16   2.0000     -14.442133      -392.9904
  17   2.0000     -14.439308      -392.9135
  18   2.0000     -14.439073      -392.9072
  19   2.0000     -14.425024      -392.5249
  20   2.0000     -14.422967      -392.4689
  21   2.0000     -14.420063      -392.3899
  22   2.0000     -14.419203      -392.3665
  23   2.0000     -10.370491      -282.1954
  24   2.0000     -10.370259      -282.1891
  25   2.0000     -10.368642      -282.1451
  26   2.0000     -10.368350      -282.1371
  27   2.0000     -10.357807      -281.8503
  28   2.0000     -10.356791      -281.8226
  29   2.0000     -10.344339      -281.4838
  30   2.0000     -10.343303      -281.4556
  31   2.0000     -10.342541      -281.4349
  32   2.0000     -10.342444      -281.4322
  33   2.0000     -10.341399      -281.4038
  34   2.0000     -10.340026      -281.3664
  35   2.0000     -10.337992      -281.3111
  36   2.0000     -10.337593      -281.3002
  37   2.0000     -10.335275      -281.2371
  38   2.0000     -10.335033      -281.2305
  39   2.0000     -10.334043      -281.2036
  40   2.0000     -10.333803      -281.1971
  41   2.0000     -10.333664      -281.1933
  42   2.0000     -10.333434      -281.1870
  43   2.0000     -10.330888      -281.1178
  44   2.0000     -10.329228      -281.0726
  45   2.0000     -10.327335      -281.0211
  46   2.0000     -10.327186      -281.0170
  47   2.0000     -10.326864      -281.0082
  48   2.0000     -10.326818      -281.0070
  49   2.0000     -10.326665      -281.0028
  50   2.0000     -10.326538      -280.9994
  51   2.0000     -10.325612      -280.9742
  52   2.0000     -10.323366      -280.9131
  53   2.0000     -10.320612      -280.8381
  54   2.0000     -10.319557      -280.8094
  55   2.0000     -10.319126      -280.7977
  56   2.0000     -10.318710      -280.7864
  57   2.0000     -10.317127      -280.7433
  58   2.0000     -10.315850      -280.7085
  59   2.0000     -10.315646      -280.7030
  60   2.0000     -10.315326      -280.6943
  61   2.0000     -10.314283      -280.6659
  62   2.0000     -10.314145      -280.6622
  63   2.0000     -10.303479      -280.3719
  64   2.0000     -10.303208      -280.3645
  65   2.0000     -10.302630      -280.3488
  66   2.0000     -10.302342      -280.3410
  67   2.0000     -10.299293      -280.2580
  68   2.0000     -10.298831      -280.2454
  69   2.0000     -10.294617      -280.1308
  70   2.0000     -10.294492      -280.1274
  71   2.0000     -10.293874      -280.1106
  72   2.0000     -10.293020      -280.0873
  73   2.0000     -10.290162      -280.0095
  74   2.0000     -10.287401      -279.9344
  75   2.0000      -8.137644      -221.4366
  76   2.0000      -8.091866      -220.1909
  77   2.0000      -8.091638      -220.1847
  78   2.0000      -8.083733      -219.9695
  79   2.0000      -8.082952      -219.9483
  80   2.0000      -8.072253      -219.6572
  81   2.0000      -8.069612      -219.5853
  82   2.0000      -6.108737      -166.2272
  83   2.0000      -6.100962      -166.0156
  84   2.0000      -6.100392      -166.0001
  85   2.0000      -6.060779      -164.9222
  86   2.0000      -6.060543      -164.9158
  87   2.0000      -6.056433      -164.8039
  88   2.0000      -6.056205      -164.7977
  89   2.0000      -6.055087      -164.7673
  90   2.0000      -6.054858      -164.7611
  91   2.0000      -6.053003      -164.7106
  92   2.0000      -6.052191      -164.6885
  93   2.0000      -6.048874      -164.5982
  94   2.0000      -6.048082      -164.5767
  95   2.0000      -6.046005      -164.5202
  96   2.0000      -6.045255      -164.4998
  97   2.0000      -6.041727      -164.4037
  98   2.0000      -6.039325      -164.3384
  99   2.0000      -6.037098      -164.2778
 100   2.0000      -6.034695      -164.2124
 101   2.0000      -6.034328      -164.2024
 102   2.0000      -6.032097      -164.1417
 103   2.0000      -1.143544       -31.1174
 104   2.0000      -1.138225       -30.9727
 105   2.0000      -1.137944       -30.9650
 106   2.0000      -1.133348       -30.8400
 107   2.0000      -1.133042       -30.8316
 108   2.0000      -1.103674       -30.0325
 109   2.0000      -1.092466       -29.7275
 110   2.0000      -1.092223       -29.7209
 111   2.0000      -1.038802       -28.2672
 112   2.0000      -1.037341       -28.2275
 113   2.0000      -1.028539       -27.9880
 114   2.0000      -1.019435       -27.7402
 115   2.0000      -1.019101       -27.7312
 116   2.0000      -1.014937       -27.6178
 117   2.0000      -1.013510       -27.5790
 118   2.0000      -1.005738       -27.3675
 119   2.0000      -1.003890       -27.3172
 120   2.0000      -0.999671       -27.2024
 121   2.0000      -0.998890       -27.1812
 122   2.0000      -0.998037       -27.1580
 123   2.0000      -0.989173       -26.9168
 124   2.0000      -0.981194       -26.6997
 125   2.0000      -0.968566       -26.3560
 126   2.0000      -0.950350       -25.8603
 127   2.0000      -0.945813       -25.7369
 128   2.0000      -0.932672       -25.3793
 129   2.0000      -0.932391       -25.3717
 130   2.0000      -0.912424       -24.8283
 131   2.0000      -0.905052       -24.6277
 132   2.0000      -0.886881       -24.1333
 133   2.0000      -0.880796       -23.9677
 134   2.0000      -0.870642       -23.6914
 135   2.0000      -0.870012       -23.6742
 136   2.0000      -0.865985       -23.5647
 137   2.0000      -0.865119       -23.5411
 138   2.0000      -0.852654       -23.2019
 139   2.0000      -0.846803       -23.0427
 140   2.0000      -0.845788       -23.0151
 141   2.0000      -0.841725       -22.9045
 142   2.0000      -0.814190       -22.1552
 143   2.0000      -0.798025       -21.7154
 144   2.0000      -0.794443       -21.6179
 145   2.0000      -0.786607       -21.4047
 146   2.0000      -0.785220       -21.3669
 147   2.0000      -0.784360       -21.3435
 148   2.0000      -0.775155       -21.0930
 149   2.0000      -0.770825       -20.9752
 150   2.0000      -0.770186       -20.9578
 151   2.0000      -0.758364       -20.6361
 152   2.0000      -0.750789       -20.4300
 153   2.0000      -0.734512       -19.9871
 154   2.0000      -0.727514       -19.7966
 155   2.0000      -0.716670       -19.5016
 156   2.0000      -0.713273       -19.4091
 157   2.0000      -0.699687       -19.0395
 158   2.0000      -0.695339       -18.9211
 159   2.0000      -0.682491       -18.5715
 160   2.0000      -0.681580       -18.5467
 161   2.0000      -0.676179       -18.3998
 162   2.0000      -0.673903       -18.3378
 163   2.0000      -0.670281       -18.2393
 164   2.0000      -0.668930       -18.2025
 165   2.0000      -0.662356       -18.0236
 166   2.0000      -0.658215       -17.9109
 167   2.0000      -0.651194       -17.7199
 168   2.0000      -0.641789       -17.4640
 169   2.0000      -0.640966       -17.4416
 170   2.0000      -0.638293       -17.3688
 171   2.0000      -0.635613       -17.2959
 172   2.0000      -0.619896       -16.8682
 173   2.0000      -0.619059       -16.8455
 174   2.0000      -0.617254       -16.7963
 175   2.0000      -0.607767       -16.5382
 176   2.0000      -0.606295       -16.4981
 177   2.0000      -0.601398       -16.3649
 178   2.0000      -0.600400       -16.3377
 179   2.0000      -0.593492       -16.1497
 180   2.0000      -0.592418       -16.1205
 181   2.0000      -0.575162       -15.6509
 182   2.0000      -0.573153       -15.5963
 183   2.0000      -0.570636       -15.5278
 184   2.0000      -0.564138       -15.3510
 185   2.0000      -0.560144       -15.2423
 186   2.0000      -0.558882       -15.2080
 187   2.0000      -0.554937       -15.1006
 188   2.0000      -0.554803       -15.0969
 189   2.0000      -0.553008       -15.0481
 190   2.0000      -0.552628       -15.0378
 191   2.0000      -0.550662       -14.9843
 192   2.0000      -0.547675       -14.9030
 193   2.0000      -0.543275       -14.7833
 194   2.0000      -0.542368       -14.7586
 195   2.0000      -0.540565       -14.7095
 196   2.0000      -0.538115       -14.6429
 197   2.0000      -0.523674       -14.2499
 198   2.0000      -0.521268       -14.1844
 199   2.0000      -0.520126       -14.1533
 200   2.0000      -0.518531       -14.1099
 201   2.0000      -0.515323       -14.0226
 202   2.0000      -0.514705       -14.0058
 203   2.0000      -0.512104       -13.9351
 204   2.0000      -0.509783       -13.8719
 205   2.0000      -0.501698       -13.6519
 206   2.0000      -0.500616       -13.6225
 207   2.0000      -0.498385       -13.5617
 208   2.0000      -0.497022       -13.5247
 209   2.0000      -0.495714       -13.4891
 210   2.0000      -0.492066       -13.3898
 211   2.0000      -0.491476       -13.3737
 212   2.0000      -0.490359       -13.3434
 213   2.0000      -0.488798       -13.3009
 214   2.0000      -0.488231       -13.2854
 215   2.0000      -0.487360       -13.2617
 216   2.0000      -0.484828       -13.1928
 217   2.0000      -0.484413       -13.1816
 218   2.0000      -0.482783       -13.1372
 219   2.0000      -0.481191       -13.0939
 220   2.0000      -0.478218       -13.0130
 221   2.0000      -0.470069       -12.7912
 222   2.0000      -0.469020       -12.7627
 223   2.0000      -0.462294       -12.5797
 224   2.0000      -0.461567       -12.5599
 225   2.0000      -0.458763       -12.4836
 226   2.0000      -0.457635       -12.4529
 227   2.0000      -0.455335       -12.3903
 228   2.0000      -0.453275       -12.3342
 229   2.0000      -0.452512       -12.3135
 230   2.0000      -0.449474       -12.2308
 231   2.0000      -0.445530       -12.1235
 232   2.0000      -0.443881       -12.0786
 233   2.0000      -0.442915       -12.0523
 234   2.0000      -0.439231       -11.9521
 235   2.0000      -0.437578       -11.9071
 236   2.0000      -0.437477       -11.9044
 237   2.0000      -0.432839       -11.7782
 238   2.0000      -0.431768       -11.7490
 239   2.0000      -0.431184       -11.7331
 240   2.0000      -0.430841       -11.7238
 241   2.0000      -0.429795       -11.6953
 242   2.0000      -0.428778       -11.6676
 243   2.0000      -0.422291       -11.4911
 244   2.0000      -0.419444       -11.4136
 245   2.0000      -0.418054       -11.3758
 246   2.0000      -0.405972       -11.0471
 247   2.0000      -0.401321       -10.9205
 248   2.0000      -0.400942       -10.9102
 249   2.0000      -0.400392       -10.8952
 250   2.0000      -0.400337       -10.8937
 251   2.0000      -0.382592       -10.4109
 252   2.0000      -0.378753       -10.3064
 253   2.0000      -0.373055       -10.1513
 254   2.0000      -0.372891       -10.1469
 255   2.0000      -0.367460        -9.9991
 256   2.0000      -0.367202        -9.9921
 257   2.0000      -0.357403        -9.7254
 258   2.0000      -0.357132        -9.7181
 259   2.0000      -0.351752        -9.5716
 260   2.0000      -0.345986        -9.4148
 261   2.0000      -0.344214        -9.3665
 262   2.0000      -0.342123        -9.3096
 263   2.0000      -0.340135        -9.2556
 264   2.0000      -0.339937        -9.2502
 265   2.0000      -0.339567        -9.2401
 266   2.0000      -0.337269        -9.1776
 267   2.0000      -0.333837        -9.0842
 268   2.0000      -0.328672        -8.9436
 269   2.0000      -0.328466        -8.9380
 270   2.0000      -0.319171        -8.6851
 271   2.0000      -0.314757        -8.5650
 272   2.0000      -0.313268        -8.5245
 273   2.0000      -0.285602        -7.7716
 274   2.0000      -0.257081        -6.9955
 275   2.0000      -0.226918        -6.1748
 276   0.0000      -0.124442        -3.3862
 277   0.0000      -0.099625        -2.7109
 278   0.0000      -0.091795        -2.4979
 279   0.0000      -0.083322        -2.2673
 280   0.0000      -0.082747        -2.2516

MULLIKEN ATOMIC CHARGES
-----------------------
   0 C :   -0.150228
   1 C :    0.065142
   2 C :    0.026144
   3 N :    0.055886
   4 C :   -0.111541
   5 C :    0.139152
   6 O :   -0.102278
   7 C :   -0.011519
   8 C :   -0.017136
   9 C :    0.140185
  10 O :   -0.101578
  11 C :   -0.131890
  12 N :    0.062531
  13 C :   -0.131886
  14 S :    0.196531
  15 C :   -0.095228
  16 C :   -0.047472
  17 C :    0.021070
  18 C :   -0.100226
  19 S :    0.180005
  20 C :   -0.071300
  21 C :    0.045787
  22 C :    0.311375
  23 C :   -0.300650
  24 C :   -0.197364
  25 N :    0.189893
  26 C :   -0.184126
  27 N :    0.161977
  28 C :   -0.068768
  29 C :   -0.189835
  30 S :    0.202264
  31 C :    0.200165
  32 C :   -0.068247
  33 C :   -0.047390
  34 N :   -0.093668
  35 C :    0.053280
  36 C :    0.036738
  37 N :   -0.019009
  38 C :    0.172393
  39 C :   -0.001031
  40 C :   -0.029778
  41 N :   -0.340026
  42 S :    0.565733
  43 N :   -0.278377
  44 C :   -0.173111
  45 C :   -0.069886
  46 C :    0.037327
  47 C :   -0.063572
  48 S :    0.195036
  49 C :   -0.104353
  50 C :    0.022199
  51 C :    0.307448
  52 C :   -0.298773
  53 C :   -0.186514
  54 N :    0.165194
  55 C :   -0.196831
  56 N :    0.190023
  57 C :   -0.046983
  58 C :   -0.094912
  59 S :    0.176841
  60 C :   -0.132579
  61 C :    0.027638
  62 C :    0.062953
  63 N :    0.062979
  64 C :   -0.131652
  65 C :    0.140532
  66 O :   -0.101812
  67 C :   -0.017382
  68 C :   -0.011502
  69 C :    0.137998
  70 O :   -0.101422
  71 C :   -0.112035
  72 N :    0.057736
  73 C :   -0.149663
  74 S :    0.195332
  75 H :    0.029261
  76 H :    0.019041
  77 H :    0.016523
  78 H :    0.029036
  79 H :    0.019103
  80 H :    0.019641
  81 H :    0.034058
  82 H :    0.017935
  83 H :    0.028699
  84 H :    0.016579
  85 H :    0.019048
  86 H :    0.029124
Sum of atomic charges:    0.0000000

LOEWDIN ATOMIC CHARGES
----------------------
   0 C :   -0.190871
   1 C :   -0.050033
   2 C :   -0.050841
   3 N :    0.008249
   4 C :   -0.045503
   5 C :    0.054275
   6 O :   -0.096291
   7 C :   -0.010927
   8 C :   -0.016523
   9 C :    0.056894
  10 O :   -0.097452
  11 C :   -0.041751
  12 N :    0.002719
  13 C :   -0.191781
  14 S :    0.511772
  15 C :   -0.187290
  16 C :   -0.005520
  17 C :   -0.066494
  18 C :   -0.172949
  19 S :    0.459809
  20 C :   -0.187115
  21 C :   -0.070963
  22 C :    0.079657
  23 C :   -0.098980
  24 C :   -0.022727
  25 N :   -0.020569
  26 C :   -0.011719
  27 N :   -0.040881
  28 C :   -0.014123
  29 C :   -0.160590
  30 S :    0.505376
  31 C :   -0.048057
  32 C :   -0.007047
  33 C :   -0.016629
  34 N :   -0.051019
  35 C :    0.022136
  36 C :    0.020320
  37 N :   -0.017300
  38 C :   -0.043512
  39 C :   -0.040251
  40 C :   -0.048160
  41 N :   -0.308597
  42 S :    0.684593
  43 N :   -0.271160
  44 C :   -0.163402
  45 C :   -0.013294
  46 C :   -0.071468
  47 C :   -0.188149
  48 S :    0.503073
  49 C :   -0.173817
  50 C :   -0.065432
  51 C :    0.078797
  52 C :   -0.098522
  53 C :   -0.014518
  54 N :   -0.036667
  55 C :   -0.022646
  56 N :   -0.020990
  57 C :   -0.005695
  58 C :   -0.186799
  59 S :    0.458684
  60 C :   -0.191610
  61 C :   -0.050972
  62 C :   -0.050248
  63 N :    0.002737
  64 C :   -0.041789
  65 C :    0.056899
  66 O :   -0.097642
  67 C :   -0.016663
  68 C :   -0.010844
  69 C :    0.054110
  70 O :   -0.095961
  71 C :   -0.045602
  72 N :    0.008201
  73 C :   -0.190981
  74 S :    0.511042
  75 H :    0.034722
  76 H :    0.045627
  77 H :    0.044656
  78 H :    0.044303
  79 H :    0.035743
  80 H :    0.030647
  81 H :    0.035399
  82 H :    0.037467
  83 H :    0.044493
  84 H :    0.044632
  85 H :    0.045637
  86 H :    0.034666

  Mayer bond orders larger than 0.100000
B(  0-C ,  1-C ) :   1.4049 B(  0-C , 13-C ) :   0.1275 B(  0-C , 14-S ) :   1.1833
B(  0-C , 75-H ) :   0.9769 B(  1-C ,  2-C ) :   1.1672 B(  1-C , 12-N ) :   1.3764
B(  2-C ,  3-N ) :   1.4358 B(  2-C , 13-C ) :   1.3338 B(  3-N ,  4-C ) :   1.7174
B(  4-C ,  5-C ) :   0.8956 B(  4-C , 11-C ) :   1.0876 B(  5-C ,  6-O ) :   2.2396
B(  5-C ,  7-C ) :   1.0174 B(  7-C ,  8-C ) :   1.6857 B(  7-C , 76-H ) :   0.9962
B(  8-C ,  9-C ) :   1.0220 B(  8-C , 77-H ) :   0.9970 B(  9-C , 10-O ) :   2.2581
B(  9-C , 11-C ) :   0.8877 B( 11-C , 12-N ) :   1.7486 B( 13-C , 14-S ) :   1.2049
B( 13-C , 15-C ) :   1.1810 B( 15-C , 16-C ) :   1.4587 B( 15-C , 19-S ) :   1.0802
B( 16-C , 17-C ) :   1.2740 B( 16-C , 78-H ) :   0.9869 B( 17-C , 18-C ) :   1.4110
B( 17-C , 22-C ) :   0.9889 B( 18-C , 19-S ) :   1.1224 B( 18-C , 20-C ) :   1.2150
B( 20-C , 21-C ) :   1.3904 B( 20-C , 30-S ) :   1.0923 B( 21-C , 22-C ) :   0.9938
B( 21-C , 28-C ) :   1.2701 B( 22-C , 23-C ) :   1.7105 B( 23-C , 24-C ) :   1.1312
B( 23-C , 26-C ) :   1.1404 B( 24-C , 25-N ) :   3.0029 B( 26-C , 27-N ) :   2.9870
B( 28-C , 29-C ) :   1.4046 B( 28-C , 79-H ) :   0.9795 B( 29-C , 30-S ) :   1.0963
B( 29-C , 31-C ) :   1.1982 B( 31-C , 32-C ) :   1.2656 B( 31-C , 38-C ) :   0.1304
B( 31-C , 40-C ) :   1.1954 B( 32-C , 33-C ) :   1.1272 B( 32-C , 37-N ) :   1.4722
B( 33-C , 34-N ) :   1.3923 B( 33-C , 38-C ) :   1.2640 B( 34-N , 35-C ) :   1.6453
B( 35-C , 36-C ) :   1.1969 B( 35-C , 80-H ) :   0.9734 B( 36-C , 37-N ) :   1.6651
B( 36-C , 81-H ) :   0.9754 B( 38-C , 39-C ) :   1.2051 B( 38-C , 44-C ) :   1.2094
B( 39-C , 40-C ) :   1.1078 B( 39-C , 43-N ) :   1.5093 B( 40-C , 41-N ) :   1.4673
B( 41-N , 42-S ) :   1.2679 B( 41-N , 43-N ) :   0.1531 B( 42-S , 43-N ) :   1.2888
B( 44-C , 45-C ) :   1.4096 B( 44-C , 48-S ) :   1.0860 B( 45-C , 46-C ) :   1.2864
B( 45-C , 82-H ) :   0.9835 B( 46-C , 47-C ) :   1.3955 B( 46-C , 51-C ) :   0.9893
B( 47-C , 48-S ) :   1.0641 B( 47-C , 49-C ) :   1.2205 B( 49-C , 50-C ) :   1.4105
B( 49-C , 59-S ) :   1.1215 B( 50-C , 51-C ) :   0.9882 B( 50-C , 57-C ) :   1.2758
B( 51-C , 52-C ) :   1.7123 B( 52-C , 53-C ) :   1.1392 B( 52-C , 55-C ) :   1.1310
B( 53-C , 54-N ) :   2.9855 B( 55-C , 56-N ) :   3.0030 B( 57-C , 58-C ) :   1.4566
B( 57-C , 83-H ) :   0.9880 B( 58-C , 59-S ) :   1.0809 B( 58-C , 60-C ) :   1.1804
B( 60-C , 61-C ) :   1.3335 B( 60-C , 73-C ) :   0.1277 B( 60-C , 74-S ) :   1.2053
B( 61-C , 62-C ) :   1.1669 B( 61-C , 72-N ) :   1.4375 B( 62-C , 63-N ) :   1.3771
B( 62-C , 73-C ) :   1.4050 B( 63-N , 64-C ) :   1.7487 B( 64-C , 65-C ) :   0.8876
B( 64-C , 71-C ) :   1.0875 B( 65-C , 66-O ) :   2.2582 B( 65-C , 67-C ) :   1.0218
B( 67-C , 68-C ) :   1.6853 B( 67-C , 84-H ) :   0.9972 B( 68-C , 69-C ) :   1.0175
B( 68-C , 85-H ) :   0.9962 B( 69-C , 70-O ) :   2.2413 B( 69-C , 71-C ) :   0.8957
B( 71-C , 72-N ) :   1.7176 B( 73-C , 74-S ) :   1.1830 B( 73-C , 86-H ) :   0.9770

-----------------------------------------------------------------------------
         ABSORPTION SPECTRUM VIA TRANSITION ELECTRIC DIPOLE MOMENTS
-----------------------------------------------------------------------------
State   Energy  Wavelength   fosc         T2         TX        TY        TZ
        (cm-1)    (nm)                  (au**2)     (au)      (au)      (au)
-----------------------------------------------------------------------------
   0    8044.1   1243.2   1.018675224  41.69035   2.02757  -6.12837   0.14953
   1   11741.5    851.7   0.000337999   0.00948  -0.04998  -0.06333   0.05447
   2   12841.8    778.7   0.007539155   0.19327  -0.33922   0.27132   0.06778
   3   16026.7    624.0   0.000770232   0.01582  -0.06693   0.09431   0.04948
   4   17280.6    578.7   0.627833505  11.96081  -0.68577   3.36650  -0.39649
   5   17365.9    575.8   0.001049908   0.01990  -0.06400   0.11476   0.05136
   6   20560.2    486.4   0.052290473   0.83728  -0.52459   0.68877  -0.29611
   7   20713.0    482.8   0.001907223   0.03031   0.17329   0.00106   0.01679
   8   20771.6    481.4   0.056508599   0.89561   0.93860   0.10939   0.05179
   9   22539.7    443.7   0.004716833   0.06889  -0.00075   0.26198  -0.01611
  10   23190.9    431.2   0.136043401   1.93123  -0.33652   1.34786  -0.03571
  11   23562.5    424.4   0.002064172   0.02884  -0.00617  -0.10694  -0.13178
  12   24890.0    401.8   0.004873781   0.06446  -0.06281  -0.03662   0.24326
  13   24928.4    401.1   0.001824634   0.02410   0.04523   0.03618  -0.14402
  14   25673.8    389.5   0.012040222   0.15439  -0.23293  -0.31368   0.04170
  15   25788.6    387.8   0.012163733   0.15528   0.06301   0.38899   0.00018
  16   25906.2    386.0   0.000739820   0.00940  -0.04473  -0.06943  -0.05079
  17   25920.1    385.8   0.001364657   0.01733  -0.10202  -0.04089  -0.07248
  18   25996.1    384.7   0.000035366   0.00045  -0.01525   0.01449   0.00235
  19   26325.7    379.9   0.065070571   0.81373  -0.85373   0.23646   0.17019
  20   26546.3    376.7   0.004890278   0.06065  -0.23673  -0.02194   0.06421
  21   26712.6    374.4   0.001587134   0.01956  -0.06603   0.00690   0.12310
  22   26723.8    374.2   0.003032694   0.03736   0.11133  -0.02532  -0.15597
  23   27403.7    364.9   0.000820791   0.00986  -0.08281   0.05218  -0.01674
  24   28608.3    349.5   0.047973065   0.55205   0.36566  -0.64256   0.07391
  25   28667.2    348.8   0.039432148   0.45284   0.47303  -0.47165   0.08141
  26   28760.6    347.7   0.020737737   0.23738   0.33618  -0.34604   0.06794
  27   29305.5    341.2   0.313957708   3.52694  -0.99931   1.58949   0.04288
  28   29542.0    338.5   0.911792623  10.16088  -1.15633   2.97010   0.04751
  29   30144.1    331.7   0.203981578   2.22774  -0.00442   1.49110  -0.06590
  30   30889.4    323.7   0.003523454   0.03755   0.10068   0.16519   0.01130
  31   30900.2    323.6   0.004543252   0.04840   0.10954   0.18826  -0.03107
  32   31074.4    321.8   0.227398644   2.40913   0.99697   1.14693  -0.31581
  33   31268.2    319.8   0.010034519   0.10565  -0.29705  -0.04090   0.12545
  34   31641.8    316.0   0.070815060   0.73678  -0.77161  -0.29959   0.22725
  35   31679.0    315.7   0.084982190   0.88314   0.86091   0.31520  -0.20645
  36   31805.3    314.4   0.077499921   0.80219  -0.85470  -0.18153   0.19680
  37   32244.7    310.1   0.046971478   0.47957  -0.63686  -0.23562   0.13588
  38   33150.8    301.7   0.260535806   2.58731  -1.54357   0.40158   0.20840
  39   33356.4    299.8   0.048168552   0.47540  -0.56725  -0.38200   0.08780
  40   33500.1    298.5   0.053577653   0.52652   0.29034  -0.66142  -0.06886
  41   33848.6    295.4   0.002397373   0.02332  -0.12070   0.00962   0.09304
  42   33878.0    295.2   0.006300671   0.06123   0.23248   0.08244  -0.01961
  43   34024.1    293.9   0.080371651   0.77766   0.76868   0.40839  -0.14149
  44   34066.8    293.5   0.075656842   0.73113  -0.62561  -0.47344   0.34000
  45   34199.8    292.4   0.031817600   0.30628   0.54970  -0.05004  -0.04009
  46   34465.8    290.1   0.010993977   0.10501   0.29260  -0.13866  -0.01311
  47   34527.0    289.6   0.004574357   0.04362  -0.17923  -0.06097   0.08818
  48   34604.9    289.0   0.032409095   0.30832  -0.41601   0.35993  -0.07558
  49   34766.9    287.6   0.067835036   0.64234   0.37881   0.66967  -0.22447
  50   35084.2    285.0   0.245204303   2.30087  -1.51469  -0.02985  -0.07557
  51   35159.4    284.4   0.017046918   0.15962  -0.30437  -0.16099   0.20262
  52   35535.0    281.4   0.286422319   2.65354  -1.62221   0.01648   0.14728
  53   35543.7    281.3   0.001603252   0.01485  -0.05722   0.06769  -0.08363
  54   35611.0    280.8   0.001437543   0.01329  -0.08404   0.07638  -0.01982
  55   35656.3    280.5   0.060301649   0.55676   0.74433  -0.00301  -0.05216
  56   35686.6    280.2   0.018535895   0.17100   0.27031  -0.31233  -0.01954
  57   35881.8    278.7   0.150265286   1.37867  -0.68673   0.89793  -0.31747
  58   35917.4    278.4   0.028397416   0.26029  -0.40069   0.29805  -0.10440
  59   36174.2    276.4   0.184869748   1.68245   0.16231   1.27822  -0.14923
  60   36504.0    273.9   0.178476797   1.60960  -0.83040  -0.95597   0.07848
  61   36579.4    273.4   0.179809292   1.61827   1.06429   0.69354  -0.06751
  62   36735.1    272.2   0.344369407   3.08616  -1.54830  -0.80391   0.20655
  63   37636.4    265.7   0.030468068   0.26651  -0.42008   0.29996  -0.00793
  64   37643.6    265.6   0.003905435   0.03415   0.14014  -0.12022  -0.00791
  65   37669.3    265.5   0.041435722   0.36213  -0.45782   0.38997  -0.02144
  66   37695.6    265.3   0.004152653   0.03627  -0.18583   0.01870  -0.03721
  67   37754.2    264.9   0.003869508   0.03374   0.09990   0.14787  -0.04352
  68   38159.5    262.1   0.006247423   0.05390  -0.04790   0.19438  -0.11756
  69   38199.2    261.8   0.018781305   0.16186  -0.39106  -0.09279  -0.01810
  70   38282.3    261.2   0.073094054   0.62858   0.77021  -0.10062   0.15882
  71   38404.9    260.4   0.173151945   1.48428  -1.21387  -0.08039  -0.06597
  72   38568.7    259.3   0.018877313   0.16113  -0.40039   0.02850  -0.00249
  73   38611.1    259.0   0.025587979   0.21817  -0.16084  -0.43847  -0.00693
  74   38669.9    258.6   0.012947689   0.11023   0.30636   0.12795  -0.00090
  75   38919.4    256.9   0.001896039   0.01604   0.10060   0.04292  -0.06384
  76   39067.0    256.0   0.026638527   0.22448   0.44008   0.16441   0.06144
  77   39083.2    255.9   0.025706574   0.21654  -0.45122   0.01774  -0.11236
  78   40101.1    249.4   0.093470788   0.76735   0.85887   0.16561   0.04758
  79   40114.4    249.3   0.000245823   0.00202   0.02510  -0.00201  -0.03719

FINAL SINGLE POINT ENERGY     -5729.308049630697

DIPOLE MOMENT
-------------
                                X             Y             Z
Electronic contribution:     -7.40687      -3.24867       0.71821
Nuclear contribution   :      7.82994       3.37816      -0.71058
                        -----------------------------------------
Total Dipole Moment    :      0.42306       0.12949       0.00763
                        -----------------------------------------
Magnitude (a.u.)       :      0.44250
Magnitude (Debye)      :      1.12475

Rotational constants in cm-1:     0.002992     0.000179     0.000170
Rotational constants in MHz :    89.711270     5.377592     5.095787

                             ****ORCA TERMINATED NORMALLY****
TOTAL RUN TIME: 0 days 0 hours 8 minutes 33 seconds 326 msec
