                         Program Version 4.2.0 -  RELEASE  -
|  1> # ORCA input file
|  2> # SCF done       -189.954671826942          0.000907830014
|  3> ! CAM-B3LYP def2-SVP def2/J RIJCOSX Grid4 TightSCF
|  4> %maxcore 5000
|  5> %tddft
|  6>     Mode sTDDFT
|  7>     Ethresh 5.0
|  8>     maxcore 5000
|  9> end
| 10>
| 11> %pal
| 12>   nprocs 6
| 13>   end
| 14> * xyz 0 1
| 15>    C        0.04332         0.07456        -4.62880
| 16>    C        1.24140        -0.20261        -5.14656
| 17>    C        2.36110        -0.53127        -4.31170
| 18>    C        2.23044        -0.76040        -2.98569
| 19>    C        0.85839        -0.70336        -2.33485
| 20>    C       -0.16888         0.12728        -3.14048
| 21>    N       -1.54249        -0.23190        -2.87964
| 22>    C       -1.80147        -1.38548        -2.45352
| 23>    C       -0.75058        -2.37940        -2.15687
| 24>    N        0.46866        -2.07982        -2.11148
| 25>    F       -1.12258        -3.63930        -1.96606
| 26>    F       -3.06512        -1.73773        -2.25101
| 27>    C        3.32071        -1.16905        -2.15696
| 28>    C        3.28238        -1.56824        -0.83293
| 29>    C        4.54459        -1.89946        -0.34352
| 30>    C        5.56264        -1.75342        -1.30498
| 31>    S        4.95750        -1.21088        -2.80493
| 32>    C        6.80089        -2.10522        -0.72032
| 33>    C        6.56454        -2.47706         0.62112
| 34>    C        5.14181        -2.35632         0.89997
| 35>    C        4.50564        -2.60064         2.08163
| 36>    C        5.19335        -3.04417         3.23116
| 37>    N        5.74230        -3.40376         4.17133
| 38>    C        3.11652        -2.40770         2.23462
| 39>    N        1.99042        -2.23703         2.36840
| 40>    C        7.72440        -2.83093         1.29347
| 41>    C        8.84794        -2.73470         0.47875
| 42>    S        8.45357        -2.20080        -1.14898
| 43>    C       10.19065        -3.00213         0.84296
| 44>    C       11.23950        -2.86374        -0.09362
| 45>    C       12.61777        -3.10657         0.24861
| 46>    N       13.56329        -2.96364        -0.68490
| 47>    C       13.23619        -2.59995        -1.90259
| 48>    C       11.86767        -2.34956        -2.24024
| 49>    N       10.92557        -2.48884        -1.33748
| 50>    C       11.51249        -1.94951        -3.55151
| 51>    N       11.25253        -1.62379        -4.61843
| 52>    C       14.25204        -2.46046        -2.87947
| 53>    N       15.05011        -2.34216        -3.69243
| 54>    C       13.01829        -3.48930         1.54889
| 55>    C       11.96887        -3.64261         2.48749
| 56>    C       10.58477        -3.40678         2.14143
| 57>    N        9.78007        -3.61260         3.18373
| 58>    S       10.65107        -4.05337         4.45587
| 59>    N       12.09628        -4.00784         3.76295
| 60>    C       14.38530        -3.68600         1.86358
| 61>    C       14.91805        -4.02658         3.10276
| 62>    C       16.30109        -4.11775         3.06496
| 63>    C       16.83351        -3.85083         1.78414
| 64>    S       15.62536        -3.48214         0.63305
| 65>    C       18.24113        -3.96797         1.85375
| 66>    C       18.60175        -4.29526         3.17674
| 67>    C       17.39469        -4.40514         3.97890
| 68>    C       17.30630        -4.71147         5.30560
| 69>    C       18.45048        -4.97244         6.08771
| 70>    N       19.38255        -5.18594         6.72105
| 71>    C       16.07076        -4.78794         5.98230
| 72>    N       15.07286        -4.85401         6.54292
| 73>    C       19.97673        -4.41651         3.34497
| 74>    C       20.67564        -4.18032         2.16892
| 75>    S       19.59950        -3.79437         0.83606
| 76>    C       22.09323        -4.26250         1.98044
| 77>    C       22.93670        -4.66485         2.95985
| 78>    C       24.35304        -4.77343         2.76374
| 79>    C       24.94666        -4.34281         1.64895
| 80>    C       24.16735        -3.65996         0.56022
| 81>    C       22.65317        -3.98079         0.59080
| 82>    N       21.84828        -2.95733        -0.02872
| 83>    C       22.27093        -1.77335        -0.07168
| 84>    C       23.61556        -1.39727         0.40179
| 85>    N       24.49042        -2.25275         0.68292
| 86>    F       23.89176        -0.10430         0.52482
| 87>    F       21.50206        -0.82926        -0.59731
| 88>    H       -0.81698         0.31041        -5.23380
| 89>    H        1.39451        -0.19359        -6.21462
| 90>    H        3.33048        -0.62574        -4.77928
| 91>    H        0.95963        -0.25581        -1.33728
| 92>    H       -0.08436         1.18283        -2.84240
| 93>    H        2.37511        -1.64156        -0.26390
| 94>    H        7.79188        -3.14511         2.31877
| 95>    H       14.29572        -4.18758         3.96375
| 96>    H       20.44813        -4.65947         4.27873
| 97>    H       22.55241        -4.91733         3.93467
| 98>    H       24.93411        -5.21123         3.56094
| 99>    H       26.01537        -4.36641         1.51776
|100>    H       24.57529        -3.96232        -0.41481
|101>    H       22.47323        -4.88978        -0.00187
|102> *
|103>
|104>                          ****END OF INPUT****

CARTESIAN COORDINATES (ANGSTROEM)
---------------------------------
  C      0.043320    0.074560   -4.628800
  C      1.241400   -0.202610   -5.146560
  C      2.361100   -0.531270   -4.311700
  C      2.230440   -0.760400   -2.985690
  C      0.858390   -0.703360   -2.334850
  C     -0.168880    0.127280   -3.140480
  N     -1.542490   -0.231900   -2.879640
  C     -1.801470   -1.385480   -2.453520
  C     -0.750580   -2.379400   -2.156870
  N      0.468660   -2.079820   -2.111480
  F     -1.122580   -3.639300   -1.966060
  F     -3.065120   -1.737730   -2.251010
  C      3.320710   -1.169050   -2.156960
  C      3.282380   -1.568240   -0.832930
  C      4.544590   -1.899460   -0.343520
  C      5.562640   -1.753420   -1.304980
  S      4.957500   -1.210880   -2.804930
  C      6.800890   -2.105220   -0.720320
  C      6.564540   -2.477060    0.621120
  C      5.141810   -2.356320    0.899970
  C      4.505640   -2.600640    2.081630
  C      5.193350   -3.044170    3.231160
  N      5.742300   -3.403760    4.171330
  C      3.116520   -2.407700    2.234620
  N      1.990420   -2.237030    2.368400
  C      7.724400   -2.830930    1.293470
  C      8.847940   -2.734700    0.478750
  S      8.453570   -2.200800   -1.148980
  C     10.190650   -3.002130    0.842960
  C     11.239500   -2.863740   -0.093620
  C     12.617770   -3.106570    0.248610
  N     13.563290   -2.963640   -0.684900
  C     13.236190   -2.599950   -1.902590
  C     11.867670   -2.349560   -2.240240
  N     10.925570   -2.488840   -1.337480
  C     11.512490   -1.949510   -3.551510
  N     11.252530   -1.623790   -4.618430
  C     14.252040   -2.460460   -2.879470
  N     15.050110   -2.342160   -3.692430
  C     13.018290   -3.489300    1.548890
  C     11.968870   -3.642610    2.487490
  C     10.584770   -3.406780    2.141430
  N      9.780070   -3.612600    3.183730
  S     10.651070   -4.053370    4.455870
  N     12.096280   -4.007840    3.762950
  C     14.385300   -3.686000    1.863580
  C     14.918050   -4.026580    3.102760
  C     16.301090   -4.117750    3.064960
  C     16.833510   -3.850830    1.784140
  S     15.625360   -3.482140    0.633050
  C     18.241130   -3.967970    1.853750
  C     18.601750   -4.295260    3.176740
  C     17.394690   -4.405140    3.978900
  C     17.306300   -4.711470    5.305600
  C     18.450480   -4.972440    6.087710
  N     19.382550   -5.185940    6.721050
  C     16.070760   -4.787940    5.982300
  N     15.072860   -4.854010    6.542920
  C     19.976730   -4.416510    3.344970
  C     20.675640   -4.180320    2.168920
  S     19.599500   -3.794370    0.836060
  C     22.093230   -4.262500    1.980440
  C     22.936700   -4.664850    2.959850
  C     24.353040   -4.773430    2.763740
  C     24.946660   -4.342810    1.648950
  C     24.167350   -3.659960    0.560220
  C     22.653170   -3.980790    0.590800
  N     21.848280   -2.957330   -0.028720
  C     22.270930   -1.773350   -0.071680
  C     23.615560   -1.397270    0.401790
  N     24.490420   -2.252750    0.682920
  F     23.891760   -0.104300    0.524820
  F     21.502060   -0.829260   -0.597310
  H     -0.816980    0.310410   -5.233800
  H      1.394510   -0.193590   -6.214620
  H      3.330480   -0.625740   -4.779280
  H      0.959630   -0.255810   -1.337280
  H     -0.084360    1.182830   -2.842400
  H      2.375110   -1.641560   -0.263900
  H      7.791880   -3.145110    2.318770
  H     14.295720   -4.187580    3.963750
  H     20.448130   -4.659470    4.278730
  H     22.552410   -4.917330    3.934670
  H     24.934110   -5.211230    3.560940
  H     26.015370   -4.366410    1.517760
  H     24.575290   -3.962320   -0.414810
  H     22.473230   -4.889780   -0.001870

 Total Charge           Charge          ....    0
 Multiplicity           Mult            ....    1
 Number of Electrons    NEL             ....  528
 Basis Dimension        Dim             .... 1112

ORBITAL ENERGIES
----------------

  NO   OCC          E(Eh)            E(eV)
   0   2.0000     -89.050802     -2423.1955
   1   2.0000     -88.985609     -2421.4215
   2   2.0000     -88.983900     -2421.3750
   3   2.0000     -88.983734     -2421.3705
   4   2.0000     -88.982845     -2421.3463
   5   2.0000     -24.818594      -675.3483
   6   2.0000     -24.810550      -675.1294
   7   2.0000     -24.804503      -674.9648
   8   2.0000     -24.804397      -674.9620
   9   2.0000     -14.476446      -393.9241
  10   2.0000     -14.476300      -393.9201
  11   2.0000     -14.460036      -393.4776
  12   2.0000     -14.459640      -393.4668
  13   2.0000     -14.445949      -393.0942
  14   2.0000     -14.440621      -392.9493
  15   2.0000     -14.439215      -392.9110
  16   2.0000     -14.438363      -392.8878
  17   2.0000     -14.433437      -392.7538
  18   2.0000     -14.433151      -392.7460
  19   2.0000     -14.427817      -392.6009
  20   2.0000     -14.427699      -392.5976
  21   2.0000     -14.427163      -392.5831
  22   2.0000     -14.426338      -392.5606
  23   2.0000     -10.434104      -283.9264
  24   2.0000     -10.425272      -283.6861
  25   2.0000     -10.419333      -283.5245
  26   2.0000     -10.419091      -283.5179
  27   2.0000     -10.393651      -282.8256
  28   2.0000     -10.392993      -282.8077
  29   2.0000     -10.361140      -281.9409
  30   2.0000     -10.359564      -281.8981
  31   2.0000     -10.356082      -281.8033
  32   2.0000     -10.355833      -281.7965
  33   2.0000     -10.351712      -281.6844
  34   2.0000     -10.351468      -281.6778
  35   2.0000     -10.348775      -281.6045
  36   2.0000     -10.348279      -281.5910
  37   2.0000     -10.343257      -281.4543
  38   2.0000     -10.337357      -281.2938
  39   2.0000     -10.334990      -281.2294
  40   2.0000     -10.332768      -281.1689
  41   2.0000     -10.331912      -281.1456
  42   2.0000     -10.331100      -281.1235
  43   2.0000     -10.329038      -281.0674
  44   2.0000     -10.328766      -281.0600
  45   2.0000     -10.328331      -281.0482
  46   2.0000     -10.328286      -281.0469
  47   2.0000     -10.327634      -281.0292
  48   2.0000     -10.327026      -281.0127
  49   2.0000     -10.327017      -281.0124
  50   2.0000     -10.324895      -280.9547
  51   2.0000     -10.324643      -280.9478
  52   2.0000     -10.323178      -280.9080
  53   2.0000     -10.322792      -280.8974
  54   2.0000     -10.322648      -280.8935
  55   2.0000     -10.322065      -280.8777
  56   2.0000     -10.319993      -280.8213
  57   2.0000     -10.308825      -280.5174
  58   2.0000     -10.304328      -280.3950
  59   2.0000     -10.301613      -280.3211
  60   2.0000     -10.300206      -280.2829
  61   2.0000     -10.297841      -280.2185
  62   2.0000     -10.297574      -280.2112
  63   2.0000     -10.297359      -280.2054
  64   2.0000     -10.297144      -280.1995
  65   2.0000     -10.296935      -280.1939
  66   2.0000     -10.296543      -280.1832
  67   2.0000     -10.290768      -280.0260
  68   2.0000     -10.290371      -280.0152
  69   2.0000     -10.288141      -279.9546
  70   2.0000     -10.286925      -279.9214
  71   2.0000     -10.286333      -279.9054
  72   2.0000     -10.284918      -279.8668
  73   2.0000      -8.141934      -221.5533
  74   2.0000      -8.080182      -219.8729
  75   2.0000      -8.076954      -219.7851
  76   2.0000      -8.076309      -219.7675
  77   2.0000      -8.075525      -219.7462
  78   2.0000      -6.113016      -166.3436
  79   2.0000      -6.105092      -166.1280
  80   2.0000      -6.104787      -166.1197
  81   2.0000      -6.049398      -164.6125
  82   2.0000      -6.046285      -164.5278
  83   2.0000      -6.045905      -164.5174
  84   2.0000      -6.045257      -164.4998
  85   2.0000      -6.045086      -164.4952
  86   2.0000      -6.042591      -164.4273
  87   2.0000      -6.041671      -164.4022
  88   2.0000      -6.041028      -164.3847
  89   2.0000      -6.040260      -164.3638
  90   2.0000      -6.039612      -164.3462
  91   2.0000      -6.038750      -164.3227
  92   2.0000      -6.037959      -164.3012
  93   2.0000      -1.345945       -36.6250
  94   2.0000      -1.334802       -36.3218
  95   2.0000      -1.329159       -36.1683
  96   2.0000      -1.320085       -35.9213
  97   2.0000      -1.149075       -31.2679
  98   2.0000      -1.135097       -30.8876
  99   2.0000      -1.095569       -29.8120
 100   2.0000      -1.084875       -29.5210
 101   2.0000      -1.063993       -28.9527
 102   2.0000      -1.040720       -28.3194
 103   2.0000      -1.039432       -28.2844
 104   2.0000      -1.028420       -27.9847
 105   2.0000      -1.024065       -27.8662
 106   2.0000      -1.019365       -27.7383
 107   2.0000      -1.018299       -27.7093
 108   2.0000      -1.017554       -27.6891
 109   2.0000      -1.013835       -27.5879
 110   2.0000      -1.005729       -27.3673
 111   2.0000      -1.004997       -27.3474
 112   2.0000      -1.004554       -27.3353
 113   2.0000      -0.999694       -27.2031
 114   2.0000      -0.990399       -26.9501
 115   2.0000      -0.981175       -26.6991
 116   2.0000      -0.961636       -26.1675
 117   2.0000      -0.957543       -26.0561
 118   2.0000      -0.947531       -25.7836
 119   2.0000      -0.946159       -25.7463
 120   2.0000      -0.918867       -25.0036
 121   2.0000      -0.918624       -24.9970
 122   2.0000      -0.907225       -24.6868
 123   2.0000      -0.891103       -24.2481
 124   2.0000      -0.875124       -23.8133
 125   2.0000      -0.872596       -23.7445
 126   2.0000      -0.867974       -23.6188
 127   2.0000      -0.864755       -23.5312
 128   2.0000      -0.859162       -23.3790
 129   2.0000      -0.854650       -23.2562
 130   2.0000      -0.849443       -23.1145
 131   2.0000      -0.849038       -23.1035
 132   2.0000      -0.843460       -22.9517
 133   2.0000      -0.816057       -22.2060
 134   2.0000      -0.810007       -22.0414
 135   2.0000      -0.786158       -21.3924
 136   2.0000      -0.782531       -21.2937
 137   2.0000      -0.779370       -21.2077
 138   2.0000      -0.776595       -21.1322
 139   2.0000      -0.775916       -21.1137
 140   2.0000      -0.767211       -20.8769
 141   2.0000      -0.760228       -20.6868
 142   2.0000      -0.753440       -20.5022
 143   2.0000      -0.741406       -20.1747
 144   2.0000      -0.727618       -19.7995
 145   2.0000      -0.717269       -19.5179
 146   2.0000      -0.714835       -19.4517
 147   2.0000      -0.700440       -19.0600
 148   2.0000      -0.697554       -18.9814
 149   2.0000      -0.692828       -18.8528
 150   2.0000      -0.686176       -18.6718
 151   2.0000      -0.681260       -18.5380
 152   2.0000      -0.678697       -18.4683
 153   2.0000      -0.674413       -18.3517
 154   2.0000      -0.672842       -18.3090
 155   2.0000      -0.667721       -18.1696
 156   2.0000      -0.665153       -18.0997
 157   2.0000      -0.661744       -18.0070
 158   2.0000      -0.654449       -17.8085
 159   2.0000      -0.647994       -17.6328
 160   2.0000      -0.640555       -17.4304
 161   2.0000      -0.635864       -17.3027
 162   2.0000      -0.633759       -17.2455
 163   2.0000      -0.630714       -17.1626
 164   2.0000      -0.627439       -17.0735
 165   2.0000      -0.624676       -16.9983
 166   2.0000      -0.619448       -16.8560
 167   2.0000      -0.614844       -16.7307
 168   2.0000      -0.609350       -16.5813
 169   2.0000      -0.607073       -16.5193
 170   2.0000      -0.601395       -16.3648
 171   2.0000      -0.597438       -16.2571
 172   2.0000      -0.593813       -16.1585
 173   2.0000      -0.591877       -16.1058
 174   2.0000      -0.588554       -16.0154
 175   2.0000      -0.582956       -15.8631
 176   2.0000      -0.575109       -15.6495
 177   2.0000      -0.569934       -15.5087
 178   2.0000      -0.565563       -15.3898
 179   2.0000      -0.564642       -15.3647
 180   2.0000      -0.561643       -15.2831
 181   2.0000      -0.556703       -15.1487
 182   2.0000      -0.552628       -15.0378
 183   2.0000      -0.549825       -14.9615
 184   2.0000      -0.545492       -14.8436
 185   2.0000      -0.544482       -14.8161
 186   2.0000      -0.543538       -14.7904
 187   2.0000      -0.542125       -14.7520
 188   2.0000      -0.541557       -14.7365
 189   2.0000      -0.537438       -14.6244
 190   2.0000      -0.528743       -14.3878
 191   2.0000      -0.525533       -14.3005
 192   2.0000      -0.523561       -14.2468
 193   2.0000      -0.517680       -14.0868
 194   2.0000      -0.515102       -14.0166
 195   2.0000      -0.511655       -13.9228
 196   2.0000      -0.508972       -13.8498
 197   2.0000      -0.507568       -13.8116
 198   2.0000      -0.502903       -13.6847
 199   2.0000      -0.500353       -13.6153
 200   2.0000      -0.496754       -13.5174
 201   2.0000      -0.495633       -13.4868
 202   2.0000      -0.494586       -13.4584
 203   2.0000      -0.494419       -13.4538
 204   2.0000      -0.490512       -13.3475
 205   2.0000      -0.488876       -13.3030
 206   2.0000      -0.487711       -13.2713
 207   2.0000      -0.480039       -13.0625
 208   2.0000      -0.479867       -13.0578
 209   2.0000      -0.477959       -13.0059
 210   2.0000      -0.473620       -12.8878
 211   2.0000      -0.471668       -12.8347
 212   2.0000      -0.470771       -12.8103
 213   2.0000      -0.466777       -12.7017
 214   2.0000      -0.464898       -12.6505
 215   2.0000      -0.462441       -12.5837
 216   2.0000      -0.459962       -12.5162
 217   2.0000      -0.459245       -12.4967
 218   2.0000      -0.458982       -12.4895
 219   2.0000      -0.457273       -12.4430
 220   2.0000      -0.454329       -12.3629
 221   2.0000      -0.453397       -12.3376
 222   2.0000      -0.452333       -12.3086
 223   2.0000      -0.451179       -12.2772
 224   2.0000      -0.448763       -12.2115
 225   2.0000      -0.438404       -11.9296
 226   2.0000      -0.437963       -11.9176
 227   2.0000      -0.437794       -11.9130
 228   2.0000      -0.436744       -11.8844
 229   2.0000      -0.436172       -11.8688
 230   2.0000      -0.435611       -11.8536
 231   2.0000      -0.435389       -11.8475
 232   2.0000      -0.434632       -11.8269
 233   2.0000      -0.427616       -11.6360
 234   2.0000      -0.427471       -11.6321
 235   2.0000      -0.424988       -11.5645
 236   2.0000      -0.424442       -11.5496
 237   2.0000      -0.422614       -11.4999
 238   2.0000      -0.420394       -11.4395
 239   2.0000      -0.418578       -11.3901
 240   2.0000      -0.414974       -11.2920
 241   2.0000      -0.405186       -11.0257
 242   2.0000      -0.402967       -10.9653
 243   2.0000      -0.398920       -10.8552
 244   2.0000      -0.397739       -10.8230
 245   2.0000      -0.391611       -10.6563
 246   2.0000      -0.385014       -10.4768
 247   2.0000      -0.379607       -10.3296
 248   2.0000      -0.372820       -10.1449
 249   2.0000      -0.367718       -10.0061
 250   2.0000      -0.360895        -9.8204
 251   2.0000      -0.358901        -9.7662
 252   2.0000      -0.358083        -9.7439
 253   2.0000      -0.355388        -9.6706
 254   2.0000      -0.350244        -9.5306
 255   2.0000      -0.345581        -9.4037
 256   2.0000      -0.342724        -9.3260
 257   2.0000      -0.337500        -9.1838
 258   2.0000      -0.322235        -8.7685
 259   2.0000      -0.318271        -8.6606
 260   2.0000      -0.316235        -8.6052
 261   2.0000      -0.291798        -7.9402
 262   2.0000      -0.263644        -7.1741
 263   2.0000      -0.233350        -6.3498
 264   0.0000      -0.136025        -3.7014
 265   0.0000      -0.100834        -2.7438
 266   0.0000      -0.096506        -2.6261
 267   0.0000      -0.062820        -1.7094
 268   0.0000      -0.053918        -1.4672

MULLIKEN ATOMIC CHARGES
-----------------------
   0 C :   -0.038328
   1 C :    0.059522
   2 C :   -0.085633
   3 C :    0.066077
   4 C :    0.068101
   5 C :    0.122469
   6 N :   -0.089754
   7 C :    0.100419
   8 C :    0.120359
   9 N :   -0.087311
  10 F :   -0.140760
  11 F :   -0.142218
  12 C :   -0.065641
  13 C :   -0.039598
  14 C :    0.021146
  15 C :   -0.099603
  16 S :    0.175494
  17 C :   -0.059597
  18 C :    0.033598
  19 C :    0.311258
  20 C :   -0.307667
  21 C :   -0.188286
  22 N :    0.174007
  23 C :   -0.187017
  24 N :    0.168288
  25 C :   -0.063174
  26 C :   -0.183405
  27 S :    0.201036
  28 C :    0.190486
  29 C :   -0.063545
  30 C :   -0.066105
  31 N :    0.001799
  32 C :   -0.101871
  33 C :   -0.104115
  34 N :   -0.002346
  35 C :   -0.244838
  36 N :    0.252819
  37 C :   -0.245972
  38 N :    0.251353
  39 C :    0.192823
  40 C :   -0.014246
  41 C :   -0.010232
  42 N :   -0.284380
  43 S :    0.582722
  44 N :   -0.280953
  45 C :   -0.185836
  46 C :   -0.059741
  47 C :    0.027757
  48 C :   -0.059068
  49 S :    0.201280
  50 C :   -0.100329
  51 C :    0.016311
  52 C :    0.313638
  53 C :   -0.305531
  54 C :   -0.187355
  55 N :    0.162683
  56 C :   -0.187053
  57 N :    0.169236
  58 C :   -0.046613
  59 C :   -0.060688
  60 S :    0.221897
  61 C :    0.031493
  62 C :   -0.054337
  63 C :    0.036539
  64 C :    0.004770
  65 C :    0.099625
  66 C :    0.100259
  67 N :   -0.144268
  68 C :    0.139889
  69 C :    0.118765
  70 N :   -0.087888
  71 F :   -0.142832
  72 F :   -0.135305
  73 H :    0.015357
  74 H :   -0.003469
  75 H :   -0.004226
  76 H :    0.037291
  77 H :    0.041881
  78 H :    0.010718
  79 H :    0.021211
  80 H :    0.019779
  81 H :    0.001573
  82 H :   -0.009521
  83 H :   -0.001985
  84 H :    0.009667
  85 H :    0.031709
  86 H :    0.045540
Sum of atomic charges:   -0.0000000

LOEWDIN ATOMIC CHARGES
----------------------
   0 C :   -0.014052
   1 C :   -0.033390
   2 C :   -0.029434
   3 C :   -0.035513
   4 C :    0.021853
   5 C :    0.011188
   6 N :   -0.068821
   7 C :    0.046893
   8 C :    0.048578
   9 N :   -0.071144
  10 F :   -0.029689
  11 F :   -0.030627
  12 C :   -0.148479
  13 C :   -0.026938
  14 C :   -0.063975
  15 C :   -0.180383
  16 S :    0.479201
  17 C :   -0.174009
  18 C :   -0.076328
  19 C :    0.082589
  20 C :   -0.104132
  21 C :   -0.016528
  22 N :   -0.034286
  23 C :   -0.015486
  24 N :   -0.036389
  25 C :   -0.007059
  26 C :   -0.169605
  27 S :    0.506639
  28 C :   -0.042051
  29 C :   -0.016426
  30 C :   -0.017334
  31 N :   -0.015943
  32 C :   -0.025756
  33 C :   -0.024039
  34 N :   -0.017374
  35 C :   -0.039090
  36 N :   -0.002077
  37 C :   -0.039549
  38 N :   -0.001816
  39 C :   -0.038185
  40 C :   -0.037929
  41 C :   -0.036846
  42 N :   -0.271675
  43 S :    0.700387
  44 N :   -0.270392
  45 C :   -0.171412
  46 C :   -0.005179
  47 C :   -0.078936
  48 C :   -0.167536
  49 S :    0.507241
  50 C :   -0.197397
  51 C :   -0.063885
  52 C :    0.083241
  53 C :   -0.108938
  54 C :   -0.015225
  55 N :   -0.040809
  56 C :   -0.017011
  57 N :   -0.036332
  58 C :   -0.025283
  59 C :   -0.162438
  60 S :    0.522233
  61 C :   -0.043460
  62 C :   -0.021002
  63 C :   -0.027421
  64 C :   -0.010436
  65 C :    0.013888
  66 C :    0.016164
  67 N :   -0.096701
  68 C :    0.062789
  69 C :    0.042045
  70 N :   -0.059811
  71 F :   -0.031123
  72 F :   -0.023675
  73 H :    0.033115
  74 H :    0.034814
  75 H :    0.022989
  76 H :    0.039857
  77 H :    0.048453
  78 H :    0.038651
  79 H :    0.038229
  80 H :    0.038015
  81 H :    0.037270
  82 H :    0.033579
  83 H :    0.035983
  84 H :    0.032132
  85 H :    0.041950
  86 H :    0.046794

  Mayer bond orders larger than 0.100000
B(  0-C ,  1-C ) :   1.8041 B(  0-C ,  5-C ) :   0.9700 B(  0-C , 73-H ) :   0.9806
B(  1-C ,  2-C ) :   1.0787 B(  1-C , 74-H ) :   0.9812 B(  2-C ,  3-C ) :   1.7145
B(  2-C , 75-H ) :   0.9765 B(  3-C ,  4-C ) :   0.9893 B(  3-C , 12-C ) :   1.1368
B(  4-C ,  5-C ) :   0.9715 B(  4-C ,  9-N ) :   1.0268 B(  4-C , 76-H ) :   0.8906
B(  5-C ,  6-N ) :   1.0080 B(  5-C , 77-H ) :   0.8832 B(  6-N ,  7-C ) :   1.9566
B(  7-C ,  8-C ) :   0.9325 B(  7-C , 11-F ) :   1.1640 B(  8-C ,  9-N ) :   1.9577
B(  8-C , 10-F ) :   1.1683 B( 12-C , 13-C ) :   1.4735 B( 12-C , 16-S ) :   1.1026
B( 13-C , 14-C ) :   1.2659 B( 13-C , 78-H ) :   0.9829 B( 14-C , 15-C ) :   1.4306
B( 14-C , 19-C ) :   1.0001 B( 15-C , 16-S ) :   1.1213 B( 15-C , 17-C ) :   1.2023
B( 17-C , 18-C ) :   1.3965 B( 17-C , 27-S ) :   1.0881 B( 18-C , 19-C ) :   0.9877
B( 18-C , 25-C ) :   1.2841 B( 19-C , 20-C ) :   1.7066 B( 20-C , 21-C ) :   1.1410
B( 20-C , 23-C ) :   1.1350 B( 21-C , 22-N ) :   2.9877 B( 23-C , 24-N ) :   2.9873
B( 25-C , 26-C ) :   1.4066 B( 25-C , 79-H ) :   0.9821 B( 26-C , 27-S ) :   1.0821
B( 26-C , 28-C ) :   1.2164 B( 28-C , 29-C ) :   1.2554 B( 28-C , 39-C ) :   0.1202
B( 28-C , 41-C ) :   1.1882 B( 29-C , 30-C ) :   1.1006 B( 29-C , 34-N ) :   1.4075
B( 30-C , 31-N ) :   1.4122 B( 30-C , 39-C ) :   1.2481 B( 31-N , 32-C ) :   1.6880
B( 32-C , 33-C ) :   1.2208 B( 32-C , 37-C ) :   1.1692 B( 33-C , 34-N ) :   1.6893
B( 33-C , 35-C ) :   1.1699 B( 35-C , 36-N ) :   3.0410 B( 37-C , 38-N ) :   3.0398
B( 39-C , 40-C ) :   1.1897 B( 39-C , 45-C ) :   1.2240 B( 40-C , 41-C ) :   1.0972
B( 40-C , 44-N ) :   1.5246 B( 41-C , 42-N ) :   1.5222 B( 42-N , 43-S ) :   1.2802
B( 42-N , 44-N ) :   0.1453 B( 43-S , 44-N ) :   1.2814 B( 45-C , 46-C ) :   1.4017
B( 45-C , 49-S ) :   1.0769 B( 46-C , 47-C ) :   1.2858 B( 46-C , 80-H ) :   0.9825
B( 47-C , 48-C ) :   1.3893 B( 47-C , 52-C ) :   0.9918 B( 48-C , 49-S ) :   1.0939
B( 48-C , 50-C ) :   1.2099 B( 50-C , 51-C ) :   1.3972 B( 50-C , 60-S ) :   1.0975
B( 51-C , 52-C ) :   0.9981 B( 51-C , 58-C ) :   1.3209 B( 52-C , 53-C ) :   1.7015
B( 53-C , 54-C ) :   1.1349 B( 53-C , 56-C ) :   1.1370 B( 54-C , 55-N ) :   2.9864
B( 56-C , 57-N ) :   2.9871 B( 58-C , 59-C ) :   1.4490 B( 58-C , 81-H ) :   0.9888
B( 59-C , 60-S ) :   1.1221 B( 59-C , 61-C ) :   1.1131 B( 61-C , 62-C ) :   1.7460
B( 61-C , 66-C ) :   0.9353 B( 62-C , 63-C ) :   1.0770 B( 62-C , 82-H ) :   0.9787
B( 63-C , 64-C ) :   1.8067 B( 63-C , 83-H ) :   0.9790 B( 64-C , 65-C ) :   0.9980
B( 64-C , 84-H ) :   0.9753 B( 65-C , 66-C ) :   0.9807 B( 65-C , 70-N ) :   1.0029
B( 65-C , 85-H ) :   0.9022 B( 66-C , 67-N ) :   0.9945 B( 66-C , 86-H ) :   0.8827
B( 67-N , 68-C ) :   1.9032 B( 68-C , 69-C ) :   0.9380 B( 68-C , 72-F ) :   1.1780
B( 69-C , 70-N ) :   1.9559 B( 69-C , 71-F ) :   1.1643

-----------------------------------------------------------------------------
         ABSORPTION SPECTRUM VIA TRANSITION ELECTRIC DIPOLE MOMENTS
-----------------------------------------------------------------------------
State   Energy  Wavelength   fosc         T2         TX        TY        TZ
        (cm-1)    (nm)                  (au**2)     (au)      (au)      (au)
-----------------------------------------------------------------------------
   0    6347.3   1575.5   0.501854885  26.02939   4.86858  -0.84436   1.27019
   1   12145.7    823.3   0.002208669   0.05987  -0.09082   0.13458  -0.18305
   2   12758.5    783.8   0.021263127   0.54866   0.71752  -0.10487   0.15106
   3   14901.0    671.1   0.001738541   0.03841  -0.15782  -0.10713   0.04500
   4   20332.7    491.8   0.156321014   2.53104   1.49985  -0.27152   0.45580
   5   21328.6    468.9   0.032873751   0.50741   0.16784   0.08197  -0.68740
   6   22132.6    451.8   0.371269062   5.52246  -2.24427   0.37695  -0.58619
   7   22863.3    437.4   0.017792380   0.25619  -0.50466   0.01658   0.03519
   8   23002.4    434.7   0.219667947   3.14391  -1.71460   0.27174  -0.36083
   9   23980.1    417.0   0.025588429   0.35129   0.30849   0.11704  -0.49237
  10   24306.4    411.4   0.017954387   0.24318  -0.47023   0.02822  -0.14581
  11   24404.7    409.8   0.033306815   0.44930  -0.57494  -0.20013   0.28052
  12   25262.1    395.8   0.001551334   0.02022  -0.07052  -0.11869   0.03399
  13   26598.6    376.0   0.885878650  10.96456  -2.98248   0.76993  -1.21514
  14   26922.7    371.4   0.075140853   0.91883   0.58923  -0.23220   0.71952
  15   27614.8    362.1   0.503505391   6.00258   2.43630  -0.09739  -0.23987
  16   28272.4    353.7   0.240173360   2.79665   1.65915  -0.17489   0.11530
  17   28721.3    348.2   0.000386882   0.00443  -0.02207   0.01582   0.06081
  18   28998.2    344.8   0.108383834   1.23047  -0.10438  -0.30234   1.06215
  19   29222.4    342.2   0.014663626   0.16520   0.12008  -0.10179   0.37472
  20   29763.4    336.0   0.209683189   2.31930  -0.44767   0.46064  -1.38083
  21   30370.4    329.3   0.015041720   0.16305   0.25515   0.07305  -0.30432
  22   31018.0    322.4   0.001303474   0.01383  -0.04320  -0.02335   0.10688
  23   31109.9    321.4   0.000884962   0.00936   0.04723  -0.03219   0.07809
  24   31300.4    319.5   0.125069807   1.31546  -0.42991  -0.21877   1.04057
  25   31814.3    314.3   0.127508657   1.31945   0.81879  -0.27399   0.75760
  26   32280.4    309.8   1.291514129  13.17151  -1.46061  -0.69237   3.24943
  27   32562.1    307.1   0.329014122   3.32643   0.71866   0.41518  -1.62406
  28   32620.0    306.6   0.110670188   1.11692   0.94383  -0.13029   0.45731
  29   33396.2    299.4   0.187601342   1.84933  -0.63685   0.38565  -1.13799
  30   33578.5    297.8   0.066768078   0.65461   0.50055  -0.21812   0.59706
  31   33671.9    297.0   0.002281965   0.02231  -0.14560   0.02163  -0.02539
  32   33843.5    295.5   0.022247013   0.21641   0.40486   0.00677   0.22901
  33   35309.4    283.2   0.067628343   0.63054  -0.31218   0.21143  -0.69885
  34   35441.3    282.2   0.026226235   0.24361   0.00262   0.23383  -0.43466
  35   35482.2    281.8   0.137526358   1.27600   1.02801  -0.25326   0.39378
  36   35790.4    279.4   0.161089575   1.48176   0.79528   0.18549  -0.90271
  37   35909.4    278.5   0.055462571   0.50847  -0.28950   0.21071  -0.61665
  38   36383.5    274.8   0.019554460   0.17694   0.37470  -0.14709   0.12206
  39   36474.4    274.2   0.083017138   0.74930   0.84003  -0.15931  -0.13516
  40   37101.8    269.5   0.066858388   0.59325  -0.52566   0.04061  -0.56150
  41   37423.4    267.2   0.194240787   1.70873  -0.27979  -0.33260   1.23281
  42   37596.4    266.0   0.125043414   1.09494   0.18689   0.27556  -0.99201
  43   37734.8    265.0   0.111796449   0.97535  -0.09170  -0.26024   0.94827
  44   37917.5    263.7   0.049377150   0.42871  -0.08607  -0.16096   0.62880
  45   38292.3    261.1   0.035009308   0.30099   0.49954  -0.09192  -0.20735
  46   38528.8    259.5   0.020927301   0.17881  -0.27746  -0.04489   0.31593
  47   38561.0    259.3   0.000958762   0.00819   0.03451  -0.01712  -0.08186
  48   38715.7    258.3   0.007243121   0.06159   0.05391  -0.11384   0.21383
  49   38861.9    257.3   0.003749008   0.03176  -0.15686   0.06787  -0.05046
  50   39302.6    254.4   0.018902160   0.15833   0.39087  -0.04122  -0.06205
  51   39713.1    251.8   0.006746845   0.05593  -0.09079  -0.18087   0.12236
  52   39879.6    250.8   0.016895159   0.13947  -0.05362  -0.18114   0.32216

FINAL SINGLE POINT ENERGY     -5065.927391258268

DIPOLE MOMENT
-------------
                                X             Y             Z
Electronic contribution:    -10.54615       2.45296       0.25879
Nuclear contribution   :     12.28098      -2.35266      -1.72149
                        -----------------------------------------
Total Dipole Moment    :      1.73483       0.10030      -1.46270
                        -----------------------------------------
Magnitude (a.u.)       :      2.27138
Magnitude (Debye)      :      5.77340

Rotational constants in cm-1:     0.002264     0.000244     0.000224
Rotational constants in MHz :    67.881894     7.319747     6.705977

                             ****ORCA TERMINATED NORMALLY****
TOTAL RUN TIME: 0 days 0 hours 9 minutes 3 seconds 858 msec
