                         Program Version 4.2.0 -  RELEASE  -
|  1> # ORCA input file
|  2> # SCF done       -205.220722441102          0.000637441498
|  3> ! CAM-B3LYP def2-SVP def2/J RIJCOSX Grid4 TightSCF
|  4> %maxcore 5000
|  5> %tddft
|  6>     Mode sTDDFT
|  7>     Ethresh 5.0
|  8>     maxcore 5000
|  9> end
| 10>
| 11> %pal
| 12>   nprocs 6
| 13>   end
| 14> * xyz 0 1
| 15>    C       -3.92634        -1.27534         2.63221
| 16>    C       -4.66716        -2.12166         3.41167
| 17>    C       -4.22155        -3.38651         3.85360
| 18>    N       -3.91619        -4.41993         4.24820
| 19>    C       -5.96361        -1.85801         3.90458
| 20>    N       -7.01434        -1.72222         4.34659
| 21>    C       -2.58771        -1.54277         2.12283
| 22>    C       -2.12972        -0.40849         1.40796
| 23>    C       -0.89371        -0.35868         0.81003
| 24>    C       -0.07298        -1.48626         0.91029
| 25>    C       -0.53896        -2.61662         1.62522
| 26>    C       -1.78447        -2.66416         2.23691
| 27>    S        0.63514        -3.89754         1.63062
| 28>    C        1.71940        -2.91292         0.68450
| 29>    C        1.23024        -1.68716         0.37952
| 30>   Br        3.39473        -3.59411         0.19064
| 31>    C       -3.15697         0.64875         1.44825
| 32>    O       -3.01978         1.79915         1.10083
| 33>    C       -4.32885         0.03590         2.14045
| 34>    C       -5.51947         0.64938         2.32842
| 35>    C       -5.93024         1.85874         1.66299
| 36>    C       -6.65186         2.84894         2.32564
| 37>    C       -7.04235         4.06426         1.70915
| 38>    N       -7.73905         4.90238         2.52708
| 39>    C       -7.87190         4.42140         3.69740
| 40>    S       -7.16052         2.84904         3.98342
| 41>    C       -6.74693         4.31459         0.36227
| 42>    C       -6.09010         3.29801        -0.32240
| 43>    C       -5.68369         2.08949         0.29979
| 44>    N       -5.07653         1.20524        -0.53703
| 45>    C       -4.95176         1.68011        -1.71384
| 46>    S       -5.58345         3.28008        -1.98234
| 47>    C       -7.11063         5.58853        -0.24483
| 48>    C       -7.78636         5.67176        -1.46821
| 49>    C       -8.13224         6.93612        -2.05776
| 50>    N       -8.79809         6.96400        -3.24047
| 51>    C       -9.11336         5.85131        -3.80464
| 52>    C       -8.79202         4.59385        -3.20552
| 53>    N       -8.15811         4.52201        -2.08768
| 54>    F       -9.14574         3.45689        -3.79524
| 55>    F       -9.74773         5.89736        -4.96987
| 56>    C       -7.83214         8.14958        -1.42738
| 57>    C       -7.16395         8.07377        -0.19904
| 58>    C       -6.80154         6.80064         0.38680
| 59>    N       -6.12083         6.96019         1.52752
| 60>    S       -5.97737         8.52113         1.82729
| 61>    N       -6.72965         9.09934         0.54292
| 62>    C       -8.22112         9.43135        -2.00080
| 63>    C       -7.95491         9.79275        -3.31568
| 64>    C       -8.35877        11.03228        -3.87167
| 65>    N       -7.96241        11.21955        -5.16127
| 66>    C       -7.29970        10.22047        -5.60270
| 67>    S       -7.06617         8.89311        -4.50522
| 68>    C       -9.07531        11.97231        -3.10882
| 69>    C       -9.30440        11.61930        -1.78016
| 70>    C       -8.90702        10.37544        -1.22698
| 71>    N       -9.29138        10.19455         0.06712
| 72>    C       -9.92735        11.19978         0.51782
| 73>    S      -10.16676        12.53317        -0.58787
| 74>    C       -9.50948        13.23750        -3.63424
| 75>    C       -9.88626        13.52762        -4.89870
| 76>    C      -10.15818        12.68151        -6.04722
| 77>    C      -10.67273        11.41487        -6.01482
| 78>    C      -10.96498        10.65849        -7.16826
| 79>    N      -11.19614        10.00281        -8.08119
| 80>    C      -11.02836        10.74924        -4.82334
| 81>    N      -11.37742        10.19239        -3.88245
| 82>    C      -10.01948        13.51520        -7.23318
| 83>    C       -9.92179        14.87230        -6.83047
| 84>    C       -9.92884        14.94818        -5.35648
| 85>    O       -9.91872        15.93471        -4.65991
| 86>    C       -9.82400        15.90317        -7.73421
| 87>    C       -9.81061        15.57997        -9.09489
| 88>    C       -9.89225        14.22089        -9.48525
| 89>    C       -9.99983        13.17851        -8.57347
| 90>    S       -9.84518        14.04859       -11.21297
| 91>    C       -9.72629        15.77997       -11.38695
| 92>    C       -9.71748        16.45414       -10.21249
| 93>   Br       -9.61751        16.53150       -13.10102
| 94>    H       -0.57275         0.52271         0.27740
| 95>    H       -2.09098        -3.54746         2.77166
| 96>    H        1.76561        -0.95363        -0.19519
| 97>    H       -6.24146         0.23733         3.02277
| 98>    H       -8.39134         4.92337         4.49012
| 99>    H       -4.49604         1.14036        -2.52117
|100>    H       -6.90349        10.17505        -6.59872
|101>    H      -10.31582        11.25816         1.51576
|102>    H       -9.49031        14.07214        -2.93937
|103>    H       -9.76038        16.92770        -7.40259
|104>    H      -10.05380        12.15756        -8.91344
|105>    H       -9.64805        17.52380       -10.13522
|106> *
|107>
|108>                          ****END OF INPUT****

CARTESIAN COORDINATES (ANGSTROEM)
---------------------------------
  C     -3.926340   -1.275340    2.632210
  C     -4.667160   -2.121660    3.411670
  C     -4.221550   -3.386510    3.853600
  N     -3.916190   -4.419930    4.248200
  C     -5.963610   -1.858010    3.904580
  N     -7.014340   -1.722220    4.346590
  C     -2.587710   -1.542770    2.122830
  C     -2.129720   -0.408490    1.407960
  C     -0.893710   -0.358680    0.810030
  C     -0.072980   -1.486260    0.910290
  C     -0.538960   -2.616620    1.625220
  C     -1.784470   -2.664160    2.236910
  S      0.635140   -3.897540    1.630620
  C      1.719400   -2.912920    0.684500
  C      1.230240   -1.687160    0.379520
  Br     3.394730   -3.594110    0.190640
  C     -3.156970    0.648750    1.448250
  O     -3.019780    1.799150    1.100830
  C     -4.328850    0.035900    2.140450
  C     -5.519470    0.649380    2.328420
  C     -5.930240    1.858740    1.662990
  C     -6.651860    2.848940    2.325640
  C     -7.042350    4.064260    1.709150
  N     -7.739050    4.902380    2.527080
  C     -7.871900    4.421400    3.697400
  S     -7.160520    2.849040    3.983420
  C     -6.746930    4.314590    0.362270
  C     -6.090100    3.298010   -0.322400
  C     -5.683690    2.089490    0.299790
  N     -5.076530    1.205240   -0.537030
  C     -4.951760    1.680110   -1.713840
  S     -5.583450    3.280080   -1.982340
  C     -7.110630    5.588530   -0.244830
  C     -7.786360    5.671760   -1.468210
  C     -8.132240    6.936120   -2.057760
  N     -8.798090    6.964000   -3.240470
  C     -9.113360    5.851310   -3.804640
  C     -8.792020    4.593850   -3.205520
  N     -8.158110    4.522010   -2.087680
  F     -9.145740    3.456890   -3.795240
  F     -9.747730    5.897360   -4.969870
  C     -7.832140    8.149580   -1.427380
  C     -7.163950    8.073770   -0.199040
  C     -6.801540    6.800640    0.386800
  N     -6.120830    6.960190    1.527520
  S     -5.977370    8.521130    1.827290
  N     -6.729650    9.099340    0.542920
  C     -8.221120    9.431350   -2.000800
  C     -7.954910    9.792750   -3.315680
  C     -8.358770   11.032280   -3.871670
  N     -7.962410   11.219550   -5.161270
  C     -7.299700   10.220470   -5.602700
  S     -7.066170    8.893110   -4.505220
  C     -9.075310   11.972310   -3.108820
  C     -9.304400   11.619300   -1.780160
  C     -8.907020   10.375440   -1.226980
  N     -9.291380   10.194550    0.067120
  C     -9.927350   11.199780    0.517820
  S    -10.166760   12.533170   -0.587870
  C     -9.509480   13.237500   -3.634240
  C     -9.886260   13.527620   -4.898700
  C    -10.158180   12.681510   -6.047220
  C    -10.672730   11.414870   -6.014820
  C    -10.964980   10.658490   -7.168260
  N    -11.196140   10.002810   -8.081190
  C    -11.028360   10.749240   -4.823340
  N    -11.377420   10.192390   -3.882450
  C    -10.019480   13.515200   -7.233180
  C     -9.921790   14.872300   -6.830470
  C     -9.928840   14.948180   -5.356480
  O     -9.918720   15.934710   -4.659910
  C     -9.824000   15.903170   -7.734210
  C     -9.810610   15.579970   -9.094890
  C     -9.892250   14.220890   -9.485250
  C     -9.999830   13.178510   -8.573470
  S     -9.845180   14.048590  -11.212970
  C     -9.726290   15.779970  -11.386950
  C     -9.717480   16.454140  -10.212490
  Br    -9.617510   16.531500  -13.101020
  H     -0.572750    0.522710    0.277400
  H     -2.090980   -3.547460    2.771660
  H      1.765610   -0.953630   -0.195190
  H     -6.241460    0.237330    3.022770
  H     -8.391340    4.923370    4.490120
  H     -4.496040    1.140360   -2.521170
  H     -6.903490   10.175050   -6.598720
  H    -10.315820   11.258160    1.515760
  H     -9.490310   14.072140   -2.939370
  H     -9.760380   16.927700   -7.402590
  H    -10.053800   12.157560   -8.913440
  H     -9.648050   17.523800  -10.135220

 Total Charge           Charge          ....    0
 Multiplicity           Mult            ....    1
 Number of Electrons    NEL             ....  636
 Basis Dimension        Dim             .... 1230

ORBITAL ENERGIES
----------------

  NO   OCC          E(Eh)            E(eV)
   0   2.0000    -482.887334    -13140.0324
   1   2.0000    -482.885693    -13139.9877
   2   2.0000     -89.036460     -2422.8053
   3   2.0000     -88.977237     -2421.1937
   4   2.0000     -88.975681     -2421.1514
   5   2.0000     -88.968979     -2420.9690
   6   2.0000     -88.966618     -2420.9048
   7   2.0000     -88.965350     -2420.8702
   8   2.0000     -88.963307     -2420.8147
   9   2.0000     -62.565048     -1702.4815
  10   2.0000     -62.563448     -1702.4380
  11   2.0000     -56.398997     -1534.6947
  12   2.0000     -56.397396     -1534.6512
  13   2.0000     -56.396279     -1534.6208
  14   2.0000     -56.396252     -1534.6200
  15   2.0000     -56.394681     -1534.5773
  16   2.0000     -56.394647     -1534.5764
  17   2.0000     -24.813134      -675.1997
  18   2.0000     -24.811880      -675.1656
  19   2.0000     -19.215949      -522.8926
  20   2.0000     -19.213280      -522.8199
  21   2.0000     -14.451075      -393.2337
  22   2.0000     -14.450115      -393.2076
  23   2.0000     -14.440438      -392.9443
  24   2.0000     -14.440369      -392.9424
  25   2.0000     -14.420520      -392.4023
  26   2.0000     -14.417867      -392.3301
  27   2.0000     -14.416999      -392.3065
  28   2.0000     -14.416292      -392.2872
  29   2.0000     -14.415824      -392.2745
  30   2.0000     -14.413945      -392.2234
  31   2.0000     -14.413783      -392.2190
  32   2.0000     -14.410347      -392.1255
  33   2.0000     -10.429183      -283.7925
  34   2.0000     -10.428791      -283.7818
  35   2.0000     -10.366457      -282.0856
  36   2.0000     -10.365451      -282.0582
  37   2.0000     -10.360936      -281.9354
  38   2.0000     -10.358795      -281.8771
  39   2.0000     -10.346041      -281.5301
  40   2.0000     -10.344985      -281.5014
  41   2.0000     -10.344205      -281.4801
  42   2.0000     -10.343930      -281.4726
  43   2.0000     -10.343070      -281.4493
  44   2.0000     -10.341328      -281.4018
  45   2.0000     -10.340098      -281.3684
  46   2.0000     -10.339926      -281.3637
  47   2.0000     -10.338483      -281.3244
  48   2.0000     -10.337636      -281.3014
  49   2.0000     -10.332416      -281.1593
  50   2.0000     -10.332117      -281.1512
  51   2.0000     -10.327234      -281.0183
  52   2.0000     -10.326092      -280.9872
  53   2.0000     -10.321771      -280.8697
  54   2.0000     -10.320185      -280.8265
  55   2.0000     -10.319620      -280.8111
  56   2.0000     -10.319041      -280.7954
  57   2.0000     -10.318550      -280.7820
  58   2.0000     -10.317589      -280.7559
  59   2.0000     -10.317488      -280.7531
  60   2.0000     -10.316856      -280.7359
  61   2.0000     -10.316431      -280.7244
  62   2.0000     -10.316416      -280.7240
  63   2.0000     -10.315847      -280.7085
  64   2.0000     -10.314181      -280.6631
  65   2.0000     -10.313848      -280.6541
  66   2.0000     -10.313573      -280.6466
  67   2.0000     -10.313255      -280.6379
  68   2.0000     -10.311941      -280.6022
  69   2.0000     -10.310208      -280.5550
  70   2.0000     -10.309633      -280.5394
  71   2.0000     -10.309437      -280.5341
  72   2.0000     -10.309169      -280.5267
  73   2.0000     -10.308093      -280.4975
  74   2.0000     -10.307432      -280.4795
  75   2.0000     -10.306935      -280.4659
  76   2.0000     -10.305996      -280.4404
  77   2.0000     -10.304821      -280.4084
  78   2.0000     -10.303332      -280.3679
  79   2.0000     -10.301751      -280.3249
  80   2.0000     -10.301382      -280.3149
  81   2.0000     -10.301096      -280.3071
  82   2.0000     -10.298326      -280.2317
  83   2.0000     -10.297869      -280.2193
  84   2.0000     -10.296807      -280.1904
  85   2.0000     -10.292933      -280.0849
  86   2.0000     -10.292707      -280.0788
  87   2.0000      -8.794490      -239.3102
  88   2.0000      -8.792905      -239.2671
  89   2.0000      -8.127770      -221.1679
  90   2.0000      -8.073082      -219.6797
  91   2.0000      -8.071687      -219.6418
  92   2.0000      -8.064727      -219.4524
  93   2.0000      -8.062913      -219.4030
  94   2.0000      -8.061683      -219.3695
  95   2.0000      -8.059251      -219.3034
  96   2.0000      -6.630770      -180.4324
  97   2.0000      -6.629221      -180.3903
  98   2.0000      -6.616245      -180.0372
  99   2.0000      -6.616021      -180.0311
 100   2.0000      -6.614624      -179.9931
 101   2.0000      -6.614444      -179.9882
 102   2.0000      -6.098630      -165.9522
 103   2.0000      -6.091026      -165.7452
 104   2.0000      -6.090865      -165.7409
 105   2.0000      -6.042790      -164.4327
 106   2.0000      -6.041386      -164.3945
 107   2.0000      -6.038491      -164.3157
 108   2.0000      -6.037107      -164.2780
 109   2.0000      -6.034350      -164.2030
 110   2.0000      -6.034099      -164.1962
 111   2.0000      -6.032904      -164.1637
 112   2.0000      -6.032232      -164.1454
 113   2.0000      -6.031002      -164.1119
 114   2.0000      -6.029929      -164.0827
 115   2.0000      -6.028653      -164.0480
 116   2.0000      -6.028173      -164.0349
 117   2.0000      -6.026968      -164.0021
 118   2.0000      -6.026550      -163.9908
 119   2.0000      -6.024669      -163.9396
 120   2.0000      -6.024505      -163.9351
 121   2.0000      -6.023377      -163.9044
 122   2.0000      -6.020942      -163.8382
 123   2.0000      -2.746669       -74.7407
 124   2.0000      -2.745052       -74.6966
 125   2.0000      -2.742556       -74.6287
 126   2.0000      -2.742404       -74.6246
 127   2.0000      -2.741014       -74.5868
 128   2.0000      -2.740863       -74.5827
 129   2.0000      -2.730840       -74.3099
 130   2.0000      -2.730834       -74.3098
 131   2.0000      -2.729271       -74.2672
 132   2.0000      -2.729245       -74.2665
 133   2.0000      -1.341719       -36.5100
 134   2.0000      -1.327373       -36.1197
 135   2.0000      -1.132423       -30.8148
 136   2.0000      -1.131360       -30.7859
 137   2.0000      -1.129553       -30.7367
 138   2.0000      -1.110756       -30.2252
 139   2.0000      -1.080848       -29.4114
 140   2.0000      -1.076534       -29.2940
 141   2.0000      -1.072142       -29.1745
 142   2.0000      -1.068641       -29.0792
 143   2.0000      -1.037043       -28.2194
 144   2.0000      -1.024256       -27.8714
 145   2.0000      -1.021905       -27.8074
 146   2.0000      -1.015216       -27.6254
 147   2.0000      -1.010883       -27.5075
 148   2.0000      -0.996086       -27.1049
 149   2.0000      -0.991472       -26.9793
 150   2.0000      -0.990685       -26.9579
 151   2.0000      -0.987787       -26.8790
 152   2.0000      -0.986468       -26.8432
 153   2.0000      -0.979471       -26.6528
 154   2.0000      -0.960598       -26.1392
 155   2.0000      -0.957131       -26.0449
 156   2.0000      -0.944939       -25.7131
 157   2.0000      -0.941462       -25.6185
 158   2.0000      -0.933501       -25.4019
 159   2.0000      -0.924020       -25.1439
 160   2.0000      -0.909949       -24.7610
 161   2.0000      -0.907264       -24.6879
 162   2.0000      -0.896491       -24.3947
 163   2.0000      -0.895513       -24.3681
 164   2.0000      -0.889701       -24.2100
 165   2.0000      -0.887864       -24.1600
 166   2.0000      -0.887031       -24.1373
 167   2.0000      -0.885348       -24.0915
 168   2.0000      -0.877124       -23.8678
 169   2.0000      -0.875466       -23.8226
 170   2.0000      -0.861766       -23.4499
 171   2.0000      -0.856923       -23.3181
 172   2.0000      -0.836413       -22.7600
 173   2.0000      -0.832376       -22.6501
 174   2.0000      -0.830382       -22.5958
 175   2.0000      -0.828679       -22.5495
 176   2.0000      -0.822011       -22.3681
 177   2.0000      -0.809754       -22.0345
 178   2.0000      -0.805859       -21.9285
 179   2.0000      -0.781842       -21.2750
 180   2.0000      -0.773123       -21.0377
 181   2.0000      -0.762169       -20.7397
 182   2.0000      -0.760738       -20.7007
 183   2.0000      -0.755657       -20.5625
 184   2.0000      -0.747837       -20.3497
 185   2.0000      -0.742366       -20.2008
 186   2.0000      -0.740628       -20.1535
 187   2.0000      -0.723000       -19.6738
 188   2.0000      -0.710279       -19.3277
 189   2.0000      -0.703987       -19.1565
 190   2.0000      -0.695190       -18.9171
 191   2.0000      -0.694066       -18.8865
 192   2.0000      -0.689149       -18.7527
 193   2.0000      -0.687430       -18.7059
 194   2.0000      -0.683669       -18.6036
 195   2.0000      -0.678265       -18.4565
 196   2.0000      -0.676611       -18.4115
 197   2.0000      -0.669609       -18.2210
 198   2.0000      -0.662141       -18.0178
 199   2.0000      -0.660128       -17.9630
 200   2.0000      -0.659179       -17.9372
 201   2.0000      -0.655799       -17.8452
 202   2.0000      -0.654152       -17.8004
 203   2.0000      -0.647899       -17.6302
 204   2.0000      -0.634166       -17.2565
 205   2.0000      -0.631008       -17.1706
 206   2.0000      -0.627655       -17.0794
 207   2.0000      -0.626556       -17.0495
 208   2.0000      -0.623287       -16.9605
 209   2.0000      -0.622176       -16.9303
 210   2.0000      -0.615915       -16.7599
 211   2.0000      -0.600733       -16.3468
 212   2.0000      -0.599287       -16.3074
 213   2.0000      -0.595961       -16.2169
 214   2.0000      -0.592511       -16.1230
 215   2.0000      -0.590242       -16.0613
 216   2.0000      -0.588574       -16.0159
 217   2.0000      -0.586783       -15.9672
 218   2.0000      -0.575848       -15.6696
 219   2.0000      -0.573363       -15.6020
 220   2.0000      -0.568420       -15.4675
 221   2.0000      -0.554381       -15.0855
 222   2.0000      -0.552716       -15.0402
 223   2.0000      -0.551821       -15.0158
 224   2.0000      -0.549898       -14.9635
 225   2.0000      -0.549441       -14.9511
 226   2.0000      -0.547238       -14.8911
 227   2.0000      -0.543001       -14.7758
 228   2.0000      -0.542112       -14.7516
 229   2.0000      -0.541129       -14.7249
 230   2.0000      -0.540125       -14.6975
 231   2.0000      -0.538026       -14.6404
 232   2.0000      -0.537018       -14.6130
 233   2.0000      -0.534986       -14.5577
 234   2.0000      -0.530825       -14.4445
 235   2.0000      -0.526455       -14.3256
 236   2.0000      -0.524166       -14.2633
 237   2.0000      -0.522827       -14.2268
 238   2.0000      -0.517318       -14.0769
 239   2.0000      -0.515663       -14.0319
 240   2.0000      -0.513921       -13.9845
 241   2.0000      -0.511486       -13.9182
 242   2.0000      -0.510198       -13.8832
 243   2.0000      -0.509684       -13.8692
 244   2.0000      -0.508345       -13.8328
 245   2.0000      -0.505185       -13.7468
 246   2.0000      -0.503308       -13.6957
 247   2.0000      -0.502097       -13.6628
 248   2.0000      -0.499340       -13.5877
 249   2.0000      -0.496108       -13.4998
 250   2.0000      -0.494163       -13.4469
 251   2.0000      -0.492482       -13.4011
 252   2.0000      -0.490218       -13.3395
 253   2.0000      -0.488464       -13.2918
 254   2.0000      -0.486948       -13.2505
 255   2.0000      -0.485223       -13.2036
 256   2.0000      -0.475741       -12.9456
 257   2.0000      -0.473743       -12.8912
 258   2.0000      -0.471472       -12.8294
 259   2.0000      -0.461010       -12.5447
 260   2.0000      -0.460126       -12.5207
 261   2.0000      -0.458940       -12.4884
 262   2.0000      -0.458322       -12.4716
 263   2.0000      -0.454137       -12.3577
 264   2.0000      -0.450539       -12.2598
 265   2.0000      -0.448138       -12.1945
 266   2.0000      -0.447682       -12.1821
 267   2.0000      -0.446113       -12.1393
 268   2.0000      -0.445551       -12.1241
 269   2.0000      -0.442694       -12.0463
 270   2.0000      -0.441404       -12.0112
 271   2.0000      -0.440991       -12.0000
 272   2.0000      -0.436727       -11.8840
 273   2.0000      -0.433447       -11.7947
 274   2.0000      -0.432459       -11.7678
 275   2.0000      -0.428720       -11.6661
 276   2.0000      -0.426622       -11.6090
 277   2.0000      -0.425517       -11.5789
 278   2.0000      -0.424060       -11.5392
 279   2.0000      -0.422238       -11.4897
 280   2.0000      -0.420001       -11.4288
 281   2.0000      -0.419142       -11.4054
 282   2.0000      -0.412529       -11.2255
 283   2.0000      -0.410560       -11.1719
 284   2.0000      -0.408611       -11.1189
 285   2.0000      -0.407304       -11.0833
 286   2.0000      -0.405479       -11.0336
 287   2.0000      -0.399161       -10.8617
 288   2.0000      -0.396651       -10.7934
 289   2.0000      -0.395755       -10.7690
 290   2.0000      -0.388857       -10.5813
 291   2.0000      -0.387740       -10.5509
 292   2.0000      -0.380611       -10.3569
 293   2.0000      -0.376590       -10.2475
 294   2.0000      -0.375909       -10.2290
 295   2.0000      -0.375214       -10.2101
 296   2.0000      -0.371467       -10.1081
 297   2.0000      -0.369528       -10.0554
 298   2.0000      -0.357659        -9.7324
 299   2.0000      -0.357057        -9.7160
 300   2.0000      -0.353985        -9.6324
 301   2.0000      -0.352467        -9.5911
 302   2.0000      -0.350146        -9.5280
 303   2.0000      -0.343774        -9.3546
 304   2.0000      -0.339843        -9.2476
 305   2.0000      -0.335304        -9.1241
 306   2.0000      -0.333610        -9.0780
 307   2.0000      -0.328862        -8.9488
 308   2.0000      -0.325042        -8.8448
 309   2.0000      -0.315844        -8.5945
 310   2.0000      -0.314388        -8.5549
 311   2.0000      -0.309918        -8.4333
 312   2.0000      -0.306595        -8.3429
 313   2.0000      -0.305082        -8.3017
 314   2.0000      -0.295170        -8.0320
 315   2.0000      -0.290774        -7.9124
 316   2.0000      -0.283943        -7.7265
 317   2.0000      -0.269135        -7.3235
 318   0.0000      -0.103917        -2.8277
 319   0.0000      -0.089091        -2.4243
 320   0.0000      -0.084092        -2.2883
 321   0.0000      -0.057484        -1.5642
 322   0.0000      -0.056242        -1.5304

MULLIKEN ATOMIC CHARGES
-----------------------
   0 C :    0.304233
   1 C :   -0.354253
   2 C :   -0.185163
   3 N :    0.155650
   4 C :   -0.182438
   5 N :    0.155984
   6 C :    0.022765
   7 C :   -0.012963
   8 C :   -0.073133
   9 C :    0.120282
  10 C :   -0.091918
  11 C :   -0.022746
  12 S :    0.187676
  13 C :   -0.123791
  14 C :    0.039452
  15 Br:    0.025258
  16 C :    0.151070
  17 O :   -0.137510
  18 C :   -0.036857
  19 C :   -0.105457
  20 C :    0.046156
  21 C :   -0.102488
  22 C :    0.018498
  23 N :   -0.035886
  24 C :    0.012767
  25 S :    0.111907
  26 C :   -0.035301
  27 C :   -0.063717
  28 C :    0.032907
  29 N :   -0.069671
  30 C :    0.026002
  31 S :    0.123852
  32 C :    0.033230
  33 C :   -0.077481
  34 C :   -0.070498
  35 N :    0.026461
  36 C :    0.140904
  37 C :    0.134634
  38 N :    0.022118
  39 F :   -0.136832
  40 F :   -0.132413
  41 C :    0.020276
  42 C :    0.014435
  43 C :    0.007928
  44 N :   -0.257217
  45 S :    0.538776
  46 N :   -0.261330
  47 C :   -0.030387
  48 C :   -0.054805
  49 C :   -0.021241
  50 N :   -0.069464
  51 C :    0.026150
  52 S :    0.135606
  53 C :    0.033062
  54 C :   -0.083717
  55 C :    0.034538
  56 N :   -0.037364
  57 C :    0.019313
  58 S :    0.109754
  59 C :   -0.039904
  60 C :   -0.095376
  61 C :    0.321935
  62 C :   -0.334837
  63 C :   -0.189981
  64 N :    0.150820
  65 C :   -0.191104
  66 N :    0.174614
  67 C :    0.001033
  68 C :    0.004943
  69 C :    0.124656
  70 O :   -0.138384
  71 C :   -0.068305
  72 C :    0.109930
  73 C :   -0.085564
  74 C :   -0.023259
  75 S :    0.183772
  76 C :   -0.125241
  77 C :    0.039765
  78 Br:    0.023028
  79 H :   -0.012129
  80 H :   -0.006332
  81 H :   -0.002965
  82 H :    0.033832
  83 H :    0.043896
  84 H :    0.040859
  85 H :    0.044141
  86 H :    0.042898
  87 H :    0.023704
  88 H :   -0.008565
  89 H :   -0.005100
  90 H :   -0.002380
Sum of atomic charges:   -0.0000000

LOEWDIN ATOMIC CHARGES
----------------------
   0 C :    0.077071
   1 C :   -0.134104
   2 C :   -0.017527
   3 N :   -0.050205
   4 C :   -0.020033
   5 N :   -0.046339
   6 C :   -0.020679
   7 C :   -0.045908
   8 C :    0.020943
   9 C :   -0.030988
  10 C :   -0.143422
  11 C :   -0.009251
  12 S :    0.433158
  13 C :   -0.270680
  14 C :   -0.071161
  15 Br:    0.138299
  16 C :    0.086417
  17 O :   -0.131815
  18 C :   -0.066030
  19 C :    0.066779
  20 C :   -0.047342
  21 C :   -0.153591
  22 C :   -0.022446
  23 N :   -0.078414
  24 C :   -0.098841
  25 S :    0.397462
  26 C :   -0.017724
  27 C :   -0.152469
  28 C :   -0.008018
  29 N :   -0.088800
  30 C :   -0.095635
  31 S :    0.412414
  32 C :   -0.014738
  33 C :   -0.014128
  34 C :   -0.011880
  35 N :   -0.044027
  36 C :    0.059277
  37 C :    0.057915
  38 N :   -0.047935
  39 F :   -0.026228
  40 F :   -0.022499
  41 C :   -0.017354
  42 C :   -0.036399
  43 C :   -0.036329
  44 N :   -0.277134
  45 S :    0.686055
  46 N :   -0.279904
  47 C :   -0.013436
  48 C :   -0.150494
  49 C :   -0.022701
  50 N :   -0.092836
  51 C :   -0.098516
  52 S :    0.421952
  53 C :   -0.053868
  54 C :   -0.147629
  55 C :   -0.014795
  56 N :   -0.077236
  57 C :   -0.095323
  58 S :    0.399638
  59 C :    0.061074
  60 C :   -0.066079
  61 C :    0.080208
  62 C :   -0.132012
  63 C :   -0.017969
  64 N :   -0.055554
  65 C :   -0.018238
  66 N :   -0.045755
  67 C :   -0.011675
  68 C :   -0.052830
  69 C :    0.085729
  70 O :   -0.137692
  71 C :    0.023285
  72 C :   -0.034167
  73 C :   -0.142189
  74 C :   -0.012970
  75 S :    0.430725
  76 C :   -0.272646
  77 C :   -0.069843
  78 Br:    0.136429
  79 H :    0.040414
  80 H :    0.041006
  81 H :    0.038826
  82 H :    0.041613
  83 H :    0.021463
  84 H :    0.020689
  85 H :    0.022324
  86 H :    0.021662
  87 H :    0.042641
  88 H :    0.041453
  89 H :    0.040416
  90 H :    0.039089

  Mayer bond orders larger than 0.100000
B(  0-C ,  1-C ) :   1.6439 B(  0-C ,  6-C ) :   1.0126 B(  0-C , 18-C ) :   1.0573
B(  1-C ,  2-C ) :   1.1408 B(  1-C ,  4-C ) :   1.1447 B(  2-C ,  3-N ) :   2.9716
B(  4-C ,  5-N ) :   2.9648 B(  6-C ,  7-C ) :   1.2739 B(  6-C , 11-C ) :   1.3982
B(  7-C ,  8-C ) :   1.4228 B(  7-C , 16-C ) :   0.9405 B(  8-C ,  9-C ) :   1.2485
B(  8-C , 79-H ) :   1.0164 B(  9-C , 10-C ) :   1.3005 B(  9-C , 14-C ) :   1.1641
B( 10-C , 11-C ) :   1.3407 B( 10-C , 12-S ) :   1.0853 B( 11-C , 80-H ) :   0.9789
B( 12-S , 13-C ) :   1.0867 B( 13-C , 14-C ) :   1.6163 B( 13-C , 15-Br) :   1.0203
B( 14-C , 81-H ) :   0.9999 B( 16-C , 17-O ) :   2.2432 B( 16-C , 18-C ) :   0.9133
B( 18-C , 19-C ) :   1.7200 B( 19-C , 20-C ) :   1.0448 B( 19-C , 82-H ) :   0.9278
B( 20-C , 21-C ) :   1.3758 B( 20-C , 26-C ) :   0.1017 B( 20-C , 28-C ) :   1.3337
B( 21-C , 22-C ) :   1.2774 B( 21-C , 25-S ) :   1.0775 B( 22-C , 23-N ) :   1.3259
B( 22-C , 26-C ) :   1.4119 B( 23-N , 24-C ) :   1.7709 B( 23-N , 25-S ) :   0.1069
B( 24-C , 25-S ) :   1.0995 B( 24-C , 83-H ) :   0.9627 B( 26-C , 27-C ) :   1.4425
B( 26-C , 32-C ) :   0.9170 B( 27-C , 28-C ) :   1.2801 B( 27-C , 31-S ) :   1.0621
B( 28-C , 29-N ) :   1.3236 B( 29-N , 30-C ) :   1.7458 B( 29-N , 31-S ) :   0.1083
B( 30-C , 31-S ) :   1.1259 B( 30-C , 84-H ) :   0.9626 B( 32-C , 33-C ) :   1.4081
B( 32-C , 41-C ) :   0.1508 B( 32-C , 43-C ) :   1.2856 B( 33-C , 34-C ) :   1.0908
B( 33-C , 38-N ) :   1.3974 B( 34-C , 35-N ) :   1.3952 B( 34-C , 41-C ) :   1.4168
B( 35-N , 36-C ) :   1.7011 B( 36-C , 37-C ) :   1.0735 B( 36-C , 40-F ) :   1.1863
B( 37-C , 38-N ) :   1.7016 B( 37-C , 39-F ) :   1.1812 B( 41-C , 42-C ) :   1.2808
B( 41-C , 47-C ) :   0.9168 B( 42-C , 43-C ) :   1.0957 B( 42-C , 46-N ) :   1.4896
B( 43-C , 44-N ) :   1.4894 B( 44-N , 45-S ) :   1.3085 B( 44-N , 46-N ) :   0.1623
B( 45-S , 46-N ) :   1.3065 B( 47-C , 48-C ) :   1.4497 B( 47-C , 53-C ) :   0.1024
B( 47-C , 55-C ) :   1.4147 B( 48-C , 49-C ) :   1.2801 B( 48-C , 52-S ) :   1.0643
B( 49-C , 50-N ) :   1.3452 B( 49-C , 53-C ) :   1.3122 B( 50-N , 51-C ) :   1.7191
B( 50-N , 52-S ) :   0.1089 B( 51-C , 52-S ) :   1.1378 B( 51-C , 85-H ) :   0.9638
B( 53-C , 54-C ) :   1.3896 B( 53-C , 59-C ) :   1.0268 B( 54-C , 55-C ) :   1.2811
B( 54-C , 58-S ) :   1.0796 B( 55-C , 56-N ) :   1.3271 B( 56-N , 57-C ) :   1.7708
B( 56-N , 58-S ) :   0.1071 B( 57-C , 58-S ) :   1.0997 B( 57-C , 86-H ) :   0.9627
B( 59-C , 60-C ) :   1.7498 B( 59-C , 87-H ) :   0.9413 B( 60-C , 61-C ) :   1.0105
B( 60-C , 69-C ) :   0.9314 B( 61-C , 62-C ) :   1.6603 B( 61-C , 67-C ) :   1.0240
B( 62-C , 63-C ) :   1.1396 B( 62-C , 65-C ) :   1.1614 B( 63-C , 64-N ) :   2.9880
B( 65-C , 66-N ) :   3.0100 B( 67-C , 68-C ) :   1.2730 B( 67-C , 74-C ) :   1.4148
B( 68-C , 69-C ) :   0.9213 B( 68-C , 71-C ) :   1.4162 B( 69-C , 70-O ) :   2.2773
B( 71-C , 72-C ) :   1.2592 B( 71-C , 88-H ) :   1.0163 B( 72-C , 73-C ) :   1.3057
B( 72-C , 77-C ) :   1.1604 B( 73-C , 74-C ) :   1.3255 B( 73-C , 75-S ) :   1.0836
B( 74-C , 89-H ) :   0.9846 B( 75-S , 76-C ) :   1.0850 B( 76-C , 77-C ) :   1.6208
B( 76-C , 78-Br) :   1.0183 B( 77-C , 90-H ) :   1.0006

-----------------------------------------------------------------------------
         ABSORPTION SPECTRUM VIA TRANSITION ELECTRIC DIPOLE MOMENTS
-----------------------------------------------------------------------------
State   Energy  Wavelength   fosc         T2         TX        TY        TZ
        (cm-1)    (nm)                  (au**2)     (au)      (au)      (au)
-----------------------------------------------------------------------------
   0   18771.6    532.7   0.749270814  13.14057  -1.27854   2.95643  -1.66296
   1   21925.3    456.1   0.014215945   0.21345   0.16780  -0.21345  -0.37381
   2   23189.9    431.2   0.453087356   6.43220  -1.15773   1.86746  -1.26666
   3   23588.8    423.9   0.074417764   1.03860  -0.24800   0.26613  -0.95198
   4   25705.2    389.0   0.028469581   0.36462  -0.29231   0.42443   0.31469
   5   26538.8    376.8   0.022670742   0.28123   0.07180   0.52534   0.00952
   6   27013.3    370.2   0.048740293   0.59400  -0.55160  -0.06783   0.53398
   7   27582.4    362.6   0.197098932   2.35249  -1.39621   0.28964   0.56496
   8   27751.5    360.3   0.161399426   1.91466   0.34327   1.02557  -0.86316
   9   27969.3    357.5   0.020140248   0.23706  -0.10229   0.43815  -0.18607
  10   29096.8    343.7   0.121813780   1.37824  -1.05276   0.48283   0.19188
  11   29508.0    338.9   0.020211602   0.22549   0.05837  -0.06631   0.46657
  12   29671.1    337.0   0.013298773   0.14755   0.28069   0.10819  -0.23888
  13   29754.2    336.1   0.058503402   0.64730   0.26496   0.07622  -0.75584
  14   29870.3    334.8   0.015763839   0.17374  -0.06996  -0.25688   0.32071
  15   29927.2    334.1   0.012558705   0.13815   0.10907   0.35422  -0.02795
  16   30367.2    329.3   0.052221950   0.56614  -0.22455   0.50011  -0.51537
  17   30385.6    329.1   0.034325204   0.37190   0.42017   0.24369  -0.36874
  18   30654.3    326.2   0.013372596   0.14362   0.14856   0.27017  -0.22034
  19   30810.5    324.6   0.030391699   0.32474   0.11852   0.34429  -0.43835
  20   31016.4    322.4   0.204375854   2.16927  -0.52361   0.91218  -1.03103
  21   31347.1    319.0   0.215944888   2.26788   1.06452   0.08250   1.06202
  22   31643.0    316.0   0.197576579   2.05558  -0.29350  -1.21304  -0.70566
  23   32500.3    307.7   0.067427120   0.68300  -0.80125   0.19750   0.04460
  24   32927.0    303.7   0.276689200   2.76640  -1.51750  -0.10442   0.67282
  25   33265.2    300.6   0.211295182   2.09110  -0.13432  -1.35886   0.47599
  26   33837.6    295.5   0.064636115   0.62886  -0.21640  -0.63423   0.42400
  27   33965.7    294.4   0.606907818   5.88244  -0.26534  -1.80992   1.59255
  28   34143.2    292.9   0.174773238   1.68518  -0.92522  -0.35213   0.83973
  29   34346.8    291.1   0.081845781   0.78449  -0.87208   0.02240  -0.15319
  30   34628.5    288.8   0.030261244   0.28769  -0.34974   0.03021   0.40554
  31   34941.0    286.2   0.017499154   0.16488  -0.26810   0.09784  -0.28884
  32   35008.0    285.6   0.003417405   0.03214   0.05494   0.13713  -0.10156
  33   35253.9    283.7   0.037781323   0.35281  -0.38213  -0.43562  -0.13048
  34   35465.1    282.0   0.026818682   0.24895  -0.38908  -0.03696   0.31016
  35   35739.4    279.8   0.029205588   0.26903  -0.16136   0.28491   0.40226
  36   35922.9    278.4   0.053152616   0.48711  -0.60921   0.33524  -0.05994
  37   36036.0    277.5   0.082933765   0.75765   0.04425   0.32152  -0.80766
  38   36325.1    275.3   0.055566357   0.50359  -0.52993   0.10996   0.45899
  39   36796.2    271.8   0.040354527   0.36105   0.25791   0.47378  -0.26469
  40   37032.8    270.0   0.157998053   1.40456   0.12051  -0.57022  -1.03193
  41   37068.3    269.8   0.038196576   0.33923   0.50067  -0.28314   0.09163
  42   37295.9    268.1   0.038922040   0.34357  -0.17985  -0.55197   0.08096
  43   37467.8    266.9   0.016760836   0.14727   0.19944   0.24866  -0.21369
  44   37491.0    266.7   0.031664829   0.27805  -0.20287   0.39349   0.28647
  45   37788.7    264.6   0.075609728   0.65871   0.23813  -0.06642  -0.77304
  46   37836.3    264.3   0.087056951   0.75748  -0.15299  -0.34805   0.78290
  47   37912.9    263.8   0.005949680   0.05166  -0.18857   0.11998   0.04135
  48   38180.3    261.9   0.019256534   0.16604  -0.10126  -0.28400   0.27410
  49   38341.2    260.8   0.000072960   0.00063  -0.01149  -0.00950  -0.02010
  50   38513.0    259.7   0.080959748   0.69205   0.60615  -0.49363  -0.28455
  51   38608.5    259.0   0.009192279   0.07838   0.21997  -0.17030  -0.03150
  52   38913.9    257.0   0.003628299   0.03070   0.00941  -0.07020  -0.16025
  53   38989.7    256.5   0.022579764   0.19065  -0.12652  -0.22133  -0.35448
  54   39033.0    256.2   0.082899978   0.69919   0.02423  -0.30511  -0.77815
  55   39322.2    254.3   0.027732143   0.23218   0.29581   0.08959   0.36966
  56   39649.9    252.2   0.052709627   0.43765  -0.06384   0.65841   0.00805
  57   39694.3    251.9   0.020802476   0.17253   0.16329  -0.21039  -0.31875
  58   39739.3    251.6   0.015401843   0.12759   0.00922   0.33563  -0.12190
  59   40037.3    249.8   0.239333872   1.96795   0.33575  -1.25156   0.53743
  60   40165.4    249.0   0.021628674   0.17728  -0.32264   0.25118  -0.10043

FINAL SINGLE POINT ENERGY    -11002.689671875654

DIPOLE MOMENT
-------------
                                X             Y             Z
Electronic contribution:     58.38899      -6.77946     -82.55765
Nuclear contribution   :    -55.93020       9.03244      81.51895
                        -----------------------------------------
Total Dipole Moment    :      2.45880       2.25298      -1.03870
                        -----------------------------------------
Magnitude (a.u.)       :      3.49292
Magnitude (Debye)      :      8.87829

Rotational constants in cm-1:     0.001178     0.000182     0.000167
Rotational constants in MHz :    35.318251     5.444522     5.009821

                             ****ORCA TERMINATED NORMALLY****
TOTAL RUN TIME: 0 days 0 hours 11 minutes 10 seconds 976 msec
