                         Program Version 4.2.0 -  RELEASE  -
|  1> # ORCA input file
|  2> # SCF done       -203.990239302247          0.000996817130
|  3> ! CAM-B3LYP def2-SVP def2/J RIJCOSX Grid4 TightSCF
|  4> %maxcore 5000
|  5> %tddft
|  6>     Mode sTDDFT
|  7>     Ethresh 5.0
|  8>     maxcore 5000
|  9> end
| 10>
| 11> %pal
| 12>   nprocs 6
| 13>   end
| 14> * xyz 0 1
| 15>    C        1.84967        -1.21810         4.45456
| 16>    O        1.21095        -2.19482         4.80539
| 17>    C        2.27654        -0.10297         5.32008
| 18>    C        2.97471         0.84315         4.54913
| 19>    C        3.47705         1.98094         5.15789
| 20>    C        3.27399         2.15183         6.52345
| 21>    C        2.57878         1.20532         7.27859
| 22>    C        2.07138         0.06273         6.67358
| 23>   Br        2.31964         1.46392         9.13251
| 24>   Br        3.96332         3.70341         7.35467
| 25>    C        3.02303         0.37854         3.16206
| 26>    C        3.58478         1.06930         2.12132
| 27>    C        4.20883         2.32866         2.25675
| 28>    N        4.72924         3.35007         2.30440
| 29>    C        3.61504         0.64961         0.77386
| 30>    N        3.67324         0.38554        -0.34170
| 31>    C        2.35298        -0.90778         3.11530
| 32>    C        2.24459        -1.72233         2.01342
| 33>    C        1.62590        -2.96961         1.86483
| 34>    C        1.66380        -3.67485         0.65238
| 35>    C        0.99020        -4.87690         0.71710
| 36>    C        0.41354        -5.09831         1.99371
| 37>    S        0.71962        -3.84562         3.10165
| 38>    C       -0.25313        -6.34490         1.96038
| 39>    C       -0.10231        -6.91397         0.68196
| 40>    C        0.68664        -6.01360        -0.14072
| 41>    C        1.06749        -6.20761        -1.43595
| 42>    C        0.71287        -7.37109        -2.15012
| 43>    N        0.43158        -8.31846        -2.73203
| 44>    C        1.84508        -5.26523        -2.14235
| 45>    N        2.47867        -4.50398        -2.71927
| 46>    C       -0.73232        -8.15006         0.55855
| 47>    C       -1.36651        -8.53585         1.72455
| 48>    S       -1.17224        -7.33391         3.00081
| 49>    C       -2.11895        -9.72877         1.98436
| 50>    C       -2.74941        -9.90545         3.21045
| 51>    C       -3.49403       -11.03252         3.50211
| 52>    C       -3.65645       -12.07106         2.59273
| 53>    C       -3.01266       -11.93827         1.32388
| 54>    C       -2.25738       -10.77398         1.01953
| 55>    N       -1.67001       -10.66328        -0.18690
| 56>    C       -1.78928       -11.62028        -1.06896
| 57>    C       -2.54029       -12.79371        -0.75971
| 58>    N       -3.12254       -12.91542         0.40410
| 59>    C       -2.68830       -13.91015        -1.73275
| 60>    C       -1.12314       -11.43923        -2.38748
| 61>    C       -4.45250       -13.21327         2.93548
| 62>    C       -4.66330       -14.37127         2.20918
| 63>    C       -5.51312       -15.25973         2.86244
| 64>    C       -5.96064       -14.77615         4.10544
| 65>    S       -5.32866       -13.23395         4.46466
| 66>    C       -6.81309       -15.74251         4.68398
| 67>    C       -6.91129       -16.84510         3.80641
| 68>    C       -6.09647       -16.57253         2.63299
| 69>    C       -5.92369       -17.36569         1.53704
| 70>    C       -6.55201       -18.62334         1.41230
| 71>    N       -7.06655       -19.64202         1.30558
| 72>    C       -5.11707       -16.96979         0.44951
| 73>    N       -4.46817       -16.64932        -0.43997
| 74>    C       -7.75213       -17.83878         4.28819
| 75>    C       -8.27674       -17.53083         5.53844
| 76>    S       -7.73979       -15.94270         6.09343
| 77>    C       -9.21958       -18.30237         6.24588
| 78>    C       -9.65295       -18.18093         7.53403
| 79>    C      -10.98515       -18.72337         7.90912
| 80>    O      -11.66807       -19.49037         7.27413
| 81>    C      -11.31466       -18.06149         9.19333
| 82>    C      -10.21370       -17.29906         9.62572
| 83>    C       -9.11223       -17.49226         8.68457
| 84>    C       -7.78490       -17.32186         8.97942
| 85>    C       -6.74746       -17.80781         8.15652
| 86>    N       -5.88679       -18.23088         7.52613
| 87>    C       -7.31640       -16.73293        10.17125
| 88>    N       -6.89540       -16.23983        11.11784
| 89>    C      -10.30025       -16.55553        10.78923
| 90>    C      -11.48968       -16.58757        11.50899
| 91>    C      -12.57318       -17.35847        11.08279
| 92>    C      -12.49009       -18.10465         9.91340
| 93>   Br      -14.17217       -17.39046        12.08982
| 94>   Br      -11.62490       -15.55674        13.08730
| 95>    H        4.02044         2.73422         4.61133
| 96>    H        1.53259        -0.67702         7.24502
| 97>    H        2.71401        -1.37347         1.10154
| 98>    H        2.17257        -3.29226        -0.21496
| 99>    H       -0.75098        -8.76901        -0.31886
|100>    H       -2.66110        -9.13483         3.96253
|101>    H       -3.96300       -11.10606         4.47277
|102>    H       -1.70991       -14.30770        -1.99793
|103>    H       -3.15916       -13.55238        -2.64694
|104>    H       -3.29234       -14.70530        -1.30486
|105>    H       -0.40193       -12.23731        -2.55670
|106>    H       -0.61274       -10.48081        -2.42327
|107>    H       -1.85932       -11.48285        -3.18867
|108>    H       -4.20158       -14.52043         1.25105
|109>    H       -7.97238       -18.76288         3.78452
|110>    H       -9.75064       -19.04024         5.65150
|111>    H       -9.48261       -15.94757        11.14232
|112>    H      -13.32309       -18.70146         9.57580
|113> *
|114>
|115>                          ****END OF INPUT****

CARTESIAN COORDINATES (ANGSTROEM)
---------------------------------
  C      1.849670   -1.218100    4.454560
  O      1.210950   -2.194820    4.805390
  C      2.276540   -0.102970    5.320080
  C      2.974710    0.843150    4.549130
  C      3.477050    1.980940    5.157890
  C      3.273990    2.151830    6.523450
  C      2.578780    1.205320    7.278590
  C      2.071380    0.062730    6.673580
  Br     2.319640    1.463920    9.132510
  Br     3.963320    3.703410    7.354670
  C      3.023030    0.378540    3.162060
  C      3.584780    1.069300    2.121320
  C      4.208830    2.328660    2.256750
  N      4.729240    3.350070    2.304400
  C      3.615040    0.649610    0.773860
  N      3.673240    0.385540   -0.341700
  C      2.352980   -0.907780    3.115300
  C      2.244590   -1.722330    2.013420
  C      1.625900   -2.969610    1.864830
  C      1.663800   -3.674850    0.652380
  C      0.990200   -4.876900    0.717100
  C      0.413540   -5.098310    1.993710
  S      0.719620   -3.845620    3.101650
  C     -0.253130   -6.344900    1.960380
  C     -0.102310   -6.913970    0.681960
  C      0.686640   -6.013600   -0.140720
  C      1.067490   -6.207610   -1.435950
  C      0.712870   -7.371090   -2.150120
  N      0.431580   -8.318460   -2.732030
  C      1.845080   -5.265230   -2.142350
  N      2.478670   -4.503980   -2.719270
  C     -0.732320   -8.150060    0.558550
  C     -1.366510   -8.535850    1.724550
  S     -1.172240   -7.333910    3.000810
  C     -2.118950   -9.728770    1.984360
  C     -2.749410   -9.905450    3.210450
  C     -3.494030  -11.032520    3.502110
  C     -3.656450  -12.071060    2.592730
  C     -3.012660  -11.938270    1.323880
  C     -2.257380  -10.773980    1.019530
  N     -1.670010  -10.663280   -0.186900
  C     -1.789280  -11.620280   -1.068960
  C     -2.540290  -12.793710   -0.759710
  N     -3.122540  -12.915420    0.404100
  C     -2.688300  -13.910150   -1.732750
  C     -1.123140  -11.439230   -2.387480
  C     -4.452500  -13.213270    2.935480
  C     -4.663300  -14.371270    2.209180
  C     -5.513120  -15.259730    2.862440
  C     -5.960640  -14.776150    4.105440
  S     -5.328660  -13.233950    4.464660
  C     -6.813090  -15.742510    4.683980
  C     -6.911290  -16.845100    3.806410
  C     -6.096470  -16.572530    2.632990
  C     -5.923690  -17.365690    1.537040
  C     -6.552010  -18.623340    1.412300
  N     -7.066550  -19.642020    1.305580
  C     -5.117070  -16.969790    0.449510
  N     -4.468170  -16.649320   -0.439970
  C     -7.752130  -17.838780    4.288190
  C     -8.276740  -17.530830    5.538440
  S     -7.739790  -15.942700    6.093430
  C     -9.219580  -18.302370    6.245880
  C     -9.652950  -18.180930    7.534030
  C    -10.985150  -18.723370    7.909120
  O    -11.668070  -19.490370    7.274130
  C    -11.314660  -18.061490    9.193330
  C    -10.213700  -17.299060    9.625720
  C     -9.112230  -17.492260    8.684570
  C     -7.784900  -17.321860    8.979420
  C     -6.747460  -17.807810    8.156520
  N     -5.886790  -18.230880    7.526130
  C     -7.316400  -16.732930   10.171250
  N     -6.895400  -16.239830   11.117840
  C    -10.300250  -16.555530   10.789230
  C    -11.489680  -16.587570   11.508990
  C    -12.573180  -17.358470   11.082790
  C    -12.490090  -18.104650    9.913400
  Br   -14.172170  -17.390460   12.089820
  Br   -11.624900  -15.556740   13.087300
  H      4.020440    2.734220    4.611330
  H      1.532590   -0.677020    7.245020
  H      2.714010   -1.373470    1.101540
  H      2.172570   -3.292260   -0.214960
  H     -0.750980   -8.769010   -0.318860
  H     -2.661100   -9.134830    3.962530
  H     -3.963000  -11.106060    4.472770
  H     -1.709910  -14.307700   -1.997930
  H     -3.159160  -13.552380   -2.646940
  H     -3.292340  -14.705300   -1.304860
  H     -0.401930  -12.237310   -2.556700
  H     -0.612740  -10.480810   -2.423270
  H     -1.859320  -11.482850   -3.188670
  H     -4.201580  -14.520430    1.251050
  H     -7.972380  -18.762880    3.784520
  H     -9.750640  -19.040240    5.651500
  H     -9.482610  -15.947570   11.142320
  H    -13.323090  -18.701460    9.575800

 Total Charge           Charge          ....    0
 Multiplicity           Mult            ....    1
 Number of Electrons    NEL             ....  668
 Basis Dimension        Dim             .... 1298

ORBITAL ENERGIES
----------------

  NO   OCC          E(Eh)            E(eV)
   0   2.0000    -482.881153    -13139.8642
   1   2.0000    -482.880634    -13139.8501
   2   2.0000    -482.880139    -13139.8366
   3   2.0000    -482.878913    -13139.8032
   4   2.0000     -89.003749     -2421.9151
   5   2.0000     -88.998439     -2421.7706
   6   2.0000     -88.997328     -2421.7404
   7   2.0000     -88.996932     -2421.7296
   8   2.0000     -62.558737     -1702.3098
   9   2.0000     -62.558249     -1702.2965
  10   2.0000     -62.557758     -1702.2831
  11   2.0000     -62.556517     -1702.2494
  12   2.0000     -56.392688     -1534.5231
  13   2.0000     -56.392202     -1534.5098
  14   2.0000     -56.391722     -1534.4968
  15   2.0000     -56.390482     -1534.4630
  16   2.0000     -56.390037     -1534.4509
  17   2.0000     -56.389936     -1534.4482
  18   2.0000     -56.389543     -1534.4375
  19   2.0000     -56.389449     -1534.4349
  20   2.0000     -56.389046     -1534.4240
  21   2.0000     -56.388954     -1534.4215
  22   2.0000     -56.387807     -1534.3902
  23   2.0000     -56.387709     -1534.3876
  24   2.0000     -19.235701      -523.4300
  25   2.0000     -19.225950      -523.1647
  26   2.0000     -14.441902      -392.9841
  27   2.0000     -14.440074      -392.9344
  28   2.0000     -14.438806      -392.8999
  29   2.0000     -14.435752      -392.8168
  30   2.0000     -14.431522      -392.7017
  31   2.0000     -14.431319      -392.6962
  32   2.0000     -14.425871      -392.5479
  33   2.0000     -14.425556      -392.5393
  34   2.0000     -14.425021      -392.5248
  35   2.0000     -14.421933      -392.4408
  36   2.0000     -10.383701      -282.5549
  37   2.0000     -10.378221      -282.4058
  38   2.0000     -10.374702      -282.3100
  39   2.0000     -10.371894      -282.2336
  40   2.0000     -10.362467      -281.9771
  41   2.0000     -10.360382      -281.9203
  42   2.0000     -10.358776      -281.8766
  43   2.0000     -10.358052      -281.8569
  44   2.0000     -10.357930      -281.8536
  45   2.0000     -10.357675      -281.8467
  46   2.0000     -10.355879      -281.7978
  47   2.0000     -10.354465      -281.7593
  48   2.0000     -10.353937      -281.7449
  49   2.0000     -10.353028      -281.7202
  50   2.0000     -10.352049      -281.6936
  51   2.0000     -10.342900      -281.4446
  52   2.0000     -10.342747      -281.4405
  53   2.0000     -10.341047      -281.3942
  54   2.0000     -10.340394      -281.3764
  55   2.0000     -10.338771      -281.3323
  56   2.0000     -10.338767      -281.3322
  57   2.0000     -10.336311      -281.2653
  58   2.0000     -10.336070      -281.2588
  59   2.0000     -10.335893      -281.2539
  60   2.0000     -10.335804      -281.2515
  61   2.0000     -10.335570      -281.2451
  62   2.0000     -10.334863      -281.2259
  63   2.0000     -10.334649      -281.2201
  64   2.0000     -10.334304      -281.2107
  65   2.0000     -10.334292      -281.2104
  66   2.0000     -10.334057      -281.2040
  67   2.0000     -10.333996      -281.2023
  68   2.0000     -10.327873      -281.0357
  69   2.0000     -10.327537      -281.0266
  70   2.0000     -10.326509      -280.9986
  71   2.0000     -10.324440      -280.9423
  72   2.0000     -10.323777      -280.9242
  73   2.0000     -10.323240      -280.9096
  74   2.0000     -10.322614      -280.8926
  75   2.0000     -10.321466      -280.8614
  76   2.0000     -10.317006      -280.7400
  77   2.0000     -10.317000      -280.7398
  78   2.0000     -10.316928      -280.7379
  79   2.0000     -10.316814      -280.7348
  80   2.0000     -10.316551      -280.7276
  81   2.0000     -10.315783      -280.7067
  82   2.0000     -10.315496      -280.6989
  83   2.0000     -10.314360      -280.6680
  84   2.0000     -10.313100      -280.6337
  85   2.0000     -10.312816      -280.6260
  86   2.0000     -10.309186      -280.5272
  87   2.0000     -10.308673      -280.5133
  88   2.0000     -10.307735      -280.4877
  89   2.0000     -10.307284      -280.4755
  90   2.0000     -10.305633      -280.4305
  91   2.0000     -10.305218      -280.4192
  92   2.0000     -10.298964      -280.2491
  93   2.0000     -10.297922      -280.2207
  94   2.0000     -10.271356      -279.4978
  95   2.0000     -10.270898      -279.4854
  96   2.0000      -8.788042      -239.1348
  97   2.0000      -8.787573      -239.1220
  98   2.0000      -8.787078      -239.1086
  99   2.0000      -8.785832      -239.0746
 100   2.0000      -8.098021      -220.3584
 101   2.0000      -8.092885      -220.2186
 102   2.0000      -8.091289      -220.1752
 103   2.0000      -8.089693      -220.1318
 104   2.0000      -6.624168      -180.2528
 105   2.0000      -6.623715      -180.2404
 106   2.0000      -6.623254      -180.2279
 107   2.0000      -6.622007      -180.1940
 108   2.0000      -6.610152      -179.8714
 109   2.0000      -6.609691      -179.8588
 110   2.0000      -6.609396      -179.8508
 111   2.0000      -6.609173      -179.8447
 112   2.0000      -6.608904      -179.8374
 113   2.0000      -6.608397      -179.8236
 114   2.0000      -6.607930      -179.8109
 115   2.0000      -6.607143      -179.7895
 116   2.0000      -6.067242      -165.0980
 117   2.0000      -6.063020      -164.9832
 118   2.0000      -6.062088      -164.9578
 119   2.0000      -6.060490      -164.9143
 120   2.0000      -6.060465      -164.9136
 121   2.0000      -6.059093      -164.8763
 122   2.0000      -6.057947      -164.8451
 123   2.0000      -6.056324      -164.8010
 124   2.0000      -6.055341      -164.7742
 125   2.0000      -6.054347      -164.7471
 126   2.0000      -6.053811      -164.7326
 127   2.0000      -6.052276      -164.6908
 128   2.0000      -2.740086       -74.5615
 129   2.0000      -2.739614       -74.5487
 130   2.0000      -2.739143       -74.5359
 131   2.0000      -2.737908       -74.5023
 132   2.0000      -2.736323       -74.4591
 133   2.0000      -2.735836       -74.4459
 134   2.0000      -2.735686       -74.4418
 135   2.0000      -2.735355       -74.4328
 136   2.0000      -2.735257       -74.4301
 137   2.0000      -2.734782       -74.4172
 138   2.0000      -2.734132       -74.3995
 139   2.0000      -2.733503       -74.3824
 140   2.0000      -2.724562       -74.1391
 141   2.0000      -2.724557       -74.1390
 142   2.0000      -2.724098       -74.1265
 143   2.0000      -2.724067       -74.1256
 144   2.0000      -2.723565       -74.1120
 145   2.0000      -2.723551       -74.1116
 146   2.0000      -2.722315       -74.0780
 147   2.0000      -2.722296       -74.0774
 148   2.0000      -1.151502       -31.3340
 149   2.0000      -1.141986       -31.0750
 150   2.0000      -1.094867       -29.7929
 151   2.0000      -1.056838       -28.7580
 152   2.0000      -1.053044       -28.6548
 153   2.0000      -1.033589       -28.1254
 154   2.0000      -1.031404       -28.0659
 155   2.0000      -1.030917       -28.0527
 156   2.0000      -1.029771       -28.0215
 157   2.0000      -1.019793       -27.7500
 158   2.0000      -1.017561       -27.6893
 159   2.0000      -1.015214       -27.6254
 160   2.0000      -1.014906       -27.6170
 161   2.0000      -1.014770       -27.6133
 162   2.0000      -1.010533       -27.4980
 163   2.0000      -1.005722       -27.3671
 164   2.0000      -1.002943       -27.2915
 165   2.0000      -1.002082       -27.2680
 166   2.0000      -0.985460       -26.8157
 167   2.0000      -0.983420       -26.7602
 168   2.0000      -0.979762       -26.6607
 169   2.0000      -0.969124       -26.3712
 170   2.0000      -0.961681       -26.1687
 171   2.0000      -0.933889       -25.4124
 172   2.0000      -0.930155       -25.3108
 173   2.0000      -0.925970       -25.1969
 174   2.0000      -0.924368       -25.1533
 175   2.0000      -0.917236       -24.9593
 176   2.0000      -0.916354       -24.9353
 177   2.0000      -0.909347       -24.7446
 178   2.0000      -0.904132       -24.6027
 179   2.0000      -0.899476       -24.4760
 180   2.0000      -0.889758       -24.2116
 181   2.0000      -0.882053       -24.0019
 182   2.0000      -0.879899       -23.9433
 183   2.0000      -0.867344       -23.6016
 184   2.0000      -0.865057       -23.5394
 185   2.0000      -0.862557       -23.4714
 186   2.0000      -0.858497       -23.3609
 187   2.0000      -0.858002       -23.3474
 188   2.0000      -0.856696       -23.3119
 189   2.0000      -0.825741       -22.4695
 190   2.0000      -0.825215       -22.4552
 191   2.0000      -0.814982       -22.1768
 192   2.0000      -0.807053       -21.9610
 193   2.0000      -0.791723       -21.5439
 194   2.0000      -0.786951       -21.4140
 195   2.0000      -0.783663       -21.3246
 196   2.0000      -0.776778       -21.1372
 197   2.0000      -0.773991       -21.0614
 198   2.0000      -0.764503       -20.8032
 199   2.0000      -0.747277       -20.3344
 200   2.0000      -0.736065       -20.0294
 201   2.0000      -0.730870       -19.8880
 202   2.0000      -0.728827       -19.8324
 203   2.0000      -0.719176       -19.5698
 204   2.0000      -0.713111       -19.4047
 205   2.0000      -0.708642       -19.2831
 206   2.0000      -0.703726       -19.1494
 207   2.0000      -0.702221       -19.1084
 208   2.0000      -0.696352       -18.9487
 209   2.0000      -0.692110       -18.8333
 210   2.0000      -0.689696       -18.7676
 211   2.0000      -0.688693       -18.7403
 212   2.0000      -0.675974       -18.3942
 213   2.0000      -0.671979       -18.2855
 214   2.0000      -0.659402       -17.9432
 215   2.0000      -0.654873       -17.8200
 216   2.0000      -0.644686       -17.5428
 217   2.0000      -0.638537       -17.3755
 218   2.0000      -0.634449       -17.2642
 219   2.0000      -0.631141       -17.1742
 220   2.0000      -0.630030       -17.1440
 221   2.0000      -0.626614       -17.0510
 222   2.0000      -0.624706       -16.9991
 223   2.0000      -0.621444       -16.9103
 224   2.0000      -0.618608       -16.8332
 225   2.0000      -0.612580       -16.6692
 226   2.0000      -0.604064       -16.4374
 227   2.0000      -0.593339       -16.1456
 228   2.0000      -0.592046       -16.1104
 229   2.0000      -0.579024       -15.7560
 230   2.0000      -0.575182       -15.6515
 231   2.0000      -0.572178       -15.5697
 232   2.0000      -0.570630       -15.5276
 233   2.0000      -0.563850       -15.3432
 234   2.0000      -0.559993       -15.2382
 235   2.0000      -0.558774       -15.2050
 236   2.0000      -0.557353       -15.1664
 237   2.0000      -0.557054       -15.1582
 238   2.0000      -0.552058       -15.0223
 239   2.0000      -0.551961       -15.0196
 240   2.0000      -0.550348       -14.9757
 241   2.0000      -0.546865       -14.8809
 242   2.0000      -0.543269       -14.7831
 243   2.0000      -0.542354       -14.7582
 244   2.0000      -0.539661       -14.6849
 245   2.0000      -0.533379       -14.5140
 246   2.0000      -0.526440       -14.3252
 247   2.0000      -0.522617       -14.2211
 248   2.0000      -0.520511       -14.1638
 249   2.0000      -0.519536       -14.1373
 250   2.0000      -0.518973       -14.1220
 251   2.0000      -0.514497       -14.0002
 252   2.0000      -0.513082       -13.9617
 253   2.0000      -0.511491       -13.9184
 254   2.0000      -0.509795       -13.8722
 255   2.0000      -0.508701       -13.8425
 256   2.0000      -0.507757       -13.8168
 257   2.0000      -0.506295       -13.7770
 258   2.0000      -0.503966       -13.7136
 259   2.0000      -0.501632       -13.6501
 260   2.0000      -0.501075       -13.6349
 261   2.0000      -0.498960       -13.5774
 262   2.0000      -0.498045       -13.5525
 263   2.0000      -0.496940       -13.5224
 264   2.0000      -0.491779       -13.3820
 265   2.0000      -0.490229       -13.3398
 266   2.0000      -0.488104       -13.2820
 267   2.0000      -0.485699       -13.2165
 268   2.0000      -0.483771       -13.1641
 269   2.0000      -0.483026       -13.1438
 270   2.0000      -0.479190       -13.0394
 271   2.0000      -0.470247       -12.7961
 272   2.0000      -0.468402       -12.7459
 273   2.0000      -0.468100       -12.7377
 274   2.0000      -0.467985       -12.7345
 275   2.0000      -0.467485       -12.7209
 276   2.0000      -0.466810       -12.7025
 277   2.0000      -0.464926       -12.6513
 278   2.0000      -0.460298       -12.5254
 279   2.0000      -0.458317       -12.4714
 280   2.0000      -0.457812       -12.4577
 281   2.0000      -0.456328       -12.4173
 282   2.0000      -0.454496       -12.3675
 283   2.0000      -0.453881       -12.3507
 284   2.0000      -0.450754       -12.2656
 285   2.0000      -0.450413       -12.2564
 286   2.0000      -0.450264       -12.2523
 287   2.0000      -0.449471       -12.2307
 288   2.0000      -0.449323       -12.2267
 289   2.0000      -0.448138       -12.1944
 290   2.0000      -0.447272       -12.1709
 291   2.0000      -0.444790       -12.1034
 292   2.0000      -0.443306       -12.0630
 293   2.0000      -0.439558       -11.9610
 294   2.0000      -0.438544       -11.9334
 295   2.0000      -0.438261       -11.9257
 296   2.0000      -0.435327       -11.8459
 297   2.0000      -0.434941       -11.8354
 298   2.0000      -0.434437       -11.8216
 299   2.0000      -0.432980       -11.7820
 300   2.0000      -0.432322       -11.7641
 301   2.0000      -0.425766       -11.5857
 302   2.0000      -0.425385       -11.5753
 303   2.0000      -0.420714       -11.4482
 304   2.0000      -0.415429       -11.3044
 305   2.0000      -0.415120       -11.2960
 306   2.0000      -0.406926       -11.0730
 307   2.0000      -0.405581       -11.0364
 308   2.0000      -0.404204       -10.9989
 309   2.0000      -0.403044       -10.9674
 310   2.0000      -0.394526       -10.7356
 311   2.0000      -0.393802       -10.7159
 312   2.0000      -0.386600       -10.5199
 313   2.0000      -0.384792       -10.4707
 314   2.0000      -0.380317       -10.3489
 315   2.0000      -0.365231        -9.9384
 316   2.0000      -0.357586        -9.7304
 317   2.0000      -0.356644        -9.7048
 318   2.0000      -0.353840        -9.6285
 319   2.0000      -0.353158        -9.6099
 320   2.0000      -0.349833        -9.5194
 321   2.0000      -0.348679        -9.4880
 322   2.0000      -0.345721        -9.4075
 323   2.0000      -0.341271        -9.2864
 324   2.0000      -0.337743        -9.1905
 325   2.0000      -0.334271        -9.0960
 326   2.0000      -0.332566        -9.0496
 327   2.0000      -0.329367        -8.9625
 328   2.0000      -0.328744        -8.9456
 329   2.0000      -0.318594        -8.6694
 330   2.0000      -0.316982        -8.6255
 331   2.0000      -0.311327        -8.4716
 332   2.0000      -0.281794        -7.6680
 333   2.0000      -0.256443        -6.9782
 334   0.0000      -0.125219        -3.4074
 335   0.0000      -0.116293        -3.1645
 336   0.0000      -0.096326        -2.6212
 337   0.0000      -0.094738        -2.5780
 338   0.0000      -0.078970        -2.1489

MULLIKEN ATOMIC CHARGES
-----------------------
   0 C :    0.167315
   1 O :   -0.185325
   2 C :   -0.012439
   3 C :    0.031111
   4 C :   -0.009765
   5 C :   -0.026765
   6 C :   -0.013876
   7 C :   -0.023428
   8 Br:    0.015255
   9 Br:    0.024763
  10 C :    0.325227
  11 C :   -0.344275
  12 C :   -0.187892
  13 N :    0.160554
  14 C :   -0.189600
  15 N :    0.154887
  16 C :   -0.097328
  17 C :   -0.025558
  18 C :   -0.056554
  19 C :   -0.058157
  20 C :    0.047703
  21 C :   -0.066910
  22 S :    0.243505
  23 C :   -0.092750
  24 C :    0.043972
  25 C :    0.311930
  26 C :   -0.303511
  27 C :   -0.175903
  28 N :    0.185309
  29 C :   -0.196493
  30 N :    0.186252
  31 C :   -0.060607
  32 C :   -0.106426
  33 S :    0.166674
  34 C :    0.163910
  35 C :   -0.073919
  36 C :   -0.072873
  37 C :    0.163237
  38 C :   -0.044061
  39 C :   -0.035840
  40 N :   -0.014262
  41 C :   -0.160688
  42 C :   -0.157652
  43 N :   -0.010533
  44 C :    0.125611
  45 C :    0.127999
  46 C :   -0.107412
  47 C :   -0.052343
  48 C :    0.043138
  49 C :   -0.088192
  50 S :    0.167043
  51 C :   -0.074146
  52 C :    0.019567
  53 C :    0.309934
  54 C :   -0.300622
  55 C :   -0.193531
  56 N :    0.183243
  57 C :   -0.173683
  58 N :    0.184062
  59 C :    0.003770
  60 C :   -0.087540
  61 S :    0.203973
  62 C :    0.046057
  63 C :   -0.139649
  64 C :    0.142014
  65 O :   -0.134694
  66 C :    0.004673
  67 C :    0.018810
  68 C :    0.240180
  69 C :   -0.316024
  70 C :   -0.212762
  71 N :    0.176766
  72 C :   -0.176011
  73 N :    0.162504
  74 C :   -0.008522
  75 C :   -0.022581
  76 C :   -0.016310
  77 C :   -0.023012
  78 Br:    0.016358
  79 Br:    0.021406
  80 H :    0.009059
  81 H :    0.005116
  82 H :    0.015726
  83 H :    0.029302
  84 H :    0.019562
  85 H :   -0.004915
  86 H :   -0.006776
  87 H :    0.028731
  88 H :    0.027195
  89 H :    0.034753
  90 H :    0.027736
  91 H :    0.035173
  92 H :    0.028070
  93 H :    0.018834
  94 H :    0.019827
  95 H :    0.035016
  96 H :    0.010395
  97 H :    0.008902
Sum of atomic charges:   -0.0000000

LOEWDIN ATOMIC CHARGES
----------------------
   0 C :    0.085397
   1 O :   -0.170707
   2 C :   -0.042582
   3 C :   -0.010347
   4 C :   -0.006225
   5 C :   -0.118545
   6 C :   -0.123337
   7 C :    0.005837
   8 Br:    0.138411
   9 Br:    0.143487
  10 C :    0.074707
  11 C :   -0.134127
  12 C :   -0.019886
  13 N :   -0.043972
  14 C :   -0.022922
  15 N :   -0.042173
  16 C :   -0.116979
  17 C :    0.058660
  18 C :   -0.186007
  19 C :    0.016397
  20 C :   -0.078315
  21 C :   -0.160875
  22 S :    0.547964
  23 C :   -0.188940
  24 C :   -0.057028
  25 C :    0.080870
  26 C :   -0.102201
  27 C :   -0.003352
  28 N :   -0.029944
  29 C :   -0.020897
  30 N :   -0.023741
  31 C :   -0.023129
  32 C :   -0.141000
  33 S :    0.479943
  34 C :   -0.036353
  35 C :   -0.020855
  36 C :   -0.020777
  37 C :   -0.037017
  38 C :   -0.000691
  39 C :   -0.000470
  40 N :   -0.038385
  41 C :    0.013909
  42 C :    0.014222
  43 N :   -0.038482
  44 C :   -0.054644
  45 C :   -0.054572
  46 C :   -0.140905
  47 C :   -0.021388
  48 C :   -0.056129
  49 C :   -0.190354
  50 S :    0.480850
  51 C :   -0.144835
  52 C :   -0.075824
  53 C :    0.082743
  54 C :   -0.098893
  55 C :   -0.018484
  56 N :   -0.026079
  57 C :   -0.003495
  58 N :   -0.027876
  59 C :    0.019573
  60 C :   -0.181258
  61 S :    0.513275
  62 C :    0.055170
  63 C :   -0.108559
  64 C :    0.083555
  65 O :   -0.134938
  66 C :   -0.042846
  67 C :   -0.009877
  68 C :    0.058409
  69 C :   -0.142154
  70 C :   -0.038970
  71 N :   -0.042752
  72 C :   -0.022850
  73 N :   -0.043178
  74 C :   -0.009817
  75 C :   -0.118580
  76 C :   -0.123471
  77 C :    0.007506
  78 Br:    0.138740
  79 Br:    0.142004
  80 H :    0.045226
  81 H :    0.045755
  82 H :    0.053945
  83 H :    0.048738
  84 H :    0.036780
  85 H :    0.023558
  86 H :    0.023500
  87 H :    0.041673
  88 H :    0.040906
  89 H :    0.037827
  90 H :    0.041202
  91 H :    0.037925
  92 H :    0.041308
  93 H :    0.036914
  94 H :    0.048043
  95 H :    0.056305
  96 H :    0.044516
  97 H :    0.047238

  Mayer bond orders larger than 0.100000
B(  0-C ,  1-O ) :   2.1174 B(  0-C ,  2-C ) :   0.9623 B(  0-C , 16-C ) :   0.9893
B(  2-C ,  3-C ) :   1.3291 B(  2-C ,  7-C ) :   1.3694 B(  3-C ,  4-C ) :   1.3700
B(  3-C , 10-C ) :   0.9869 B(  4-C ,  5-C ) :   1.3645 B(  4-C , 80-H ) :   0.9789
B(  5-C ,  6-C ) :   1.4245 B(  5-C ,  9-Br) :   1.0603 B(  6-C ,  7-C ) :   1.3479
B(  6-C ,  8-Br) :   1.0336 B(  7-C , 81-H ) :   1.0091 B( 10-C , 11-C ) :   1.6350
B( 10-C , 16-C ) :   1.0830 B( 11-C , 12-C ) :   1.1427 B( 11-C , 14-C ) :   1.1423
B( 12-C , 13-N ) :   2.9689 B( 14-C , 15-N ) :   2.9618 B( 16-C , 17-C ) :   1.4735
B( 17-C , 18-C ) :   1.2853 B( 17-C , 82-H ) :   0.9402 B( 18-C , 19-C ) :   1.3156
B( 18-C , 22-S ) :   1.0631 B( 19-C , 20-C ) :   1.3428 B( 19-C , 83-H ) :   1.0084
B( 20-C , 21-C ) :   1.3459 B( 20-C , 25-C ) :   0.9786 B( 21-C , 22-S ) :   1.1339
B( 21-C , 23-C ) :   1.2024 B( 23-C , 24-C ) :   1.4207 B( 23-C , 33-S ) :   1.1201
B( 24-C , 25-C ) :   1.0024 B( 24-C , 31-C ) :   1.2241 B( 25-C , 26-C ) :   1.7151
B( 26-C , 27-C ) :   1.1393 B( 26-C , 29-C ) :   1.1315 B( 27-C , 28-N ) :   2.9817
B( 29-C , 30-N ) :   2.9975 B( 31-C , 32-C ) :   1.4798 B( 31-C , 84-H ) :   0.9807
B( 32-C , 33-S ) :   1.1018 B( 32-C , 34-C ) :   1.1156 B( 34-C , 35-C ) :   1.3770
B( 34-C , 37-C ) :   0.1230 B( 34-C , 39-C ) :   1.2138 B( 35-C , 36-C ) :   1.3258
B( 35-C , 85-H ) :   0.9837 B( 36-C , 37-C ) :   1.3731 B( 36-C , 86-H ) :   0.9843
B( 37-C , 38-C ) :   1.2166 B( 37-C , 46-C ) :   1.1171 B( 38-C , 39-C ) :   1.2654
B( 38-C , 43-N ) :   1.4440 B( 39-C , 40-N ) :   1.4401 B( 40-N , 41-C ) :   1.6682
B( 41-C , 42-C ) :   1.1574 B( 41-C , 45-C ) :   1.0980 B( 42-C , 43-N ) :   1.6652
B( 42-C , 44-C ) :   1.0984 B( 44-C , 87-H ) :   0.9335 B( 44-C , 88-H ) :   0.9325
B( 44-C , 89-H ) :   0.9303 B( 45-C , 90-H ) :   0.9322 B( 45-C , 91-H ) :   0.9299
B( 45-C , 92-H ) :   0.9332 B( 46-C , 47-C ) :   1.4751 B( 46-C , 50-S ) :   1.1041
B( 47-C , 48-C ) :   1.2275 B( 47-C , 93-H ) :   0.9809 B( 48-C , 49-C ) :   1.4212
B( 48-C , 53-C ) :   1.0032 B( 49-C , 50-S ) :   1.1176 B( 49-C , 51-C ) :   1.2085
B( 51-C , 52-C ) :   1.3826 B( 51-C , 61-S ) :   1.1679 B( 52-C , 53-C ) :   0.9869
B( 52-C , 59-C ) :   1.3172 B( 53-C , 54-C ) :   1.7138 B( 54-C , 55-C ) :   1.1312
B( 54-C , 57-C ) :   1.1406 B( 55-C , 56-N ) :   2.9965 B( 57-C , 58-N ) :   2.9797
B( 59-C , 60-C ) :   1.3790 B( 59-C , 94-H ) :   1.0024 B( 60-C , 61-S ) :   1.0745
B( 60-C , 62-C ) :   1.1777 B( 62-C , 63-C ) :   1.6039 B( 62-C , 95-H ) :   0.9477
B( 63-C , 64-C ) :   0.9488 B( 63-C , 68-C ) :   1.0453 B( 64-C , 65-O ) :   2.2747
B( 64-C , 66-C ) :   0.9194 B( 66-C , 67-C ) :   1.3302 B( 66-C , 77-C ) :   1.3770
B( 67-C , 68-C ) :   1.0050 B( 67-C , 74-C ) :   1.3718 B( 68-C , 69-C ) :   1.6543
B( 69-C , 70-C ) :   1.1517 B( 69-C , 72-C ) :   1.1306 B( 70-C , 71-N ) :   3.0248
B( 72-C , 73-N ) :   2.9942 B( 74-C , 75-C ) :   1.3661 B( 74-C , 96-H ) :   0.9839
B( 75-C , 76-C ) :   1.4245 B( 75-C , 79-Br) :   1.0506 B( 76-C , 77-C ) :   1.3528
B( 76-C , 78-Br) :   1.0355 B( 77-C , 97-H ) :   1.0083

-----------------------------------------------------------------------------
         ABSORPTION SPECTRUM VIA TRANSITION ELECTRIC DIPOLE MOMENTS
-----------------------------------------------------------------------------
State   Energy  Wavelength   fosc         T2         TX        TY        TZ
        (cm-1)    (nm)                  (au**2)     (au)      (au)      (au)
-----------------------------------------------------------------------------
   0   12492.1    800.5   0.643554384  16.95992  -2.28920  -3.16418   1.30668
   1   13922.0    718.3   0.182504700   4.31565  -0.77838  -1.82140  -0.62631
   2   19193.2    521.0   1.269596702  21.77684   2.51583   3.52987  -1.72844
   3   20769.8    481.5   0.855190051  13.55520  -0.92492  -2.76046  -2.25379
   4   21519.2    464.7   0.011906120   0.18215  -0.13015  -0.40388   0.04567
   5   23187.7    431.3   0.024345855   0.34565  -0.11618   0.46707   0.33764
   6   24624.4    406.1   0.143155689   1.91390  -0.70915  -1.17885  -0.14603
   7   25607.0    390.5   0.166293732   2.13793   0.63325   0.20005  -1.30265
   8   26807.2    373.0   0.004843963   0.05949   0.23778  -0.01992   0.05050
   9   27110.1    368.9   0.003288299   0.03993  -0.00280  -0.09253   0.17709
  10   27287.5    366.5   0.180234574   2.17445   1.27496   0.30138  -0.67684
  11   28149.2    355.2   0.010991236   0.12855   0.25276  -0.06760   0.24513
  12   28588.4    349.8   0.037702415   0.43417   0.41379  -0.11718  -0.49921
  13   29096.0    343.7   0.090356198   1.02235   0.64564   0.43387  -0.64595
  14   29275.4    341.6   0.088827146   0.99889  -0.41974   0.77041   0.47873
  15   29572.7    338.1   0.021739506   0.24201   0.20391   0.40898   0.18212
  16   29850.4    335.0   0.305549325   3.36982  -0.23068   0.73747   1.66516
  17   30101.2    332.2   0.007135312   0.07804  -0.25750   0.01712   0.10696
  18   30225.5    330.8   0.015963416   0.17387   0.09051   0.24237  -0.32701
  19   30410.5    328.8   0.006826508   0.07390  -0.09577  -0.25365  -0.01981
  20   30553.3    327.3   0.007930672   0.08545   0.04036  -0.14193  -0.25235
  21   30695.9    325.8   0.606703610   6.50685  -0.83513   0.53511   2.35012
  22   31686.9    315.6   0.281466496   2.92431  -1.09348  -1.26714   0.35066
  23   31877.4    313.7   0.161862199   1.67162   0.24635   0.83837   0.95293
  24   32145.6    311.1   0.001805097   0.01849  -0.07268   0.02458  -0.11225
  25   32393.2    308.7   0.087869629   0.89302  -0.86554  -0.28226   0.25334
  26   32560.9    307.1   0.069608932   0.70379   0.22309   0.79889   0.12569
  27   32815.3    304.7   0.009516508   0.09547   0.08159   0.10631   0.27841
  28   32882.1    304.1   0.038391409   0.38437  -0.17014  -0.08508   0.59007
  29   33112.3    302.0   0.046893749   0.46623  -0.40943  -0.44483   0.31737
  30   33567.8    297.9   0.176212068   1.72818   0.54660   0.91716   0.76695
  31   33640.5    297.3   0.122619152   1.19997  -0.98666   0.08567   0.46812
  32   33783.3    296.0   0.032244045   0.31421  -0.18209  -0.01605  -0.52990
  33   34297.3    291.6   0.402123775   3.85990  -0.74914   0.85171   1.60414
  34   34446.0    290.3   0.205429034   1.96335   0.12657  -0.07337  -1.39354
  35   34633.9    288.7   0.370575583   3.52250   0.34428   0.25075  -1.82787
  36   34838.2    287.0   0.133654885   1.26300  -0.06770   0.88320   0.69165
  37   35000.9    285.7   0.229639860   2.15995  -0.87939  -0.02254   1.17733
  38   35437.1    282.2   0.080882468   0.75140   0.39642   0.15775  -0.75456
  39   35448.0    282.1   0.017088583   0.15870  -0.26741  -0.04157  -0.29235
  40   35674.8    280.3   0.132455073   1.22232   0.53869   0.71606  -0.64760
  41   35905.6    278.5   0.011270894   0.10334   0.27670  -0.15364   0.05630
  42   36042.2    277.5   0.599158899   5.47275   2.06779   1.04670  -0.31843
  43   36497.2    274.0   0.009208259   0.08306  -0.14257   0.00825   0.25033
  44   36616.7    273.1   0.046073418   0.41424   0.18135  -0.61264   0.07761
  45   36733.1    272.2   0.093187209   0.83517  -0.27533  -0.69178   0.52990
  46   36851.1    271.4   0.007547015   0.06742  -0.16305  -0.19101   0.06597
  47   37106.5    269.5   0.048542889   0.43068  -0.40920  -0.49439   0.13713
  48   37222.3    268.7   0.004608108   0.04076  -0.00663   0.19836   0.03694
  49   37346.8    267.8   0.035148390   0.30983   0.08584  -0.29555  -0.46380
  50   37609.0    265.9   0.002610676   0.02285  -0.08962  -0.11067   0.05072
  51   37676.6    265.4   0.037883533   0.33102   0.35242   0.44955   0.06875
  52   37890.0    263.9   0.084083602   0.73057   0.44154   0.73025   0.04847
  53   38662.8    258.6   0.084455682   0.71914  -0.00021   0.38099   0.75761
  54   38834.8    257.5   0.022700821   0.19244  -0.26384  -0.31723   0.14899
  55   39122.2    255.6   0.320628743   2.69808  -0.64535  -1.34624  -0.68501
  56   39290.9    254.5   0.119584880   1.00198   0.04992   0.41006   0.91178
  57   39385.2    253.9   0.012870828   0.10758  -0.21111  -0.24619  -0.04906
  58   39515.4    253.1   0.018616339   0.15510   0.13761  -0.04519   0.36622
  59   39657.4    252.2   0.009808000   0.08142   0.01864  -0.22578   0.17348
  60   40037.9    249.8   0.143395452   1.17907   0.64324  -0.22215  -0.84615
  61   40107.0    249.3   0.000436485   0.00358  -0.05899  -0.00427   0.00923
  62   40141.0    249.1   0.014100912   0.11565  -0.09772  -0.00352   0.32571
  63   40322.6    248.0   0.064435805   0.52608   0.00975   0.41695   0.59341

FINAL SINGLE POINT ENERGY    -14879.352169353231

DIPOLE MOMENT
-------------
                                X             Y             Z
Electronic contribution:    -63.95398     115.30915     248.22479
Nuclear contribution   :     62.02706    -115.48706    -247.01357
                        -----------------------------------------
Total Dipole Moment    :     -1.92692      -0.17791       1.21122
                        -----------------------------------------
Magnitude (a.u.)       :      2.28292
Magnitude (Debye)      :      5.80273

Rotational constants in cm-1:     0.000605     0.000133     0.000111
Rotational constants in MHz :    18.142659     3.999230     3.320692

                             ****ORCA TERMINATED NORMALLY****
TOTAL RUN TIME: 0 days 0 hours 11 minutes 12 seconds 745 msec
