                         Program Version 4.2.0 -  RELEASE  -
|  1> # ORCA input file
|  2> # SCF done       -193.168522360082          0.000826054657
|  3> ! CAM-B3LYP def2-SVP def2/J RIJCOSX Grid4 TightSCF
|  4> %maxcore 5000
|  5> %tddft
|  6>     Mode sTDDFT
|  7>     Ethresh 5.0
|  8>     maxcore 5000
|  9> end
| 10>
| 11> %pal
| 12>   nprocs 6
| 13>   end
| 14> * xyz 0 1
| 15>    C        0.55430         1.27204         1.12435
| 16>    C       -0.66451         1.54250         1.68942
| 17>    C       -1.06667         1.05609         2.95148
| 18>    N       -1.44490         0.67515         3.96536
| 19>    C       -1.68812         2.25695         1.03782
| 20>    N       -2.55124         2.82097         0.53240
| 21>    C        1.54500         0.35450         1.67635
| 22>    C        2.39943        -0.08084         0.62102
| 23>    C        3.40611        -0.97719         0.83882
| 24>    C        3.61754        -1.47112         2.14593
| 25>    C        2.78338        -1.01798         3.20919
| 26>    C        1.73998        -0.09894         2.95268
| 27>    C        3.01753        -1.50481         4.51111
| 28>    C        4.02340        -2.40046         4.75302
| 29>    C        4.84101        -2.84980         3.70528
| 30>    C        4.64224        -2.39548         2.42970
| 31>    C        2.01984         0.60467        -0.62524
| 32>    O        2.47324         0.45427        -1.73587
| 33>    C        0.98066         1.60113        -0.22118
| 34>    C        0.70570         2.63267        -1.06353
| 35>    C        0.08907         3.87060        -0.76761
| 36>    C       -0.08707         4.47638         0.46752
| 37>    C       -0.70851         5.71358         0.36143
| 38>    C       -1.00015         6.07068        -0.96886
| 39>    S       -0.50041         4.88200        -2.07969
| 40>    C       -1.63042         7.34274        -0.96217
| 41>    C       -1.74422         7.77897         0.37431
| 42>    C       -1.18529         6.76180         1.24858
| 43>    C       -1.14275         6.75216         2.61135
| 44>    C       -1.65177         7.80798         3.39741
| 45>    N       -2.05443         8.66409         4.04418
| 46>    C       -0.58327         5.66578         3.31772
| 47>    N       -0.11391         4.78164         3.87717
| 48>    C       -2.33773         9.03477         0.48122
| 49>    C       -2.66419         9.54321        -0.76098
| 50>    S       -2.25274         8.47090        -2.07807
| 51>    C       -3.24686        10.81566        -1.04620
| 52>    N       -3.47390        11.13428        -2.33398
| 53>    C       -3.93066        12.33645        -2.56229
| 54>    C       -4.10856        13.24965        -1.50013
| 55>    N       -3.94755        12.81228        -0.24137
| 56>    N       -3.54834        11.61498        -0.01608
| 57>    C       -4.47150        14.62245        -1.67503
| 58>    C       -4.66611        15.54540        -0.66593
| 59>    C       -4.97984        16.80607        -1.17203
| 60>    C       -5.02310        16.83169        -2.57806
| 61>    S       -4.68155        15.31163        -3.27353
| 62>    C       -5.32795        18.14860        -3.00073
| 63>    C       -5.47689        18.96243        -1.85618
| 64>    C       -5.26011        18.14451        -0.67209
| 65>    C       -5.29219        18.54163         0.63062
| 66>    C       -5.54134        19.87364         1.03049
| 67>    N       -5.73011        20.94279         1.39680
| 68>    C       -5.06266        17.64192         1.69546
| 69>    N       -4.87532        16.92389         2.56883
| 70>    C       -5.77141        20.28484        -2.16161
| 71>    C       -5.85010        20.50090        -3.53147
| 72>    S       -5.54755        19.01405        -4.44496
| 73>    C       -6.07733        21.65163        -4.31592
| 74>    C       -6.37660        22.94069        -3.97510
| 75>    C       -6.51163        24.02014        -4.94481
| 76>    C       -6.21505        23.97560        -6.28307
| 77>    C       -6.35900        25.07242        -7.16008
| 78>    N       -6.45272        25.91543        -7.93361
| 79>    C       -5.70439        22.86997        -6.99518
| 80>    N       -5.27592        22.03104        -7.65327
| 81>    C       -6.96984        25.20713        -4.23329
| 82>    C       -7.06704        24.89468        -2.84872
| 83>    C       -6.69315        23.48945        -2.63008
| 84>    O       -6.68028        22.91693        -1.56097
| 85>    C       -7.45860        25.81690        -1.92138
| 86>    C       -7.78071        27.12452        -2.34690
| 87>    C       -7.69531        27.44544        -3.73276
| 88>    C       -7.28582        26.46786        -4.66823
| 89>    C       -8.02274        28.75240        -4.14802
| 90>    C       -8.41313        29.69820        -3.23949
| 91>    C       -8.49507        29.38135        -1.87518
| 92>    C       -8.18581        28.12177        -1.43822
| 93>    H        4.03718        -1.30287         0.02531
| 94>    H        1.12958         0.23832         3.77585
| 95>    H        2.38310        -1.15832         5.31348
| 96>    H        4.19443        -2.76819         5.75361
| 97>    H        5.62987        -3.55686         3.91397
| 98>    H        5.26948        -2.73725         1.61940
| 99>    H        1.07677         2.50956        -2.07642
|100>    H        0.26707         4.04791         1.38691
|101>    H       -2.53075         9.57566         1.38952
|102>    H       -4.16843        12.59160        -3.58764
|103>    H       -4.57168        15.27770         0.37046
|104>    H       -5.93154        21.07159        -1.44563
|105>    H       -5.99037        21.45120        -5.37749
|106>    H       -7.51899        25.54982        -0.87680
|107>    H       -7.23557        26.74492        -5.70892
|108>    H       -7.95691        28.99209        -5.19917
|109>    H       -8.66070        30.69666        -3.56736
|110>    H       -8.80454        30.14030        -1.17234
|111>    H       -8.24696        27.87146        -0.38930
|112> *
|113>
|114>                          ****END OF INPUT****

CARTESIAN COORDINATES (ANGSTROEM)
---------------------------------
  C      0.554300    1.272040    1.124350
  C     -0.664510    1.542500    1.689420
  C     -1.066670    1.056090    2.951480
  N     -1.444900    0.675150    3.965360
  C     -1.688120    2.256950    1.037820
  N     -2.551240    2.820970    0.532400
  C      1.545000    0.354500    1.676350
  C      2.399430   -0.080840    0.621020
  C      3.406110   -0.977190    0.838820
  C      3.617540   -1.471120    2.145930
  C      2.783380   -1.017980    3.209190
  C      1.739980   -0.098940    2.952680
  C      3.017530   -1.504810    4.511110
  C      4.023400   -2.400460    4.753020
  C      4.841010   -2.849800    3.705280
  C      4.642240   -2.395480    2.429700
  C      2.019840    0.604670   -0.625240
  O      2.473240    0.454270   -1.735870
  C      0.980660    1.601130   -0.221180
  C      0.705700    2.632670   -1.063530
  C      0.089070    3.870600   -0.767610
  C     -0.087070    4.476380    0.467520
  C     -0.708510    5.713580    0.361430
  C     -1.000150    6.070680   -0.968860
  S     -0.500410    4.882000   -2.079690
  C     -1.630420    7.342740   -0.962170
  C     -1.744220    7.778970    0.374310
  C     -1.185290    6.761800    1.248580
  C     -1.142750    6.752160    2.611350
  C     -1.651770    7.807980    3.397410
  N     -2.054430    8.664090    4.044180
  C     -0.583270    5.665780    3.317720
  N     -0.113910    4.781640    3.877170
  C     -2.337730    9.034770    0.481220
  C     -2.664190    9.543210   -0.760980
  S     -2.252740    8.470900   -2.078070
  C     -3.246860   10.815660   -1.046200
  N     -3.473900   11.134280   -2.333980
  C     -3.930660   12.336450   -2.562290
  C     -4.108560   13.249650   -1.500130
  N     -3.947550   12.812280   -0.241370
  N     -3.548340   11.614980   -0.016080
  C     -4.471500   14.622450   -1.675030
  C     -4.666110   15.545400   -0.665930
  C     -4.979840   16.806070   -1.172030
  C     -5.023100   16.831690   -2.578060
  S     -4.681550   15.311630   -3.273530
  C     -5.327950   18.148600   -3.000730
  C     -5.476890   18.962430   -1.856180
  C     -5.260110   18.144510   -0.672090
  C     -5.292190   18.541630    0.630620
  C     -5.541340   19.873640    1.030490
  N     -5.730110   20.942790    1.396800
  C     -5.062660   17.641920    1.695460
  N     -4.875320   16.923890    2.568830
  C     -5.771410   20.284840   -2.161610
  C     -5.850100   20.500900   -3.531470
  S     -5.547550   19.014050   -4.444960
  C     -6.077330   21.651630   -4.315920
  C     -6.376600   22.940690   -3.975100
  C     -6.511630   24.020140   -4.944810
  C     -6.215050   23.975600   -6.283070
  C     -6.359000   25.072420   -7.160080
  N     -6.452720   25.915430   -7.933610
  C     -5.704390   22.869970   -6.995180
  N     -5.275920   22.031040   -7.653270
  C     -6.969840   25.207130   -4.233290
  C     -7.067040   24.894680   -2.848720
  C     -6.693150   23.489450   -2.630080
  O     -6.680280   22.916930   -1.560970
  C     -7.458600   25.816900   -1.921380
  C     -7.780710   27.124520   -2.346900
  C     -7.695310   27.445440   -3.732760
  C     -7.285820   26.467860   -4.668230
  C     -8.022740   28.752400   -4.148020
  C     -8.413130   29.698200   -3.239490
  C     -8.495070   29.381350   -1.875180
  C     -8.185810   28.121770   -1.438220
  H      4.037180   -1.302870    0.025310
  H      1.129580    0.238320    3.775850
  H      2.383100   -1.158320    5.313480
  H      4.194430   -2.768190    5.753610
  H      5.629870   -3.556860    3.913970
  H      5.269480   -2.737250    1.619400
  H      1.076770    2.509560   -2.076420
  H      0.267070    4.047910    1.386910
  H     -2.530750    9.575660    1.389520
  H     -4.168430   12.591600   -3.587640
  H     -4.571680   15.277700    0.370460
  H     -5.931540   21.071590   -1.445630
  H     -5.990370   21.451200   -5.377490
  H     -7.518990   25.549820   -0.876800
  H     -7.235570   26.744920   -5.708920
  H     -7.956910   28.992090   -5.199170
  H     -8.660700   30.696660   -3.567360
  H     -8.804540   30.140300   -1.172340
  H     -8.246960   27.871460   -0.389300

 Total Charge           Charge          ....    0
 Multiplicity           Mult            ....    1
 Number of Electrons    NEL             ....  542
 Basis Dimension        Dim             .... 1203

ORBITAL ENERGIES
----------------

  NO   OCC          E(Eh)            E(eV)
   0   2.0000     -89.007112     -2422.0067
   1   2.0000     -89.001582     -2421.8562
   2   2.0000     -88.999106     -2421.7888
   3   2.0000     -88.998489     -2421.7720
   4   2.0000     -19.221710      -523.0493
   5   2.0000     -19.216519      -522.9081
   6   2.0000     -14.476074      -393.9140
   7   2.0000     -14.466232      -393.6462
   8   2.0000     -14.455846      -393.3636
   9   2.0000     -14.434793      -392.7907
  10   2.0000     -14.434577      -392.7848
  11   2.0000     -14.433017      -392.7424
  12   2.0000     -14.431387      -392.6980
  13   2.0000     -14.421537      -392.4300
  14   2.0000     -14.419058      -392.3625
  15   2.0000     -14.416321      -392.2880
  16   2.0000     -14.413530      -392.2121
  17   2.0000     -10.374559      -282.3061
  18   2.0000     -10.373899      -282.2882
  19   2.0000     -10.372622      -282.2534
  20   2.0000     -10.369540      -282.1695
  21   2.0000     -10.368027      -282.1284
  22   2.0000     -10.359186      -281.8878
  23   2.0000     -10.358724      -281.8752
  24   2.0000     -10.356228      -281.8073
  25   2.0000     -10.352710      -281.7116
  26   2.0000     -10.351430      -281.6767
  27   2.0000     -10.347395      -281.5669
  28   2.0000     -10.345053      -281.5032
  29   2.0000     -10.344958      -281.5006
  30   2.0000     -10.344954      -281.5005
  31   2.0000     -10.344466      -281.4872
  32   2.0000     -10.343416      -281.4586
  33   2.0000     -10.342264      -281.4273
  34   2.0000     -10.338817      -281.3335
  35   2.0000     -10.335048      -281.2310
  36   2.0000     -10.334915      -281.2273
  37   2.0000     -10.333719      -281.1948
  38   2.0000     -10.331976      -281.1474
  39   2.0000     -10.331704      -281.1400
  40   2.0000     -10.331595      -281.1370
  41   2.0000     -10.330830      -281.1162
  42   2.0000     -10.327248      -281.0187
  43   2.0000     -10.327078      -281.0141
  44   2.0000     -10.324582      -280.9462
  45   2.0000     -10.320102      -280.8242
  46   2.0000     -10.319524      -280.8085
  47   2.0000     -10.319446      -280.8064
  48   2.0000     -10.315780      -280.7066
  49   2.0000     -10.314912      -280.6830
  50   2.0000     -10.314256      -280.6652
  51   2.0000     -10.312994      -280.6308
  52   2.0000     -10.312118      -280.6070
  53   2.0000     -10.311514      -280.5906
  54   2.0000     -10.310282      -280.5570
  55   2.0000     -10.310026      -280.5501
  56   2.0000     -10.306966      -280.4668
  57   2.0000     -10.304543      -280.4009
  58   2.0000     -10.303782      -280.3802
  59   2.0000     -10.303308      -280.3673
  60   2.0000     -10.299067      -280.2519
  61   2.0000     -10.298825      -280.2453
  62   2.0000     -10.298409      -280.2340
  63   2.0000     -10.298026      -280.2235
  64   2.0000     -10.297885      -280.2197
  65   2.0000     -10.297715      -280.2151
  66   2.0000     -10.297622      -280.2125
  67   2.0000     -10.296717      -280.1879
  68   2.0000     -10.290347      -280.0146
  69   2.0000     -10.289866      -280.0015
  70   2.0000     -10.287633      -279.9407
  71   2.0000     -10.287197      -279.9289
  72   2.0000     -10.286952      -279.9222
  73   2.0000     -10.286629      -279.9134
  74   2.0000     -10.286485      -279.9095
  75   2.0000     -10.286010      -279.8966
  76   2.0000     -10.285633      -279.8863
  77   2.0000     -10.284936      -279.8673
  78   2.0000      -8.101623      -220.4564
  79   2.0000      -8.096334      -220.3125
  80   2.0000      -8.093902      -220.2463
  81   2.0000      -8.092726      -220.2143
  82   2.0000      -6.070865      -165.1966
  83   2.0000      -6.066705      -165.0834
  84   2.0000      -6.065422      -165.0485
  85   2.0000      -6.064027      -165.0106
  86   2.0000      -6.063047      -164.9839
  87   2.0000      -6.061905      -164.9528
  88   2.0000      -6.061289      -164.9361
  89   2.0000      -6.058894      -164.8709
  90   2.0000      -6.058891      -164.8708
  91   2.0000      -6.057680      -164.8379
  92   2.0000      -6.056383      -164.8026
  93   2.0000      -6.055260      -164.7720
  94   2.0000      -1.168111       -31.7859
  95   2.0000      -1.137223       -30.9454
  96   2.0000      -1.132078       -30.8054
  97   2.0000      -1.057917       -28.7874
  98   2.0000      -1.056600       -28.7515
  99   2.0000      -1.050761       -28.5927
 100   2.0000      -1.026954       -27.9448
 101   2.0000      -1.025536       -27.9062
 102   2.0000      -1.022386       -27.8205
 103   2.0000      -1.020423       -27.7671
 104   2.0000      -1.014502       -27.6060
 105   2.0000      -1.010469       -27.4963
 106   2.0000      -1.010064       -27.4853
 107   2.0000      -1.006088       -27.3771
 108   2.0000      -1.001899       -27.2631
 109   2.0000      -0.999806       -27.2061
 110   2.0000      -0.996657       -27.1204
 111   2.0000      -0.993362       -27.0308
 112   2.0000      -0.978892       -26.6370
 113   2.0000      -0.973614       -26.4934
 114   2.0000      -0.971619       -26.4391
 115   2.0000      -0.965756       -26.2795
 116   2.0000      -0.953378       -25.9427
 117   2.0000      -0.931089       -25.3362
 118   2.0000      -0.928354       -25.2618
 119   2.0000      -0.921898       -25.0861
 120   2.0000      -0.917516       -24.9669
 121   2.0000      -0.902119       -24.5479
 122   2.0000      -0.899236       -24.4695
 123   2.0000      -0.883884       -24.0517
 124   2.0000      -0.882001       -24.0005
 125   2.0000      -0.881848       -23.9963
 126   2.0000      -0.880090       -23.9485
 127   2.0000      -0.875812       -23.8320
 128   2.0000      -0.868443       -23.6315
 129   2.0000      -0.865865       -23.5614
 130   2.0000      -0.864385       -23.5211
 131   2.0000      -0.842156       -22.9162
 132   2.0000      -0.829893       -22.5825
 133   2.0000      -0.828646       -22.5486
 134   2.0000      -0.818748       -22.2793
 135   2.0000      -0.810928       -22.0665
 136   2.0000      -0.809135       -22.0177
 137   2.0000      -0.785910       -21.3857
 138   2.0000      -0.780521       -21.2391
 139   2.0000      -0.779395       -21.2084
 140   2.0000      -0.767221       -20.8771
 141   2.0000      -0.765282       -20.8244
 142   2.0000      -0.759173       -20.6582
 143   2.0000      -0.735338       -20.0096
 144   2.0000      -0.727989       -19.8096
 145   2.0000      -0.711158       -19.3516
 146   2.0000      -0.710426       -19.3317
 147   2.0000      -0.707654       -19.2562
 148   2.0000      -0.706667       -19.2294
 149   2.0000      -0.701540       -19.0899
 150   2.0000      -0.701437       -19.0871
 151   2.0000      -0.694079       -18.8869
 152   2.0000      -0.690345       -18.7852
 153   2.0000      -0.687855       -18.7175
 154   2.0000      -0.683459       -18.5979
 155   2.0000      -0.677199       -18.4275
 156   2.0000      -0.675107       -18.3706
 157   2.0000      -0.668641       -18.1947
 158   2.0000      -0.655672       -17.8418
 159   2.0000      -0.651686       -17.7333
 160   2.0000      -0.639499       -17.4017
 161   2.0000      -0.637614       -17.3504
 162   2.0000      -0.633588       -17.2408
 163   2.0000      -0.631655       -17.1882
 164   2.0000      -0.626724       -17.0540
 165   2.0000      -0.623416       -16.9640
 166   2.0000      -0.614720       -16.7274
 167   2.0000      -0.609464       -16.5843
 168   2.0000      -0.607985       -16.5441
 169   2.0000      -0.606848       -16.5132
 170   2.0000      -0.600627       -16.3439
 171   2.0000      -0.598315       -16.2810
 172   2.0000      -0.592132       -16.1127
 173   2.0000      -0.584053       -15.8929
 174   2.0000      -0.577479       -15.7140
 175   2.0000      -0.563729       -15.3398
 176   2.0000      -0.563194       -15.3253
 177   2.0000      -0.559349       -15.2207
 178   2.0000      -0.557987       -15.1836
 179   2.0000      -0.553161       -15.0523
 180   2.0000      -0.553077       -15.0500
 181   2.0000      -0.548785       -14.9332
 182   2.0000      -0.548385       -14.9223
 183   2.0000      -0.545788       -14.8517
 184   2.0000      -0.541450       -14.7336
 185   2.0000      -0.540768       -14.7150
 186   2.0000      -0.538384       -14.6502
 187   2.0000      -0.531690       -14.4680
 188   2.0000      -0.529201       -14.4003
 189   2.0000      -0.528262       -14.3747
 190   2.0000      -0.526353       -14.3228
 191   2.0000      -0.521529       -14.1915
 192   2.0000      -0.519542       -14.1375
 193   2.0000      -0.513223       -13.9655
 194   2.0000      -0.512502       -13.9459
 195   2.0000      -0.511950       -13.9309
 196   2.0000      -0.510592       -13.8939
 197   2.0000      -0.509109       -13.8536
 198   2.0000      -0.508249       -13.8302
 199   2.0000      -0.507698       -13.8152
 200   2.0000      -0.505288       -13.7496
 201   2.0000      -0.504625       -13.7316
 202   2.0000      -0.503698       -13.7063
 203   2.0000      -0.499377       -13.5887
 204   2.0000      -0.497695       -13.5430
 205   2.0000      -0.495299       -13.4778
 206   2.0000      -0.491397       -13.3716
 207   2.0000      -0.486945       -13.2504
 208   2.0000      -0.485647       -13.2151
 209   2.0000      -0.480816       -13.0837
 210   2.0000      -0.479320       -13.0430
 211   2.0000      -0.478339       -13.0163
 212   2.0000      -0.466964       -12.7067
 213   2.0000      -0.465513       -12.6673
 214   2.0000      -0.464891       -12.6503
 215   2.0000      -0.464491       -12.6394
 216   2.0000      -0.463238       -12.6054
 217   2.0000      -0.461123       -12.5478
 218   2.0000      -0.459739       -12.5101
 219   2.0000      -0.458578       -12.4785
 220   2.0000      -0.455186       -12.3862
 221   2.0000      -0.453333       -12.3358
 222   2.0000      -0.451964       -12.2986
 223   2.0000      -0.451400       -12.2832
 224   2.0000      -0.450417       -12.2565
 225   2.0000      -0.446717       -12.1558
 226   2.0000      -0.444845       -12.1048
 227   2.0000      -0.443602       -12.0710
 228   2.0000      -0.443257       -12.0616
 229   2.0000      -0.442627       -12.0445
 230   2.0000      -0.442510       -12.0413
 231   2.0000      -0.442029       -12.0282
 232   2.0000      -0.441284       -12.0080
 233   2.0000      -0.439161       -11.9502
 234   2.0000      -0.438560       -11.9338
 235   2.0000      -0.436359       -11.8739
 236   2.0000      -0.435936       -11.8624
 237   2.0000      -0.435039       -11.8380
 238   2.0000      -0.432635       -11.7726
 239   2.0000      -0.430337       -11.7101
 240   2.0000      -0.429340       -11.6829
 241   2.0000      -0.429113       -11.6767
 242   2.0000      -0.428034       -11.6474
 243   2.0000      -0.426469       -11.6048
 244   2.0000      -0.421951       -11.4819
 245   2.0000      -0.419853       -11.4248
 246   2.0000      -0.413650       -11.2560
 247   2.0000      -0.411137       -11.1876
 248   2.0000      -0.410981       -11.1834
 249   2.0000      -0.408431       -11.1140
 250   2.0000      -0.407172       -11.0797
 251   2.0000      -0.403674       -10.9845
 252   2.0000      -0.386596       -10.5198
 253   2.0000      -0.381099       -10.3702
 254   2.0000      -0.375032       -10.2051
 255   2.0000      -0.368640       -10.0312
 256   2.0000      -0.361794        -9.8449
 257   2.0000      -0.354586        -9.6488
 258   2.0000      -0.348321        -9.4783
 259   2.0000      -0.342754        -9.3268
 260   2.0000      -0.337904        -9.1948
 261   2.0000      -0.332259        -9.0412
 262   2.0000      -0.328466        -8.9380
 263   2.0000      -0.324401        -8.8274
 264   2.0000      -0.319077        -8.6825
 265   2.0000      -0.318567        -8.6687
 266   2.0000      -0.316273        -8.6062
 267   2.0000      -0.297204        -8.0873
 268   2.0000      -0.295317        -8.0360
 269   2.0000      -0.282503        -7.6873
 270   2.0000      -0.264881        -7.2078
 271   0.0000      -0.122233        -3.3261
 272   0.0000      -0.113548        -3.0898
 273   0.0000      -0.094336        -2.5670
 274   0.0000      -0.090661        -2.4670
 275   0.0000      -0.067234        -1.8295

MULLIKEN ATOMIC CHARGES
-----------------------
   0 C :    0.263635
   1 C :   -0.329420
   2 C :   -0.170468
   3 N :    0.164634
   4 C :   -0.202744
   5 N :    0.169095
   6 C :    0.028536
   7 C :    0.014916
   8 C :   -0.077778
   9 C :    0.093109
  10 C :    0.088771
  11 C :   -0.073373
  12 C :   -0.015555
  13 C :    0.037383
  14 C :    0.034371
  15 C :   -0.013702
  16 C :    0.136483
  17 O :   -0.143332
  18 C :   -0.135349
  19 C :    0.082011
  20 C :   -0.109240
  21 C :   -0.004279
  22 C :   -0.000202
  23 C :   -0.078017
  24 S :    0.217625
  25 C :   -0.098382
  26 C :    0.020505
  27 C :    0.305525
  28 C :   -0.286002
  29 C :   -0.195230
  30 N :    0.190498
  31 C :   -0.183458
  32 N :    0.171028
  33 C :   -0.048067
  34 C :   -0.043361
  35 S :    0.244537
  36 C :   -0.062077
  37 N :   -0.035433
  38 C :    0.007153
  39 C :    0.011087
  40 N :   -0.039257
  41 N :   -0.034898
  42 C :   -0.039346
  43 C :   -0.053991
  44 C :    0.038166
  45 C :   -0.097958
  46 S :    0.188965
  47 C :   -0.081416
  48 C :   -0.000962
  49 C :    0.305350
  50 C :   -0.292589
  51 C :   -0.191638
  52 N :    0.199772
  53 C :   -0.199170
  54 N :    0.191684
  55 C :   -0.013713
  56 C :   -0.114020
  57 S :    0.206888
  58 C :    0.035185
  59 C :   -0.084190
  60 C :    0.322989
  61 C :   -0.363691
  62 C :   -0.182348
  63 N :    0.148427
  64 C :   -0.186488
  65 N :    0.147715
  66 C :    0.049662
  67 C :   -0.002037
  68 C :    0.160376
  69 O :   -0.148095
  70 C :   -0.082717
  71 C :    0.100715
  72 C :    0.098207
  73 C :   -0.085523
  74 C :   -0.022085
  75 C :    0.039545
  76 C :    0.037239
  77 C :   -0.017742
  78 H :   -0.012003
  79 H :    0.000873
  80 H :   -0.008494
  81 H :   -0.004498
  82 H :   -0.004324
  83 H :   -0.017518
  84 H :    0.020528
  85 H :    0.026826
  86 H :    0.030874
  87 H :    0.023368
  88 H :    0.031981
  89 H :    0.042386
  90 H :    0.005085
  91 H :   -0.007920
  92 H :   -0.007918
  93 H :   -0.008347
  94 H :   -0.004989
  95 H :   -0.003387
  96 H :   -0.014968
Sum of atomic charges:    0.0000000

LOEWDIN ATOMIC CHARGES
----------------------
   0 C :    0.065018
   1 C :   -0.134633
   2 C :   -0.018624
   3 N :   -0.044181
   4 C :   -0.016128
   5 N :   -0.046276
   6 C :   -0.022919
   7 C :   -0.058200
   8 C :    0.033123
   9 C :   -0.009052
  10 C :   -0.004798
  11 C :    0.019794
  12 C :   -0.004984
  13 C :   -0.011912
  14 C :   -0.012630
  15 C :   -0.009357
  16 C :    0.083905
  17 O :   -0.143384
  18 C :   -0.085018
  19 C :    0.040342
  20 C :   -0.177387
  21 C :    0.006642
  22 C :   -0.060410
  23 C :   -0.165527
  24 S :    0.501570
  25 C :   -0.173894
  26 C :   -0.063847
  27 C :    0.079157
  28 C :   -0.093673
  29 C :   -0.020754
  30 N :   -0.019283
  31 C :   -0.011858
  32 N :   -0.031696
  33 C :    0.006779
  34 C :   -0.189826
  35 S :    0.515883
  36 C :   -0.012329
  37 N :   -0.065061
  38 C :    0.033720
  39 C :   -0.055522
  40 N :   -0.007577
  41 N :   -0.042432
  42 C :   -0.175234
  43 C :   -0.000169
  44 C :   -0.053876
  45 C :   -0.181817
  46 S :    0.480972
  47 C :   -0.164410
  48 C :   -0.070366
  49 C :    0.071176
  50 C :   -0.085759
  51 C :   -0.023156
  52 N :   -0.010389
  53 C :   -0.019668
  54 N :   -0.017779
  55 C :    0.015348
  56 C :   -0.172878
  57 S :    0.498382
  58 C :    0.040334
  59 C :   -0.091495
  60 C :    0.077903
  61 C :   -0.142764
  62 C :   -0.016872
  63 N :   -0.053752
  64 C :   -0.023353
  65 N :   -0.055116
  66 C :   -0.027352
  67 C :   -0.055904
  68 C :    0.087744
  69 O :   -0.135352
  70 C :    0.034673
  71 C :   -0.007671
  72 C :   -0.006022
  73 C :    0.020320
  74 C :   -0.005293
  75 C :   -0.012553
  76 C :   -0.011267
  77 C :   -0.008621
  78 H :    0.039351
  79 H :    0.040983
  80 H :    0.035343
  81 H :    0.033390
  82 H :    0.032945
  83 H :    0.031820
  84 H :    0.045895
  85 H :    0.042535
  86 H :    0.050432
  87 H :    0.026256
  88 H :    0.050150
  89 H :    0.043526
  90 H :    0.042076
  91 H :    0.040933
  92 H :    0.039096
  93 H :    0.034940
  94 H :    0.033313
  95 H :    0.033444
  96 H :    0.032847

  Mayer bond orders larger than 0.100000
B(  0-C ,  1-C ) :   1.6576 B(  0-C ,  6-C ) :   0.9979 B(  0-C , 18-C ) :   1.0284
B(  1-C ,  2-C ) :   1.1299 B(  1-C ,  4-C ) :   1.1695 B(  2-C ,  3-N ) :   2.9963
B(  4-C ,  5-N ) :   2.9988 B(  6-C ,  7-C ) :   1.2140 B(  6-C , 11-C ) :   1.4600
B(  7-C ,  8-C ) :   1.4734 B(  7-C , 16-C ) :   0.9224 B(  8-C ,  9-C ) :   1.1868
B(  8-C , 78-H ) :   1.0150 B(  9-C , 10-C ) :   1.2555 B(  9-C , 15-C ) :   1.2443
B( 10-C , 11-C ) :   1.2061 B( 10-C , 12-C ) :   1.2422 B( 11-C , 79-H ) :   0.9943
B( 12-C , 13-C ) :   1.4900 B( 12-C , 80-H ) :   0.9973 B( 13-C , 14-C ) :   1.2600
B( 13-C , 81-H ) :   0.9889 B( 14-C , 15-C ) :   1.4891 B( 14-C , 82-H ) :   0.9894
B( 15-C , 83-H ) :   0.9973 B( 16-C , 17-O ) :   2.2677 B( 16-C , 18-C ) :   0.9366
B( 18-C , 19-C ) :   1.6859 B( 19-C , 20-C ) :   1.1279 B( 19-C , 84-H ) :   0.9290
B( 20-C , 21-C ) :   1.4033 B( 20-C , 24-S ) :   1.0966 B( 21-C , 22-C ) :   1.3526
B( 21-C , 85-H ) :   0.9790 B( 22-C , 23-C ) :   1.4203 B( 22-C , 27-C ) :   0.9980
B( 23-C , 24-S ) :   1.1496 B( 23-C , 25-C ) :   1.1946 B( 25-C , 26-C ) :   1.4262
B( 25-C , 35-S ) :   1.1336 B( 26-C , 27-C ) :   0.9923 B( 26-C , 33-C ) :   1.2621
B( 27-C , 28-C ) :   1.7225 B( 28-C , 29-C ) :   1.1320 B( 28-C , 31-C ) :   1.1349
B( 29-C , 30-N ) :   3.0029 B( 31-C , 32-N ) :   2.9798 B( 33-C , 34-C ) :   1.4731
B( 33-C , 86-H ) :   1.0098 B( 34-C , 35-S ) :   1.1088 B( 34-C , 36-C ) :   1.0569
B( 36-C , 37-N ) :   1.5234 B( 36-C , 41-N ) :   1.5733 B( 37-N , 38-C ) :   1.6239
B( 38-C , 39-C ) :   1.2488 B( 38-C , 87-H ) :   0.9733 B( 39-C , 40-N ) :   1.5414
B( 39-C , 42-C ) :   1.0797 B( 40-N , 41-N ) :   1.3649 B( 42-C , 43-C ) :   1.4708
B( 42-C , 46-S ) :   1.1138 B( 43-C , 44-C ) :   1.2459 B( 43-C , 88-H ) :   1.0135
B( 44-C , 45-C ) :   1.4336 B( 44-C , 49-C ) :   0.9887 B( 45-C , 46-S ) :   1.1244
B( 45-C , 47-C ) :   1.1996 B( 47-C , 48-C ) :   1.3886 B( 47-C , 57-S ) :   1.1620
B( 48-C , 49-C ) :   0.9969 B( 48-C , 55-C ) :   1.3005 B( 49-C , 50-C ) :   1.7250
B( 50-C , 51-C ) :   1.1362 B( 50-C , 53-C ) :   1.1351 B( 51-C , 52-N ) :   2.9974
B( 53-C , 54-N ) :   2.9983 B( 55-C , 56-C ) :   1.4059 B( 55-C , 89-H ) :   0.9684
B( 56-C , 57-S ) :   1.0819 B( 56-C , 58-C ) :   1.2096 B( 58-C , 59-C ) :   1.6056
B( 58-C , 90-H ) :   0.9061 B( 59-C , 60-C ) :   1.0809 B( 59-C , 68-C ) :   0.9311
B( 60-C , 61-C ) :   1.6146 B( 60-C , 66-C ) :   0.9847 B( 61-C , 62-C ) :   1.1518
B( 61-C , 64-C ) :   1.1419 B( 62-C , 63-N ) :   2.9622 B( 64-C , 65-N ) :   2.9620
B( 66-C , 67-C ) :   1.2170 B( 66-C , 73-C ) :   1.4437 B( 67-C , 68-C ) :   0.9555
B( 67-C , 70-C ) :   1.4692 B( 68-C , 69-O ) :   2.1644 B( 70-C , 71-C ) :   1.1745
B( 70-C , 91-H ) :   1.0181 B( 71-C , 72-C ) :   1.2579 B( 71-C , 77-C ) :   1.2433
B( 72-C , 73-C ) :   1.2073 B( 72-C , 74-C ) :   1.2380 B( 73-C , 92-H ) :   0.9903
B( 74-C , 75-C ) :   1.4909 B( 74-C , 93-H ) :   0.9976 B( 75-C , 76-C ) :   1.2605
B( 75-C , 94-H ) :   0.9875 B( 76-C , 77-C ) :   1.4883 B( 76-C , 95-H ) :   0.9880
B( 77-C , 96-H ) :   0.9985

-----------------------------------------------------------------------------
         ABSORPTION SPECTRUM VIA TRANSITION ELECTRIC DIPOLE MOMENTS
-----------------------------------------------------------------------------
State   Energy  Wavelength   fosc         T2         TX        TY        TZ
        (cm-1)    (nm)                  (au**2)     (au)      (au)      (au)
-----------------------------------------------------------------------------
   0   14739.4    678.5   0.877391309  19.59700  -1.32900   4.11237  -0.95872
   1   15544.9    643.3   0.031882077   0.67520   0.04398  -0.73055   0.37359
   2   20711.2    482.8   1.877939137  29.85056   1.48032  -5.07080   1.39508
   3   22278.4    448.9   0.357665009   5.28528   0.48347  -1.99467   1.03578
   4   23344.0    428.4   0.017068952   0.24072  -0.11952  -0.37325   0.29516
   5   23656.5    422.7   0.001962362   0.02731   0.07069   0.03024   0.14628
   6   24698.8    404.9   0.039317810   0.52407   0.58185  -0.33044  -0.27627
   7   25140.5    397.8   0.044737782   0.58584  -0.00865  -0.75869  -0.10072
   8   25677.7    389.4   0.028985738   0.37162  -0.03322   0.29093  -0.53468
   9   26714.5    374.3   0.011791539   0.14531  -0.37215  -0.08045  -0.01848
  10   27323.0    366.0   0.209849728   2.52846  -0.70376   1.41120  -0.20417
  11   27599.5    362.3   0.007591653   0.09055  -0.06903   0.29280  -0.00755
  12   27889.3    358.6   0.187806627   2.21692   0.79756  -1.25496  -0.07670
  13   28407.2    352.0   0.178838461   2.07256  -0.80572   1.15152   0.31205
  14   28446.5    351.5   0.003831123   0.04434   0.20199  -0.05091  -0.03075
  15   28705.3    348.4   0.006969835   0.07993  -0.06560  -0.21857  -0.16691
  16   29318.6    341.1   0.042705462   0.47953   0.21420  -0.36926  -0.54525
  17   29388.3    340.3   0.012878915   0.14427   0.17455  -0.26091  -0.21385
  18   29957.5    333.8   0.207553964   2.28088   0.34426  -0.16792   1.46088
  19   30145.3    331.7   0.066853714   0.73010   0.02610  -0.14767  -0.84120
  20   30295.2    330.1   0.245039947   2.66280   0.34289  -1.04076  -1.20915
  21   30764.2    325.1   0.153354484   1.64107   1.10176  -0.64343   0.11481
  22   30939.1    323.2   0.136406577   1.45145  -0.32888   1.13972  -0.21056
  23   31329.3    319.2   0.086753646   0.91162   0.10532  -0.57251  -0.75681
  24   31555.8    316.9   0.287648584   3.00095  -0.04253  -0.06187  -1.73070
  25   31765.9    314.8   0.052902476   0.54827  -0.28835   0.66926  -0.13121
  26   31823.6    314.2   0.289236631   2.99212   0.86514  -1.49788   0.00356
  27   32000.5    312.5   0.217508838   2.23767   0.58366  -0.76918   1.14253
  28   32536.2    307.4   0.036181997   0.36610  -0.04081  -0.02185   0.60329
  29   32691.0    305.9   0.088174172   0.88795  -0.02859  -0.86010  -0.38387
  30   32956.4    303.4   0.154029496   1.53865   0.50050  -1.05007  -0.43071
  31   33130.2    301.8   0.160637991   1.59624  -0.31950   1.21549   0.12944
  32   33289.8    300.4   0.028012110   0.27702  -0.01170  -0.26601  -0.45400
  33   33345.6    299.9   0.158035777   1.56024   0.56269  -0.83283   0.74163
  34   34148.3    292.8   0.117454438   1.13234   0.84895   0.09112   0.63508
  35   34309.6    291.5   0.096274674   0.92379   0.60239  -0.68012  -0.31361
  36   34375.7    290.9   0.390180358   3.73671   1.33129  -1.34369  -0.39859
  37   34602.7    289.0   0.295314389   2.80964  -0.38767   1.00669   1.28294
  38   34883.4    286.7   0.185493638   1.75059  -0.05573  -0.23821  -1.30029
  39   35090.9    285.0   0.076869881   0.72117  -0.62042   0.36574  -0.44998
  40   35163.6    284.4   0.204461744   1.91423  -0.84983   0.87739   0.64978
  41   35495.2    281.7   0.086482499   0.80211   0.35456  -0.16864   0.80496
  42   35763.3    279.6   0.197191002   1.81520  -0.12855   0.24134   1.31925
  43   36550.6    273.6   0.066459230   0.59860   0.58899  -0.28409   0.41350
  44   36914.0    270.9   0.011709475   0.10443  -0.22549   0.21554  -0.08440
  45   37078.4    269.7   0.030332106   0.26931  -0.30906   0.34916  -0.22777
  46   37377.3    267.5   0.009061817   0.07981  -0.03091  -0.18176   0.21406
  47   37926.0    263.7   0.035523018   0.30835  -0.08822   0.18244   0.51699
  48   38108.1    262.4   0.027443708   0.23708   0.09001  -0.06476  -0.47412
  49   38141.3    262.2   0.008106455   0.06997  -0.04837  -0.06513   0.25177
  50   38382.0    260.5   0.016516206   0.14166  -0.23903   0.29069   0.00516
  51   38754.2    258.0   0.062652087   0.53222   0.00930   0.02322   0.72911
  52   38896.1    257.1   0.039356570   0.33311   0.19176  -0.35340  -0.41406
  53   38970.3    256.6   0.006267387   0.05295  -0.08540   0.21139   0.03108
  54   39268.5    254.7   0.047141278   0.39521   0.01838   0.17638  -0.60313
  55   39554.3    252.8   0.026289179   0.21881  -0.26332   0.02508   0.38579
  56   39697.7    251.9   0.013022166   0.10799   0.06613   0.11771  -0.29960
  57   39798.9    251.3   0.108873482   0.90059  -0.51636  -0.07395   0.79277
  58   39854.0    250.9   0.015770127   0.13027  -0.05739   0.29005  -0.20699
  59   40051.9    249.7   0.264965767   2.17792  -0.20609   1.00038  -1.06522
  60   40264.4    248.4   0.023202748   0.18971   0.18161   0.27319  -0.28652

FINAL SINGLE POINT ENERGY     -4676.801595242814

DIPOLE MOMENT
-------------
                                X             Y             Z
Electronic contribution:     -7.94794      -7.31554     -13.17332
Nuclear contribution   :      9.03168       7.44225      11.63092
                        -----------------------------------------
Total Dipole Moment    :      1.08374       0.12671      -1.54239
                        -----------------------------------------
Magnitude (a.u.)       :      1.88932
Magnitude (Debye)      :      4.80227

Rotational constants in cm-1:     0.003153     0.000143     0.000139
Rotational constants in MHz :    94.536346     4.286502     4.156769

                             ****ORCA TERMINATED NORMALLY****
TOTAL RUN TIME: 0 days 0 hours 14 minutes 9 seconds 27 msec
