                         Program Version 4.2.0 -  RELEASE  -
|  1> # ORCA input file
|  2> # SCF done       -206.528217353083          0.000655961933
|  3> ! CAM-B3LYP def2-SVP def2/J RIJCOSX Grid4 TightSCF
|  4> %maxcore 5000
|  5> %tddft
|  6>     Mode sTDDFT
|  7>     Ethresh 5.0
|  8>     maxcore 5000
|  9> end
| 10>
| 11> %pal
| 12>   nprocs 6
| 13>   end
| 14> * xyz 0 1
| 15>    C       11.22335        -4.74380        11.30966
| 16>    C       10.97179        -4.71147        12.65314
| 17>    F       11.97390        -4.94212        13.51982
| 18>    C        9.69774        -4.44451        13.17290
| 19>    C        8.66619        -4.20795        12.30737
| 20>    C        8.86898        -4.22876        10.91216
| 21>    C       10.17230        -4.50350        10.40363
| 22>    C       10.39920        -4.53757         9.00799
| 23>    C        9.35718        -4.30056         8.15317
| 24>    C        8.05941        -4.01085         8.66684
| 25>    C        7.81131        -3.97922        10.00898
| 26>    C        7.13421        -3.75532         7.54588
| 27>    O        5.94952        -3.52327         7.59415
| 28>    C        7.99203        -3.77517         6.32545
| 29>    C        9.28601        -4.30772         6.69525
| 30>    C       10.17435        -4.93589         5.86209
| 31>    C        9.92324        -5.17396         4.49481
| 32>    N        9.73453        -5.42721         3.39119
| 33>    C       11.40277        -5.47996         6.28534
| 34>    N       12.42957        -5.90910         6.56770
| 35>    C        7.52990        -3.22842         5.16555
| 36>    C        8.32581        -2.78306         4.08131
| 37>    O        9.63661        -2.56746         4.29404
| 38>    C       10.20616        -2.12304         3.15775
| 39>    C        9.22558        -2.03562         2.14908
| 40>    C        8.01709        -2.45011         2.75276
| 41>    C        6.66328        -2.56943         2.13995
| 42>    F        5.74387        -3.05490         2.97771
| 43>    F        6.18099        -1.37740         1.72299
| 44>    F        6.63718        -3.37319         1.06243
| 45>    O        9.56066        -1.60079         0.93076
| 46>    C        8.61987        -1.55103        -0.12837
| 47>    C       11.59268        -1.85648         3.17165
| 48>    C       12.32391        -1.50061         2.08149
| 49>    C       13.71416        -1.25261         2.05414
| 50>    S       14.52908        -1.39298         0.53117
| 51>    C       16.09851        -1.14663         1.21554
| 52>    C       15.98787        -0.86218         2.58769
| 53>    C       14.63767        -0.92576         3.06430
| 54>    C       14.35792        -0.58950         4.40246
| 55>    C       15.38303        -0.23932         5.23347
| 56>    F       15.12419         0.08890         6.50886
| 57>    C       16.71224        -0.17534         4.76408
| 58>    F       17.68554         0.21271         5.60398
| 59>    C       17.01519        -0.46291         3.46491
| 60>    C       17.22357        -1.28742         0.36043
| 61>    C       18.50398        -1.53313         0.72362
| 62>    C       19.55550        -1.66724        -0.23529
| 63>    C       20.84633        -1.91564         0.04841
| 64>    C       21.38311        -2.06730         1.43909
| 65>    C       21.86875        -1.97923        -1.06083
| 66>    N       22.73199        -0.81987        -1.02520
| 67>    C       22.45080         0.32752        -1.64013
| 68>    C       23.18295         1.47452        -1.50661
| 69>    C       22.90358         2.69824        -2.12945
| 70>    C       22.05891         3.03876        -3.16182
| 71>    C       21.63835         4.45763        -3.25571
| 72>    O       22.08416         5.39206        -2.62371
| 73>    C       20.53536         4.48379        -4.23790
| 74>    C       19.73402         5.52309        -4.60837
| 75>    C       18.70721         5.29848        -5.55402
| 76>    C       18.53108         3.99167        -6.09282
| 77>    C       17.50076         3.77085        -7.02709
| 78>    C       16.69707         4.81232        -7.39865
| 79>    C       16.85562         6.10500        -6.88277
| 80>    C       17.85031         6.33600        -5.97320
| 81>    F       15.71053         4.60197        -8.29160
| 82>    C       19.38492         2.93530        -5.69513
| 83>    C       20.37709         3.18034        -4.78613
| 84>    C       21.40865         2.31023        -4.21610
| 85>    C       21.80027         1.11600        -4.78063
| 86>    C       22.93273         0.39163        -4.37630
| 87>    N       23.84226        -0.24025        -4.06791
| 88>    C       21.14467         0.49630        -5.86045
| 89>    N       20.63740        -0.08026        -6.71527
| 90>    H       12.21629        -4.95534        10.94481
| 91>    H        9.55942        -4.43138        14.24233
| 92>    H        7.67614        -4.00004        12.68421
| 93>    H       11.39599        -4.74046         8.64924
| 94>    H        6.81947        -3.76586        10.37823
| 95>    H        6.46546        -3.04126         5.12340
| 96>    H        9.17088        -1.13701        -0.97127
| 97>    H        7.78031        -0.89481         0.10578
| 98>    H        8.25966        -2.54755        -0.38888
| 99>    H       12.06357        -2.02231         4.12854
|100>    H       11.82138        -1.46576         1.12569
|101>    H       13.34929        -0.56081         4.77591
|102>    H       18.02750        -0.33612         3.12292
|103>    H       16.99348        -1.24557        -0.69774
|104>    H       18.75868        -1.66657         1.76169
|105>    H       19.26204        -1.55912        -1.27192
|106>    H       20.76192        -2.73980         2.02584
|107>    H       21.40635        -1.10466         1.95014
|108>    H       22.39335        -2.46769         1.42261
|109>    H       21.37424        -2.01505        -2.03437
|110>    H       22.48841        -2.87388        -0.95471
|111>    H       23.55538        -0.85656        -0.44290
|112>    H       21.54137         0.32314        -2.22513
|113>    H       24.01538         1.46311        -0.81578
|114>    H       23.37455         3.56550        -1.67409
|115>    H       19.87954         6.50605        -4.18607
|116>    H       17.35267         2.78901        -7.44913
|117>    H       16.19183         6.88800        -7.21353
|118>    H       17.99245         7.32389        -5.56131
|119>    H       19.22321         1.95636        -6.11772
|120> *
|121>
|122>                          ****END OF INPUT****

CARTESIAN COORDINATES (ANGSTROEM)
---------------------------------
  C     11.223350   -4.743800   11.309660
  C     10.971790   -4.711470   12.653140
  F     11.973900   -4.942120   13.519820
  C      9.697740   -4.444510   13.172900
  C      8.666190   -4.207950   12.307370
  C      8.868980   -4.228760   10.912160
  C     10.172300   -4.503500   10.403630
  C     10.399200   -4.537570    9.007990
  C      9.357180   -4.300560    8.153170
  C      8.059410   -4.010850    8.666840
  C      7.811310   -3.979220   10.008980
  C      7.134210   -3.755320    7.545880
  O      5.949520   -3.523270    7.594150
  C      7.992030   -3.775170    6.325450
  C      9.286010   -4.307720    6.695250
  C     10.174350   -4.935890    5.862090
  C      9.923240   -5.173960    4.494810
  N      9.734530   -5.427210    3.391190
  C     11.402770   -5.479960    6.285340
  N     12.429570   -5.909100    6.567700
  C      7.529900   -3.228420    5.165550
  C      8.325810   -2.783060    4.081310
  O      9.636610   -2.567460    4.294040
  C     10.206160   -2.123040    3.157750
  C      9.225580   -2.035620    2.149080
  C      8.017090   -2.450110    2.752760
  C      6.663280   -2.569430    2.139950
  F      5.743870   -3.054900    2.977710
  F      6.180990   -1.377400    1.722990
  F      6.637180   -3.373190    1.062430
  O      9.560660   -1.600790    0.930760
  C      8.619870   -1.551030   -0.128370
  C     11.592680   -1.856480    3.171650
  C     12.323910   -1.500610    2.081490
  C     13.714160   -1.252610    2.054140
  S     14.529080   -1.392980    0.531170
  C     16.098510   -1.146630    1.215540
  C     15.987870   -0.862180    2.587690
  C     14.637670   -0.925760    3.064300
  C     14.357920   -0.589500    4.402460
  C     15.383030   -0.239320    5.233470
  F     15.124190    0.088900    6.508860
  C     16.712240   -0.175340    4.764080
  F     17.685540    0.212710    5.603980
  C     17.015190   -0.462910    3.464910
  C     17.223570   -1.287420    0.360430
  C     18.503980   -1.533130    0.723620
  C     19.555500   -1.667240   -0.235290
  C     20.846330   -1.915640    0.048410
  C     21.383110   -2.067300    1.439090
  C     21.868750   -1.979230   -1.060830
  N     22.731990   -0.819870   -1.025200
  C     22.450800    0.327520   -1.640130
  C     23.182950    1.474520   -1.506610
  C     22.903580    2.698240   -2.129450
  C     22.058910    3.038760   -3.161820
  C     21.638350    4.457630   -3.255710
  O     22.084160    5.392060   -2.623710
  C     20.535360    4.483790   -4.237900
  C     19.734020    5.523090   -4.608370
  C     18.707210    5.298480   -5.554020
  C     18.531080    3.991670   -6.092820
  C     17.500760    3.770850   -7.027090
  C     16.697070    4.812320   -7.398650
  C     16.855620    6.105000   -6.882770
  C     17.850310    6.336000   -5.973200
  F     15.710530    4.601970   -8.291600
  C     19.384920    2.935300   -5.695130
  C     20.377090    3.180340   -4.786130
  C     21.408650    2.310230   -4.216100
  C     21.800270    1.116000   -4.780630
  C     22.932730    0.391630   -4.376300
  N     23.842260   -0.240250   -4.067910
  C     21.144670    0.496300   -5.860450
  N     20.637400   -0.080260   -6.715270
  H     12.216290   -4.955340   10.944810
  H      9.559420   -4.431380   14.242330
  H      7.676140   -4.000040   12.684210
  H     11.395990   -4.740460    8.649240
  H      6.819470   -3.765860   10.378230
  H      6.465460   -3.041260    5.123400
  H      9.170880   -1.137010   -0.971270
  H      7.780310   -0.894810    0.105780
  H      8.259660   -2.547550   -0.388880
  H     12.063570   -2.022310    4.128540
  H     11.821380   -1.465760    1.125690
  H     13.349290   -0.560810    4.775910
  H     18.027500   -0.336120    3.122920
  H     16.993480   -1.245570   -0.697740
  H     18.758680   -1.666570    1.761690
  H     19.262040   -1.559120   -1.271920
  H     20.761920   -2.739800    2.025840
  H     21.406350   -1.104660    1.950140
  H     22.393350   -2.467690    1.422610
  H     21.374240   -2.015050   -2.034370
  H     22.488410   -2.873880   -0.954710
  H     23.555380   -0.856560   -0.442900
  H     21.541370    0.323140   -2.225130
  H     24.015380    1.463110   -0.815780
  H     23.374550    3.565500   -1.674090
  H     19.879540    6.506050   -4.186070
  H     17.352670    2.789010   -7.449130
  H     16.191830    6.888000   -7.213530
  H     17.992450    7.323890   -5.561310
  H     19.223210    1.956360   -6.117720

 Total Charge           Charge          ....    0
 Multiplicity           Mult            ....    1
 Number of Electrons    NEL             ....  524
 Basis Dimension        Dim             .... 1204

ORBITAL ENERGIES
----------------

  NO   OCC          E(Eh)            E(eV)
   0   2.0000     -88.979195     -2421.2470
   1   2.0000     -24.818133      -675.3357
   2   2.0000     -24.811765      -675.1624
   3   2.0000     -24.810776      -675.1355
   4   2.0000     -24.793998      -674.6790
   5   2.0000     -24.793437      -674.6637
   6   2.0000     -24.786369      -674.4714
   7   2.0000     -24.778793      -674.2652
   8   2.0000     -19.318003      -525.6696
   9   2.0000     -19.277683      -524.5724
  10   2.0000     -19.214601      -522.8559
  11   2.0000     -19.195325      -522.3314
  12   2.0000     -14.471805      -393.7978
  13   2.0000     -14.416648      -392.2969
  14   2.0000     -14.413714      -392.2171
  15   2.0000     -14.407715      -392.0539
  16   2.0000     -14.402711      -391.9177
  17   2.0000     -10.539493      -286.7942
  18   2.0000     -10.375823      -282.3405
  19   2.0000     -10.375464      -282.3307
  20   2.0000     -10.369980      -282.1815
  21   2.0000     -10.367073      -282.1024
  22   2.0000     -10.366331      -282.0822
  23   2.0000     -10.366249      -282.0800
  24   2.0000     -10.361325      -281.9460
  25   2.0000     -10.355547      -281.7888
  26   2.0000     -10.351877      -281.6889
  27   2.0000     -10.347514      -281.5702
  28   2.0000     -10.342732      -281.4400
  29   2.0000     -10.340701      -281.3848
  30   2.0000     -10.336517      -281.2709
  31   2.0000     -10.332393      -281.1587
  32   2.0000     -10.329716      -281.0859
  33   2.0000     -10.324287      -280.9381
  34   2.0000     -10.322842      -280.8988
  35   2.0000     -10.321532      -280.8632
  36   2.0000     -10.320567      -280.8369
  37   2.0000     -10.319173      -280.7990
  38   2.0000     -10.318814      -280.7892
  39   2.0000     -10.316669      -280.7308
  40   2.0000     -10.310159      -280.5537
  41   2.0000     -10.307571      -280.4833
  42   2.0000     -10.306604      -280.4570
  43   2.0000     -10.306451      -280.4528
  44   2.0000     -10.305611      -280.4299
  45   2.0000     -10.304189      -280.3912
  46   2.0000     -10.303765      -280.3797
  47   2.0000     -10.301549      -280.3194
  48   2.0000     -10.301412      -280.3157
  49   2.0000     -10.301124      -280.3078
  50   2.0000     -10.300381      -280.2876
  51   2.0000     -10.299214      -280.2559
  52   2.0000     -10.298383      -280.2333
  53   2.0000     -10.298138      -280.2266
  54   2.0000     -10.297526      -280.2099
  55   2.0000     -10.297015      -280.1960
  56   2.0000     -10.296766      -280.1892
  57   2.0000     -10.296370      -280.1785
  58   2.0000     -10.295917      -280.1661
  59   2.0000     -10.294798      -280.1357
  60   2.0000     -10.294042      -280.1151
  61   2.0000     -10.291343      -280.0417
  62   2.0000     -10.290508      -280.0190
  63   2.0000     -10.289906      -280.0026
  64   2.0000     -10.289577      -279.9936
  65   2.0000     -10.289371      -279.9880
  66   2.0000     -10.288291      -279.9586
  67   2.0000     -10.287496      -279.9370
  68   2.0000     -10.286553      -279.9113
  69   2.0000     -10.285179      -279.8740
  70   2.0000     -10.284526      -279.8562
  71   2.0000     -10.281303      -279.7685
  72   2.0000     -10.277163      -279.6558
  73   2.0000     -10.273598      -279.5588
  74   2.0000     -10.272649      -279.5330
  75   2.0000      -8.074685      -219.7233
  76   2.0000      -6.043524      -164.4526
  77   2.0000      -6.039531      -164.3440
  78   2.0000      -6.037597      -164.2914
  79   2.0000      -1.405327       -38.2409
  80   2.0000      -1.315779       -35.8042
  81   2.0000      -1.308488       -35.6058
  82   2.0000      -1.301904       -35.4266
  83   2.0000      -1.301425       -35.4136
  84   2.0000      -1.301002       -35.4021
  85   2.0000      -1.293149       -35.1884
  86   2.0000      -1.242389       -33.8071
  87   2.0000      -1.179860       -32.1056
  88   2.0000      -1.130415       -30.7602
  89   2.0000      -1.110508       -30.2185
  90   2.0000      -1.070386       -29.1267
  91   2.0000      -1.018672       -27.7195
  92   2.0000      -1.013963       -27.5913
  93   2.0000      -1.007541       -27.4166
  94   2.0000      -1.000818       -27.2336
  95   2.0000      -0.994005       -27.0483
  96   2.0000      -0.990584       -26.9551
  97   2.0000      -0.984082       -26.7782
  98   2.0000      -0.977273       -26.5930
  99   2.0000      -0.964956       -26.2578
 100   2.0000      -0.953772       -25.9535
 101   2.0000      -0.944977       -25.7141
 102   2.0000      -0.939955       -25.5775
 103   2.0000      -0.935341       -25.4519
 104   2.0000      -0.925582       -25.1864
 105   2.0000      -0.919002       -25.0073
 106   2.0000      -0.912094       -24.8193
 107   2.0000      -0.901738       -24.5375
 108   2.0000      -0.895660       -24.3722
 109   2.0000      -0.887250       -24.1433
 110   2.0000      -0.882517       -24.0145
 111   2.0000      -0.878197       -23.8970
 112   2.0000      -0.873340       -23.7648
 113   2.0000      -0.867315       -23.6009
 114   2.0000      -0.852885       -23.2082
 115   2.0000      -0.845328       -23.0025
 116   2.0000      -0.838819       -22.8254
 117   2.0000      -0.835413       -22.7327
 118   2.0000      -0.829262       -22.5654
 119   2.0000      -0.824292       -22.4301
 120   2.0000      -0.817134       -22.2353
 121   2.0000      -0.804289       -21.8858
 122   2.0000      -0.803625       -21.8677
 123   2.0000      -0.797498       -21.7010
 124   2.0000      -0.778205       -21.1760
 125   2.0000      -0.766027       -20.8447
 126   2.0000      -0.759346       -20.6628
 127   2.0000      -0.748649       -20.3718
 128   2.0000      -0.744647       -20.2629
 129   2.0000      -0.740597       -20.1527
 130   2.0000      -0.733197       -19.9513
 131   2.0000      -0.731122       -19.8948
 132   2.0000      -0.721326       -19.6283
 133   2.0000      -0.714041       -19.4300
 134   2.0000      -0.709981       -19.3196
 135   2.0000      -0.709066       -19.2947
 136   2.0000      -0.702326       -19.1113
 137   2.0000      -0.699136       -19.0245
 138   2.0000      -0.694832       -18.9073
 139   2.0000      -0.686981       -18.6937
 140   2.0000      -0.681177       -18.5358
 141   2.0000      -0.676380       -18.4052
 142   2.0000      -0.675252       -18.3745
 143   2.0000      -0.671197       -18.2642
 144   2.0000      -0.668384       -18.1877
 145   2.0000      -0.661038       -17.9878
 146   2.0000      -0.654471       -17.8091
 147   2.0000      -0.642807       -17.4917
 148   2.0000      -0.640404       -17.4263
 149   2.0000      -0.635725       -17.2989
 150   2.0000      -0.632878       -17.2215
 151   2.0000      -0.629141       -17.1198
 152   2.0000      -0.623818       -16.9750
 153   2.0000      -0.622515       -16.9395
 154   2.0000      -0.619286       -16.8516
 155   2.0000      -0.616896       -16.7866
 156   2.0000      -0.611809       -16.6482
 157   2.0000      -0.610275       -16.6064
 158   2.0000      -0.608956       -16.5705
 159   2.0000      -0.599337       -16.3088
 160   2.0000      -0.597646       -16.2628
 161   2.0000      -0.589198       -16.0329
 162   2.0000      -0.587199       -15.9785
 163   2.0000      -0.582193       -15.8423
 164   2.0000      -0.581141       -15.8137
 165   2.0000      -0.577506       -15.7147
 166   2.0000      -0.574028       -15.6201
 167   2.0000      -0.570030       -15.5113
 168   2.0000      -0.566091       -15.4041
 169   2.0000      -0.563608       -15.3365
 170   2.0000      -0.559921       -15.2362
 171   2.0000      -0.558906       -15.2086
 172   2.0000      -0.558005       -15.1841
 173   2.0000      -0.557696       -15.1757
 174   2.0000      -0.555528       -15.1167
 175   2.0000      -0.553129       -15.0514
 176   2.0000      -0.551699       -15.0125
 177   2.0000      -0.550992       -14.9933
 178   2.0000      -0.550511       -14.9802
 179   2.0000      -0.547344       -14.8940
 180   2.0000      -0.545674       -14.8485
 181   2.0000      -0.542989       -14.7755
 182   2.0000      -0.542233       -14.7549
 183   2.0000      -0.536825       -14.6078
 184   2.0000      -0.533263       -14.5108
 185   2.0000      -0.532502       -14.4901
 186   2.0000      -0.528908       -14.3923
 187   2.0000      -0.523944       -14.2572
 188   2.0000      -0.523118       -14.2348
 189   2.0000      -0.522584       -14.2202
 190   2.0000      -0.519919       -14.1477
 191   2.0000      -0.518817       -14.1177
 192   2.0000      -0.514750       -14.0071
 193   2.0000      -0.514679       -14.0051
 194   2.0000      -0.511997       -13.9322
 195   2.0000      -0.510193       -13.8831
 196   2.0000      -0.507766       -13.8170
 197   2.0000      -0.506305       -13.7773
 198   2.0000      -0.503859       -13.7107
 199   2.0000      -0.500157       -13.6100
 200   2.0000      -0.499302       -13.5867
 201   2.0000      -0.497348       -13.5335
 202   2.0000      -0.496493       -13.5103
 203   2.0000      -0.491738       -13.3809
 204   2.0000      -0.488615       -13.2959
 205   2.0000      -0.485964       -13.2238
 206   2.0000      -0.484834       -13.1930
 207   2.0000      -0.482178       -13.1207
 208   2.0000      -0.482016       -13.1163
 209   2.0000      -0.478619       -13.0239
 210   2.0000      -0.476494       -12.9661
 211   2.0000      -0.473596       -12.8872
 212   2.0000      -0.472244       -12.8504
 213   2.0000      -0.469908       -12.7868
 214   2.0000      -0.468102       -12.7377
 215   2.0000      -0.465285       -12.6610
 216   2.0000      -0.464619       -12.6429
 217   2.0000      -0.458488       -12.4761
 218   2.0000      -0.457355       -12.4453
 219   2.0000      -0.456095       -12.4110
 220   2.0000      -0.451203       -12.2779
 221   2.0000      -0.448672       -12.2090
 222   2.0000      -0.447300       -12.1717
 223   2.0000      -0.446022       -12.1369
 224   2.0000      -0.443987       -12.0815
 225   2.0000      -0.442187       -12.0325
 226   2.0000      -0.439675       -11.9642
 227   2.0000      -0.438000       -11.9186
 228   2.0000      -0.435488       -11.8502
 229   2.0000      -0.433489       -11.7958
 230   2.0000      -0.431504       -11.7418
 231   2.0000      -0.428732       -11.6664
 232   2.0000      -0.428624       -11.6635
 233   2.0000      -0.428137       -11.6502
 234   2.0000      -0.426232       -11.5983
 235   2.0000      -0.421557       -11.4712
 236   2.0000      -0.419617       -11.4184
 237   2.0000      -0.419216       -11.4074
 238   2.0000      -0.415379       -11.3030
 239   2.0000      -0.414645       -11.2831
 240   2.0000      -0.407836       -11.0978
 241   2.0000      -0.405099       -11.0233
 242   2.0000      -0.398535       -10.8447
 243   2.0000      -0.393695       -10.7130
 244   2.0000      -0.387593       -10.5469
 245   2.0000      -0.382614       -10.4114
 246   2.0000      -0.375700       -10.2233
 247   2.0000      -0.371062       -10.0971
 248   2.0000      -0.361761        -9.8440
 249   2.0000      -0.351026        -9.5519
 250   2.0000      -0.345284        -9.3956
 251   2.0000      -0.334917        -9.1135
 252   2.0000      -0.323983        -8.8160
 253   2.0000      -0.322151        -8.7662
 254   2.0000      -0.320540        -8.7223
 255   2.0000      -0.313414        -8.5284
 256   2.0000      -0.304912        -8.2971
 257   2.0000      -0.299668        -8.1544
 258   2.0000      -0.290622        -7.9082
 259   2.0000      -0.285340        -7.7645
 260   2.0000      -0.262150        -7.1335
 261   2.0000      -0.234876        -6.3913
 262   0.0000      -0.104532        -2.8445
 263   0.0000      -0.074279        -2.0212
 264   0.0000      -0.071056        -1.9335
 265   0.0000      -0.053995        -1.4693
 266   0.0000      -0.040721        -1.1081

MULLIKEN ATOMIC CHARGES
-----------------------
   0 C :   -0.095848
   1 C :    0.303356
   2 F :   -0.189686
   3 C :   -0.032341
   4 C :   -0.007142
   5 C :    0.098388
   6 C :    0.100691
   7 C :   -0.086332
   8 C :    0.043868
   9 C :    0.004190
  10 C :   -0.075813
  11 C :    0.139365
  12 O :   -0.139618
  13 C :   -0.121638
  14 C :    0.275232
  15 C :   -0.326922
  16 C :   -0.200141
  17 N :    0.159885
  18 C :   -0.175830
  19 N :    0.150478
  20 C :    0.010200
  21 C :    0.080672
  22 O :   -0.191395
  23 C :    0.159995
  24 C :    0.139085
  25 C :   -0.110048
  26 C :    0.511262
  27 F :   -0.140120
  28 F :   -0.164096
  29 F :   -0.154924
  30 O :   -0.302047
  31 C :    0.178605
  32 C :   -0.054803
  33 C :    0.049427
  34 C :   -0.130023
  35 S :    0.179265
  36 C :   -0.133903
  37 C :    0.130439
  38 C :    0.124085
  39 C :   -0.121450
  40 C :    0.231334
  41 F :   -0.176264
  42 C :    0.230882
  43 F :   -0.177770
  44 C :   -0.124982
  45 C :    0.046603
  46 C :   -0.014995
  47 C :    0.010878
  48 C :   -0.190860
  49 C :    0.081959
  50 C :    0.190799
  51 N :   -0.117537
  52 C :    0.098176
  53 C :   -0.025904
  54 C :    0.046698
  55 C :   -0.158199
  56 C :    0.131555
  57 O :   -0.161111
  58 C :    0.015940
  59 C :   -0.084904
  60 C :    0.099488
  61 C :    0.099643
  62 C :   -0.098679
  63 C :    0.301163
  64 C :   -0.034104
  65 C :   -0.008993
  66 F :   -0.195363
  67 C :   -0.090830
  68 C :    0.032367
  69 C :    0.286900
  70 C :   -0.376410
  71 C :   -0.212869
  72 N :    0.144633
  73 C :   -0.168225
  74 N :    0.134382
  75 H :   -0.003500
  76 H :    0.004662
  77 H :   -0.009046
  78 H :   -0.004971
  79 H :   -0.011300
  80 H :    0.033259
  81 H :    0.039515
  82 H :    0.038870
  83 H :    0.044233
  84 H :    0.000862
  85 H :    0.006985
  86 H :   -0.010991
  87 H :   -0.014120
  88 H :   -0.010867
  89 H :   -0.007653
  90 H :   -0.022805
  91 H :    0.045426
  92 H :    0.040662
  93 H :    0.003276
  94 H :    0.028101
  95 H :    0.031911
  96 H :    0.132747
  97 H :    0.033156
  98 H :   -0.015527
  99 H :    0.024075
 100 H :   -0.016835
 101 H :   -0.006421
 102 H :   -0.000297
 103 H :   -0.012497
 104 H :   -0.010680
Sum of atomic charges:   -0.0000000

LOEWDIN ATOMIC CHARGES
----------------------
   0 C :   -0.042274
   1 C :    0.093228
   2 F :   -0.064305
   3 C :   -0.037144
   4 C :    0.005083
   5 C :   -0.018805
   6 C :    0.003782
   7 C :    0.009352
   8 C :   -0.015849
   9 C :   -0.059743
  10 C :    0.034741
  11 C :    0.081466
  12 O :   -0.141245
  13 C :   -0.080555
  14 C :    0.067933
  15 C :   -0.134580
  16 C :   -0.022230
  17 N :   -0.056645
  18 C :   -0.020190
  19 N :   -0.054105
  20 C :    0.038828
  21 C :    0.029534
  22 O :    0.046674
  23 C :    0.032946
  24 C :    0.033621
  25 C :   -0.122511
  26 C :    0.174077
  27 F :   -0.037436
  28 F :   -0.065582
  29 F :   -0.053158
  30 O :   -0.080602
  31 C :    0.078142
  32 C :   -0.049092
  33 C :   -0.022156
  34 C :   -0.179975
  35 S :    0.497010
  36 C :   -0.176085
  37 C :   -0.042666
  38 C :   -0.039069
  39 C :   -0.039557
  40 C :    0.064001
  41 F :   -0.054495
  42 C :    0.062383
  43 F :   -0.056214
  44 C :   -0.040478
  45 C :   -0.037950
  46 C :   -0.028758
  47 C :   -0.043505
  48 C :   -0.043274
  49 C :   -0.054347
  50 C :    0.049541
  51 N :    0.051819
  52 C :    0.117222
  53 C :   -0.128897
  54 C :    0.081181
  55 C :   -0.139880
  56 C :    0.078823
  57 O :   -0.162891
  58 C :   -0.055736
  59 C :    0.028234
  60 C :   -0.020497
  61 C :    0.000673
  62 C :   -0.044041
  63 C :    0.090013
  64 C :   -0.041374
  65 C :    0.002857
  66 F :   -0.069405
  67 C :    0.004908
  68 C :   -0.016809
  69 C :    0.068647
  70 C :   -0.176220
  71 C :   -0.017076
  72 N :   -0.065897
  73 C :   -0.023188
  74 N :   -0.073040
  75 H :    0.042869
  76 H :    0.042116
  77 H :    0.035801
  78 H :    0.038889
  79 H :    0.039821
  80 H :    0.050093
  81 H :    0.031503
  82 H :    0.018044
  83 H :    0.021572
  84 H :    0.037762
  85 H :    0.032825
  86 H :    0.040401
  87 H :    0.038738
  88 H :    0.030242
  89 H :    0.025031
  90 H :    0.025861
  91 H :    0.040951
  92 H :    0.041055
  93 H :    0.026056
  94 H :    0.036116
  95 H :    0.035416
  96 H :    0.088369
  97 H :    0.037858
  98 H :    0.028461
  99 H :    0.046188
 100 H :    0.037691
 101 H :    0.041479
 102 H :    0.040224
 103 H :    0.034398
 104 H :    0.036986

  Mayer bond orders larger than 0.100000
B(  0-C ,  1-C ) :   1.4415 B(  0-C ,  6-C ) :   1.2025 B(  0-C , 75-H ) :   1.0065
B(  1-C ,  2-F ) :   1.0896 B(  1-C ,  3-C ) :   1.2543 B(  3-C ,  4-C ) :   1.4611
B(  3-C , 76-H ) :   0.9933 B(  4-C ,  5-C ) :   1.2351 B(  4-C , 77-H ) :   0.9970
B(  5-C ,  6-C ) :   1.2552 B(  5-C , 10-C ) :   1.1928 B(  6-C ,  7-C ) :   1.2049
B(  7-C ,  8-C ) :   1.4611 B(  7-C , 78-H ) :   0.9941 B(  8-C ,  9-C ) :   1.2146
B(  8-C , 14-C ) :   1.0009 B(  9-C , 10-C ) :   1.4740 B(  9-C , 11-C ) :   0.9207
B( 10-C , 79-H ) :   1.0149 B( 11-C , 12-O ) :   2.2736 B( 11-C , 13-C ) :   0.9370
B( 13-C , 14-C ) :   1.0387 B( 13-C , 20-C ) :   1.6113 B( 14-C , 15-C ) :   1.6593
B( 15-C , 16-C ) :   1.1596 B( 15-C , 18-C ) :   1.1380 B( 16-C , 17-N ) :   3.0046
B( 18-C , 19-N ) :   2.9811 B( 20-C , 21-C ) :   1.1562 B( 20-C , 80-H ) :   0.9421
B( 21-C , 22-O ) :   1.1453 B( 21-C , 23-C ) :   0.1157 B( 21-C , 25-C ) :   1.3776
B( 22-O , 23-C ) :   1.1203 B( 23-C , 24-C ) :   1.3561 B( 23-C , 32-C ) :   1.1878
B( 24-C , 25-C ) :   1.2857 B( 24-C , 30-O ) :   1.2034 B( 25-C , 26-C ) :   0.9342
B( 26-C , 27-F ) :   1.1605 B( 26-C , 28-F ) :   1.1515 B( 26-C , 29-F ) :   1.1649
B( 30-O , 31-C ) :   0.9136 B( 31-C , 81-H ) :   0.9765 B( 31-C , 82-H ) :   0.9627
B( 31-C , 83-H ) :   0.9678 B( 32-C , 33-C ) :   1.6121 B( 32-C , 84-H ) :   0.9512
B( 33-C , 34-C ) :   1.1593 B( 33-C , 85-H ) :   0.9467 B( 34-C , 35-S ) :   1.1562
B( 34-C , 36-C ) :   0.1091 B( 34-C , 38-C ) :   1.3246 B( 35-S , 36-C ) :   1.1702
B( 36-C , 37-C ) :   1.3360 B( 36-C , 45-C ) :   1.1179 B( 37-C , 38-C ) :   1.2252
B( 37-C , 44-C ) :   1.1630 B( 38-C , 39-C ) :   1.1670 B( 39-C , 40-C ) :   1.4945
B( 39-C , 44-C ) :   0.1102 B( 39-C , 86-H ) :   0.9978 B( 40-C , 41-F ) :   1.1301
B( 40-C , 42-C ) :   1.1600 B( 42-C , 43-F ) :   1.1293 B( 42-C , 44-C ) :   1.4971
B( 44-C , 87-H ) :   0.9955 B( 45-C , 46-C ) :   1.6891 B( 45-C , 88-H ) :   0.9579
B( 46-C , 47-C ) :   1.1203 B( 46-C , 89-H ) :   0.9660 B( 47-C , 48-C ) :   1.7669
B( 47-C , 90-H ) :   0.9773 B( 48-C , 49-C ) :   1.0619 B( 48-C , 50-C ) :   1.0482
B( 49-C , 91-H ) :   0.9454 B( 49-C , 92-H ) :   0.9508 B( 49-C , 93-H ) :   0.9531
B( 50-C , 51-N ) :   0.9879 B( 50-C , 94-H ) :   0.9421 B( 50-C , 95-H ) :   0.9337
B( 51-N , 52-C ) :   1.3629 B( 51-N , 96-H ) :   0.9327 B( 52-C , 53-C ) :   1.4259
B( 52-C , 97-H ) :   0.9559 B( 53-C , 54-C ) :   1.3419 B( 53-C , 98-H ) :   0.9562
B( 54-C , 55-C ) :   1.4862 B( 54-C , 99-H ) :   0.9300 B( 55-C , 56-C ) :   0.9753
B( 55-C , 69-C ) :   1.1057 B( 56-C , 57-O ) :   2.2458 B( 56-C , 58-C ) :   0.9150
B( 58-C , 59-C ) :   1.4825 B( 58-C , 68-C ) :   1.2209 B( 59-C , 60-C ) :   1.1806
B( 59-C ,100-H ) :   1.0150 B( 60-C , 61-C ) :   1.2628 B( 60-C , 65-C ) :   1.2379
B( 61-C , 62-C ) :   1.2037 B( 61-C , 67-C ) :   1.1970 B( 62-C , 63-C ) :   1.4398
B( 62-C ,101-H ) :   1.0064 B( 63-C , 64-C ) :   1.2594 B( 63-C , 66-F ) :   1.0833
B( 64-C , 65-C ) :   1.4562 B( 64-C ,102-H ) :   0.9925 B( 65-C ,103-H ) :   0.9966
B( 67-C , 68-C ) :   1.4680 B( 67-C ,104-H ) :   0.9931 B( 68-C , 69-C ) :   0.9885
B( 69-C , 70-C ) :   1.5700 B( 70-C , 71-C ) :   1.1864 B( 70-C , 73-C ) :   1.1317
B( 71-C , 72-N ) :   2.9641 B( 73-C , 74-N ) :   2.9747

-----------------------------------------------------------------------------
         ABSORPTION SPECTRUM VIA TRANSITION ELECTRIC DIPOLE MOMENTS
-----------------------------------------------------------------------------
State   Energy  Wavelength   fosc         T2         TX        TY        TZ
        (cm-1)    (nm)                  (au**2)     (au)      (au)      (au)
-----------------------------------------------------------------------------
   0   13396.1    746.5   0.753681016  18.52189   3.07528   1.62549  -2.53423
   1   20744.7    482.1   0.571028463   9.06205   2.67836   0.24484  -1.35222
   2   22052.2    453.5   0.288564732   4.30790   1.29790  -0.45053   1.55576
   3   23936.5    417.8   0.139893465   1.92403  -1.26250   0.54899  -0.16951
   4   24162.5    413.9   0.076057341   1.03627  -0.78741   0.36603  -0.53131
   5   24953.2    400.7   0.012135552   0.16011   0.14868  -0.30660   0.20976
   6   25593.9    390.7   0.013308771   0.17119  -0.22037   0.27913   0.21144
   7   26435.7    378.3   0.054218563   0.67520   0.37176  -0.31524   0.66153
   8   27306.2    366.2   0.085080264   1.02576  -0.18361  -0.03781   0.99530
   9   28714.4    348.3   0.103063468   1.18163  -0.06825   0.88152  -0.63238
  10   28839.4    346.7   0.084572560   0.96543   0.07058  -0.10920  -0.97392
  11   29369.3    340.5   0.080302034   0.90014   0.60016  -0.33877   0.65206
  12   30250.5    330.6   0.002681065   0.02918   0.11191  -0.12778   0.01801
  13   30912.7    323.5   0.093149660   0.99202  -0.01452  -0.91744   0.38745
  14   31064.0    321.9   0.128693778   1.36388   1.16112  -0.11926   0.03823
  15   31318.6    319.3   0.028484345   0.29942  -0.37124   0.37887  -0.13436
  16   31931.8    313.2   0.007299454   0.07526  -0.22301  -0.15975   0.00123
  17   32092.7    311.6   0.005175309   0.05309  -0.13391  -0.03199  -0.18475
  18   32393.2    308.7   0.080331364   0.81641   0.45107  -0.66820   0.40797
  19   32703.2    305.8   0.243559202   2.45183   0.80323  -1.28372   0.39840
  20   32984.6    303.2   0.054384439   0.54280   0.28072  -0.09092   0.67508
  21   33047.0    302.6   0.122584644   1.22118   0.65214  -0.77755   0.43739
  22   33296.9    300.3   0.445334606   4.40310  -0.47487   0.61868   1.94804
  23   34089.4    293.3   0.136343325   1.31671  -0.28575  -0.14261  -1.10214
  24   34631.7    288.8   0.312645667   2.97203   0.38762   0.13100  -1.67470
  25   34694.7    288.2   0.192276366   1.82447   0.67180  -0.17158   1.15919
  26   35445.9    282.1   0.212849230   1.97689   0.83005   0.04117   1.13411
  27   35612.1    280.8   0.326814469   3.02120   1.12797  -1.19577   0.56481
  28   35754.0    279.7   0.565650697   5.20835  -1.59230   1.52349  -0.59323
  29   36085.6    277.1   0.131131555   1.19632   0.65225  -0.80759   0.34451
  30   36281.0    275.6   0.181328546   1.64536  -0.29063   0.10256   1.24514
  31   37257.3    268.4   0.097867867   0.86478  -0.25006   0.50432   0.74021
  32   37634.0    265.7   0.026513709   0.23193  -0.46752   0.01323   0.11482
  33   38666.0    258.6   0.070345316   0.59894  -0.59972   0.31884   0.37097
  34   38709.0    258.3   0.016187558   0.13767  -0.36016  -0.08219  -0.03471
  35   38830.6    257.5   0.004756920   0.04033  -0.15692   0.09238   0.08468
  36   39051.8    256.1   0.015592974   0.13145   0.31999   0.02171  -0.16907
  37   39196.4    255.1   0.260156789   2.18507  -1.12737  -0.15512  -0.94342
  38   39335.1    254.2   0.239947541   2.00822  -1.08204   0.48293   0.77729
  39   39491.2    253.2   0.001831290   0.01527   0.11335   0.04589   0.01770
  40   39904.8    250.6   0.128639688   1.06127   0.46111   0.54077   0.74580

FINAL SINGLE POINT ENERGY     -3895.475887651435

DIPOLE MOMENT
-------------
                                X             Y             Z
Electronic contribution:    -65.77816      -8.44673      25.92861
Nuclear contribution   :     65.20938       9.12854     -24.03293
                        -----------------------------------------
Total Dipole Moment    :     -0.56879       0.68181       1.89568
                        -----------------------------------------
Magnitude (a.u.)       :      2.09332
Magnitude (Debye)      :      5.32079

Rotational constants in cm-1:     0.001225     0.000272     0.000239
Rotational constants in MHz :    36.729091     8.158431     7.163970

                             ****ORCA TERMINATED NORMALLY****
TOTAL RUN TIME: 0 days 0 hours 10 minutes 6 seconds 238 msec
