                         Program Version 4.2.0 -  RELEASE  -
|  1> # ORCA input file
|  2> # SCF done       -195.443871938561          0.000587239489
|  3> ! CAM-B3LYP def2-SVP def2/J RIJCOSX Grid4 TightSCF
|  4> %maxcore 5000
|  5> %tddft
|  6>     Mode sTDDFT
|  7>     Ethresh 5.0
|  8>     maxcore 5000
|  9> end
| 10>
| 11> %pal
| 12>   nprocs 6
| 13>   end
| 14> * xyz 0 1
| 15>    C        3.02000         4.90086        -4.63495
| 16>    C        1.75639         5.40660        -4.50491
| 17>    F        1.45418         6.58731        -5.07506
| 18>    C        0.75009         4.74068        -3.79256
| 19>    C        1.03953         3.54035        -3.20520
| 20>    C        2.32613         2.97303        -3.30666
| 21>    C        3.33542         3.66561        -4.03697
| 22>    C        4.63243         3.11327        -4.15851
| 23>    C        4.90733         1.91323        -3.56293
| 24>    C        3.89905         1.23205        -2.82126
| 25>    C        2.63743         1.73675        -2.69636
| 26>    C        4.46741        -0.00569        -2.25203
| 27>    O        3.90109        -0.86052        -1.60850
| 28>    C        5.91666         0.04705        -2.57941
| 29>    C        6.12092         1.10018        -3.54228
| 30>    C        7.13312         1.16729        -4.46786
| 31>    C        8.12257         0.17322        -4.59427
| 32>    N        8.91644        -0.64264        -4.74645
| 33>    C        7.23863         2.17579        -5.44431
| 34>    N        7.38242         2.98780        -6.24349
| 35>    C        6.77762        -0.76988        -1.89841
| 36>    C        8.15073        -0.62659        -1.65151
| 37>    S        9.01428         0.86164        -1.86422
| 38>    C       10.49197         0.23374        -1.22507
| 39>    C       10.32095        -1.10480        -0.81788
| 40>    C        8.99881        -1.58740        -1.06268
| 41>    C        8.65342        -2.90957        -0.73537
| 42>    C        9.58979        -3.71252        -0.14741
| 43>    F        9.28220        -4.97421         0.17970
| 44>    C       10.88176        -3.22491         0.14232
| 45>    F       11.76300        -4.03090         0.75547
| 46>    C       11.24888        -1.94921        -0.18017
| 47>    C       11.59851         1.11927        -1.20085
| 48>    C       12.90780         0.82776        -1.00676
| 49>    C       13.90610         1.84740        -0.98024
| 50>    C       15.21896         1.69298        -0.72522
| 51>    C       15.90692         0.39835        -0.45083
| 52>    C       16.09439         2.93029        -0.65820
| 53>    N       17.49709         2.68423        -0.87309
| 54>    C       18.05431         2.38479        -2.06108
| 55>    C       17.39061         2.26842        -3.24786
| 56>    C       17.97905         1.99991        -4.49840
| 57>    C       19.29440         1.79485        -4.84278
| 58>    C       19.75626         1.54784        -6.15900
| 59>    C       21.10450         1.37825        -6.27147
| 60>    C       21.79468         1.47689        -5.04574
| 61>    S       20.67450         1.79468        -3.74916
| 62>    C       23.15327         1.35415        -4.80131
| 63>    C       24.19035         1.09776        -5.71641
| 64>    C       25.42863         1.03624        -5.13962
| 65>    C       25.42652         1.23682        -3.74423
| 66>    S       23.79982         1.52042        -3.18142
| 67>    C       26.52560         1.23577        -2.90042
| 68>    C       26.42641         1.41257        -1.52958
| 69>    C       27.43548         1.45797        -0.58544
| 70>    C       27.09647         1.20566         0.82919
| 71>    O       25.98463         1.14527         1.31599
| 72>    C       28.38927         0.99806         1.51420
| 73>    C       28.63162         0.64611         2.80888
| 74>    C       29.96731         0.46530         3.23636
| 75>    C       31.02710         0.65202         2.30342
| 76>    C       32.35491         0.46287         2.73210
| 77>    C       32.59753         0.10810         4.02988
| 78>    C       31.56982        -0.07867         4.96269
| 79>    C       30.27437         0.09999         4.56217
| 80>    F       33.86835        -0.07288         4.44180
| 81>    C       30.74424         1.02635         0.96746
| 82>    C       29.44480         1.20196         0.58021
| 83>    C       28.85630         1.60786        -0.69922
| 84>    C       29.55598         2.20792        -1.72378
| 85>    C       28.96315         2.87130        -2.81404
| 86>    N       28.54288         3.47304        -3.69848
| 87>    C       30.95712         2.33360        -1.75026
| 88>    N       32.09726         2.44584        -1.84416
| 89>    H        3.76897         5.43955        -5.19413
| 90>    H       -0.22861         5.18833        -3.72348
| 91>    H        0.28058         3.00827        -2.65162
| 92>    H        5.38040         3.66001        -4.71092
| 93>    H        1.88465         1.20132        -2.13749
| 94>    H        6.29317        -1.59393        -1.38339
| 95>    H        7.66929        -3.29894        -0.93689
| 96>    H       12.23469        -1.61198         0.08616
| 97>    H       11.34032         2.15318        -1.40089
| 98>    H       13.22539        -0.19385        -0.88872
| 99>    H       13.54139         2.85304        -1.15457
|100>    H       15.20591        -0.41903        -0.32695
|101>    H       16.51058         0.47754         0.45271
|102>    H       16.57822         0.15133        -1.27439
|103>    H       15.98685         3.37755         0.33580
|104>    H       15.74209         3.66777        -1.38754
|105>    H       18.09264         2.65929        -0.06278
|106>    H       19.12313         2.24510        -2.01957
|107>    H       16.31676         2.38779        -3.25458
|108>    H       17.28819         1.94824        -5.33130
|109>    H       19.07270         1.50599        -6.98896
|110>    H       21.61603         1.18720        -7.19726
|111>    H       24.00575         0.96524        -6.76745
|112>    H       26.34278         0.85915        -5.67740
|113>    H       27.48617         1.05993        -3.36101
|114>    H       25.42481         1.43248        -1.10756
|115>    H       27.81518         0.50475         3.50135
|116>    H       33.17223         0.60101         2.04152
|117>    H       31.82130        -0.35848         5.97349
|118>    H       29.46424        -0.03835         5.26264
|119>    H       31.56802         1.15635         0.28384
|120> *
|121>
|122>                          ****END OF INPUT****

CARTESIAN COORDINATES (ANGSTROEM)
---------------------------------
  C      3.020000    4.900860   -4.634950
  C      1.756390    5.406600   -4.504910
  F      1.454180    6.587310   -5.075060
  C      0.750090    4.740680   -3.792560
  C      1.039530    3.540350   -3.205200
  C      2.326130    2.973030   -3.306660
  C      3.335420    3.665610   -4.036970
  C      4.632430    3.113270   -4.158510
  C      4.907330    1.913230   -3.562930
  C      3.899050    1.232050   -2.821260
  C      2.637430    1.736750   -2.696360
  C      4.467410   -0.005690   -2.252030
  O      3.901090   -0.860520   -1.608500
  C      5.916660    0.047050   -2.579410
  C      6.120920    1.100180   -3.542280
  C      7.133120    1.167290   -4.467860
  C      8.122570    0.173220   -4.594270
  N      8.916440   -0.642640   -4.746450
  C      7.238630    2.175790   -5.444310
  N      7.382420    2.987800   -6.243490
  C      6.777620   -0.769880   -1.898410
  C      8.150730   -0.626590   -1.651510
  S      9.014280    0.861640   -1.864220
  C     10.491970    0.233740   -1.225070
  C     10.320950   -1.104800   -0.817880
  C      8.998810   -1.587400   -1.062680
  C      8.653420   -2.909570   -0.735370
  C      9.589790   -3.712520   -0.147410
  F      9.282200   -4.974210    0.179700
  C     10.881760   -3.224910    0.142320
  F     11.763000   -4.030900    0.755470
  C     11.248880   -1.949210   -0.180170
  C     11.598510    1.119270   -1.200850
  C     12.907800    0.827760   -1.006760
  C     13.906100    1.847400   -0.980240
  C     15.218960    1.692980   -0.725220
  C     15.906920    0.398350   -0.450830
  C     16.094390    2.930290   -0.658200
  N     17.497090    2.684230   -0.873090
  C     18.054310    2.384790   -2.061080
  C     17.390610    2.268420   -3.247860
  C     17.979050    1.999910   -4.498400
  C     19.294400    1.794850   -4.842780
  C     19.756260    1.547840   -6.159000
  C     21.104500    1.378250   -6.271470
  C     21.794680    1.476890   -5.045740
  S     20.674500    1.794680   -3.749160
  C     23.153270    1.354150   -4.801310
  C     24.190350    1.097760   -5.716410
  C     25.428630    1.036240   -5.139620
  C     25.426520    1.236820   -3.744230
  S     23.799820    1.520420   -3.181420
  C     26.525600    1.235770   -2.900420
  C     26.426410    1.412570   -1.529580
  C     27.435480    1.457970   -0.585440
  C     27.096470    1.205660    0.829190
  O     25.984630    1.145270    1.315990
  C     28.389270    0.998060    1.514200
  C     28.631620    0.646110    2.808880
  C     29.967310    0.465300    3.236360
  C     31.027100    0.652020    2.303420
  C     32.354910    0.462870    2.732100
  C     32.597530    0.108100    4.029880
  C     31.569820   -0.078670    4.962690
  C     30.274370    0.099990    4.562170
  F     33.868350   -0.072880    4.441800
  C     30.744240    1.026350    0.967460
  C     29.444800    1.201960    0.580210
  C     28.856300    1.607860   -0.699220
  C     29.555980    2.207920   -1.723780
  C     28.963150    2.871300   -2.814040
  N     28.542880    3.473040   -3.698480
  C     30.957120    2.333600   -1.750260
  N     32.097260    2.445840   -1.844160
  H      3.768970    5.439550   -5.194130
  H     -0.228610    5.188330   -3.723480
  H      0.280580    3.008270   -2.651620
  H      5.380400    3.660010   -4.710920
  H      1.884650    1.201320   -2.137490
  H      6.293170   -1.593930   -1.383390
  H      7.669290   -3.298940   -0.936890
  H     12.234690   -1.611980    0.086160
  H     11.340320    2.153180   -1.400890
  H     13.225390   -0.193850   -0.888720
  H     13.541390    2.853040   -1.154570
  H     15.205910   -0.419030   -0.326950
  H     16.510580    0.477540    0.452710
  H     16.578220    0.151330   -1.274390
  H     15.986850    3.377550    0.335800
  H     15.742090    3.667770   -1.387540
  H     18.092640    2.659290   -0.062780
  H     19.123130    2.245100   -2.019570
  H     16.316760    2.387790   -3.254580
  H     17.288190    1.948240   -5.331300
  H     19.072700    1.505990   -6.988960
  H     21.616030    1.187200   -7.197260
  H     24.005750    0.965240   -6.767450
  H     26.342780    0.859150   -5.677400
  H     27.486170    1.059930   -3.361010
  H     25.424810    1.432480   -1.107560
  H     27.815180    0.504750    3.501350
  H     33.172230    0.601010    2.041520
  H     31.821300   -0.358480    5.973490
  H     29.464240   -0.038350    5.262640
  H     31.568020    1.156350    0.283840

 Total Charge           Charge          ....    0
 Multiplicity           Mult            ....    1
 Number of Electrons    NEL             ....  526
 Basis Dimension        Dim             .... 1203

ORBITAL ENERGIES
----------------

  NO   OCC          E(Eh)            E(eV)
   0   2.0000     -88.992169     -2421.6000
   1   2.0000     -88.965089     -2420.8632
   2   2.0000     -88.954092     -2420.5639
   3   2.0000     -24.803953      -674.9499
   4   2.0000     -24.802281      -674.9044
   5   2.0000     -24.787225      -674.4947
   6   2.0000     -24.769808      -674.0207
   7   2.0000     -19.213034      -522.8132
   8   2.0000     -19.185722      -522.0700
   9   2.0000     -14.474844      -393.8805
  10   2.0000     -14.416660      -392.2973
  11   2.0000     -14.416093      -392.2818
  12   2.0000     -14.389556      -391.5597
  13   2.0000     -14.387725      -391.5099
  14   2.0000     -10.388733      -282.6918
  15   2.0000     -10.385002      -282.5903
  16   2.0000     -10.370785      -282.2034
  17   2.0000     -10.365135      -282.0497
  18   2.0000     -10.351812      -281.6871
  19   2.0000     -10.349181      -281.6155
  20   2.0000     -10.344091      -281.4770
  21   2.0000     -10.343070      -281.4492
  22   2.0000     -10.342855      -281.4434
  23   2.0000     -10.342277      -281.4277
  24   2.0000     -10.337175      -281.2888
  25   2.0000     -10.334329      -281.2114
  26   2.0000     -10.326202      -280.9902
  27   2.0000     -10.325036      -280.9585
  28   2.0000     -10.320503      -280.8352
  29   2.0000     -10.319695      -280.8132
  30   2.0000     -10.319172      -280.7989
  31   2.0000     -10.318172      -280.7717
  32   2.0000     -10.315728      -280.7052
  33   2.0000     -10.314424      -280.6697
  34   2.0000     -10.314408      -280.6693
  35   2.0000     -10.313544      -280.6458
  36   2.0000     -10.312690      -280.6226
  37   2.0000     -10.311916      -280.6015
  38   2.0000     -10.311447      -280.5887
  39   2.0000     -10.310622      -280.5663
  40   2.0000     -10.310228      -280.5556
  41   2.0000     -10.309990      -280.5491
  42   2.0000     -10.307259      -280.4748
  43   2.0000     -10.306904      -280.4651
  44   2.0000     -10.306676      -280.4589
  45   2.0000     -10.304654      -280.4039
  46   2.0000     -10.302118      -280.3349
  47   2.0000     -10.300716      -280.2967
  48   2.0000     -10.299333      -280.2591
  49   2.0000     -10.298963      -280.2490
  50   2.0000     -10.298667      -280.2410
  51   2.0000     -10.296261      -280.1755
  52   2.0000     -10.295715      -280.1607
  53   2.0000     -10.295598      -280.1575
  54   2.0000     -10.293993      -280.1138
  55   2.0000     -10.293577      -280.1025
  56   2.0000     -10.293086      -280.0891
  57   2.0000     -10.291728      -280.0521
  58   2.0000     -10.290720      -280.0247
  59   2.0000     -10.290457      -280.0176
  60   2.0000     -10.288506      -279.9645
  61   2.0000     -10.286149      -279.9003
  62   2.0000     -10.283763      -279.8354
  63   2.0000     -10.282938      -279.8130
  64   2.0000     -10.282657      -279.8053
  65   2.0000     -10.281353      -279.7698
  66   2.0000     -10.280564      -279.7484
  67   2.0000     -10.278130      -279.6821
  68   2.0000     -10.277516      -279.6654
  69   2.0000     -10.275468      -279.6097
  70   2.0000     -10.271655      -279.5060
  71   2.0000     -10.268775      -279.4276
  72   2.0000     -10.266923      -279.3772
  73   2.0000     -10.262966      -279.2695
  74   2.0000      -8.086805      -220.0531
  75   2.0000      -8.060918      -219.3487
  76   2.0000      -8.050334      -219.0607
  77   2.0000      -6.055743      -164.7851
  78   2.0000      -6.051595      -164.6723
  79   2.0000      -6.049718      -164.6212
  80   2.0000      -6.030536      -164.0992
  81   2.0000      -6.026566      -163.9912
  82   2.0000      -6.022108      -163.8699
  83   2.0000      -6.019900      -163.8098
  84   2.0000      -6.015917      -163.7014
  85   2.0000      -6.011544      -163.5824
  86   2.0000      -1.325846       -36.0781
  87   2.0000      -1.310725       -35.6666
  88   2.0000      -1.302043       -35.4304
  89   2.0000      -1.283879       -34.9361
  90   2.0000      -1.128343       -30.7038
  91   2.0000      -1.099547       -29.9202
  92   2.0000      -1.072210       -29.1763
  93   2.0000      -1.029025       -28.0012
  94   2.0000      -1.018194       -27.7065
  95   2.0000      -1.007800       -27.4236
  96   2.0000      -1.001456       -27.2510
  97   2.0000      -0.994971       -27.0745
  98   2.0000      -0.992604       -27.0101
  99   2.0000      -0.983743       -26.7690
 100   2.0000      -0.977740       -26.6057
 101   2.0000      -0.977683       -26.6041
 102   2.0000      -0.967647       -26.3310
 103   2.0000      -0.964940       -26.2574
 104   2.0000      -0.953584       -25.9483
 105   2.0000      -0.949190       -25.8288
 106   2.0000      -0.932320       -25.3697
 107   2.0000      -0.922719       -25.1085
 108   2.0000      -0.917171       -24.9575
 109   2.0000      -0.907375       -24.6909
 110   2.0000      -0.899618       -24.4798
 111   2.0000      -0.892741       -24.2927
 112   2.0000      -0.888241       -24.1703
 113   2.0000      -0.884123       -24.0582
 114   2.0000      -0.873284       -23.7633
 115   2.0000      -0.869856       -23.6700
 116   2.0000      -0.866774       -23.5861
 117   2.0000      -0.860793       -23.4234
 118   2.0000      -0.857370       -23.3302
 119   2.0000      -0.849047       -23.1037
 120   2.0000      -0.837622       -22.7929
 121   2.0000      -0.835231       -22.7278
 122   2.0000      -0.833151       -22.6712
 123   2.0000      -0.828596       -22.5472
 124   2.0000      -0.817188       -22.2368
 125   2.0000      -0.813204       -22.1284
 126   2.0000      -0.808538       -22.0014
 127   2.0000      -0.793340       -21.5879
 128   2.0000      -0.778595       -21.1867
 129   2.0000      -0.765677       -20.8351
 130   2.0000      -0.760425       -20.6922
 131   2.0000      -0.755882       -20.5686
 132   2.0000      -0.742493       -20.2043
 133   2.0000      -0.736910       -20.0523
 134   2.0000      -0.729717       -19.8566
 135   2.0000      -0.724878       -19.7249
 136   2.0000      -0.711600       -19.3636
 137   2.0000      -0.710218       -19.3260
 138   2.0000      -0.706772       -19.2322
 139   2.0000      -0.694177       -18.8895
 140   2.0000      -0.688849       -18.7445
 141   2.0000      -0.686329       -18.6760
 142   2.0000      -0.683206       -18.5910
 143   2.0000      -0.680590       -18.5198
 144   2.0000      -0.673494       -18.3267
 145   2.0000      -0.666103       -18.1256
 146   2.0000      -0.662173       -18.0186
 147   2.0000      -0.654746       -17.8165
 148   2.0000      -0.653944       -17.7947
 149   2.0000      -0.646214       -17.5844
 150   2.0000      -0.639619       -17.4049
 151   2.0000      -0.635616       -17.2960
 152   2.0000      -0.633842       -17.2477
 153   2.0000      -0.629704       -17.1351
 154   2.0000      -0.629150       -17.1200
 155   2.0000      -0.626967       -17.0606
 156   2.0000      -0.620634       -16.8883
 157   2.0000      -0.616789       -16.7837
 158   2.0000      -0.612547       -16.6683
 159   2.0000      -0.611895       -16.6505
 160   2.0000      -0.609456       -16.5841
 161   2.0000      -0.605968       -16.4892
 162   2.0000      -0.599085       -16.3019
 163   2.0000      -0.591841       -16.1048
 164   2.0000      -0.590650       -16.0724
 165   2.0000      -0.585023       -15.9193
 166   2.0000      -0.575538       -15.6612
 167   2.0000      -0.571931       -15.5630
 168   2.0000      -0.569388       -15.4938
 169   2.0000      -0.565124       -15.3778
 170   2.0000      -0.561205       -15.2712
 171   2.0000      -0.559674       -15.2295
 172   2.0000      -0.557655       -15.1746
 173   2.0000      -0.555912       -15.1271
 174   2.0000      -0.555075       -15.1044
 175   2.0000      -0.552075       -15.0227
 176   2.0000      -0.549943       -14.9647
 177   2.0000      -0.545383       -14.8406
 178   2.0000      -0.543135       -14.7795
 179   2.0000      -0.541942       -14.7470
 180   2.0000      -0.541119       -14.7246
 181   2.0000      -0.537727       -14.6323
 182   2.0000      -0.535082       -14.5603
 183   2.0000      -0.533398       -14.5145
 184   2.0000      -0.529537       -14.4094
 185   2.0000      -0.527549       -14.3553
 186   2.0000      -0.525070       -14.2879
 187   2.0000      -0.524499       -14.2723
 188   2.0000      -0.519085       -14.1250
 189   2.0000      -0.516699       -14.0601
 190   2.0000      -0.514837       -14.0094
 191   2.0000      -0.511060       -13.9066
 192   2.0000      -0.509637       -13.8679
 193   2.0000      -0.508731       -13.8433
 194   2.0000      -0.507470       -13.8090
 195   2.0000      -0.504890       -13.7387
 196   2.0000      -0.503748       -13.7077
 197   2.0000      -0.500902       -13.6302
 198   2.0000      -0.499913       -13.6033
 199   2.0000      -0.497764       -13.5448
 200   2.0000      -0.494212       -13.4482
 201   2.0000      -0.493508       -13.4290
 202   2.0000      -0.488718       -13.2987
 203   2.0000      -0.483224       -13.1492
 204   2.0000      -0.481395       -13.0994
 205   2.0000      -0.479104       -13.0371
 206   2.0000      -0.478741       -13.0272
 207   2.0000      -0.476693       -12.9715
 208   2.0000      -0.475988       -12.9523
 209   2.0000      -0.473686       -12.8897
 210   2.0000      -0.471943       -12.8422
 211   2.0000      -0.468024       -12.7356
 212   2.0000      -0.466147       -12.6845
 213   2.0000      -0.463566       -12.6143
 214   2.0000      -0.460329       -12.5262
 215   2.0000      -0.458141       -12.4667
 216   2.0000      -0.457374       -12.4458
 217   2.0000      -0.453036       -12.3277
 218   2.0000      -0.451338       -12.2815
 219   2.0000      -0.448628       -12.2078
 220   2.0000      -0.446769       -12.1572
 221   2.0000      -0.446189       -12.1414
 222   2.0000      -0.443479       -12.0677
 223   2.0000      -0.442802       -12.0493
 224   2.0000      -0.441318       -12.0089
 225   2.0000      -0.438538       -11.9332
 226   2.0000      -0.437639       -11.9087
 227   2.0000      -0.437269       -11.8987
 228   2.0000      -0.431454       -11.7405
 229   2.0000      -0.428516       -11.6605
 230   2.0000      -0.426377       -11.6023
 231   2.0000      -0.425798       -11.5866
 232   2.0000      -0.420334       -11.4379
 233   2.0000      -0.419107       -11.4045
 234   2.0000      -0.418593       -11.3905
 235   2.0000      -0.413412       -11.2495
 236   2.0000      -0.408974       -11.1287
 237   2.0000      -0.407651       -11.0927
 238   2.0000      -0.405449       -11.0328
 239   2.0000      -0.400476       -10.8975
 240   2.0000      -0.399973       -10.8838
 241   2.0000      -0.395196       -10.7538
 242   2.0000      -0.387835       -10.5535
 243   2.0000      -0.386011       -10.5039
 244   2.0000      -0.379165       -10.3176
 245   2.0000      -0.378973       -10.3124
 246   2.0000      -0.362924        -9.8757
 247   2.0000      -0.355303        -9.6683
 248   2.0000      -0.349773        -9.5178
 249   2.0000      -0.349085        -9.4991
 250   2.0000      -0.335954        -9.1418
 251   2.0000      -0.332207        -9.0398
 252   2.0000      -0.330823        -9.0022
 253   2.0000      -0.325388        -8.8543
 254   2.0000      -0.323403        -8.8003
 255   2.0000      -0.314256        -8.5513
 256   2.0000      -0.311134        -8.4664
 257   2.0000      -0.299921        -8.1613
 258   2.0000      -0.293699        -7.9919
 259   2.0000      -0.282664        -7.6917
 260   2.0000      -0.273333        -7.4378
 261   2.0000      -0.259098        -7.0504
 262   2.0000      -0.217871        -5.9286
 263   0.0000      -0.111577        -3.0362
 264   0.0000      -0.099553        -2.7090
 265   0.0000      -0.064237        -1.7480
 266   0.0000      -0.048234        -1.3125
 267   0.0000      -0.047985        -1.3057

MULLIKEN ATOMIC CHARGES
-----------------------
   0 C :   -0.099396
   1 C :    0.303459
   2 F :   -0.190779
   3 C :   -0.030696
   4 C :   -0.009984
   5 C :    0.100887
   6 C :    0.103471
   7 C :   -0.089754
   8 C :    0.041973
   9 C :    0.008777
  10 C :   -0.082835
  11 C :    0.141849
  12 O :   -0.150389
  13 C :   -0.144507
  14 C :    0.253405
  15 C :   -0.331872
  16 C :   -0.216873
  17 N :    0.170321
  18 C :   -0.174440
  19 N :    0.149021
  20 C :    0.020692
  21 C :   -0.124600
  22 S :    0.195780
  23 C :   -0.092608
  24 C :    0.128818
  25 C :    0.159049
  26 C :   -0.111178
  27 C :    0.238732
  28 F :   -0.167425
  29 C :    0.225454
  30 F :   -0.175463
  31 C :   -0.114472
  32 C :    0.029953
  33 C :    0.005705
  34 C :    0.005890
  35 C :   -0.201835
  36 C :    0.118039
  37 C :    0.168845
  38 N :   -0.134323
  39 C :    0.063097
  40 C :   -0.064489
  41 C :    0.036636
  42 C :   -0.055264
  43 C :    0.055503
  44 C :    0.010278
  45 C :   -0.003479
  46 S :    0.047965
  47 C :   -0.064194
  48 C :    0.040819
  49 C :    0.028881
  50 C :   -0.014903
  51 S :    0.095139
  52 C :   -0.002807
  53 C :    0.017106
  54 C :   -0.136232
  55 C :    0.137111
  56 O :   -0.171062
  57 C :    0.006894
  58 C :   -0.090106
  59 C :    0.103351
  60 C :    0.103010
  61 C :   -0.101313
  62 C :    0.299561
  63 C :   -0.033580
  64 C :   -0.014174
  65 F :   -0.197778
  66 C :   -0.092898
  67 C :    0.038281
  68 C :    0.301788
  69 C :   -0.357428
  70 C :   -0.220863
  71 N :    0.149350
  72 C :   -0.176020
  73 N :    0.124880
  74 H :   -0.003539
  75 H :    0.003140
  76 H :   -0.008718
  77 H :   -0.005433
  78 H :   -0.011914
  79 H :    0.020167
  80 H :    0.003394
  81 H :   -0.019784
  82 H :   -0.007257
  83 H :    0.000148
  84 H :   -0.019359
  85 H :    0.013959
  86 H :    0.014862
  87 H :    0.047118
  88 H :    0.044698
  89 H :    0.037904
  90 H :    0.137310
  91 H :    0.030577
  92 H :   -0.006557
  93 H :    0.001199
  94 H :   -0.003286
  95 H :   -0.010072
  96 H :   -0.005905
  97 H :   -0.001182
  98 H :    0.004982
  99 H :    0.008444
 100 H :   -0.021432
 101 H :   -0.004969
 102 H :   -0.003493
 103 H :   -0.015198
 104 H :   -0.009556
Sum of atomic charges:   -0.0000000

LOEWDIN ATOMIC CHARGES
----------------------
   0 C :   -0.042978
   1 C :    0.092797
   2 F :   -0.065349
   3 C :   -0.037597
   4 C :    0.004605
   5 C :   -0.019279
   6 C :    0.002912
   7 C :    0.008543
   8 C :   -0.016458
   9 C :   -0.058515
  10 C :    0.033131
  11 C :    0.081152
  12 O :   -0.151734
  13 C :   -0.108878
  14 C :    0.060681
  15 C :   -0.152880
  16 C :   -0.037501
  17 N :   -0.053909
  18 C :   -0.020536
  19 N :   -0.057363
  20 C :    0.046722
  21 C :   -0.197222
  22 S :    0.533216
  23 C :   -0.132713
  24 C :   -0.049790
  25 C :   -0.010825
  26 C :   -0.036344
  27 C :    0.075097
  28 F :   -0.045756
  29 C :    0.062035
  30 F :   -0.054124
  31 C :   -0.034694
  32 C :   -0.052429
  33 C :    0.000461
  34 C :   -0.053255
  35 C :   -0.019666
  36 C :   -0.048653
  37 C :    0.039291
  38 N :    0.023323
  39 C :    0.063720
  40 C :   -0.139543
  41 C :    0.001643
  42 C :   -0.185971
  43 C :    0.000076
  44 C :   -0.061532
  45 C :   -0.137024
  46 S :    0.387161
  47 C :   -0.207057
  48 C :   -0.004785
  49 C :   -0.047661
  50 C :   -0.097088
  51 S :    0.397524
  52 C :   -0.078348
  53 C :    0.049110
  54 C :   -0.118678
  55 C :    0.075731
  56 O :   -0.172169
  57 C :   -0.054806
  58 C :    0.023868
  59 C :   -0.021545
  60 C :    0.001220
  61 C :   -0.043860
  62 C :    0.088934
  63 C :   -0.044137
  64 C :    0.000595
  65 F :   -0.071545
  66 C :    0.003573
  67 C :   -0.012867
  68 C :    0.067499
  69 C :   -0.161439
  70 C :   -0.023738
  71 N :   -0.070300
  72 C :   -0.019304
  73 N :   -0.074157
  74 H :    0.042567
  75 H :    0.041813
  76 H :    0.035722
  77 H :    0.038522
  78 H :    0.039558
  79 H :    0.048137
  80 H :    0.045898
  81 H :    0.037972
  82 H :    0.031414
  83 H :    0.026521
  84 H :    0.028294
  85 H :    0.030307
  86 H :    0.034009
  87 H :    0.044904
  88 H :    0.044257
  89 H :    0.035514
  90 H :    0.088217
  91 H :    0.016051
  92 H :    0.029946
  93 H :    0.042696
  94 H :    0.037305
  95 H :    0.033527
  96 H :    0.035216
  97 H :    0.038809
  98 H :    0.036964
  99 H :    0.030536
 100 H :    0.035601
 101 H :    0.041828
 102 H :    0.038744
 103 H :    0.032945
 104 H :    0.037586

  Mayer bond orders larger than 0.100000
B(  0-C ,  1-C ) :   1.4397 B(  0-C ,  6-C ) :   1.2036 B(  0-C , 74-H ) :   1.0065
B(  1-C ,  2-F ) :   1.0880 B(  1-C ,  3-C ) :   1.2560 B(  3-C ,  4-C ) :   1.4580
B(  3-C , 75-H ) :   0.9934 B(  4-C ,  5-C ) :   1.2364 B(  4-C , 76-H ) :   0.9973
B(  5-C ,  6-C ) :   1.2570 B(  5-C , 10-C ) :   1.1872 B(  6-C ,  7-C ) :   1.1991
B(  7-C ,  8-C ) :   1.4661 B(  7-C , 77-H ) :   0.9952 B(  8-C ,  9-C ) :   1.2155
B(  8-C , 14-C ) :   0.9965 B(  9-C , 10-C ) :   1.4773 B(  9-C , 11-C ) :   0.9223
B( 10-C , 78-H ) :   1.0153 B( 11-C , 12-O ) :   2.2522 B( 11-C , 13-C ) :   0.9514
B( 13-C , 14-C ) :   1.0599 B( 13-C , 20-C ) :   1.5817 B( 14-C , 15-C ) :   1.6307
B( 15-C , 16-C ) :   1.1602 B( 15-C , 18-C ) :   1.1372 B( 16-C , 17-N ) :   3.0229
B( 18-C , 19-N ) :   2.9860 B( 20-C , 21-C ) :   1.2234 B( 20-C , 79-H ) :   0.9338
B( 21-C , 22-S ) :   1.1167 B( 21-C , 25-C ) :   1.2720 B( 22-S , 23-C ) :   1.2148
B( 23-C , 24-C ) :   1.3084 B( 23-C , 32-C ) :   1.1326 B( 24-C , 25-C ) :   1.2385
B( 24-C , 31-C ) :   1.1616 B( 25-C , 26-C ) :   1.1934 B( 26-C , 27-C ) :   1.4780
B( 26-C , 31-C ) :   0.1099 B( 26-C , 80-H ) :   0.9979 B( 27-C , 28-F ) :   1.1393
B( 27-C , 29-C ) :   1.1662 B( 29-C , 30-F ) :   1.1347 B( 29-C , 31-C ) :   1.4967
B( 31-C , 81-H ) :   0.9950 B( 32-C , 33-C ) :   1.6759 B( 32-C , 82-H ) :   0.9543
B( 33-C , 34-C ) :   1.1217 B( 33-C , 83-H ) :   0.9700 B( 34-C , 35-C ) :   1.7607
B( 34-C , 84-H ) :   0.9765 B( 35-C , 36-C ) :   1.0864 B( 35-C , 37-C ) :   0.9888
B( 36-C , 85-H ) :   0.9506 B( 36-C , 86-H ) :   0.9446 B( 36-C , 87-H ) :   0.9336
B( 37-C , 38-N ) :   1.0337 B( 37-C , 88-H ) :   0.9360 B( 37-C , 89-H ) :   0.9418
B( 38-N , 39-C ) :   1.2889 B( 38-N , 90-H ) :   0.9335 B( 39-C , 40-C ) :   1.5381
B( 39-C , 91-H ) :   0.9491 B( 40-C , 41-C ) :   1.2506 B( 40-C , 92-H ) :   0.9566
B( 41-C , 42-C ) :   1.5481 B( 41-C , 93-H ) :   0.9612 B( 42-C , 43-C ) :   1.1776
B( 42-C , 46-S ) :   1.0114 B( 43-C , 44-C ) :   1.5516 B( 43-C , 94-H ) :   0.9986
B( 44-C , 45-C ) :   1.2186 B( 44-C , 95-H ) :   0.9942 B( 45-C , 46-S ) :   1.0830
B( 45-C , 47-C ) :   1.4376 B( 47-C , 48-C ) :   1.2436 B( 47-C , 51-S ) :   1.0355
B( 48-C , 49-C ) :   1.5142 B( 48-C , 96-H ) :   0.9947 B( 49-C , 50-C ) :   1.2083
B( 49-C , 97-H ) :   1.0009 B( 50-C , 51-S ) :   1.0977 B( 50-C , 52-C ) :   1.4495
B( 52-C , 53-C ) :   1.2701 B( 52-C , 98-H ) :   0.9644 B( 53-C , 54-C ) :   1.4727
B( 53-C , 99-H ) :   0.9373 B( 54-C , 55-C ) :   0.9787 B( 54-C , 68-C ) :   1.1106
B( 55-C , 56-O ) :   2.2309 B( 55-C , 57-C ) :   0.9177 B( 57-C , 58-C ) :   1.4844
B( 57-C , 67-C ) :   1.2189 B( 58-C , 59-C ) :   1.1780 B( 58-C ,100-H ) :   1.0146
B( 59-C , 60-C ) :   1.2637 B( 59-C , 64-C ) :   1.2390 B( 60-C , 61-C ) :   1.2051
B( 60-C , 66-C ) :   1.1921 B( 61-C , 62-C ) :   1.4378 B( 61-C ,101-H ) :   1.0068
B( 62-C , 63-C ) :   1.2613 B( 62-C , 65-F ) :   1.0804 B( 63-C , 64-C ) :   1.4535
B( 63-C ,102-H ) :   0.9923 B( 64-C ,103-H ) :   0.9965 B( 66-C , 67-C ) :   1.4736
B( 66-C ,104-H ) :   0.9923 B( 67-C , 68-C ) :   0.9837 B( 68-C , 69-C ) :   1.5785
B( 69-C , 70-C ) :   1.1719 B( 69-C , 72-C ) :   1.1384 B( 70-C , 71-N ) :   3.0065
B( 72-C , 73-N ) :   2.9666

-----------------------------------------------------------------------------
         ABSORPTION SPECTRUM VIA TRANSITION ELECTRIC DIPOLE MOMENTS
-----------------------------------------------------------------------------
State   Energy  Wavelength   fosc         T2         TX        TY        TZ
        (cm-1)    (nm)                  (au**2)     (au)      (au)      (au)
-----------------------------------------------------------------------------
   0   11881.3    841.7   1.539955581  42.66986  -6.28391   0.27948  -1.76188
   1   14866.8    672.6   0.001153708   0.02555  -0.15807   0.00975  -0.02160
   2   15854.7    630.7   0.539245210  11.19707  -3.00809   0.54532  -1.36054
   3   22231.6    449.8   0.008409176   0.12453   0.21045  -0.25570  -0.12189
   4   23618.2    423.4   0.086185252   1.20133   0.27617  -0.55493  -0.90394
   5   24707.9    404.7   0.031670883   0.42199  -0.19812  -0.60704   0.11935
   6   25333.2    394.7   0.115094190   1.49568  -0.75466   0.27693   0.92167
   7   25597.3    390.7   0.001714824   0.02205  -0.04315  -0.09502   0.10566
   8   25952.6    385.3   0.025064337   0.31794   0.47920   0.19467  -0.22453
   9   26042.3    384.0   0.074553356   0.94246  -0.90741  -0.24009   0.24785
  10   26768.8    373.6   0.259505094   3.19149   0.50650   0.04082  -1.71268
  11   27040.9    369.8   0.277746032   3.38145  -1.42702  -0.42787   1.07795
  12   27200.1    367.6   0.209019505   2.52984   0.72491   0.20784   1.40041
  13   27255.7    366.9   0.012962714   0.15657  -0.01966   0.05862   0.39083
  14   28512.7    350.7   0.071335210   0.82365  -0.10284   0.29699  -0.85139
  15   28674.2    348.7   0.109291973   1.25480  -1.08320   0.18473   0.21760
  16   28900.0    346.0   0.059975237   0.68320   0.44226  -0.66929   0.19913
  17   29871.6    334.8   0.221849309   2.44498   0.05578   1.47520  -0.51542
  18   30179.5    331.4   0.158093335   1.72456  -0.83301   0.92610  -0.41592
  19   30494.4    327.9   0.002358514   0.02546   0.06601  -0.14504   0.00835
  20   30933.9    323.3   0.006409510   0.06821   0.09937  -0.03734  -0.23863
  21   31504.6    317.4   0.000047221   0.00049  -0.00649  -0.00237   0.02111
  22   31840.8    314.1   0.276834005   2.86228   0.37158  -0.01203   1.65047
  23   32262.3    310.0   0.038654165   0.39444   0.04107  -0.35781   0.51451
  24   32659.5    306.2   0.187555263   1.89058   1.23310  -0.55538  -0.24820
  25   32972.6    303.3   0.067429720   0.67325   0.00485  -0.16617   0.80350
  26   33467.8    298.8   0.043635660   0.42923  -0.39664   0.15107  -0.49908
  27   33746.9    296.3   0.022648253   0.22094   0.21348  -0.03183   0.41756
  28   33778.9    296.0   0.006136858   0.05981  -0.11637  -0.08479   0.19768
  29   33835.1    295.6   0.302456381   2.94287   0.71905  -0.37698   1.51120
  30   33992.0    294.2   0.592760960   5.74087   1.42535  -1.85046   0.53391
  31   34104.6    293.2   0.001460231   0.01410   0.02090  -0.03510   0.11148
  32   35015.5    285.6   0.350944751   3.29955   1.17316   0.89119  -1.06256
  33   35253.9    283.7   0.169160982   1.57968   0.83542   0.60940   0.71441
  34   36247.5    275.9   0.044999026   0.40870  -0.12943  -0.34818  -0.52030
  35   36577.0    273.4   0.136040203   1.22443   0.86207  -0.67821  -0.14592
  36   37197.3    268.8   0.000613155   0.00543   0.02145  -0.05079   0.04886
  37   37263.3    268.4   0.000095136   0.00084  -0.02236   0.01117  -0.01469
  38   37590.8    266.0   0.147969108   1.29588  -0.66922  -0.21605   0.89518
  39   37845.4    264.2   0.100710976   0.87607   0.18612  -0.50515   0.76567
  40   37971.8    263.4   0.004638374   0.04021  -0.01146  -0.08837   0.17965
  41   38122.1    262.3   0.000462444   0.00399  -0.00082  -0.01846   0.06043
  42   38242.0    261.5   0.005294123   0.04558   0.09782   0.12292  -0.14456
  43   38286.8    261.2   0.270958550   2.32986   0.50065   0.48367  -1.35841
  44   38423.0    260.3   0.017026599   0.14589  -0.09418  -0.32662   0.17417
  45   38818.2    257.6   0.003268007   0.02772   0.10262   0.05232  -0.12020
  46   39153.3    255.4   0.257073509   2.16155  -1.15764  -0.48112   0.76807
  47   39270.7    254.6   0.001417387   0.01188  -0.09434  -0.05460  -0.00034
  48   39996.4    250.0   0.002355515   0.01939  -0.13175   0.04222  -0.01571
  49   40116.9    249.3   0.133263485   1.09360   0.48574   0.14619  -0.91449

FINAL SINGLE POINT ENERGY     -4318.795451085869

DIPOLE MOMENT
-------------
                                X             Y             Z
Electronic contribution:    -20.81201     -14.29416       3.29267
Nuclear contribution   :     15.03804      14.39507      -1.93471
                        -----------------------------------------
Total Dipole Moment    :     -5.77397       0.10091       1.35796
                        -----------------------------------------
Magnitude (a.u.)       :      5.93237
Magnitude (Debye)      :     15.07889

Rotational constants in cm-1:     0.001659     0.000152     0.000145
Rotational constants in MHz :    49.744342     4.546889     4.344979

                             ****ORCA TERMINATED NORMALLY****
TOTAL RUN TIME: 0 days 0 hours 13 minutes 39 seconds 931 msec
