                         Program Version 4.2.0 -  RELEASE  -
|  1> # ORCA input file
|  2> # SCF done       -184.183169445397          0.000882963161
|  3> ! CAM-B3LYP def2-SVP def2/J RIJCOSX Grid4 TightSCF
|  4> %maxcore 5000
|  5> %tddft
|  6>     Mode sTDDFT
|  7>     Ethresh 5.0
|  8>     maxcore 5000
|  9> end
| 10>
| 11> %pal
| 12>   nprocs 6
| 13>   end
| 14> * xyz 0 1
| 15>    C        8.82839        -6.68119         0.79750
| 16>    C        7.97410        -7.36252         1.61941
| 17>    F        8.41207        -8.46464         2.26211
| 18>    C        6.64919        -6.96059         1.82476
| 19>    C        6.19100        -5.84425         1.17969
| 20>    C        7.02815        -5.10455         0.32179
| 21>    C        8.37236        -5.53197         0.12471
| 22>    C        9.22952        -4.81047        -0.74162
| 23>    C        8.75471        -3.69766        -1.37623
| 24>    C        7.41395        -3.26601        -1.16539
| 25>    C        6.56340        -3.94661        -0.34714
| 26>    C        7.17948        -2.03084        -1.94893
| 27>    O        6.14393        -1.40571        -2.04910
| 28>    C        8.48545        -1.69891        -2.55136
| 29>    C        9.38108        -2.78590        -2.33132
| 30>    C       10.51301        -3.07255        -3.07673
| 31>    C       10.85262        -2.32429        -4.21080
| 32>    N       11.11089        -1.74552        -5.17221
| 33>    C       11.35678        -4.16866        -2.86005
| 34>    N       12.09746        -5.04067        -2.73394
| 35>    C        8.67546        -0.46668        -3.16189
| 36>    C        9.84937         0.25238        -3.30807
| 37>    S       11.30798        -0.09740        -2.41260
| 38>    C       12.15872         1.30028        -3.02635
| 39>    C       11.33432         1.99836        -3.96136
| 40>    C       10.04511         1.41692        -4.09947
| 41>    C        9.11966         1.95194        -5.00291
| 42>    C        9.47424         3.04475        -5.75316
| 43>    F        8.60302         3.56459        -6.62986
| 44>    C       10.74790         3.61533        -5.62552
| 45>    F       11.08378         4.67627        -6.38224
| 46>    C       11.67195         3.10392        -4.74698
| 47>    C       13.44240         1.50086        -2.56016
| 48>    C       14.25275         2.62795        -2.69833
| 49>    C       15.56345         2.73361        -2.28592
| 50>    C       16.42920         1.74076        -1.80378
| 51>    C       17.70905         1.97977        -1.29407
| 52>    C       18.37553         0.84631        -0.87544
| 53>    C       17.64771        -0.32492        -1.06563
| 54>    S       16.09688         0.02688        -1.77672
| 55>    C       18.01080        -1.64873        -0.76000
| 56>    C       19.16064        -2.11680        -0.12972
| 57>    C       19.17978        -3.48960         0.01056
| 58>    C       18.06944        -4.14319        -0.53171
| 59>    S       16.96045        -2.97004        -1.18283
| 60>    C       17.88927        -5.53856        -0.47413
| 61>    C       17.01935        -6.40801        -1.07888
| 62>    C       16.07400        -6.27099        -2.11161
| 63>    C       15.32647        -7.34880        -2.61028
| 64>    C       14.52962        -7.04160        -3.68819
| 65>    C       14.62165        -5.70193        -4.07199
| 66>    S       15.72913        -4.84426        -3.03895
| 67>    C       13.96621        -5.02793        -5.10437
| 68>    C       13.10378        -5.54971        -6.08243
| 69>    C       12.63042        -4.60619        -6.95239
| 70>    C       13.08694        -3.29649        -6.68667
| 71>    S       14.15831        -3.31002        -5.30233
| 72>    C       12.72318        -2.15600        -7.36458
| 73>    C       13.08701        -0.83929        -7.06457
| 74>    S       14.08356        -0.33863        -5.70593
| 75>    C       14.00023         1.32642        -6.10204
| 76>    C       13.21943         1.53170        -7.21903
| 77>    C       12.70664         0.31067        -7.74601
| 78>    O       11.95838         0.53505        -8.83887
| 79>    C       11.98559         1.88418        -9.02397
| 80>    N       11.28913         2.40714       -10.14369
| 81>    O       11.38549         3.60367       -10.32961
| 82>    O       10.66470         1.63068       -10.83255
| 83>    C       12.72727         2.54842        -8.08440
| 84>    H        9.84326        -7.02159         0.66147
| 85>    H        6.02002        -7.53693         2.48433
| 86>    H        5.17290        -5.51405         1.32224
| 87>    H       10.24432        -5.15279        -0.87392
| 88>    H        5.54633        -3.61184        -0.20882
| 89>    H        7.76063         0.03149        -3.46489
| 90>    H        8.14253         1.51624        -5.12947
| 91>    H       12.64201         3.56520        -4.70271
| 92>    H       13.82702         0.69201        -1.95376
| 93>    H       13.80808         3.52994        -3.09236
| 94>    H       16.01267         3.71809        -2.33705
| 95>    H       18.11792         2.97268        -1.22877
| 96>    H       19.36376         0.85265        -0.45263
| 97>    H       19.94437        -1.46577         0.21233
| 98>    H       19.98474        -4.02996         0.47726
| 99>    H       18.60460        -6.01070         0.19131
|100>    H       17.10609        -7.43558        -0.74250
|101>    H       15.38663        -8.32937        -2.17131
|102>    H       13.88348        -7.74369        -4.18202
|103>    H       12.85284        -6.59389        -6.12456
|104>    H       11.95629        -4.81046        -7.76507
|105>    H       12.05840        -2.26978        -8.21096
|106>    H       14.52709         2.03798        -5.50072
|107>    H       12.88166         3.60686        -8.04042
|108> *
|109>
|110>                          ****END OF INPUT****

CARTESIAN COORDINATES (ANGSTROEM)
---------------------------------
  C      8.828390   -6.681190    0.797500
  C      7.974100   -7.362520    1.619410
  F      8.412070   -8.464640    2.262110
  C      6.649190   -6.960590    1.824760
  C      6.191000   -5.844250    1.179690
  C      7.028150   -5.104550    0.321790
  C      8.372360   -5.531970    0.124710
  C      9.229520   -4.810470   -0.741620
  C      8.754710   -3.697660   -1.376230
  C      7.413950   -3.266010   -1.165390
  C      6.563400   -3.946610   -0.347140
  C      7.179480   -2.030840   -1.948930
  O      6.143930   -1.405710   -2.049100
  C      8.485450   -1.698910   -2.551360
  C      9.381080   -2.785900   -2.331320
  C     10.513010   -3.072550   -3.076730
  C     10.852620   -2.324290   -4.210800
  N     11.110890   -1.745520   -5.172210
  C     11.356780   -4.168660   -2.860050
  N     12.097460   -5.040670   -2.733940
  C      8.675460   -0.466680   -3.161890
  C      9.849370    0.252380   -3.308070
  S     11.307980   -0.097400   -2.412600
  C     12.158720    1.300280   -3.026350
  C     11.334320    1.998360   -3.961360
  C     10.045110    1.416920   -4.099470
  C      9.119660    1.951940   -5.002910
  C      9.474240    3.044750   -5.753160
  F      8.603020    3.564590   -6.629860
  C     10.747900    3.615330   -5.625520
  F     11.083780    4.676270   -6.382240
  C     11.671950    3.103920   -4.746980
  C     13.442400    1.500860   -2.560160
  C     14.252750    2.627950   -2.698330
  C     15.563450    2.733610   -2.285920
  C     16.429200    1.740760   -1.803780
  C     17.709050    1.979770   -1.294070
  C     18.375530    0.846310   -0.875440
  C     17.647710   -0.324920   -1.065630
  S     16.096880    0.026880   -1.776720
  C     18.010800   -1.648730   -0.760000
  C     19.160640   -2.116800   -0.129720
  C     19.179780   -3.489600    0.010560
  C     18.069440   -4.143190   -0.531710
  S     16.960450   -2.970040   -1.182830
  C     17.889270   -5.538560   -0.474130
  C     17.019350   -6.408010   -1.078880
  C     16.074000   -6.270990   -2.111610
  C     15.326470   -7.348800   -2.610280
  C     14.529620   -7.041600   -3.688190
  C     14.621650   -5.701930   -4.071990
  S     15.729130   -4.844260   -3.038950
  C     13.966210   -5.027930   -5.104370
  C     13.103780   -5.549710   -6.082430
  C     12.630420   -4.606190   -6.952390
  C     13.086940   -3.296490   -6.686670
  S     14.158310   -3.310020   -5.302330
  C     12.723180   -2.156000   -7.364580
  C     13.087010   -0.839290   -7.064570
  S     14.083560   -0.338630   -5.705930
  C     14.000230    1.326420   -6.102040
  C     13.219430    1.531700   -7.219030
  C     12.706640    0.310670   -7.746010
  O     11.958380    0.535050   -8.838870
  C     11.985590    1.884180   -9.023970
  N     11.289130    2.407140  -10.143690
  O     11.385490    3.603670  -10.329610
  O     10.664700    1.630680  -10.832550
  C     12.727270    2.548420   -8.084400
  H      9.843260   -7.021590    0.661470
  H      6.020020   -7.536930    2.484330
  H      5.172900   -5.514050    1.322240
  H     10.244320   -5.152790   -0.873920
  H      5.546330   -3.611840   -0.208820
  H      7.760630    0.031490   -3.464890
  H      8.142530    1.516240   -5.129470
  H     12.642010    3.565200   -4.702710
  H     13.827020    0.692010   -1.953760
  H     13.808080    3.529940   -3.092360
  H     16.012670    3.718090   -2.337050
  H     18.117920    2.972680   -1.228770
  H     19.363760    0.852650   -0.452630
  H     19.944370   -1.465770    0.212330
  H     19.984740   -4.029960    0.477260
  H     18.604600   -6.010700    0.191310
  H     17.106090   -7.435580   -0.742500
  H     15.386630   -8.329370   -2.171310
  H     13.883480   -7.743690   -4.182020
  H     12.852840   -6.593890   -6.124560
  H     11.956290   -4.810460   -7.765070
  H     12.058400   -2.269780   -8.210960
  H     14.527090    2.037980   -5.500720
  H     12.881660    3.606860   -8.040420

 Total Charge           Charge          ....    0
 Multiplicity           Mult            ....    1
 Number of Electrons    NEL             ....  518
 Basis Dimension        Dim             .... 1110

ORBITAL ENERGIES
----------------

  NO   OCC          E(Eh)            E(eV)
   0   2.0000     -88.992147     -2421.5994
   1   2.0000     -88.978907     -2421.2391
   2   2.0000     -88.972807     -2421.0732
   3   2.0000     -88.967449     -2420.9274
   4   2.0000     -88.962677     -2420.7975
   5   2.0000     -88.936200     -2420.0770
   6   2.0000     -24.785255      -674.4411
   7   2.0000     -24.782290      -674.3604
   8   2.0000     -24.766027      -673.9178
   9   2.0000     -19.324924      -525.8579
  10   2.0000     -19.247595      -523.7537
  11   2.0000     -19.245843      -523.7060
  12   2.0000     -19.173819      -521.7461
  13   2.0000     -14.660045      -398.9201
  14   2.0000     -14.385863      -391.4592
  15   2.0000     -14.381524      -391.3412
  16   2.0000     -10.395296      -282.8704
  17   2.0000     -10.368472      -282.1405
  18   2.0000     -10.363782      -282.0129
  19   2.0000     -10.358336      -281.8647
  20   2.0000     -10.349644      -281.6281
  21   2.0000     -10.346006      -281.5291
  22   2.0000     -10.336362      -281.2667
  23   2.0000     -10.334809      -281.2244
  24   2.0000     -10.332466      -281.1607
  25   2.0000     -10.331580      -281.1366
  26   2.0000     -10.327864      -281.0355
  27   2.0000     -10.325121      -280.9608
  28   2.0000     -10.324838      -280.9531
  29   2.0000     -10.321879      -280.8726
  30   2.0000     -10.321316      -280.8573
  31   2.0000     -10.316533      -280.7271
  32   2.0000     -10.314763      -280.6790
  33   2.0000     -10.311687      -280.5953
  34   2.0000     -10.311581      -280.5924
  35   2.0000     -10.311435      -280.5884
  36   2.0000     -10.310700      -280.5684
  37   2.0000     -10.307489      -280.4810
  38   2.0000     -10.303823      -280.3813
  39   2.0000     -10.302913      -280.3565
  40   2.0000     -10.297960      -280.2217
  41   2.0000     -10.295943      -280.1669
  42   2.0000     -10.294839      -280.1368
  43   2.0000     -10.294142      -280.1178
  44   2.0000     -10.293005      -280.0869
  45   2.0000     -10.292739      -280.0797
  46   2.0000     -10.291487      -280.0456
  47   2.0000     -10.289766      -279.9988
  48   2.0000     -10.289616      -279.9947
  49   2.0000     -10.287516      -279.9375
  50   2.0000     -10.287271      -279.9309
  51   2.0000     -10.286881      -279.9203
  52   2.0000     -10.283779      -279.8359
  53   2.0000     -10.283681      -279.8332
  54   2.0000     -10.279667      -279.7240
  55   2.0000     -10.278998      -279.7057
  56   2.0000     -10.278810      -279.7006
  57   2.0000     -10.278403      -279.6896
  58   2.0000     -10.273963      -279.5687
  59   2.0000     -10.273256      -279.5495
  60   2.0000     -10.272938      -279.5409
  61   2.0000     -10.272699      -279.5344
  62   2.0000     -10.270673      -279.4792
  63   2.0000     -10.269339      -279.4429
  64   2.0000     -10.268498      -279.4200
  65   2.0000     -10.266363      -279.3619
  66   2.0000     -10.266262      -279.3592
  67   2.0000     -10.257008      -279.1074
  68   2.0000     -10.246435      -278.8197
  69   2.0000      -8.086269      -220.0386
  70   2.0000      -8.074433      -219.7165
  71   2.0000      -8.068508      -219.5553
  72   2.0000      -8.063345      -219.4148
  73   2.0000      -8.057839      -219.2649
  74   2.0000      -8.031718      -218.5542
  75   2.0000      -6.055587      -164.7809
  76   2.0000      -6.051148      -164.6601
  77   2.0000      -6.048705      -164.5936
  78   2.0000      -6.043940      -164.4640
  79   2.0000      -6.039782      -164.3508
  80   2.0000      -6.037801      -164.2969
  81   2.0000      -6.035966      -164.2470
  82   2.0000      -6.033645      -164.1838
  83   2.0000      -6.032681      -164.1576
  84   2.0000      -6.030402      -164.0956
  85   2.0000      -6.028469      -164.0430
  86   2.0000      -6.027206      -164.0086
  87   2.0000      -6.025208      -163.9542
  88   2.0000      -6.023033      -163.8951
  89   2.0000      -6.019872      -163.8090
  90   2.0000      -6.001300      -163.3037
  91   2.0000      -5.997137      -163.1904
  92   2.0000      -5.993105      -163.0807
  93   2.0000      -1.331783       -36.2397
  94   2.0000      -1.305160       -35.5152
  95   2.0000      -1.290662       -35.1207
  96   2.0000      -1.279912       -34.8282
  97   2.0000      -1.244725       -33.8707
  98   2.0000      -1.148243       -31.2453
  99   2.0000      -1.088083       -29.6082
 100   2.0000      -1.023241       -27.8438
 101   2.0000      -1.011996       -27.5378
 102   2.0000      -1.005939       -27.3730
 103   2.0000      -0.995251       -27.0822
 104   2.0000      -0.993470       -27.0337
 105   2.0000      -0.985294       -26.8112
 106   2.0000      -0.981552       -26.7094
 107   2.0000      -0.970909       -26.4198
 108   2.0000      -0.967039       -26.3145
 109   2.0000      -0.946388       -25.7525
 110   2.0000      -0.945101       -25.7175
 111   2.0000      -0.933391       -25.3989
 112   2.0000      -0.923030       -25.1169
 113   2.0000      -0.913297       -24.8521
 114   2.0000      -0.906805       -24.6754
 115   2.0000      -0.895838       -24.3770
 116   2.0000      -0.893240       -24.3063
 117   2.0000      -0.882876       -24.0243
 118   2.0000      -0.873657       -23.7734
 119   2.0000      -0.865465       -23.5505
 120   2.0000      -0.863290       -23.4913
 121   2.0000      -0.855501       -23.2794
 122   2.0000      -0.854671       -23.2568
 123   2.0000      -0.847235       -23.0544
 124   2.0000      -0.844612       -22.9831
 125   2.0000      -0.838511       -22.8170
 126   2.0000      -0.833492       -22.6805
 127   2.0000      -0.830161       -22.5898
 128   2.0000      -0.824587       -22.4382
 129   2.0000      -0.811640       -22.0858
 130   2.0000      -0.806503       -21.9461
 131   2.0000      -0.798889       -21.7389
 132   2.0000      -0.791894       -21.5485
 133   2.0000      -0.779125       -21.2011
 134   2.0000      -0.764598       -20.8058
 135   2.0000      -0.742904       -20.2154
 136   2.0000      -0.731248       -19.8983
 137   2.0000      -0.728097       -19.8125
 138   2.0000      -0.725484       -19.7414
 139   2.0000      -0.721835       -19.6421
 140   2.0000      -0.710835       -19.3428
 141   2.0000      -0.699987       -19.0476
 142   2.0000      -0.693539       -18.8721
 143   2.0000      -0.687267       -18.7015
 144   2.0000      -0.682483       -18.5713
 145   2.0000      -0.680531       -18.5182
 146   2.0000      -0.675943       -18.3933
 147   2.0000      -0.665287       -18.1034
 148   2.0000      -0.659660       -17.9503
 149   2.0000      -0.656636       -17.8680
 150   2.0000      -0.650059       -17.6890
 151   2.0000      -0.646915       -17.6034
 152   2.0000      -0.645781       -17.5726
 153   2.0000      -0.645770       -17.5723
 154   2.0000      -0.640422       -17.4268
 155   2.0000      -0.636883       -17.3305
 156   2.0000      -0.628704       -17.1079
 157   2.0000      -0.628091       -17.0912
 158   2.0000      -0.621868       -16.9219
 159   2.0000      -0.616140       -16.7660
 160   2.0000      -0.611672       -16.6444
 161   2.0000      -0.608492       -16.5579
 162   2.0000      -0.605712       -16.4823
 163   2.0000      -0.603921       -16.4335
 164   2.0000      -0.599717       -16.3191
 165   2.0000      -0.593242       -16.1429
 166   2.0000      -0.591076       -16.0840
 167   2.0000      -0.587516       -15.9871
 168   2.0000      -0.581829       -15.8324
 169   2.0000      -0.580717       -15.8021
 170   2.0000      -0.571603       -15.5541
 171   2.0000      -0.569763       -15.5041
 172   2.0000      -0.566542       -15.4164
 173   2.0000      -0.565092       -15.3769
 174   2.0000      -0.557647       -15.1744
 175   2.0000      -0.553517       -15.0619
 176   2.0000      -0.548339       -14.9211
 177   2.0000      -0.542133       -14.7522
 178   2.0000      -0.537870       -14.6362
 179   2.0000      -0.537352       -14.6221
 180   2.0000      -0.536786       -14.6067
 181   2.0000      -0.533243       -14.5103
 182   2.0000      -0.530605       -14.4385
 183   2.0000      -0.527149       -14.3444
 184   2.0000      -0.524970       -14.2852
 185   2.0000      -0.524244       -14.2654
 186   2.0000      -0.522273       -14.2118
 187   2.0000      -0.518203       -14.1010
 188   2.0000      -0.512993       -13.9592
 189   2.0000      -0.510936       -13.9033
 190   2.0000      -0.509310       -13.8590
 191   2.0000      -0.507392       -13.8068
 192   2.0000      -0.505324       -13.7506
 193   2.0000      -0.500356       -13.6154
 194   2.0000      -0.499343       -13.5878
 195   2.0000      -0.497724       -13.5437
 196   2.0000      -0.497098       -13.5267
 197   2.0000      -0.496445       -13.5090
 198   2.0000      -0.495638       -13.4870
 199   2.0000      -0.491686       -13.3794
 200   2.0000      -0.483560       -13.1583
 201   2.0000      -0.481717       -13.1082
 202   2.0000      -0.480777       -13.0826
 203   2.0000      -0.477638       -12.9972
 204   2.0000      -0.474583       -12.9141
 205   2.0000      -0.473110       -12.8740
 206   2.0000      -0.470071       -12.7913
 207   2.0000      -0.469294       -12.7701
 208   2.0000      -0.467809       -12.7297
 209   2.0000      -0.467166       -12.7122
 210   2.0000      -0.463020       -12.5994
 211   2.0000      -0.459422       -12.5015
 212   2.0000      -0.457989       -12.4625
 213   2.0000      -0.453281       -12.3344
 214   2.0000      -0.452104       -12.3024
 215   2.0000      -0.447266       -12.1707
 216   2.0000      -0.445529       -12.1235
 217   2.0000      -0.442294       -12.0354
 218   2.0000      -0.437657       -11.9092
 219   2.0000      -0.435101       -11.8397
 220   2.0000      -0.431819       -11.7504
 221   2.0000      -0.431767       -11.7490
 222   2.0000      -0.429835       -11.6964
 223   2.0000      -0.421881       -11.4800
 224   2.0000      -0.420780       -11.4500
 225   2.0000      -0.417428       -11.3588
 226   2.0000      -0.414130       -11.2690
 227   2.0000      -0.412883       -11.2351
 228   2.0000      -0.409974       -11.1560
 229   2.0000      -0.402625       -10.9560
 230   2.0000      -0.401434       -10.9236
 231   2.0000      -0.398998       -10.8573
 232   2.0000      -0.397413       -10.8141
 233   2.0000      -0.395551       -10.7635
 234   2.0000      -0.393708       -10.7133
 235   2.0000      -0.391940       -10.6652
 236   2.0000      -0.384245       -10.4558
 237   2.0000      -0.382018       -10.3952
 238   2.0000      -0.379049       -10.3145
 239   2.0000      -0.375469       -10.2170
 240   2.0000      -0.366911        -9.9842
 241   2.0000      -0.356801        -9.7091
 242   2.0000      -0.354018        -9.6333
 243   2.0000      -0.349072        -9.4987
 244   2.0000      -0.347752        -9.4628
 245   2.0000      -0.343122        -9.3368
 246   2.0000      -0.338491        -9.2108
 247   2.0000      -0.333316        -9.0700
 248   2.0000      -0.329283        -8.9602
 249   2.0000      -0.315734        -8.5915
 250   2.0000      -0.313817        -8.5394
 251   2.0000      -0.303769        -8.2660
 252   2.0000      -0.299035        -8.1372
 253   2.0000      -0.292341        -7.9550
 254   2.0000      -0.282396        -7.6844
 255   2.0000      -0.271858        -7.3976
 256   2.0000      -0.260866        -7.0985
 257   2.0000      -0.234994        -6.3945
 258   2.0000      -0.198430        -5.3996
 259   0.0000      -0.122711        -3.3391
 260   0.0000      -0.080416        -2.1882
 261   0.0000      -0.067030        -1.8240
 262   0.0000      -0.048137        -1.3099
 263   0.0000      -0.030396        -0.8271

MULLIKEN ATOMIC CHARGES
-----------------------
   0 C :   -0.104842
   1 C :    0.301043
   2 F :   -0.202213
   3 C :   -0.042021
   4 C :   -0.012647
   5 C :    0.098550
   6 C :    0.105584
   7 C :   -0.103212
   8 C :    0.043269
   9 C :    0.011058
  10 C :   -0.095121
  11 C :    0.133166
  12 O :   -0.168940
  13 C :   -0.164656
  14 C :    0.270665
  15 C :   -0.377437
  16 C :   -0.210976
  17 N :    0.100025
  18 C :   -0.166945
  19 N :    0.089821
  20 C :   -0.009419
  21 C :   -0.119046
  22 S :    0.124244
  23 C :   -0.059394
  24 C :    0.123025
  25 C :    0.178140
  26 C :   -0.128007
  27 C :    0.236096
  28 F :   -0.175250
  29 C :    0.202793
  30 F :   -0.189868
  31 C :   -0.124580
  32 C :   -0.039892
  33 C :   -0.011254
  34 C :   -0.004027
  35 C :   -0.039858
  36 C :    0.014300
  37 C :    0.026821
  38 C :   -0.057926
  39 S :    0.100723
  40 C :   -0.021367
  41 C :    0.007839
  42 C :    0.035728
  43 C :   -0.067930
  44 S :    0.119889
  45 C :    0.027247
  46 C :   -0.012027
  47 C :   -0.012914
  48 C :    0.008355
  49 C :    0.076272
  50 C :   -0.019479
  51 S :    0.121848
  52 C :    0.005774
  53 C :    0.022853
  54 C :    0.069632
  55 C :   -0.059587
  56 S :    0.116178
  57 C :    0.102155
  58 C :   -0.182644
  59 S :    0.181594
  60 C :   -0.100168
  61 C :    0.123671
  62 C :    0.219336
  63 O :   -0.172744
  64 C :    0.228488
  65 N :    0.272706
  66 O :   -0.239113
  67 O :   -0.227559
  68 C :   -0.051626
  69 H :   -0.017073
  70 H :   -0.006780
  71 H :   -0.017142
  72 H :   -0.018714
  73 H :   -0.023344
  74 H :    0.002720
  75 H :   -0.003014
  76 H :   -0.037117
  77 H :   -0.009441
  78 H :   -0.006403
  79 H :   -0.017594
  80 H :   -0.017096
  81 H :   -0.016376
  82 H :   -0.014219
  83 H :   -0.010064
  84 H :    0.003899
  85 H :   -0.003996
  86 H :   -0.007521
  87 H :   -0.004689
  88 H :   -0.002502
  89 H :    0.007955
  90 H :    0.026043
  91 H :    0.046310
  92 H :    0.021955
Sum of atomic charges:   -0.0000000

LOEWDIN ATOMIC CHARGES
----------------------
   0 C :   -0.050066
   1 C :    0.085746
   2 F :   -0.075899
   3 C :   -0.050570
   4 C :    0.000717
   5 C :   -0.024357
   6 C :    0.000192
   7 C :   -0.010303
   8 C :   -0.007765
   9 C :   -0.051828
  10 C :    0.019498
  11 C :    0.074764
  12 O :   -0.172428
  13 C :   -0.138963
  14 C :    0.050508
  15 C :   -0.209995
  16 C :   -0.019768
  17 N :   -0.121758
  18 C :   -0.013868
  19 N :   -0.121118
  20 C :    0.005303
  21 C :   -0.190851
  22 S :    0.449623
  23 C :   -0.117705
  24 C :   -0.056729
  25 C :   -0.004583
  26 C :   -0.037580
  27 C :    0.067395
  28 F :   -0.053088
  29 C :    0.037660
  30 F :   -0.063589
  31 C :   -0.034733
  32 C :   -0.116558
  33 C :   -0.032660
  34 C :   -0.079029
  35 C :   -0.146810
  36 C :   -0.058766
  37 C :   -0.037084
  38 C :   -0.205343
  39 S :    0.434298
  40 C :   -0.159605
  41 C :   -0.061231
  42 C :   -0.024610
  43 C :   -0.191509
  44 S :    0.433564
  45 C :   -0.016933
  46 C :   -0.076250
  47 C :   -0.130162
  48 C :   -0.046372
  49 C :    0.004129
  50 C :   -0.192505
  51 S :    0.447516
  52 C :   -0.108498
  53 C :   -0.045953
  54 C :    0.019486
  55 C :   -0.173831
  56 S :    0.431912
  57 C :    0.040503
  58 C :   -0.204513
  59 S :    0.515608
  60 C :   -0.134843
  61 C :   -0.086797
  62 C :    0.054465
  63 O :    0.014462
  64 C :    0.027707
  65 N :    0.271535
  66 O :   -0.200734
  67 O :   -0.189723
  68 C :   -0.001428
  69 H :    0.037132
  70 H :    0.037097
  71 H :    0.032359
  72 H :    0.033568
  73 H :    0.034755
  74 H :    0.038740
  75 H :    0.043924
  76 H :    0.029701
  77 H :    0.007729
  78 H :    0.028453
  79 H :    0.034177
  80 H :    0.031062
  81 H :    0.031077
  82 H :    0.031765
  83 H :    0.033616
  84 H :    0.044679
  85 H :    0.041485
  86 H :    0.034862
  87 H :    0.037019
  88 H :    0.037973
  89 H :    0.042967
  90 H :    0.057407
  91 H :    0.032823
  92 H :    0.048330

  Mayer bond orders larger than 0.100000
B(  0-C ,  1-C ) :   1.4338 B(  0-C ,  6-C ) :   1.2088 B(  0-C , 69-H ) :   1.0055
B(  1-C ,  2-F ) :   1.0758 B(  1-C ,  3-C ) :   1.2673 B(  3-C ,  4-C ) :   1.4440
B(  3-C , 70-H ) :   0.9936 B(  4-C ,  5-C ) :   1.2487 B(  4-C , 71-H ) :   0.9958
B(  5-C ,  6-C ) :   1.2685 B(  5-C , 10-C ) :   1.1651 B(  6-C ,  7-C ) :   1.1804
B(  7-C ,  8-C ) :   1.4878 B(  7-C , 72-H ) :   0.9933 B(  8-C ,  9-C ) :   1.2155
B(  8-C , 14-C ) :   0.9849 B(  9-C , 10-C ) :   1.4993 B(  9-C , 11-C ) :   0.9076
B( 10-C , 73-H ) :   1.0144 B( 11-C , 12-O ) :   2.2438 B( 11-C , 13-C ) :   0.9894
B( 13-C , 14-C ) :   1.2295 B( 13-C , 20-C ) :   1.3049 B( 14-C , 15-C ) :   1.4459
B( 15-C , 16-C ) :   1.2099 B( 15-C , 18-C ) :   1.1737 B( 16-C , 17-N ) :   2.9289
B( 18-C , 19-N ) :   2.9149 B( 20-C , 21-C ) :   1.4696 B( 20-C , 74-H ) :   0.9398
B( 21-C , 22-S ) :   1.0329 B( 21-C , 25-C ) :   1.1473 B( 22-S , 23-C ) :   1.1167
B( 23-C , 24-C ) :   1.1297 B( 23-C , 32-C ) :   1.5180 B( 24-C , 25-C ) :   1.2976
B( 24-C , 31-C ) :   1.2367 B( 25-C , 26-C ) :   1.2533 B( 26-C , 27-C ) :   1.3999
B( 26-C , 31-C ) :   0.1045 B( 26-C , 75-H ) :   1.0014 B( 27-C , 28-F ) :   1.1334
B( 27-C , 29-C ) :   1.2443 B( 29-C , 30-F ) :   1.0959 B( 29-C , 31-C ) :   1.4144
B( 31-C , 76-H ) :   0.9955 B( 32-C , 33-C ) :   1.2395 B( 32-C , 77-H ) :   0.9150
B( 33-C , 34-C ) :   1.5357 B( 33-C , 78-H ) :   0.9673 B( 34-C , 35-C ) :   1.2348
B( 34-C , 79-H ) :   0.9622 B( 35-C , 36-C ) :   1.3784 B( 35-C , 39-S ) :   1.1055
B( 36-C , 37-C ) :   1.3452 B( 36-C , 80-H ) :   1.0001 B( 37-C , 38-C ) :   1.4236
B( 37-C , 81-H ) :   0.9940 B( 38-C , 39-S ) :   1.0901 B( 38-C , 40-C ) :   1.1970
B( 40-C , 41-C ) :   1.4076 B( 40-C , 44-S ) :   1.1368 B( 41-C , 42-C ) :   1.3578
B( 41-C , 82-H ) :   0.9944 B( 42-C , 43-C ) :   1.3715 B( 42-C , 83-H ) :   0.9988
B( 43-C , 44-S ) :   1.0767 B( 43-C , 45-C ) :   1.2410 B( 45-C , 46-C ) :   1.5677
B( 45-C , 84-H ) :   0.9527 B( 46-C , 47-C ) :   1.2434 B( 46-C , 85-H ) :   0.9508
B( 47-C , 48-C ) :   1.3289 B( 47-C , 51-S ) :   1.1348 B( 48-C , 49-C ) :   1.4115
B( 48-C , 86-H ) :   1.0000 B( 49-C , 50-C ) :   1.3451 B( 49-C , 87-H ) :   0.9901
B( 50-C , 51-S ) :   1.0786 B( 50-C , 52-C ) :   1.3039 B( 52-C , 53-C ) :   1.2865
B( 52-C , 56-S ) :   1.1449 B( 53-C , 54-C ) :   1.4864 B( 53-C , 88-H ) :   0.9948
B( 54-C , 55-C ) :   1.2124 B( 54-C , 89-H ) :   1.0007 B( 55-C , 56-S ) :   1.0405
B( 55-C , 57-C ) :   1.4668 B( 57-C , 58-C ) :   1.2470 B( 57-C , 90-H ) :   0.9712
B( 58-C , 59-S ) :   1.0803 B( 58-C , 62-C ) :   1.4014 B( 59-S , 60-C ) :   1.2445
B( 60-C , 61-C ) :   1.3752 B( 60-C , 91-H ) :   0.9715 B( 61-C , 62-C ) :   1.2524
B( 61-C , 68-C ) :   1.0608 B( 62-C , 63-O ) :   1.1591 B( 63-O , 64-C ) :   1.1086
B( 64-C , 65-N ) :   0.9119 B( 64-C , 68-C ) :   1.5890 B( 65-N , 66-O ) :   1.5411
B( 65-N , 67-O ) :   1.5126 B( 66-O , 67-O ) :   0.2834 B( 68-C , 92-H ) :   1.0196

-----------------------------------------------------------------------------
         ABSORPTION SPECTRUM VIA TRANSITION ELECTRIC DIPOLE MOMENTS
-----------------------------------------------------------------------------
State   Energy  Wavelength   fosc         T2         TX        TY        TZ
        (cm-1)    (nm)                  (au**2)     (au)      (au)      (au)
-----------------------------------------------------------------------------
   0    1813.3   5514.8   0.015242313   2.76729   0.97247  -0.72207  -1.14027
   1    8422.3   1187.3   0.027861258   1.08904  -0.13565   0.09584   1.03027
   2   11737.3    852.0   0.325634594   9.13350   2.79108   0.29758   1.12020
   3   13785.0    725.4   0.384996344   9.19443   2.72458   0.84783   1.02581
   4   14969.9    668.0   0.191859673   4.21929  -0.61689   1.21242  -1.53908
   5   18029.8    554.6   0.042110819   0.76891  -0.13230  -0.81482   0.29577
   6   18327.4    545.6   0.037985423   0.68233   0.10657   0.46541  -0.67406
   7   20266.1    493.4   1.113518597  18.08855   1.67462  -3.66494   1.36103
   8   20760.2    481.7   0.056217702   0.89149   0.63149   0.61429  -0.33965
   9   21564.1    463.7   0.269732631   4.11792  -0.00990  -1.96565   0.50401
  10   22296.2    448.5   0.051318531   0.75774   0.78055  -0.26331   0.28133
  11   22807.9    438.4   0.246750089   3.56162  -1.07042   1.41959  -0.63291
  12   23490.7    425.7   0.148528776   2.08156   0.03163  -1.02180   1.01808
  13   23971.3    417.2   0.120317723   1.65240  -0.46749  -1.17971   0.20524
  14   24689.8    405.0   0.145231904   1.93651   0.51996   1.28662  -0.10376
  15   25200.6    396.8   0.398870988   5.21071   1.66130   1.41286   0.67425
  16   25576.0    391.0   0.031548938   0.40610   0.54255   0.31178   0.12053
  17   25748.1    388.4   0.042174748   0.53924  -0.56800   0.19848  -0.42097
  18   26613.0    375.8   0.315277466   3.90009  -1.49243  -1.22278  -0.42135
  19   27406.8    364.9   0.176010444   2.11424  -0.31022  -1.19133   0.77379
  20   27607.6    362.2   0.084276123   1.00497  -0.00676  -0.94345   0.33886
  21   27961.3    357.6   0.005373993   0.06327   0.19603  -0.02728   0.15525
  22   28543.6    350.3   0.228251771   2.63257   0.03090  -1.07987   1.21058
  23   29166.7    342.9   0.011134418   0.12568  -0.08873   0.27062  -0.21111
  24   29256.3    341.8   0.070371703   0.79187  -0.07729  -0.82741   0.31825
  25   29387.1    340.3   0.031154798   0.34902   0.05020   0.57755  -0.11373
  26   29539.1    338.5   0.096892608   1.07986   0.30410  -0.58016   0.80672
  27   29799.2    335.6   0.040300806   0.44523  -0.09968   0.38527  -0.53559
  28   30410.0    328.8   0.036207065   0.39197  -0.02163   0.41975   0.46401
  29   30683.8    325.9   0.068906557   0.73931  -0.22613   0.73402  -0.38651
  30   30972.8    322.9   0.013332725   0.14171   0.34620  -0.05772   0.13611
  31   31231.3    320.2   0.031144421   0.32830   0.14902   0.07736   0.54782
  32   31483.0    317.6   0.064691012   0.67646  -0.58973  -0.28078   0.49984
  33   31861.4    313.9   0.012651811   0.13073  -0.26742   0.23652  -0.05721
  34   31899.2    313.5   0.069300444   0.71521   0.27073   0.79189   0.12175
  35   32074.1    311.8   0.077810169   0.79865   0.65825   0.16750   0.58078
  36   32374.1    308.9   0.014212921   0.14453  -0.12822   0.26310   0.24263
  37   33133.6    301.8   0.008043277   0.07992  -0.18487  -0.21201   0.02814
  38   33199.1    301.2   0.010954959   0.10863   0.18486  -0.18139  -0.20385
  39   33258.8    300.7   0.083397288   0.82551  -0.46658  -0.33204   0.70538
  40   33479.7    298.7   0.017023218   0.16739   0.19782  -0.13345   0.33234
  41   33635.7    297.3   0.110623239   1.08273  -0.51113  -0.86598   0.26749
  42   33984.0    294.3   0.107613878   1.04248   0.33196   0.49239  -0.83057
  43   34162.8    292.7   0.036043807   0.34734  -0.07369   0.36991  -0.45285
  44   34355.8    291.1   0.030884699   0.29595   0.47512   0.22495  -0.14004
  45   34545.6    289.5   0.030258507   0.28836   0.40262   0.28434   0.21309
  46   34831.1    287.1   0.039764015   0.37584   0.52492   0.22552   0.22233
  47   35022.9    285.5   0.003544397   0.03332   0.13833   0.06940  -0.09678
  48   35085.2    285.0   0.117543283   1.10293  -0.30781   0.44559  -0.89980
  49   35410.8    282.4   0.070918209   0.65932  -0.40174  -0.18643   0.68057
  50   35893.5    278.6   0.112262201   1.02966  -0.80609  -0.53264   0.31013
  51   36219.1    276.1   0.093498546   0.84985   0.24181   0.53444  -0.71116
  52   36409.7    274.7   0.015679296   0.14177  -0.08883   0.01861   0.36542
  53   36567.9    273.5   0.009228965   0.08309  -0.08920  -0.09099   0.25856
  54   37108.8    269.5   0.027358361   0.24271  -0.41854   0.09565  -0.24163
  55   37532.7    266.4   0.137554185   1.20653  -0.12120   0.50518  -0.96780
  56   37680.5    265.4   0.006170343   0.05391  -0.20063  -0.06867  -0.09457
  57   37878.5    264.0   0.012244632   0.10642   0.25864   0.19854  -0.01054
  58   37919.1    263.7   0.070841696   0.61504  -0.77150   0.11759  -0.07745
  59   38042.0    262.9   0.108961241   0.94294   0.45575   0.42599  -0.74415
  60   38214.8    261.7   0.076717065   0.66090  -0.65999  -0.18342   0.43781
  61   38538.1    259.5   0.071175922   0.60802   0.11555  -0.40699   0.65501
  62   38737.8    258.1   0.026447540   0.22476   0.15341  -0.38102  -0.23675
  63   39013.0    256.3   0.026593666   0.22441   0.07324   0.28755  -0.36927
  64   39216.0    255.0   0.100644285   0.84489   0.55321  -0.37156   0.63308
  65   39307.3    254.4   0.039622232   0.33185  -0.48631   0.23206  -0.20370
  66   39313.3    254.4   0.029009202   0.24292  -0.04454  -0.44933   0.19759
  67   39476.2    253.3   0.001257581   0.01049   0.05536   0.05983   0.06200
  68   39774.3    251.4   0.041759236   0.34564   0.46670   0.19195  -0.30165
  69   39897.0    250.6   0.002083108   0.01719  -0.00126   0.04943  -0.12143
  70   39943.0    250.4   0.063507537   0.52343   0.23039  -0.65811  -0.19299
  71   40182.1    248.9   0.004060820   0.03327  -0.05106  -0.16123   0.06833

FINAL SINGLE POINT ENERGY     -5183.464580680363

DIPOLE MOMENT
-------------
                                X             Y             Z
Electronic contribution:    -18.51156      16.32691     -21.12419
Nuclear contribution   :     23.50367     -18.38404      21.72049
                        -----------------------------------------
Total Dipole Moment    :      4.99210      -2.05713       0.59629
                        -----------------------------------------
Magnitude (a.u.)       :      5.43217
Magnitude (Debye)      :     13.80747

Rotational constants in cm-1:     0.001022     0.000803     0.000590
Rotational constants in MHz :    30.642483    24.078420    17.701979

                             ****ORCA TERMINATED NORMALLY****
TOTAL RUN TIME: 0 days 0 hours 17 minutes 56 seconds 47 msec
