                         Program Version 4.2.0 -  RELEASE  -
|  1> # ORCA input file
|  2> # SCF done       -202.093429411635          0.000754605235
|  3> ! CAM-B3LYP def2-SVP def2/J RIJCOSX Grid4 TightSCF
|  4> %maxcore 5000
|  5> %tddft
|  6>     Mode sTDDFT
|  7>     Ethresh 5.0
|  8>     maxcore 5000
|  9> end
| 10>
| 11> %pal
| 12>   nprocs 6
| 13>   end
| 14> * xyz 0 1
| 15>    C      -10.32105        -0.50301        -3.29778
| 16>    C      -11.42034         0.31511        -3.32041
| 17>    C      -12.72658        -0.10268        -2.98754
| 18>    N      -13.80925        -0.37726        -2.72333
| 19>    C      -11.40792         1.68518        -3.65623
| 20>    N      -11.47895         2.80091        -3.91862
| 21>    C      -10.32383        -1.92190        -2.96389
| 22>    C       -8.99191        -2.40562        -2.98774
| 23>    C       -8.67317        -3.71549        -2.72483
| 24>    C       -9.72091        -4.59695        -2.44040
| 25>    C      -11.04939        -4.10609        -2.41908
| 26>    C      -11.37029        -2.77898        -2.67287
| 27>    S      -12.18917        -5.36356        -2.04797
| 28>    C      -10.88599        -6.51607        -1.93177
| 29>    C       -9.65892        -5.98837        -2.15658
| 30>   Br      -11.26814        -8.30526        -1.52423
| 31>    C       -8.07575        -1.30432        -3.32751
| 32>    O       -6.87106        -1.30310        -3.23086
| 33>    C       -8.95745        -0.13764        -3.63996
| 34>    C       -8.51084         1.06557        -4.08757
| 35>    C       -7.23321         1.25878        -4.67665
| 36>    O       -6.68430         2.50666        -4.69800
| 37>    C       -6.41095         0.41267        -5.39511
| 38>    C       -6.29814        -0.93776        -5.97050
| 39>    O       -7.05016        -1.87574        -5.94406
| 40>    N       -5.09339        -0.89498        -6.66259
| 41>    C       -4.43996         0.33821        -6.65488
| 42>    O       -3.41115         0.58053        -7.22897
| 43>    C       -5.31455         1.18344        -5.83925
| 44>    C       -5.51330         2.47483        -5.38017
| 45>    C       -4.70545         3.63163        -5.55676
| 46>    C       -5.06871         4.86072        -5.14074
| 47>    C       -4.29493         6.08162        -5.21660
| 48>    C       -4.27491         6.83255        -4.07061
| 49>    S       -3.22953         8.18247        -4.10653
| 50>    C       -2.84856         7.82949        -5.76433
| 51>    C       -3.48545         6.67857        -6.26203
| 52>    C       -3.34762         6.38715        -7.64461
| 53>    C       -4.03554         5.18183        -8.23242
| 54>    C       -3.05554         4.01425        -8.40835
| 55>    C       -2.58197         7.20660        -8.46508
| 56>    C       -2.53737         7.00357        -9.95480
| 57>    C       -3.60706         7.87008       -10.62595
| 58>    C       -1.88963         8.31955        -7.93264
| 59>    C       -0.98332         9.25696        -8.55169
| 60>    C       -0.50549        10.16382        -7.65733
| 61>    S       -1.11487         9.98978        -6.05787
| 62>    C       -2.03211         8.60777        -6.56699
| 63>    C       -0.53736         9.32092        -9.94180
| 64>    C        0.74908         9.42060       -10.26689
| 65>    C        1.24100         9.49776       -11.66558
| 66>    O        2.44240        10.26091       -11.82278
| 67>    C        3.16660         9.14661       -12.33209
| 68>    C        1.96867         8.20004       -12.16055
| 69>    C        1.41941         7.57194       -13.37331
| 70>    C        0.89993         6.33435       -13.40293
| 71>    C        0.44450         5.64309       -14.56860
| 72>    C        0.00556         6.09338       -15.77114
| 73>    C       -0.40953         7.38659       -16.27901
| 74>    C       -1.00059         8.39672       -15.56712
| 75>    C       -1.48434         9.59004       -16.14359
| 76>    N       -1.88295        10.58164       -16.56136
| 77>    C       -1.25985         8.33256       -14.18664
| 78>    N       -1.50591         8.32902       -13.06521
| 79>    C       -0.32639         7.32930       -17.73405
| 80>    C       -0.11069         5.98432       -18.12746
| 81>    C        0.01169         5.14146       -16.92339
| 82>    O        0.13748         3.94143       -16.86429
| 83>    C       -0.02331         5.60646       -19.44551
| 84>    C       -0.14186         6.60363       -20.41934
| 85>    C       -0.34156         7.94642       -20.01527
| 86>    C       -0.43905         8.32784       -18.68306
| 87>    S       -0.44624         9.01567       -21.37993
| 88>    C       -0.22895         7.66473       -22.46058
| 89>    C       -0.08304         6.47290       -21.83351
| 90>   Br       -0.21114         7.95583       -24.31264
| 91>    H       -7.64858        -4.05040        -2.75288
| 92>    H      -12.39723        -2.45519        -2.64372
| 93>    H       -8.74679        -6.55573        -2.12537
| 94>    H       -9.13850         1.94560        -4.04468
| 95>    H       -4.73275        -1.69322        -7.16592
| 96>    H       -3.76986         3.44907        -6.05740
| 97>    H       -5.99250         4.94857        -4.58022
| 98>    H       -4.79535         6.60414        -3.15999
| 99>    H       -4.47465         5.43416        -9.19742
|100>    H       -4.85430         4.88270        -7.58285
|101>    H       -2.40587         4.16968        -9.26550
|102>    H       -3.59001         3.07912        -8.55458
|103>    H       -2.41197         3.91275        -7.53769
|104>    H       -2.70307         5.96545       -10.22753
|105>    H       -1.55347         7.28108       -10.33104
|106>    H       -4.60365         7.53081       -10.35107
|107>    H       -3.50332         7.81868       -11.70639
|108>    H       -3.51258         8.90828       -10.31703
|109>    H        0.16935        10.97016        -7.86925
|110>    H       -1.28626         9.33206       -10.71968
|111>    H        1.52114         9.40370        -9.50983
|112>    H        0.45436         9.84061       -12.34574
|113>    H        4.04113         8.91102       -11.71999
|114>    H        3.47907         9.30814       -13.36886
|115>    H        2.08894         7.47355       -11.35657
|116>    H        1.48251         8.16010       -14.28020
|117>    H        0.91011         5.74732       -12.49358
|118>    H        0.54122         4.56113       -14.52170
|119>    H        0.13227         4.57437       -19.71754
|120>    H       -0.58410         9.36320       -18.42224
|121>    H        0.06102         5.53935       -22.34589
|122> *
|123>
|124>                          ****END OF INPUT****

CARTESIAN COORDINATES (ANGSTROEM)
---------------------------------
  C    -10.321050   -0.503010   -3.297780
  C    -11.420340    0.315110   -3.320410
  C    -12.726580   -0.102680   -2.987540
  N    -13.809250   -0.377260   -2.723330
  C    -11.407920    1.685180   -3.656230
  N    -11.478950    2.800910   -3.918620
  C    -10.323830   -1.921900   -2.963890
  C     -8.991910   -2.405620   -2.987740
  C     -8.673170   -3.715490   -2.724830
  C     -9.720910   -4.596950   -2.440400
  C    -11.049390   -4.106090   -2.419080
  C    -11.370290   -2.778980   -2.672870
  S    -12.189170   -5.363560   -2.047970
  C    -10.885990   -6.516070   -1.931770
  C     -9.658920   -5.988370   -2.156580
  Br   -11.268140   -8.305260   -1.524230
  C     -8.075750   -1.304320   -3.327510
  O     -6.871060   -1.303100   -3.230860
  C     -8.957450   -0.137640   -3.639960
  C     -8.510840    1.065570   -4.087570
  C     -7.233210    1.258780   -4.676650
  O     -6.684300    2.506660   -4.698000
  C     -6.410950    0.412670   -5.395110
  C     -6.298140   -0.937760   -5.970500
  O     -7.050160   -1.875740   -5.944060
  N     -5.093390   -0.894980   -6.662590
  C     -4.439960    0.338210   -6.654880
  O     -3.411150    0.580530   -7.228970
  C     -5.314550    1.183440   -5.839250
  C     -5.513300    2.474830   -5.380170
  C     -4.705450    3.631630   -5.556760
  C     -5.068710    4.860720   -5.140740
  C     -4.294930    6.081620   -5.216600
  C     -4.274910    6.832550   -4.070610
  S     -3.229530    8.182470   -4.106530
  C     -2.848560    7.829490   -5.764330
  C     -3.485450    6.678570   -6.262030
  C     -3.347620    6.387150   -7.644610
  C     -4.035540    5.181830   -8.232420
  C     -3.055540    4.014250   -8.408350
  C     -2.581970    7.206600   -8.465080
  C     -2.537370    7.003570   -9.954800
  C     -3.607060    7.870080  -10.625950
  C     -1.889630    8.319550   -7.932640
  C     -0.983320    9.256960   -8.551690
  C     -0.505490   10.163820   -7.657330
  S     -1.114870    9.989780   -6.057870
  C     -2.032110    8.607770   -6.566990
  C     -0.537360    9.320920   -9.941800
  C      0.749080    9.420600  -10.266890
  C      1.241000    9.497760  -11.665580
  O      2.442400   10.260910  -11.822780
  C      3.166600    9.146610  -12.332090
  C      1.968670    8.200040  -12.160550
  C      1.419410    7.571940  -13.373310
  C      0.899930    6.334350  -13.402930
  C      0.444500    5.643090  -14.568600
  C      0.005560    6.093380  -15.771140
  C     -0.409530    7.386590  -16.279010
  C     -1.000590    8.396720  -15.567120
  C     -1.484340    9.590040  -16.143590
  N     -1.882950   10.581640  -16.561360
  C     -1.259850    8.332560  -14.186640
  N     -1.505910    8.329020  -13.065210
  C     -0.326390    7.329300  -17.734050
  C     -0.110690    5.984320  -18.127460
  C      0.011690    5.141460  -16.923390
  O      0.137480    3.941430  -16.864290
  C     -0.023310    5.606460  -19.445510
  C     -0.141860    6.603630  -20.419340
  C     -0.341560    7.946420  -20.015270
  C     -0.439050    8.327840  -18.683060
  S     -0.446240    9.015670  -21.379930
  C     -0.228950    7.664730  -22.460580
  C     -0.083040    6.472900  -21.833510
  Br    -0.211140    7.955830  -24.312640
  H     -7.648580   -4.050400   -2.752880
  H    -12.397230   -2.455190   -2.643720
  H     -8.746790   -6.555730   -2.125370
  H     -9.138500    1.945600   -4.044680
  H     -4.732750   -1.693220   -7.165920
  H     -3.769860    3.449070   -6.057400
  H     -5.992500    4.948570   -4.580220
  H     -4.795350    6.604140   -3.159990
  H     -4.474650    5.434160   -9.197420
  H     -4.854300    4.882700   -7.582850
  H     -2.405870    4.169680   -9.265500
  H     -3.590010    3.079120   -8.554580
  H     -2.411970    3.912750   -7.537690
  H     -2.703070    5.965450  -10.227530
  H     -1.553470    7.281080  -10.331040
  H     -4.603650    7.530810  -10.351070
  H     -3.503320    7.818680  -11.706390
  H     -3.512580    8.908280  -10.317030
  H      0.169350   10.970160   -7.869250
  H     -1.286260    9.332060  -10.719680
  H      1.521140    9.403700   -9.509830
  H      0.454360    9.840610  -12.345740
  H      4.041130    8.911020  -11.719990
  H      3.479070    9.308140  -13.368860
  H      2.088940    7.473550  -11.356570
  H      1.482510    8.160100  -14.280200
  H      0.910110    5.747320  -12.493580
  H      0.541220    4.561130  -14.521700
  H      0.132270    4.574370  -19.717540
  H     -0.584100    9.363200  -18.422240
  H      0.061020    5.539350  -22.345890

 Total Charge           Charge          ....    0
 Multiplicity           Mult            ....    1
 Number of Electrons    NEL             ....  602
 Basis Dimension        Dim             .... 1271

ORBITAL ENERGIES
----------------

  NO   OCC          E(Eh)            E(eV)
   0   2.0000    -482.890913    -13140.1298
   1   2.0000    -482.885893    -13139.9932
   2   2.0000     -88.982405     -2421.3343
   3   2.0000     -88.975671     -2421.1511
   4   2.0000     -88.954661     -2420.5794
   5   2.0000     -88.945667     -2420.3347
   6   2.0000     -62.568651     -1702.5795
   7   2.0000     -62.563608     -1702.4423
   8   2.0000     -56.402608     -1534.7930
   9   2.0000     -56.399876     -1534.7186
  10   2.0000     -56.399847     -1534.7178
  11   2.0000     -56.397557     -1534.6556
  12   2.0000     -56.394840     -1534.5816
  13   2.0000     -56.394812     -1534.5808
  14   2.0000     -19.316991      -525.6421
  15   2.0000     -19.222479      -523.0702
  16   2.0000     -19.216180      -522.8988
  17   2.0000     -19.215532      -522.8812
  18   2.0000     -19.214280      -522.8471
  19   2.0000     -19.205819      -522.6169
  20   2.0000     -14.457639      -393.4123
  21   2.0000     -14.431165      -392.6920
  22   2.0000     -14.424727      -392.5168
  23   2.0000     -14.419053      -392.3624
  24   2.0000     -14.417030      -392.3073
  25   2.0000     -10.403925      -283.1052
  26   2.0000     -10.403257      -283.0870
  27   2.0000     -10.373287      -282.2715
  28   2.0000     -10.370409      -282.1932
  29   2.0000     -10.368748      -282.1480
  30   2.0000     -10.365399      -282.0569
  31   2.0000     -10.363385      -282.0021
  32   2.0000     -10.359432      -281.8945
  33   2.0000     -10.353520      -281.7336
  34   2.0000     -10.352815      -281.7144
  35   2.0000     -10.345490      -281.5151
  36   2.0000     -10.344520      -281.4887
  37   2.0000     -10.333750      -281.1956
  38   2.0000     -10.333447      -281.1874
  39   2.0000     -10.327256      -281.0189
  40   2.0000     -10.326041      -280.9859
  41   2.0000     -10.324226      -280.9365
  42   2.0000     -10.322879      -280.8998
  43   2.0000     -10.322160      -280.8803
  44   2.0000     -10.321425      -280.8602
  45   2.0000     -10.320914      -280.8463
  46   2.0000     -10.319663      -280.8123
  47   2.0000     -10.317038      -280.7409
  48   2.0000     -10.315077      -280.6875
  49   2.0000     -10.314287      -280.6660
  50   2.0000     -10.309464      -280.5348
  51   2.0000     -10.308977      -280.5215
  52   2.0000     -10.308056      -280.4965
  53   2.0000     -10.307248      -280.4745
  54   2.0000     -10.307226      -280.4739
  55   2.0000     -10.306004      -280.4406
  56   2.0000     -10.304771      -280.4071
  57   2.0000     -10.302890      -280.3559
  58   2.0000     -10.302094      -280.3342
  59   2.0000     -10.301396      -280.3152
  60   2.0000     -10.300946      -280.3030
  61   2.0000     -10.300466      -280.2899
  62   2.0000     -10.299915      -280.2749
  63   2.0000     -10.296957      -280.1944
  64   2.0000     -10.296645      -280.1860
  65   2.0000     -10.294062      -280.1157
  66   2.0000     -10.293233      -280.0931
  67   2.0000     -10.292545      -280.0744
  68   2.0000     -10.292356      -280.0692
  69   2.0000     -10.289229      -279.9842
  70   2.0000     -10.288980      -279.9774
  71   2.0000     -10.288422      -279.9622
  72   2.0000     -10.287280      -279.9311
  73   2.0000     -10.281522      -279.7744
  74   2.0000     -10.275302      -279.6052
  75   2.0000     -10.273077      -279.5446
  76   2.0000     -10.270277      -279.4685
  77   2.0000     -10.270248      -279.4677
  78   2.0000     -10.267847      -279.4023
  79   2.0000     -10.263496      -279.2839
  80   2.0000     -10.256514      -279.0939
  81   2.0000     -10.252529      -278.9855
  82   2.0000     -10.248930      -278.8876
  83   2.0000     -10.241636      -278.6891
  84   2.0000      -8.798101      -239.4085
  85   2.0000      -8.793041      -239.2708
  86   2.0000      -8.078368      -219.8236
  87   2.0000      -8.071665      -219.6412
  88   2.0000      -8.050907      -219.0763
  89   2.0000      -8.041959      -218.8328
  90   2.0000      -6.634444      -180.5324
  91   2.0000      -6.629329      -180.3932
  92   2.0000      -6.619821      -180.1345
  93   2.0000      -6.619601      -180.1285
  94   2.0000      -6.614791      -179.9976
  95   2.0000      -6.614570      -179.9916
  96   2.0000      -6.048051      -164.5758
  97   2.0000      -6.043773      -164.4594
  98   2.0000      -6.041366      -164.3939
  99   2.0000      -6.039611      -164.3462
 100   2.0000      -6.037075      -164.2772
 101   2.0000      -6.032885      -164.1631
 102   2.0000      -6.020296      -163.8206
 103   2.0000      -6.016136      -163.7074
 104   2.0000      -6.012732      -163.6147
 105   2.0000      -6.011464      -163.5803
 106   2.0000      -6.007278      -163.4664
 107   2.0000      -6.003567      -163.3654
 108   2.0000      -2.750294       -74.8393
 109   2.0000      -2.746231       -74.7287
 110   2.0000      -2.746034       -74.7234
 111   2.0000      -2.745244       -74.7019
 112   2.0000      -2.741106       -74.5893
 113   2.0000      -2.740954       -74.5852
 114   2.0000      -2.734421       -74.4074
 115   2.0000      -2.734409       -74.4071
 116   2.0000      -2.729395       -74.2706
 117   2.0000      -2.729389       -74.2705
 118   2.0000      -1.233007       -33.5518
 119   2.0000      -1.159796       -31.5597
 120   2.0000      -1.140240       -31.0275
 121   2.0000      -1.138298       -30.9747
 122   2.0000      -1.133519       -30.8446
 123   2.0000      -1.131178       -30.7809
 124   2.0000      -1.046511       -28.4770
 125   2.0000      -1.032525       -28.0964
 126   2.0000      -1.024098       -27.8671
 127   2.0000      -1.023537       -27.8519
 128   2.0000      -1.014971       -27.6188
 129   2.0000      -1.006851       -27.3978
 130   2.0000      -1.000158       -27.2157
 131   2.0000      -0.998338       -27.1662
 132   2.0000      -0.996565       -27.1179
 133   2.0000      -0.991312       -26.9750
 134   2.0000      -0.970437       -26.4069
 135   2.0000      -0.952111       -25.9083
 136   2.0000      -0.947554       -25.7843
 137   2.0000      -0.931750       -25.3542
 138   2.0000      -0.929535       -25.2939
 139   2.0000      -0.928959       -25.2783
 140   2.0000      -0.920931       -25.0598
 141   2.0000      -0.916989       -24.9525
 142   2.0000      -0.909674       -24.7535
 143   2.0000      -0.904717       -24.6186
 144   2.0000      -0.896557       -24.3966
 145   2.0000      -0.894008       -24.3272
 146   2.0000      -0.890860       -24.2415
 147   2.0000      -0.886307       -24.1176
 148   2.0000      -0.876237       -23.8436
 149   2.0000      -0.864319       -23.5193
 150   2.0000      -0.856785       -23.3143
 151   2.0000      -0.854689       -23.2573
 152   2.0000      -0.844643       -22.9839
 153   2.0000      -0.837106       -22.7788
 154   2.0000      -0.829939       -22.5838
 155   2.0000      -0.825147       -22.4534
 156   2.0000      -0.814606       -22.1666
 157   2.0000      -0.812763       -22.1164
 158   2.0000      -0.795881       -21.6570
 159   2.0000      -0.783727       -21.3263
 160   2.0000      -0.777776       -21.1643
 161   2.0000      -0.776642       -21.1335
 162   2.0000      -0.768940       -20.9239
 163   2.0000      -0.763277       -20.7698
 164   2.0000      -0.762550       -20.7500
 165   2.0000      -0.756865       -20.5953
 166   2.0000      -0.753163       -20.4946
 167   2.0000      -0.724066       -19.7028
 168   2.0000      -0.721482       -19.6325
 169   2.0000      -0.714447       -19.4411
 170   2.0000      -0.704626       -19.1738
 171   2.0000      -0.702984       -19.1292
 172   2.0000      -0.698856       -19.0169
 173   2.0000      -0.695980       -18.9386
 174   2.0000      -0.692679       -18.8488
 175   2.0000      -0.690603       -18.7923
 176   2.0000      -0.681781       -18.5522
 177   2.0000      -0.674585       -18.3564
 178   2.0000      -0.672503       -18.2997
 179   2.0000      -0.667377       -18.1603
 180   2.0000      -0.657480       -17.8909
 181   2.0000      -0.654555       -17.8113
 182   2.0000      -0.642564       -17.4851
 183   2.0000      -0.639045       -17.3893
 184   2.0000      -0.631909       -17.1951
 185   2.0000      -0.630154       -17.1473
 186   2.0000      -0.625190       -17.0123
 187   2.0000      -0.620495       -16.8845
 188   2.0000      -0.612074       -16.6554
 189   2.0000      -0.609161       -16.5761
 190   2.0000      -0.608877       -16.5684
 191   2.0000      -0.604754       -16.4562
 192   2.0000      -0.600587       -16.3428
 193   2.0000      -0.599091       -16.3021
 194   2.0000      -0.595146       -16.1947
 195   2.0000      -0.592556       -16.1243
 196   2.0000      -0.589877       -16.0514
 197   2.0000      -0.584575       -15.9071
 198   2.0000      -0.572308       -15.5733
 199   2.0000      -0.571078       -15.5398
 200   2.0000      -0.570137       -15.5142
 201   2.0000      -0.561515       -15.2796
 202   2.0000      -0.556459       -15.1420
 203   2.0000      -0.552457       -15.0331
 204   2.0000      -0.551889       -15.0177
 205   2.0000      -0.548694       -14.9307
 206   2.0000      -0.548250       -14.9186
 207   2.0000      -0.544910       -14.8277
 208   2.0000      -0.542998       -14.7757
 209   2.0000      -0.540780       -14.7154
 210   2.0000      -0.537756       -14.6331
 211   2.0000      -0.537322       -14.6213
 212   2.0000      -0.534013       -14.5312
 213   2.0000      -0.528887       -14.3917
 214   2.0000      -0.525979       -14.3126
 215   2.0000      -0.524921       -14.2838
 216   2.0000      -0.524128       -14.2622
 217   2.0000      -0.522101       -14.2071
 218   2.0000      -0.520093       -14.1524
 219   2.0000      -0.516597       -14.0573
 220   2.0000      -0.513690       -13.9782
 221   2.0000      -0.512097       -13.9349
 222   2.0000      -0.509520       -13.8647
 223   2.0000      -0.508956       -13.8494
 224   2.0000      -0.507712       -13.8156
 225   2.0000      -0.507412       -13.8074
 226   2.0000      -0.504455       -13.7269
 227   2.0000      -0.499934       -13.6039
 228   2.0000      -0.495603       -13.4860
 229   2.0000      -0.494929       -13.4677
 230   2.0000      -0.494233       -13.4488
 231   2.0000      -0.491586       -13.3767
 232   2.0000      -0.488604       -13.2956
 233   2.0000      -0.485924       -13.2227
 234   2.0000      -0.482506       -13.1297
 235   2.0000      -0.478539       -13.0217
 236   2.0000      -0.478084       -13.0093
 237   2.0000      -0.474361       -12.9080
 238   2.0000      -0.473890       -12.8952
 239   2.0000      -0.472585       -12.8597
 240   2.0000      -0.469108       -12.7651
 241   2.0000      -0.465484       -12.6665
 242   2.0000      -0.463552       -12.6139
 243   2.0000      -0.458545       -12.4776
 244   2.0000      -0.457896       -12.4600
 245   2.0000      -0.454766       -12.3748
 246   2.0000      -0.453001       -12.3268
 247   2.0000      -0.452101       -12.3023
 248   2.0000      -0.451111       -12.2754
 249   2.0000      -0.449642       -12.2354
 250   2.0000      -0.448027       -12.1914
 251   2.0000      -0.446560       -12.1515
 252   2.0000      -0.445866       -12.1326
 253   2.0000      -0.443697       -12.0736
 254   2.0000      -0.443153       -12.0588
 255   2.0000      -0.439938       -11.9713
 256   2.0000      -0.439617       -11.9626
 257   2.0000      -0.438441       -11.9306
 258   2.0000      -0.434311       -11.8182
 259   2.0000      -0.432094       -11.7579
 260   2.0000      -0.429971       -11.7001
 261   2.0000      -0.428363       -11.6563
 262   2.0000      -0.427173       -11.6240
 263   2.0000      -0.426616       -11.6088
 264   2.0000      -0.422326       -11.4921
 265   2.0000      -0.420568       -11.4442
 266   2.0000      -0.417228       -11.3534
 267   2.0000      -0.413370       -11.2484
 268   2.0000      -0.412022       -11.2117
 269   2.0000      -0.411025       -11.1846
 270   2.0000      -0.404368       -11.0034
 271   2.0000      -0.397025       -10.8036
 272   2.0000      -0.395734       -10.7685
 273   2.0000      -0.389644       -10.6027
 274   2.0000      -0.388374       -10.5682
 275   2.0000      -0.386920       -10.5286
 276   2.0000      -0.385607       -10.4929
 277   2.0000      -0.381353       -10.3771
 278   2.0000      -0.380178       -10.3452
 279   2.0000      -0.375977       -10.2309
 280   2.0000      -0.375130       -10.2078
 281   2.0000      -0.374066       -10.1789
 282   2.0000      -0.371047       -10.0967
 283   2.0000      -0.364273        -9.9124
 284   2.0000      -0.362947        -9.8763
 285   2.0000      -0.355344        -9.6694
 286   2.0000      -0.348820        -9.4919
 287   2.0000      -0.345437        -9.3998
 288   2.0000      -0.340630        -9.2690
 289   2.0000      -0.338150        -9.2015
 290   2.0000      -0.332223        -9.0402
 291   2.0000      -0.324693        -8.8353
 292   2.0000      -0.322604        -8.7785
 293   2.0000      -0.315752        -8.5920
 294   2.0000      -0.315006        -8.5717
 295   2.0000      -0.303511        -8.2589
 296   2.0000      -0.301660        -8.2086
 297   2.0000      -0.294649        -8.0178
 298   2.0000      -0.285839        -7.7781
 299   2.0000      -0.260466        -7.0876
 300   2.0000      -0.256230        -6.9724
 301   0.0000      -0.100503        -2.7348
 302   0.0000      -0.096213        -2.6181
 303   0.0000      -0.062745        -1.7074
 304   0.0000      -0.062071        -1.6890
 305   0.0000      -0.046211        -1.2575

MULLIKEN ATOMIC CHARGES
-----------------------
   0 C :    0.306932
   1 C :   -0.349021
   2 C :   -0.183947
   3 N :    0.154046
   4 C :   -0.189208
   5 N :    0.155765
   6 C :    0.023377
   7 C :   -0.004782
   8 C :   -0.062748
   9 C :    0.117711
  10 C :   -0.086923
  11 C :   -0.026724
  12 S :    0.187092
  13 C :   -0.122966
  14 C :    0.039385
  15 Br:    0.025397
  16 C :    0.152698
  17 O :   -0.146880
  18 C :   -0.068647
  19 C :   -0.041118
  20 C :    0.119665
  21 O :   -0.201319
  22 C :   -0.018397
  23 C :    0.186091
  24 O :   -0.146675
  25 N :   -0.162753
  26 C :    0.174564
  27 O :   -0.141879
  28 C :   -0.054389
  29 C :    0.090879
  30 C :   -0.006816
  31 C :   -0.025446
  32 C :    0.052803
  33 C :   -0.096267
  34 S :    0.141438
  35 C :   -0.165941
  36 C :    0.132778
  37 C :   -0.123490
  38 C :    0.029459
  39 C :    0.024736
  40 C :   -0.122370
  41 C :    0.039862
  42 C :    0.048972
  43 C :    0.114557
  44 C :    0.049725
  45 C :   -0.114859
  46 S :    0.118129
  47 C :   -0.138339
  48 C :   -0.008731
  49 C :   -0.008984
  50 C :    0.184995
  51 O :   -0.370904
  52 C :    0.294787
  53 C :   -0.129247
  54 C :    0.051359
  55 C :    0.008749
  56 C :    0.035210
  57 C :   -0.118125
  58 C :    0.272497
  59 C :   -0.342320
  60 C :   -0.179366
  61 N :    0.164036
  62 C :   -0.169565
  63 N :    0.165491
  64 C :   -0.004111
  65 C :    0.004575
  66 C :    0.134441
  67 O :   -0.140867
  68 C :   -0.064926
  69 C :    0.110052
  70 C :   -0.089650
  71 C :   -0.016758
  72 S :    0.189853
  73 C :   -0.126124
  74 C :    0.043557
  75 Br:    0.029449
  76 H :   -0.008784
  77 H :   -0.004925
  78 H :   -0.002627
  79 H :    0.031414
  80 H :    0.139677
  81 H :   -0.000159
  82 H :    0.021584
  83 H :    0.023532
  84 H :    0.003251
  85 H :    0.005340
  86 H :    0.006964
  87 H :    0.021231
  88 H :    0.027045
  89 H :   -0.012476
  90 H :    0.005477
  91 H :   -0.002503
  92 H :    0.020527
  93 H :    0.011116
  94 H :    0.022275
  95 H :    0.027538
  96 H :   -0.010812
  97 H :    0.004059
  98 H :    0.012352
  99 H :   -0.001917
 100 H :    0.009575
 101 H :    0.013573
 102 H :    0.007922
 103 H :    0.034662
 104 H :   -0.006228
 105 H :   -0.000974
 106 H :   -0.001231
Sum of atomic charges:   -0.0000000

LOEWDIN ATOMIC CHARGES
----------------------
   0 C :    0.074762
   1 C :   -0.135927
   2 C :   -0.018129
   3 N :   -0.049827
   4 C :   -0.020217
   5 N :   -0.048165
   6 C :   -0.019386
   7 C :   -0.043536
   8 C :    0.027224
   9 C :   -0.030164
  10 C :   -0.142498
  11 C :   -0.009853
  12 S :    0.433060
  13 C :   -0.270698
  14 C :   -0.069681
  15 Br:    0.138490
  16 C :    0.088193
  17 O :   -0.133310
  18 C :   -0.068288
  19 C :    0.044484
  20 C :    0.046115
  21 O :    0.021307
  22 C :   -0.053698
  23 C :    0.090483
  24 O :   -0.149628
  25 N :   -0.000837
  26 C :    0.088128
  27 O :   -0.155813
  28 C :   -0.106298
  29 C :    0.089309
  30 C :   -0.052789
  31 C :    0.028235
  32 C :   -0.067452
  33 C :   -0.160674
  34 S :    0.427910
  35 C :   -0.177335
  36 C :   -0.043105
  37 C :   -0.021491
  38 C :   -0.035346
  39 C :   -0.050190
  40 C :   -0.014565
  41 C :   -0.029971
  42 C :   -0.048828
  43 C :   -0.039884
  44 C :   -0.059882
  45 C :   -0.164950
  46 S :    0.404847
  47 C :   -0.180279
  48 C :   -0.010930
  49 C :   -0.039608
  50 C :    0.095008
  51 O :   -0.193783
  52 C :    0.104859
  53 C :   -0.039758
  54 C :    0.044933
  55 C :   -0.049886
  56 C :    0.071816
  57 C :   -0.092744
  58 C :    0.072025
  59 C :   -0.144340
  60 C :   -0.022250
  61 N :   -0.046251
  62 C :    0.003042
  63 N :   -0.040276
  64 C :   -0.020726
  65 C :   -0.052411
  66 C :    0.085249
  67 O :   -0.137738
  68 C :    0.024590
  69 C :   -0.031442
  70 C :   -0.142946
  71 C :   -0.010191
  72 S :    0.435811
  73 C :   -0.270159
  74 C :   -0.069583
  75 Br:    0.141100
  76 H :    0.042326
  77 H :    0.041174
  78 H :    0.039238
  79 H :    0.051511
  80 H :    0.095773
  81 H :    0.046187
  82 H :    0.038977
  83 H :    0.025267
  84 H :    0.027445
  85 H :    0.024714
  86 H :    0.021503
  87 H :    0.024548
  88 H :    0.022562
  89 H :    0.022936
  90 H :    0.028047
  91 H :    0.019515
  92 H :    0.021921
  93 H :    0.021831
  94 H :    0.024963
  95 H :    0.033228
  96 H :    0.024488
  97 H :    0.016211
  98 H :    0.014204
  99 H :    0.008428
 100 H :    0.031887
 101 H :    0.028322
 102 H :    0.036520
 103 H :    0.049131
 104 H :    0.042598
 105 H :    0.041534
 106 H :    0.039742

  Mayer bond orders larger than 0.100000
B(  0-C ,  1-C ) :   1.6357 B(  0-C ,  6-C ) :   1.0109 B(  0-C , 18-C ) :   1.0765
B(  1-C ,  2-C ) :   1.1413 B(  1-C ,  4-C ) :   1.1438 B(  2-C ,  3-N ) :   2.9707
B(  4-C ,  5-N ) :   2.9694 B(  6-C ,  7-C ) :   1.2751 B(  6-C , 11-C ) :   1.3984
B(  7-C ,  8-C ) :   1.4257 B(  7-C , 16-C ) :   0.9347 B(  8-C ,  9-C ) :   1.2487
B(  8-C , 76-H ) :   1.0161 B(  9-C , 10-C ) :   1.3014 B(  9-C , 14-C ) :   1.1607
B( 10-C , 11-C ) :   1.3385 B( 10-C , 12-S ) :   1.0851 B( 11-C , 77-H ) :   0.9799
B( 12-S , 13-C ) :   1.0862 B( 13-C , 14-C ) :   1.6179 B( 13-C , 15-Br) :   1.0206
B( 14-C , 78-H ) :   1.0013 B( 16-C , 17-O ) :   2.2328 B( 16-C , 18-C ) :   0.9198
B( 18-C , 19-C ) :   1.6215 B( 19-C , 20-C ) :   1.1504 B( 19-C , 79-H ) :   0.9334
B( 20-C , 21-O ) :   1.1190 B( 20-C , 22-C ) :   1.4446 B( 21-O , 29-C ) :   1.1791
B( 22-C , 23-C ) :   0.8674 B( 22-C , 28-C ) :   1.3068 B( 23-C , 24-O ) :   2.2268
B( 23-C , 25-N ) :   1.0925 B( 25-N , 26-C ) :   1.0769 B( 25-N , 80-H ) :   0.9154
B( 26-C , 27-O ) :   2.2398 B( 26-C , 28-C ) :   0.8832 B( 28-C , 29-C ) :   1.3655
B( 29-C , 30-C ) :   1.1939 B( 30-C , 31-C ) :   1.6886 B( 30-C , 81-H ) :   0.9470
B( 31-C , 32-C ) :   1.0223 B( 31-C , 82-H ) :   0.9672 B( 32-C , 33-C ) :   1.5792
B( 32-C , 36-C ) :   1.1341 B( 33-C , 34-S ) :   1.1371 B( 33-C , 83-H ) :   0.9701
B( 34-S , 35-C ) :   1.0746 B( 35-C , 36-C ) :   1.3684 B( 35-C , 47-C ) :   1.3792
B( 36-C , 37-C ) :   1.2726 B( 37-C , 38-C ) :   1.0669 B( 37-C , 40-C ) :   1.4979
B( 38-C , 39-C ) :   1.1032 B( 38-C , 84-H ) :   0.9087 B( 38-C , 85-H ) :   0.9201
B( 39-C , 86-H ) :   0.9555 B( 39-C , 87-H ) :   0.9650 B( 39-C , 88-H ) :   0.9556
B( 40-C , 41-C ) :   1.0730 B( 40-C , 43-C ) :   1.2581 B( 41-C , 42-C ) :   1.1104
B( 41-C , 89-H ) :   0.9034 B( 41-C , 90-H ) :   0.9122 B( 42-C , 91-H ) :   0.9557
B( 42-C , 92-H ) :   0.9587 B( 42-C , 93-H ) :   0.9614 B( 43-C , 44-C ) :   1.1589
B( 43-C , 47-C ) :   1.3688 B( 44-C , 45-C ) :   1.6396 B( 44-C , 48-C ) :   0.9769
B( 45-C , 46-S ) :   1.1059 B( 45-C , 94-H ) :   0.9646 B( 46-S , 47-C ) :   1.0795
B( 48-C , 49-C ) :   1.8549 B( 48-C , 95-H ) :   0.9452 B( 49-C , 50-C ) :   1.0152
B( 49-C , 96-H ) :   0.9593 B( 50-C , 51-O ) :   1.0316 B( 50-C , 53-C ) :   1.0014
B( 50-C , 97-H ) :   0.9268 B( 51-O , 52-C ) :   1.0380 B( 52-C , 53-C ) :   1.0453
B( 52-C , 98-H ) :   0.9421 B( 52-C , 99-H ) :   0.9403 B( 53-C , 54-C ) :   1.0405
B( 53-C ,100-H ) :   0.9272 B( 54-C , 55-C ) :   1.7534 B( 54-C ,101-H ) :   0.9584
B( 55-C , 56-C ) :   1.1179 B( 55-C ,102-H ) :   0.9609 B( 56-C , 57-C ) :   1.7021
B( 56-C ,103-H ) :   0.9255 B( 57-C , 58-C ) :   1.0265 B( 57-C , 66-C ) :   0.9381
B( 58-C , 59-C ) :   1.6449 B( 58-C , 64-C ) :   1.0171 B( 59-C , 60-C ) :   1.1218
B( 59-C , 62-C ) :   1.1810 B( 60-C , 61-N ) :   2.9956 B( 62-C , 63-N ) :   2.9065
B( 64-C , 65-C ) :   1.2723 B( 64-C , 71-C ) :   1.4079 B( 65-C , 66-C ) :   0.9200
B( 65-C , 68-C ) :   1.4275 B( 66-C , 67-O ) :   2.2641 B( 68-C , 69-C ) :   1.2512
B( 68-C ,104-H ) :   1.0164 B( 69-C , 70-C ) :   1.3026 B( 69-C , 74-C ) :   1.1661
B( 70-C , 71-C ) :   1.3340 B( 70-C , 72-S ) :   1.0857 B( 71-C ,105-H ) :   0.9841
B( 72-S , 73-C ) :   1.0884 B( 73-C , 74-C ) :   1.6166 B( 73-C , 75-Br) :   1.0220
B( 74-C ,106-H ) :   1.0003

-----------------------------------------------------------------------------
         ABSORPTION SPECTRUM VIA TRANSITION ELECTRIC DIPOLE MOMENTS
-----------------------------------------------------------------------------
State   Energy  Wavelength   fosc         T2         TX        TY        TZ
        (cm-1)    (nm)                  (au**2)     (au)      (au)      (au)
-----------------------------------------------------------------------------
   0   19058.2    524.7   0.752087031  12.99156  -2.60954  -2.17195   1.21017
   1   22745.8    439.6   0.081395284   1.17808  -0.18363  -0.06160  -1.06797
   2   24353.8    410.6   0.009539151   0.12895  -0.17902   0.29940   0.08521
   3   24818.6    402.9   0.004189662   0.05557   0.11543   0.03545   0.20247
   4   25151.8    397.6   0.051637710   0.67588  -0.22322   0.75930   0.22252
   5   25702.3    389.1   0.123405709   1.58066  -0.10243   1.22494  -0.26398
   6   26746.0    373.9   0.304971970   3.75384  -0.74687   0.38282  -1.74627
   7   27003.2    370.3   0.084532847   1.03059  -0.85125   0.51829   0.19324
   8   27835.4    359.3   0.242426909   2.86721  -0.66588   0.13112   1.55133
   9   28306.6    353.3   0.049290773   0.57326  -0.54632   0.11355   0.51177
  10   28434.7    351.7   0.030813618   0.35675   0.09823  -0.09441   0.58154
  11   29052.0    344.2   0.808049594   9.15666  -1.09786  -2.80156   0.32039
  12   29890.7    334.6   0.035475660   0.39072   0.26335  -0.54703  -0.14876
  13   30845.1    324.2   0.017903364   0.19108  -0.07945  -0.01795   0.42948
  14   31269.0    319.8   0.039494138   0.41581   0.05904  -0.36555  -0.52792
  15   31768.6    314.8   0.027610748   0.28612   0.11685   0.00236   0.52198
  16   31884.4    313.6   0.009213544   0.09513   0.09007   0.29246  -0.03857
  17   32018.0    312.3   0.025485423   0.26204   0.08934  -0.48398  -0.14080
  18   32433.8    308.3   0.000979108   0.00994   0.02342  -0.08351  -0.04916
  19   32556.8    307.2   0.391681129   3.96066   0.40454  -1.89243   0.46444
  20   32981.6    303.2   0.207233795   2.06854   0.16057  -1.37726   0.38198
  21   33050.0    302.6   0.083646730   0.83321   0.32916  -0.52992  -0.66637
  22   33189.0    301.3   0.038951170   0.38637  -0.10360   0.28462   0.54280
  23   33981.1    294.3   0.192152832   1.86160   0.26278  -0.40960  -1.27467
  24   34257.1    291.9   0.466707649   4.48508  -0.24582   0.73821   1.96969
  25   34697.2    288.2   0.000294910   0.00280   0.00914   0.04641   0.02368
  26   34998.1    285.7   0.155990302   1.46733   0.21213   1.17656   0.19501
  27   35320.0    283.1   0.079590741   0.74185   0.33478   0.73785   0.29216
  28   35376.1    282.7   0.395086076   3.67669   0.43940   0.13703   1.86141
  29   35780.0    279.5   0.006671174   0.06138   0.10716   0.14757  -0.16769
  30   35849.6    278.9   0.018167523   0.16683   0.13807   0.20881   0.32275
  31   36239.6    275.9   0.101838048   0.92513   0.07269  -0.10416  -0.95341
  32   37217.6    268.7   0.273726229   2.42127   1.45590  -0.26258  -0.48236
  33   37819.9    264.4   0.000131274   0.00114  -0.02202   0.01963  -0.01650
  34   38031.9    262.9   0.002950010   0.02554  -0.15148   0.04516   0.02348
  35   38747.8    258.1   0.095937433   0.81511  -0.87148  -0.16873   0.16481
  36   38940.1    256.8   0.040748311   0.34450   0.58199   0.02805  -0.07072
  37   39209.0    255.0   0.019472266   0.16350   0.11629   0.26125  -0.28586
  38   39263.4    254.7   0.083521600   0.70030  -0.45058  -0.64141   0.29304
  39   39638.0    252.3   0.127010192   1.05488   0.84556   0.47544  -0.33744
  40   39708.1    251.8   0.129577342   1.07430  -0.08406   0.89217  -0.52083
  41   39803.9    251.2   0.070721696   0.58493  -0.67596  -0.26346   0.24206

FINAL SINGLE POINT ENERGY     -9728.367779879798

DIPOLE MOMENT
-------------
                                X             Y             Z
Electronic contribution:    -76.18145    -120.33956     -54.84736
Nuclear contribution   :     78.95595     118.84374      52.98504
                        -----------------------------------------
Total Dipole Moment    :      2.77450      -1.49583      -1.86231
                        -----------------------------------------
Magnitude (a.u.)       :      3.66109
Magnitude (Debye)      :      9.30575

Rotational constants in cm-1:     0.000855     0.000160     0.000142
Rotational constants in MHz :    25.627189     4.798267     4.250974

                             ****ORCA TERMINATED NORMALLY****
TOTAL RUN TIME: 0 days 0 hours 11 minutes 17 seconds 476 msec
