                         Program Version 4.2.0 -  RELEASE  -
|  1> # ORCA input file
|  2> # SCF done       -178.545878974387          0.000319572128
|  3> ! CAM-B3LYP def2-SVP def2/J RIJCOSX Grid4 TightSCF
|  4> %maxcore 5000
|  5> %tddft
|  6>     Mode sTDDFT
|  7>     Ethresh 5.0
|  8>     maxcore 5000
|  9> end
| 10>
| 11> %pal
| 12>   nprocs 6
| 13>   end
| 14> * xyz 0 1
| 15>    C        5.75788         6.06775        -5.48252
| 16>    C        4.71315         6.94038        -5.35647
| 17>    F        4.77518         8.14131        -5.96579
| 18>    C        3.56674         6.63731        -4.61151
| 19>    C        3.48772         5.42363        -3.98560
| 20>    C        4.53541         4.48628        -4.08154
| 21>    C        5.69201         4.81323        -4.84648
| 22>    C        6.75268         3.88402        -4.96686
| 23>    C        6.65787         2.67409        -4.33685
| 24>    C        5.50630         2.35845        -3.55970
| 25>    C        4.46536         3.23040        -3.43452
| 26>    C        5.67818         1.01575        -2.96449
| 27>    O        4.88847         0.40345        -2.27669
| 28>    C        7.04854         0.59839        -3.33587
| 29>    C        7.55613         1.52205        -4.31272
| 30>    C        8.53275         1.26495        -5.24969
| 31>    C        9.13854         0.00434        -5.40264
| 32>    N        9.61705        -1.02419        -5.58830
| 33>    C        8.96101         2.19240        -6.21469
| 34>    N        9.37174         2.92042        -7.00362
| 35>    C        7.62905        -0.46963        -2.69320
| 36>    C        8.98428        -0.75883        -2.51119
| 37>    S       10.24473         0.41864        -2.71441
| 38>    C       11.49318        -0.65303        -2.17179
| 39>    C       10.95638        -1.92223        -1.87916
| 40>    C        9.53767        -1.96878        -2.03767
| 41>    C        8.83352        -3.15446        -1.77819
| 42>    C        9.52828        -4.26484        -1.38438
| 43>    F        8.87426        -5.40718        -1.12094
| 44>    C       10.93237        -4.23691        -1.27207
| 45>    F       11.58392        -5.36112        -0.92572
| 46>    C       11.64358        -3.09544        -1.51768
| 47>    C       12.80027        -0.11171        -2.09679
| 48>    C       13.86884        -0.61785        -1.43399
| 49>    C       15.17350        -0.02669        -1.35818
| 50>    C       15.78097         0.81420        -2.21455
| 51>    C       15.22746         1.26796        -3.52813
| 52>    C       17.15020         1.34729        -1.87605
| 53>    N       18.17291         0.70191        -2.67178
| 54>    C       19.42853         0.42743        -2.26655
| 55>    C       19.94759         0.64976        -1.02784
| 56>    C       21.27240         0.34156        -0.67420
| 57>    C       21.76482         0.46875         0.59985
| 58>    C       23.07920         0.22444         1.05932
| 59>    C       23.25192         0.40895         2.39944
| 60>    C       22.07887         0.79681         3.08154
| 61>    S       20.74976         0.95450         1.95760
| 62>    C       21.89892         1.00842         4.43614
| 63>    C       22.85003         0.93955         5.47364
| 64>    C       22.33181         1.16786         6.71397
| 65>    C       20.93824         1.42221         6.73369
| 66>    S       20.31783         1.38566         5.09309
| 67>    C       20.17817         1.64146         7.85553
| 68>    C       18.78918         1.85548         7.92339
| 69>    N       18.15506         2.02201         9.12959
| 70>    C       16.81524         2.19279         8.95590
| 71>    C       15.89121         2.37687        10.01606
| 72>    C       16.19854         2.42833        11.33561
| 73>    C       15.27095         2.60709        12.40063
| 74>    N       13.91792         2.74426        12.24435
| 75>    C       13.32853         2.89531        13.45369
| 76>    C       14.30435         2.85752        14.41998
| 77>    C       15.52707         2.67651        13.76460
| 78>    C       16.56911         2.14074         7.56403
| 79>    C       17.80164         1.93185         6.93892
| 80>    C       15.28194         2.27811         6.92539
| 81>    C       15.06843         2.21605         5.61434
| 82>    H        6.62422         6.33330        -6.06811
| 83>    H        2.77317         7.36488        -4.54790
| 84>    H        2.61398         5.16698        -3.40540
| 85>    H        7.61846         4.15691        -5.54942
| 86>    H        3.59589         2.96810        -2.85045
| 87>    H        6.92972        -1.11740        -2.17449
| 88>    H        7.76356        -3.20752        -1.89275
| 89>    H       12.71750        -3.12852        -1.46123
| 90>    H       12.89446         0.85659        -2.56591
| 91>    H       13.74081        -1.50175        -0.82710
| 92>    H       15.74035        -0.33071        -0.48568
| 93>    H       14.60232         0.50025        -3.97846
| 94>    H       16.03068         1.52037        -4.21898
| 95>    H       14.62385         2.16742        -3.39882
| 96>    H       17.36786         1.17343        -0.82231
| 97>    H       17.17251         2.43236        -2.05816
| 98>    H       17.92146         0.48559        -3.62252
| 99>    H       20.05350        -0.02618        -3.02494
|100>    H       19.33571         1.07667        -0.24702
|101>    H       21.94683        -0.01649        -1.44082
|102>    H       23.85888        -0.08127         0.38351
|103>    H       24.18456         0.26472         2.91508
|104>    H       23.88618         0.72481         5.28159
|105>    H       22.90785         1.15302         7.62285
|106>    H       20.70970         1.63136         8.79984
|107>    H       18.62038         2.00621        10.02109
|108>    H       14.86053         2.48047         9.70874
|109>    H       17.22604         2.33129        11.65864
|110>    H       13.43591         2.73298        11.36199
|111>    H       12.26745         3.01785        13.54859
|112>    H       14.15282         2.94988        15.47696
|113>    H       16.49314         2.60376        14.22389
|114>    H       17.96530         1.84574         5.88531
|115>    H       14.44110         2.44295         7.58675
|116>    H       15.86718         2.05370         4.91204
|117>    H       14.08138         2.32574         5.19950
|118> *
|119>
|120>                          ****END OF INPUT****

CARTESIAN COORDINATES (ANGSTROEM)
---------------------------------
  C      5.757880    6.067750   -5.482520
  C      4.713150    6.940380   -5.356470
  F      4.775180    8.141310   -5.965790
  C      3.566740    6.637310   -4.611510
  C      3.487720    5.423630   -3.985600
  C      4.535410    4.486280   -4.081540
  C      5.692010    4.813230   -4.846480
  C      6.752680    3.884020   -4.966860
  C      6.657870    2.674090   -4.336850
  C      5.506300    2.358450   -3.559700
  C      4.465360    3.230400   -3.434520
  C      5.678180    1.015750   -2.964490
  O      4.888470    0.403450   -2.276690
  C      7.048540    0.598390   -3.335870
  C      7.556130    1.522050   -4.312720
  C      8.532750    1.264950   -5.249690
  C      9.138540    0.004340   -5.402640
  N      9.617050   -1.024190   -5.588300
  C      8.961010    2.192400   -6.214690
  N      9.371740    2.920420   -7.003620
  C      7.629050   -0.469630   -2.693200
  C      8.984280   -0.758830   -2.511190
  S     10.244730    0.418640   -2.714410
  C     11.493180   -0.653030   -2.171790
  C     10.956380   -1.922230   -1.879160
  C      9.537670   -1.968780   -2.037670
  C      8.833520   -3.154460   -1.778190
  C      9.528280   -4.264840   -1.384380
  F      8.874260   -5.407180   -1.120940
  C     10.932370   -4.236910   -1.272070
  F     11.583920   -5.361120   -0.925720
  C     11.643580   -3.095440   -1.517680
  C     12.800270   -0.111710   -2.096790
  C     13.868840   -0.617850   -1.433990
  C     15.173500   -0.026690   -1.358180
  C     15.780970    0.814200   -2.214550
  C     15.227460    1.267960   -3.528130
  C     17.150200    1.347290   -1.876050
  N     18.172910    0.701910   -2.671780
  C     19.428530    0.427430   -2.266550
  C     19.947590    0.649760   -1.027840
  C     21.272400    0.341560   -0.674200
  C     21.764820    0.468750    0.599850
  C     23.079200    0.224440    1.059320
  C     23.251920    0.408950    2.399440
  C     22.078870    0.796810    3.081540
  S     20.749760    0.954500    1.957600
  C     21.898920    1.008420    4.436140
  C     22.850030    0.939550    5.473640
  C     22.331810    1.167860    6.713970
  C     20.938240    1.422210    6.733690
  S     20.317830    1.385660    5.093090
  C     20.178170    1.641460    7.855530
  C     18.789180    1.855480    7.923390
  N     18.155060    2.022010    9.129590
  C     16.815240    2.192790    8.955900
  C     15.891210    2.376870   10.016060
  C     16.198540    2.428330   11.335610
  C     15.270950    2.607090   12.400630
  N     13.917920    2.744260   12.244350
  C     13.328530    2.895310   13.453690
  C     14.304350    2.857520   14.419980
  C     15.527070    2.676510   13.764600
  C     16.569110    2.140740    7.564030
  C     17.801640    1.931850    6.938920
  C     15.281940    2.278110    6.925390
  C     15.068430    2.216050    5.614340
  H      6.624220    6.333300   -6.068110
  H      2.773170    7.364880   -4.547900
  H      2.613980    5.166980   -3.405400
  H      7.618460    4.156910   -5.549420
  H      3.595890    2.968100   -2.850450
  H      6.929720   -1.117400   -2.174490
  H      7.763560   -3.207520   -1.892750
  H     12.717500   -3.128520   -1.461230
  H     12.894460    0.856590   -2.565910
  H     13.740810   -1.501750   -0.827100
  H     15.740350   -0.330710   -0.485680
  H     14.602320    0.500250   -3.978460
  H     16.030680    1.520370   -4.218980
  H     14.623850    2.167420   -3.398820
  H     17.367860    1.173430   -0.822310
  H     17.172510    2.432360   -2.058160
  H     17.921460    0.485590   -3.622520
  H     20.053500   -0.026180   -3.024940
  H     19.335710    1.076670   -0.247020
  H     21.946830   -0.016490   -1.440820
  H     23.858880   -0.081270    0.383510
  H     24.184560    0.264720    2.915080
  H     23.886180    0.724810    5.281590
  H     22.907850    1.153020    7.622850
  H     20.709700    1.631360    8.799840
  H     18.620380    2.006210   10.021090
  H     14.860530    2.480470    9.708740
  H     17.226040    2.331290   11.658640
  H     13.435910    2.732980   11.361990
  H     12.267450    3.017850   13.548590
  H     14.152820    2.949880   15.476960
  H     16.493140    2.603760   14.223890
  H     17.965300    1.845740    5.885310
  H     14.441100    2.442950    7.586750
  H     15.867180    2.053700    4.912040
  H     14.081380    2.325740    5.199500

 Total Charge           Charge          ....    0
 Multiplicity           Mult            ....    1
 Number of Electrons    NEL             ....  484
 Basis Dimension        Dim             .... 1130

ORBITAL ENERGIES
----------------

  NO   OCC          E(Eh)            E(eV)
   0   2.0000     -88.988649     -2421.5042
   1   2.0000     -88.923456     -2419.7303
   2   2.0000     -88.923111     -2419.7209
   3   2.0000     -24.799988      -674.8420
   4   2.0000     -24.796628      -674.7506
   5   2.0000     -24.783238      -674.3862
   6   2.0000     -19.207842      -522.6719
   7   2.0000     -14.445746      -393.0887
   8   2.0000     -14.444264      -393.0484
   9   2.0000     -14.441151      -392.9637
  10   2.0000     -14.412400      -392.1813
  11   2.0000     -14.411697      -392.1622
  12   2.0000     -10.385510      -282.6041
  13   2.0000     -10.380640      -282.4716
  14   2.0000     -10.366858      -282.0966
  15   2.0000     -10.360296      -281.9180
  16   2.0000     -10.342209      -281.4258
  17   2.0000     -10.338111      -281.3143
  18   2.0000     -10.336785      -281.2782
  19   2.0000     -10.322881      -280.8999
  20   2.0000     -10.322248      -280.8826
  21   2.0000     -10.321349      -280.8582
  22   2.0000     -10.319086      -280.7966
  23   2.0000     -10.316353      -280.7222
  24   2.0000     -10.315789      -280.7069
  25   2.0000     -10.314234      -280.6646
  26   2.0000     -10.312269      -280.6111
  27   2.0000     -10.307249      -280.4745
  28   2.0000     -10.306601      -280.4569
  29   2.0000     -10.306127      -280.4440
  30   2.0000     -10.305847      -280.4363
  31   2.0000     -10.303160      -280.3632
  32   2.0000     -10.303111      -280.3619
  33   2.0000     -10.302391      -280.3423
  34   2.0000     -10.298047      -280.2241
  35   2.0000     -10.296191      -280.1736
  36   2.0000     -10.295152      -280.1453
  37   2.0000     -10.294908      -280.1387
  38   2.0000     -10.292108      -280.0625
  39   2.0000     -10.291412      -280.0436
  40   2.0000     -10.291304      -280.0406
  41   2.0000     -10.289252      -279.9848
  42   2.0000     -10.289131      -279.9815
  43   2.0000     -10.286758      -279.9169
  44   2.0000     -10.286721      -279.9159
  45   2.0000     -10.286102      -279.8991
  46   2.0000     -10.285875      -279.8929
  47   2.0000     -10.285766      -279.8899
  48   2.0000     -10.282909      -279.8122
  49   2.0000     -10.280926      -279.7582
  50   2.0000     -10.280545      -279.7478
  51   2.0000     -10.279110      -279.7088
  52   2.0000     -10.270537      -279.4755
  53   2.0000     -10.268510      -279.4204
  54   2.0000     -10.267823      -279.4017
  55   2.0000     -10.266132      -279.3557
  56   2.0000     -10.265687      -279.3435
  57   2.0000     -10.265539      -279.3395
  58   2.0000     -10.261681      -279.2345
  59   2.0000     -10.260993      -279.2158
  60   2.0000     -10.257248      -279.1139
  61   2.0000     -10.253126      -279.0017
  62   2.0000     -10.246600      -278.8242
  63   2.0000     -10.242526      -278.7133
  64   2.0000     -10.239304      -278.6256
  65   2.0000     -10.237863      -278.5864
  66   2.0000     -10.235844      -278.5315
  67   2.0000      -8.083286      -219.9574
  68   2.0000      -8.019718      -218.2276
  69   2.0000      -8.018889      -218.2051
  70   2.0000      -6.052236      -164.6897
  71   2.0000      -6.048117      -164.5776
  72   2.0000      -6.046128      -164.5235
  73   2.0000      -5.989475      -162.9819
  74   2.0000      -5.988676      -162.9602
  75   2.0000      -5.985543      -162.8749
  76   2.0000      -5.984660      -162.8509
  77   2.0000      -5.980555      -162.7392
  78   2.0000      -5.979791      -162.7184
  79   2.0000      -1.320111       -35.9220
  80   2.0000      -1.304790       -35.5051
  81   2.0000      -1.297167       -35.2977
  82   2.0000      -1.122058       -30.5328
  83   2.0000      -1.061450       -28.8835
  84   2.0000      -1.059909       -28.8416
  85   2.0000      -1.042577       -28.3700
  86   2.0000      -1.025563       -27.9070
  87   2.0000      -1.013766       -27.5860
  88   2.0000      -0.997258       -27.1368
  89   2.0000      -0.990357       -26.9490
  90   2.0000      -0.973867       -26.5003
  91   2.0000      -0.973195       -26.4820
  92   2.0000      -0.961244       -26.1568
  93   2.0000      -0.951437       -25.8899
  94   2.0000      -0.943146       -25.6643
  95   2.0000      -0.926940       -25.2233
  96   2.0000      -0.915846       -24.9214
  97   2.0000      -0.895466       -24.3669
  98   2.0000      -0.892015       -24.2730
  99   2.0000      -0.886919       -24.1343
 100   2.0000      -0.882830       -24.0230
 101   2.0000      -0.879475       -23.9317
 102   2.0000      -0.876097       -23.8398
 103   2.0000      -0.866063       -23.5668
 104   2.0000      -0.861282       -23.4367
 105   2.0000      -0.853702       -23.2304
 106   2.0000      -0.852399       -23.1950
 107   2.0000      -0.835749       -22.7419
 108   2.0000      -0.832558       -22.6551
 109   2.0000      -0.828299       -22.5392
 110   2.0000      -0.819978       -22.3127
 111   2.0000      -0.814797       -22.1718
 112   2.0000      -0.812515       -22.1097
 113   2.0000      -0.808257       -21.9938
 114   2.0000      -0.800028       -21.7699
 115   2.0000      -0.795753       -21.6535
 116   2.0000      -0.775530       -21.1032
 117   2.0000      -0.769070       -20.9275
 118   2.0000      -0.756580       -20.5876
 119   2.0000      -0.751887       -20.4599
 120   2.0000      -0.745517       -20.2865
 121   2.0000      -0.731451       -19.9038
 122   2.0000      -0.722904       -19.6712
 123   2.0000      -0.714776       -19.4500
 124   2.0000      -0.707156       -19.2427
 125   2.0000      -0.706124       -19.2146
 126   2.0000      -0.690049       -18.7772
 127   2.0000      -0.683530       -18.5998
 128   2.0000      -0.681645       -18.5485
 129   2.0000      -0.675793       -18.3893
 130   2.0000      -0.673517       -18.3273
 131   2.0000      -0.667838       -18.1728
 132   2.0000      -0.662568       -18.0294
 133   2.0000      -0.659970       -17.9587
 134   2.0000      -0.651881       -17.7386
 135   2.0000      -0.648366       -17.6429
 136   2.0000      -0.644677       -17.5426
 137   2.0000      -0.644236       -17.5306
 138   2.0000      -0.632991       -17.2246
 139   2.0000      -0.630500       -17.1568
 140   2.0000      -0.626240       -17.0408
 141   2.0000      -0.623897       -16.9771
 142   2.0000      -0.616209       -16.7679
 143   2.0000      -0.611999       -16.6533
 144   2.0000      -0.607481       -16.5304
 145   2.0000      -0.606380       -16.5004
 146   2.0000      -0.600002       -16.3269
 147   2.0000      -0.596579       -16.2338
 148   2.0000      -0.589974       -16.0540
 149   2.0000      -0.588124       -16.0037
 150   2.0000      -0.585683       -15.9372
 151   2.0000      -0.583115       -15.8674
 152   2.0000      -0.581187       -15.8149
 153   2.0000      -0.575252       -15.6534
 154   2.0000      -0.565542       -15.3892
 155   2.0000      -0.562724       -15.3125
 156   2.0000      -0.560043       -15.2395
 157   2.0000      -0.557523       -15.1710
 158   2.0000      -0.555998       -15.1295
 159   2.0000      -0.555226       -15.1085
 160   2.0000      -0.550234       -14.9726
 161   2.0000      -0.546571       -14.8730
 162   2.0000      -0.545787       -14.8516
 163   2.0000      -0.540832       -14.7168
 164   2.0000      -0.538796       -14.6614
 165   2.0000      -0.531799       -14.4710
 166   2.0000      -0.530056       -14.4236
 167   2.0000      -0.524255       -14.2657
 168   2.0000      -0.523647       -14.2492
 169   2.0000      -0.522221       -14.2104
 170   2.0000      -0.520786       -14.1713
 171   2.0000      -0.519167       -14.1273
 172   2.0000      -0.515817       -14.0361
 173   2.0000      -0.513484       -13.9726
 174   2.0000      -0.510100       -13.8805
 175   2.0000      -0.507008       -13.7964
 176   2.0000      -0.502887       -13.6842
 177   2.0000      -0.502726       -13.6799
 178   2.0000      -0.502212       -13.6659
 179   2.0000      -0.501314       -13.6414
 180   2.0000      -0.494630       -13.4596
 181   2.0000      -0.492582       -13.4038
 182   2.0000      -0.492511       -13.4019
 183   2.0000      -0.491793       -13.3824
 184   2.0000      -0.488688       -13.2979
 185   2.0000      -0.484409       -13.1815
 186   2.0000      -0.482166       -13.1204
 187   2.0000      -0.478830       -13.0296
 188   2.0000      -0.476150       -12.9567
 189   2.0000      -0.475498       -12.9390
 190   2.0000      -0.472328       -12.8527
 191   2.0000      -0.464849       -12.6492
 192   2.0000      -0.462733       -12.5916
 193   2.0000      -0.462612       -12.5883
 194   2.0000      -0.461501       -12.5581
 195   2.0000      -0.454262       -12.3611
 196   2.0000      -0.454177       -12.3588
 197   2.0000      -0.453582       -12.3426
 198   2.0000      -0.449795       -12.2395
 199   2.0000      -0.448209       -12.1964
 200   2.0000      -0.448067       -12.1925
 201   2.0000      -0.444713       -12.1012
 202   2.0000      -0.443549       -12.0696
 203   2.0000      -0.442929       -12.0527
 204   2.0000      -0.441463       -12.0128
 205   2.0000      -0.439534       -11.9603
 206   2.0000      -0.436948       -11.8900
 207   2.0000      -0.435182       -11.8419
 208   2.0000      -0.434378       -11.8200
 209   2.0000      -0.431776       -11.7492
 210   2.0000      -0.428364       -11.6564
 211   2.0000      -0.424123       -11.5410
 212   2.0000      -0.422569       -11.4987
 213   2.0000      -0.420148       -11.4328
 214   2.0000      -0.414125       -11.2689
 215   2.0000      -0.413508       -11.2521
 216   2.0000      -0.407946       -11.1008
 217   2.0000      -0.403609       -10.9828
 218   2.0000      -0.399244       -10.8640
 219   2.0000      -0.392240       -10.6734
 220   2.0000      -0.390225       -10.6186
 221   2.0000      -0.381220       -10.3735
 222   2.0000      -0.374920       -10.2021
 223   2.0000      -0.374686       -10.1957
 224   2.0000      -0.371480       -10.1085
 225   2.0000      -0.369210       -10.0467
 226   2.0000      -0.345081        -9.3901
 227   2.0000      -0.336437        -9.1549
 228   2.0000      -0.331764        -9.0278
 229   2.0000      -0.327796        -8.9198
 230   2.0000      -0.324067        -8.8183
 231   2.0000      -0.319264        -8.6876
 232   2.0000      -0.310132        -8.4391
 233   2.0000      -0.309762        -8.4291
 234   2.0000      -0.302580        -8.2336
 235   2.0000      -0.295782        -8.0486
 236   2.0000      -0.294014        -8.0005
 237   2.0000      -0.276762        -7.5311
 238   2.0000      -0.262899        -7.1538
 239   2.0000      -0.256104        -6.9689
 240   2.0000      -0.222379        -6.0512
 241   2.0000      -0.178742        -4.8638
 242   0.0000      -0.109879        -2.9900
 243   0.0000      -0.060101        -1.6354
 244   0.0000      -0.051051        -1.3892
 245   0.0000      -0.043953        -1.1960
 246   0.0000      -0.015643        -0.4257

MULLIKEN ATOMIC CHARGES
-----------------------
   0 C :   -0.096832
   1 C :    0.302448
   2 F :   -0.193489
   3 C :   -0.031047
   4 C :   -0.011444
   5 C :    0.101512
   6 C :    0.101511
   7 C :   -0.088112
   8 C :    0.039902
   9 C :    0.013278
  10 C :   -0.083596
  11 C :    0.138473
  12 O :   -0.153395
  13 C :   -0.146673
  14 C :    0.261422
  15 C :   -0.339869
  16 C :   -0.220483
  17 N :    0.167184
  18 C :   -0.171179
  19 N :    0.140915
  20 C :    0.025021
  21 C :   -0.136266
  22 S :    0.193498
  23 C :   -0.101803
  24 C :    0.121110
  25 C :    0.174223
  26 C :   -0.115556
  27 C :    0.240813
  28 F :   -0.169956
  29 C :    0.228807
  30 F :   -0.176368
  31 C :   -0.115663
  32 C :    0.044410
  33 C :    0.009072
  34 C :    0.013797
  35 C :   -0.221926
  36 C :    0.079862
  37 C :    0.225028
  38 N :   -0.165677
  39 C :    0.072141
  40 C :   -0.076120
  41 C :    0.003261
  42 C :   -0.044021
  43 C :    0.041385
  44 C :    0.013556
  45 C :   -0.036385
  46 S :    0.036314
  47 C :   -0.044793
  48 C :    0.026066
  49 C :    0.019217
  50 C :   -0.025599
  51 S :    0.039470
  52 C :   -0.032662
  53 C :    0.112327
  54 N :   -0.044959
  55 C :    0.019051
  56 C :    0.010410
  57 C :    0.032866
  58 C :    0.032983
  59 N :   -0.046845
  60 C :    0.044491
  61 C :   -0.003847
  62 C :   -0.052137
  63 C :    0.067797
  64 C :   -0.123089
  65 C :   -0.013476
  66 C :   -0.023726
  67 H :   -0.004473
  68 H :    0.003359
  69 H :   -0.009913
  70 H :   -0.007220
  71 H :   -0.013295
  72 H :    0.022541
  73 H :    0.004175
  74 H :   -0.004575
  75 H :   -0.016431
  76 H :    0.004709
  77 H :   -0.000355
  78 H :    0.045026
  79 H :    0.009586
  80 H :    0.052123
  81 H :    0.031306
  82 H :    0.021988
  83 H :    0.125265
  84 H :    0.002337
  85 H :   -0.002394
  86 H :   -0.026709
  87 H :   -0.023175
  88 H :   -0.023944
  89 H :   -0.022602
  90 H :   -0.025536
  91 H :   -0.043730
  92 H :    0.114655
  93 H :   -0.057714
  94 H :   -0.050361
  95 H :    0.121526
  96 H :   -0.008344
  97 H :   -0.025423
  98 H :   -0.036615
  99 H :   -0.019161
 100 H :   -0.035626
 101 H :    0.006982
 102 H :    0.005390
Sum of atomic charges:   -0.0000000

LOEWDIN ATOMIC CHARGES
----------------------
   0 C :   -0.042752
   1 C :    0.093061
   2 F :   -0.068304
   3 C :   -0.038219
   4 C :    0.003994
   5 C :   -0.019266
   6 C :    0.002459
   7 C :    0.007962
   8 C :   -0.016353
   9 C :   -0.057295
  10 C :    0.031828
  11 C :    0.080164
  12 O :   -0.155542
  13 C :   -0.113196
  14 C :    0.060895
  15 C :   -0.158885
  16 C :   -0.038078
  17 N :   -0.057719
  18 C :   -0.020273
  19 N :   -0.061787
  20 C :    0.049711
  21 C :   -0.196617
  22 S :    0.530163
  23 C :   -0.124508
  24 C :   -0.049859
  25 C :   -0.008029
  26 C :   -0.036348
  27 C :    0.078676
  28 F :   -0.048033
  29 C :    0.063424
  30 F :   -0.055197
  31 C :   -0.030932
  32 C :   -0.051903
  33 C :   -0.000100
  34 C :   -0.048475
  35 C :   -0.012776
  36 C :   -0.053007
  37 C :    0.051837
  38 N :   -0.003785
  39 C :    0.043496
  40 C :   -0.135123
  41 C :   -0.035974
  42 C :   -0.175467
  43 C :   -0.031282
  44 C :   -0.052325
  45 C :   -0.171910
  46 S :    0.348037
  47 C :   -0.198179
  48 C :   -0.039824
  49 C :   -0.049076
  50 C :   -0.145280
  51 S :    0.370411
  52 C :   -0.090236
  53 C :   -0.007226
  54 N :    0.087634
  55 C :   -0.006626
  56 C :   -0.055350
  57 C :   -0.041962
  58 C :   -0.028980
  59 N :    0.090547
  60 C :   -0.016815
  61 C :   -0.082794
  62 C :   -0.072900
  63 C :   -0.065029
  64 C :   -0.071331
  65 C :   -0.020054
  66 C :   -0.063303
  67 H :    0.042420
  68 H :    0.041597
  69 H :    0.035405
  70 H :    0.038275
  71 H :    0.039127
  72 H :    0.048395
  73 H :    0.045972
  74 H :    0.041510
  75 H :    0.030847
  76 H :    0.032836
  77 H :    0.035320
  78 H :    0.040407
  79 H :    0.027830
  80 H :    0.044946
  81 H :    0.034195
  82 H :    0.025835
  83 H :    0.075386
  84 H :    0.028987
  85 H :    0.014967
  86 H :    0.028044
  87 H :    0.029369
  88 H :    0.027647
  89 H :    0.028202
  90 H :    0.027601
  91 H :    0.026389
  92 H :    0.082911
  93 H :    0.020421
  94 H :    0.023552
  95 H :    0.085418
  96 H :    0.017284
  97 H :    0.021733
  98 H :    0.019438
  99 H :    0.009791
 100 H :    0.020571
 101 H :    0.018863
 102 H :    0.018495

  Mayer bond orders larger than 0.100000
B(  0-C ,  1-C ) :   1.4388 B(  0-C ,  6-C ) :   1.2043 B(  0-C , 67-H ) :   1.0063
B(  1-C ,  2-F ) :   1.0858 B(  1-C ,  3-C ) :   1.2604 B(  3-C ,  4-C ) :   1.4573
B(  3-C , 68-H ) :   0.9923 B(  4-C ,  5-C ) :   1.2373 B(  4-C , 69-H ) :   0.9964
B(  5-C ,  6-C ) :   1.2608 B(  5-C , 10-C ) :   1.1849 B(  6-C ,  7-C ) :   1.1976
B(  7-C ,  8-C ) :   1.4685 B(  7-C , 70-H ) :   0.9934 B(  8-C ,  9-C ) :   1.2163
B(  8-C , 14-C ) :   0.9986 B(  9-C , 10-C ) :   1.4796 B(  9-C , 11-C ) :   0.9203
B( 10-C , 71-H ) :   1.0147 B( 11-C , 12-O ) :   2.2559 B( 11-C , 13-C ) :   0.9575
B( 13-C , 14-C ) :   1.0759 B( 13-C , 20-C ) :   1.5501 B( 14-C , 15-C ) :   1.6076
B( 15-C , 16-C ) :   1.1614 B( 15-C , 18-C ) :   1.1433 B( 16-C , 17-N ) :   3.0222
B( 18-C , 19-N ) :   2.9760 B( 20-C , 21-C ) :   1.2395 B( 20-C , 72-H ) :   0.9379
B( 21-C , 22-S ) :   1.1115 B( 21-C , 25-C ) :   1.2602 B( 22-S , 23-C ) :   1.2142
B( 23-C , 24-C ) :   1.3014 B( 23-C , 32-C ) :   1.1686 B( 24-C , 25-C ) :   1.2369
B( 24-C , 31-C ) :   1.1669 B( 25-C , 26-C ) :   1.1996 B( 26-C , 27-C ) :   1.4717
B( 26-C , 31-C ) :   0.1098 B( 26-C , 73-H ) :   0.9988 B( 27-C , 28-F ) :   1.1371
B( 27-C , 29-C ) :   1.1709 B( 29-C , 30-F ) :   1.1307 B( 29-C , 31-C ) :   1.4904
B( 31-C , 74-H ) :   0.9964 B( 32-C , 33-C ) :   1.6665 B( 32-C , 75-H ) :   0.9414
B( 33-C , 34-C ) :   1.1313 B( 33-C , 76-H ) :   0.9604 B( 34-C , 35-C ) :   1.8283
B( 34-C , 77-H ) :   0.9474 B( 35-C , 36-C ) :   1.0768 B( 35-C , 37-C ) :   1.0300
B( 36-C , 78-H ) :   0.9488 B( 36-C , 79-H ) :   0.9457 B( 36-C , 80-H ) :   0.9352
B( 37-C , 38-N ) :   0.9766 B( 37-C , 81-H ) :   0.9359 B( 37-C , 82-H ) :   0.9302
B( 38-N , 39-C ) :   1.2318 B( 38-N , 83-H ) :   0.9366 B( 39-C , 40-C ) :   1.6124
B( 39-C , 84-H ) :   0.9638 B( 40-C , 41-C ) :   1.1693 B( 40-C , 85-H ) :   0.9591
B( 41-C , 42-C ) :   1.5872 B( 41-C , 86-H ) :   0.9790 B( 42-C , 43-C ) :   1.1493
B( 42-C , 46-S ) :   1.0076 B( 43-C , 44-C ) :   1.5843 B( 43-C , 87-H ) :   0.9964
B( 44-C , 45-C ) :   1.1941 B( 44-C , 88-H ) :   0.9932 B( 45-C , 46-S ) :   1.0506
B( 45-C , 47-C ) :   1.5012 B( 47-C , 48-C ) :   1.1966 B( 47-C , 51-S ) :   1.0247
B( 48-C , 49-C ) :   1.5811 B( 48-C , 89-H ) :   0.9929 B( 49-C , 50-C ) :   1.1464
B( 49-C , 90-H ) :   0.9985 B( 50-C , 51-S ) :   1.0417 B( 50-C , 52-C ) :   1.5903
B( 52-C , 53-C ) :   1.1212 B( 52-C , 91-H ) :   0.9558 B( 53-C , 54-N ) :   1.1770
B( 53-C , 64-C ) :   1.4031 B( 54-N , 55-C ) :   1.2353 B( 54-N , 92-H ) :   0.9300
B( 55-C , 56-C ) :   1.1756 B( 55-C , 63-C ) :   1.3148 B( 56-C , 57-C ) :   1.6114
B( 56-C , 93-H ) :   0.9457 B( 57-C , 58-C ) :   1.1358 B( 57-C , 94-H ) :   0.9603
B( 58-C , 59-N ) :   1.2315 B( 58-C , 62-C ) :   1.4213 B( 59-N , 60-C ) :   1.2225
B( 59-N , 95-H ) :   0.9378 B( 60-C , 61-C ) :   1.4800 B( 60-C , 96-H ) :   0.9922
B( 61-C , 62-C ) :   1.3105 B( 61-C , 97-H ) :   1.0071 B( 62-C , 98-H ) :   1.0112
B( 63-C , 64-C ) :   1.3167 B( 63-C , 65-C ) :   1.0922 B( 64-C , 99-H ) :   0.9861
B( 65-C , 66-C ) :   1.9528 B( 65-C ,100-H ) :   0.9569 B( 66-C ,101-H ) :   0.9514
B( 66-C ,102-H ) :   0.9459

-----------------------------------------------------------------------------
         ABSORPTION SPECTRUM VIA TRANSITION ELECTRIC DIPOLE MOMENTS
-----------------------------------------------------------------------------
State   Energy  Wavelength   fosc         T2         TX        TY        TZ
        (cm-1)    (nm)                  (au**2)     (au)      (au)      (au)
-----------------------------------------------------------------------------
   0    6134.6   1630.1   0.021280374   1.14201  -0.79174  -0.06122  -0.71513
   1   14540.2    687.7   1.330604273  30.12686   0.19406   0.20447   5.48155
   2   15433.5    647.9   0.748061461  15.95687  -3.46050   1.55323   1.25270
   3   16129.3    620.0   0.060817064   1.24132  -0.65916   0.50300  -0.74419
   4   18149.2    551.0   0.008683359   0.15751   0.23895   0.01756  -0.31639
   5   22243.8    449.6   0.004633950   0.06858   0.08222   0.03352  -0.24637
   6   22961.9    435.5   0.112009004   1.60591  -0.90863  -0.03929  -0.88247
   7   24106.5    414.8   0.034667005   0.47343   0.57741  -0.04666  -0.37128
   8   24282.4    411.8   0.031859962   0.43195  -0.04801  -0.63620   0.15777
   9   25364.6    394.3   0.416291374   5.40313  -2.22508   0.24256   0.62715
  10   25601.2    390.6   0.150010436   1.92902   1.25285  -0.03527  -0.59845
  11   25778.0    387.9   0.018820993   0.24036   0.48215   0.08678  -0.01903
  12   26788.7    373.3   0.305759184   3.75754  -1.87059   0.00335   0.50835
  13   27714.3    360.8   0.000301863   0.00359   0.00547   0.00696   0.05922
  14   28079.9    356.1   0.018216441   0.21357   0.43189  -0.16435   0.00544
  15   28155.0    355.2   0.232148413   2.71448   1.58692  -0.17379   0.40740
  16   28211.8    354.5   0.050902861   0.59400  -0.27410   0.36728   0.61966
  17   28577.1    349.9   0.072959217   0.84050   0.20801  -0.86588   0.21789
  18   29494.5    339.0   0.004150398   0.04633   0.04505  -0.19697   0.07415
  19   29817.5    335.4   0.139081343   1.53558  -0.56818   1.03555  -0.37469
  20   29900.2    334.4   0.287984684   3.17081   0.60139   1.61577  -0.44543
  21   31549.5    317.0   0.001388250   0.01449   0.03438  -0.09479   0.06572
  22   31665.3    315.8   0.001488015   0.01547   0.08367   0.00391   0.09194
  23   32003.6    312.5   0.008527675   0.08772   0.19678  -0.22069   0.01727
  24   32235.0    310.2   0.135549346   1.38435  -1.01841   0.56231   0.17604
  25   32481.2    307.9   0.295572103   2.99576  -1.50175  -0.00632  -0.86050
  26   33353.4    299.8   0.140122015   1.38306   0.55992  -1.03377   0.02947
  27   33531.2    298.2   0.026452923   0.25972   0.26988   0.40951   0.13852
  28   33592.9    297.7   0.536821863   5.26088   0.78824  -2.08189   0.55255
  29   33887.5    295.1   0.132468214   1.28691  -0.77668   0.21840   0.79748
  30   33942.7    294.6   0.448655775   4.35153  -0.46618  -0.22108  -2.02122
  31   34718.0    288.0   0.121782584   1.15480   0.92141   0.48217  -0.27076
  32   34928.6    286.3   0.147990728   1.39486   0.53165   0.83454  -0.64478
  33   35409.8    282.4   0.021533074   0.20020  -0.30471  -0.31848  -0.07696
  34   35978.5    277.9   0.049627429   0.45410  -0.65747  -0.14564   0.02490
  35   36262.9    275.8   0.151720749   1.37739   0.61732  -0.97927  -0.19323
  36   36583.5    273.3   0.002186099   0.01967  -0.07867   0.05678  -0.10129
  37   36985.2    270.4   0.007548397   0.06719   0.25110  -0.06369   0.00896
  38   37293.2    268.1   0.129579615   1.14388   0.64529  -0.05000  -0.85146
  39   37347.4    267.8   0.015286557   0.13475  -0.03706   0.03742   0.36328
  40   37434.7    267.1   0.005348851   0.04704  -0.03291   0.01804   0.21361
  41   37657.8    265.5   0.053668659   0.46918   0.44254  -0.04200  -0.52113
  42   38654.2    258.7   0.237277807   2.02086  -1.18696  -0.06401   0.77967
  43   38921.9    256.9   0.004096102   0.03465   0.15018  -0.03622  -0.10382
  44   39155.8    255.4   0.003351345   0.02818  -0.05233  -0.04722   0.15235
  45   39227.4    254.9   0.012202326   0.10241  -0.14087   0.09236   0.27209
  46   39386.2    253.9   0.016289271   0.13616  -0.12727   0.08927   0.33465
  47   39576.3    252.7   0.000647596   0.00539   0.02555   0.02331   0.06474
  48   39783.6    251.4   0.003053624   0.02527   0.06419  -0.01546  -0.14460

FINAL SINGLE POINT ENERGY     -3956.623766914332

DIPOLE MOMENT
-------------
                                X             Y             Z
Electronic contribution:    -67.37751     -19.74565     -58.00320
Nuclear contribution   :     67.73875      20.32676      57.87671
                        -----------------------------------------
Total Dipole Moment    :      0.36124       0.58111      -0.12649
                        -----------------------------------------
Magnitude (a.u.)       :      0.69583
Magnitude (Debye)      :      1.76866

Rotational constants in cm-1:     0.000869     0.000302     0.000264
Rotational constants in MHz :    26.037004     9.041074     7.911141

                             ****ORCA TERMINATED NORMALLY****
TOTAL RUN TIME: 0 days 0 hours 8 minutes 49 seconds 769 msec
