                         Program Version 4.2.0 -  RELEASE  -
|  1> # ORCA input file
|  2> # SCF done       -176.567108468453          0.000194433672
|  3> ! CAM-B3LYP def2-SVP def2/J RIJCOSX Grid4 TightSCF
|  4> %maxcore 5000
|  5> %tddft
|  6>     Mode sTDDFT
|  7>     Ethresh 5.0
|  8>     maxcore 5000
|  9> end
| 10>
| 11> %pal
| 12>   nprocs 6
| 13>   end
| 14> * xyz 0 1
| 15>    C       15.20372        -8.59571         1.11106
| 16>    C       15.56526        -9.61384         1.94889
| 17>    F       16.81386       -10.11230         1.88483
| 18>    C       14.68105       -10.16708         2.88448
| 19>    C       13.40919        -9.67166         2.96528
| 20>    C       12.98385        -8.62081         2.12739
| 21>    C       13.89766        -8.07390         1.18017
| 22>    C       13.49194        -7.02279         0.32393
| 23>    C       12.21926        -6.53278         0.42335
| 24>    C       11.31472        -7.07132         1.38372
| 25>    C       11.67500        -8.09361         2.21230
| 26>    C       10.03826        -6.33151         1.31700
| 27>    O        9.02366        -6.53649         1.94534
| 28>    C       10.28414        -5.22327         0.35861
| 29>    C       11.52357        -5.48846        -0.32521
| 30>    C       11.86432        -5.05332        -1.58253
| 31>    C       10.99216        -4.29187        -2.38454
| 32>    N       10.28093        -3.70847        -3.07220
| 33>    C       13.06390        -5.39612        -2.23339
| 34>    N       14.04070        -5.62432        -2.79251
| 35>    C        9.43915        -4.14455         0.37181
| 36>    C        9.65957        -2.81618        -0.00935
| 37>    S       11.23018        -2.16649        -0.37606
| 38>    C       10.65408        -0.54346        -0.48398
| 39>    C        9.26397        -0.49557        -0.25304
| 40>    C        8.70250        -1.77717         0.01309
| 41>    C        7.32299        -1.90282         0.24498
| 42>    C        6.54543        -0.77804         0.21697
| 43>    F        5.22747        -0.87299         0.43813
| 44>    C        7.10298         0.49274        -0.04301
| 45>    F        6.29696         1.56472        -0.05957
| 46>    C        8.44094         0.64354        -0.27737
| 47>    C       11.51483         0.54475        -0.73971
| 48>    C       12.80697         0.40656        -1.13486
| 49>    C       13.75867         1.45003        -1.35996
| 50>    C       14.94977         1.15369        -2.04855
| 51>    C       15.89770         2.11466        -2.27136
| 52>    F       17.00827         1.76960        -2.95427
| 53>    C       15.78706         3.43826        -1.79115
| 54>    C       14.59782         3.73380        -1.10492
| 55>    C       13.62928         2.78072        -0.91958
| 56>    F       12.52086         3.16290        -0.25124
| 57>    C       16.84571         4.35973        -2.02299
| 58>    C       17.08635         5.56853        -1.42990
| 59>    C       18.19931         6.40276        -1.73491
| 60>    C       18.30013         7.51771        -0.96570
| 61>    C       17.27666         7.63857         0.00414
| 62>    S       16.16132         6.29639        -0.12642
| 63>    C       17.12290         8.61674         0.96356
| 64>    C       17.94189         9.74939         1.19085
| 65>    C       17.54629        10.51038         2.24416
| 66>    C       16.39188        10.02491         2.91626
| 67>    S       15.81914         8.56286         2.13330
| 68>    C       15.81392        10.58948         4.01963
| 69>    C       14.68679        10.13100         4.72510
| 70>    S       13.72933         8.71767         4.31273
| 71>    C       12.64832         8.91029         5.63077
| 72>    C       12.98537        10.01294         6.38137
| 73>    C       14.12933        10.69076         5.86306
| 74>    O       14.43945        11.76267         6.61896
| 75>    C       13.50950        11.77794         7.61307
| 76>    N       13.59530        12.81485         8.57547
| 77>    O       12.75872        12.80236         9.45774
| 78>    O       14.48370        13.62900         8.45412
| 79>    C       12.60331        10.75586         7.53281
| 80>    H       15.91013        -8.19662         0.40002
| 81>    H       15.02216       -10.96940         3.51927
| 82>    H       12.70994       -10.08107         3.67877
| 83>    H       14.20345        -6.62214        -0.38097
| 84>    H       10.97257        -8.49462         2.92750
| 85>    H        8.49562        -4.33142         0.87557
| 86>    H        6.86698        -2.86022         0.43567
| 87>    H        8.84001         1.62377        -0.47915
| 88>    H       11.07987         1.52413        -0.61892
| 89>    H       13.17227        -0.59550        -1.32742
| 90>    H       15.11621         0.15533        -2.42243
| 91>    H       14.41159         4.72632        -0.73019
| 92>    H       17.59183         4.03761        -2.73861
| 93>    H       18.89120         6.13788        -2.51460
| 94>    H       19.08377         8.24778        -1.05762
| 95>    H       18.79557         9.96508         0.57428
| 96>    H       18.04393        11.40548         2.57236
| 97>    H       16.26690        11.48822         4.41781
| 98>    H       11.84697         8.21525         5.77189
| 99>    H       11.79185        10.57851         8.20758
|100> *
|101>
|102>                          ****END OF INPUT****

CARTESIAN COORDINATES (ANGSTROEM)
---------------------------------
  C     15.203720   -8.595710    1.111060
  C     15.565260   -9.613840    1.948890
  F     16.813860  -10.112300    1.884830
  C     14.681050  -10.167080    2.884480
  C     13.409190   -9.671660    2.965280
  C     12.983850   -8.620810    2.127390
  C     13.897660   -8.073900    1.180170
  C     13.491940   -7.022790    0.323930
  C     12.219260   -6.532780    0.423350
  C     11.314720   -7.071320    1.383720
  C     11.675000   -8.093610    2.212300
  C     10.038260   -6.331510    1.317000
  O      9.023660   -6.536490    1.945340
  C     10.284140   -5.223270    0.358610
  C     11.523570   -5.488460   -0.325210
  C     11.864320   -5.053320   -1.582530
  C     10.992160   -4.291870   -2.384540
  N     10.280930   -3.708470   -3.072200
  C     13.063900   -5.396120   -2.233390
  N     14.040700   -5.624320   -2.792510
  C      9.439150   -4.144550    0.371810
  C      9.659570   -2.816180   -0.009350
  S     11.230180   -2.166490   -0.376060
  C     10.654080   -0.543460   -0.483980
  C      9.263970   -0.495570   -0.253040
  C      8.702500   -1.777170    0.013090
  C      7.322990   -1.902820    0.244980
  C      6.545430   -0.778040    0.216970
  F      5.227470   -0.872990    0.438130
  C      7.102980    0.492740   -0.043010
  F      6.296960    1.564720   -0.059570
  C      8.440940    0.643540   -0.277370
  C     11.514830    0.544750   -0.739710
  C     12.806970    0.406560   -1.134860
  C     13.758670    1.450030   -1.359960
  C     14.949770    1.153690   -2.048550
  C     15.897700    2.114660   -2.271360
  F     17.008270    1.769600   -2.954270
  C     15.787060    3.438260   -1.791150
  C     14.597820    3.733800   -1.104920
  C     13.629280    2.780720   -0.919580
  F     12.520860    3.162900   -0.251240
  C     16.845710    4.359730   -2.022990
  C     17.086350    5.568530   -1.429900
  C     18.199310    6.402760   -1.734910
  C     18.300130    7.517710   -0.965700
  C     17.276660    7.638570    0.004140
  S     16.161320    6.296390   -0.126420
  C     17.122900    8.616740    0.963560
  C     17.941890    9.749390    1.190850
  C     17.546290   10.510380    2.244160
  C     16.391880   10.024910    2.916260
  S     15.819140    8.562860    2.133300
  C     15.813920   10.589480    4.019630
  C     14.686790   10.131000    4.725100
  S     13.729330    8.717670    4.312730
  C     12.648320    8.910290    5.630770
  C     12.985370   10.012940    6.381370
  C     14.129330   10.690760    5.863060
  O     14.439450   11.762670    6.618960
  C     13.509500   11.777940    7.613070
  N     13.595300   12.814850    8.575470
  O     12.758720   12.802360    9.457740
  O     14.483700   13.629000    8.454120
  C     12.603310   10.755860    7.532810
  H     15.910130   -8.196620    0.400020
  H     15.022160  -10.969400    3.519270
  H     12.709940  -10.081070    3.678770
  H     14.203450   -6.622140   -0.380970
  H     10.972570   -8.494620    2.927500
  H      8.495620   -4.331420    0.875570
  H      6.866980   -2.860220    0.435670
  H      8.840010    1.623770   -0.479150
  H     11.079870    1.524130   -0.618920
  H     13.172270   -0.595500   -1.327420
  H     15.116210    0.155330   -2.422430
  H     14.411590    4.726320   -0.730190
  H     17.591830    4.037610   -2.738610
  H     18.891200    6.137880   -2.514600
  H     19.083770    8.247780   -1.057620
  H     18.795570    9.965080    0.574280
  H     18.043930   11.405480    2.572360
  H     16.266900   11.488220    4.417810
  H     11.846970    8.215250    5.771890
  H     11.791850   10.578510    8.207580

 Total Charge           Charge          ....    0
 Multiplicity           Mult            ....    1
 Number of Electrons    NEL             ....  476
 Basis Dimension        Dim             .... 1026

ORBITAL ENERGIES
----------------

  NO   OCC          E(Eh)            E(eV)
   0   2.0000     -88.984243     -2421.3844
   1   2.0000     -88.983216     -2421.3564
   2   2.0000     -88.960092     -2420.7272
   3   2.0000     -88.959488     -2420.7107
   4   2.0000     -24.797087      -674.7630
   5   2.0000     -24.796758      -674.7541
   6   2.0000     -24.794082      -674.6813
   7   2.0000     -24.789491      -674.5564
   8   2.0000     -24.781935      -674.3507
   9   2.0000     -19.316062      -525.6168
  10   2.0000     -19.248666      -523.7828
  11   2.0000     -19.246547      -523.7252
  12   2.0000     -19.205205      -522.6002
  13   2.0000     -14.660428      -398.9305
  14   2.0000     -14.409665      -392.1069
  15   2.0000     -14.408136      -392.0653
  16   2.0000     -10.392707      -282.7999
  17   2.0000     -10.381750      -282.5018
  18   2.0000     -10.377091      -282.3750
  19   2.0000     -10.372258      -282.2435
  20   2.0000     -10.366709      -282.0925
  21   2.0000     -10.364997      -282.0459
  22   2.0000     -10.357489      -281.8416
  23   2.0000     -10.354052      -281.7481
  24   2.0000     -10.335656      -281.2475
  25   2.0000     -10.334688      -281.2212
  26   2.0000     -10.334090      -281.2049
  27   2.0000     -10.325979      -280.9842
  28   2.0000     -10.325303      -280.9658
  29   2.0000     -10.323625      -280.9201
  30   2.0000     -10.322323      -280.8847
  31   2.0000     -10.320881      -280.8455
  32   2.0000     -10.320313      -280.8300
  33   2.0000     -10.318749      -280.7874
  34   2.0000     -10.318136      -280.7708
  35   2.0000     -10.316631      -280.7298
  36   2.0000     -10.312952      -280.6297
  37   2.0000     -10.311693      -280.5954
  38   2.0000     -10.310224      -280.5555
  39   2.0000     -10.308953      -280.5209
  40   2.0000     -10.307857      -280.4911
  41   2.0000     -10.307029      -280.4685
  42   2.0000     -10.306788      -280.4620
  43   2.0000     -10.304847      -280.4092
  44   2.0000     -10.303597      -280.3751
  45   2.0000     -10.302900      -280.3562
  46   2.0000     -10.300961      -280.3034
  47   2.0000     -10.300486      -280.2905
  48   2.0000     -10.300363      -280.2871
  49   2.0000     -10.300077      -280.2793
  50   2.0000     -10.299248      -280.2568
  51   2.0000     -10.299162      -280.2545
  52   2.0000     -10.298602      -280.2392
  53   2.0000     -10.295933      -280.1666
  54   2.0000     -10.295792      -280.1627
  55   2.0000     -10.295761      -280.1619
  56   2.0000     -10.293929      -280.1120
  57   2.0000     -10.293666      -280.1049
  58   2.0000     -10.293140      -280.0906
  59   2.0000     -10.292479      -280.0726
  60   2.0000     -10.291002      -280.0324
  61   2.0000     -10.289903      -280.0025
  62   2.0000     -10.287058      -279.9251
  63   2.0000     -10.284614      -279.8586
  64   2.0000     -10.283852      -279.8378
  65   2.0000      -8.078713      -219.8329
  66   2.0000      -8.077731      -219.8062
  67   2.0000      -8.056210      -219.2206
  68   2.0000      -8.055513      -219.2017
  69   2.0000      -6.048072      -164.5764
  70   2.0000      -6.046671      -164.5383
  71   2.0000      -6.043597      -164.4546
  72   2.0000      -6.042619      -164.4280
  73   2.0000      -6.041176      -164.3887
  74   2.0000      -6.040544      -164.3716
  75   2.0000      -6.026023      -163.9764
  76   2.0000      -6.025250      -163.9554
  77   2.0000      -6.021888      -163.8639
  78   2.0000      -6.021209      -163.8454
  79   2.0000      -6.017062      -163.7326
  80   2.0000      -6.016441      -163.7157
  81   2.0000      -1.332183       -36.2505
  82   2.0000      -1.318665       -35.8827
  83   2.0000      -1.310333       -35.6560
  84   2.0000      -1.303368       -35.4665
  85   2.0000      -1.303236       -35.4629
  86   2.0000      -1.296635       -35.2832
  87   2.0000      -1.236198       -33.6387
  88   2.0000      -1.148705       -31.2578
  89   2.0000      -1.120561       -30.4920
  90   2.0000      -1.021522       -27.7970
  91   2.0000      -1.010941       -27.5091
  92   2.0000      -1.010886       -27.5076
  93   2.0000      -1.003077       -27.2951
  94   2.0000      -0.994514       -27.0621
  95   2.0000      -0.987735       -26.8776
  96   2.0000      -0.987561       -26.8729
  97   2.0000      -0.979544       -26.6547
  98   2.0000      -0.970865       -26.4186
  99   2.0000      -0.957037       -26.0423
 100   2.0000      -0.941520       -25.6201
 101   2.0000      -0.933053       -25.3897
 102   2.0000      -0.921012       -25.0620
 103   2.0000      -0.912864       -24.8403
 104   2.0000      -0.905736       -24.6463
 105   2.0000      -0.892522       -24.2868
 106   2.0000      -0.888248       -24.1705
 107   2.0000      -0.880871       -23.9697
 108   2.0000      -0.877058       -23.8660
 109   2.0000      -0.864079       -23.5128
 110   2.0000      -0.862401       -23.4671
 111   2.0000      -0.853208       -23.2170
 112   2.0000      -0.850241       -23.1362
 113   2.0000      -0.845938       -23.0192
 114   2.0000      -0.839516       -22.8444
 115   2.0000      -0.830841       -22.6083
 116   2.0000      -0.828775       -22.5521
 117   2.0000      -0.814527       -22.1644
 118   2.0000      -0.799480       -21.7550
 119   2.0000      -0.789856       -21.4931
 120   2.0000      -0.777325       -21.1521
 121   2.0000      -0.758992       -20.6532
 122   2.0000      -0.752248       -20.4697
 123   2.0000      -0.748359       -20.3639
 124   2.0000      -0.734546       -19.9880
 125   2.0000      -0.727974       -19.8092
 126   2.0000      -0.720793       -19.6138
 127   2.0000      -0.714372       -19.4391
 128   2.0000      -0.707462       -19.2510
 129   2.0000      -0.704306       -19.1651
 130   2.0000      -0.699674       -19.0391
 131   2.0000      -0.691203       -18.8086
 132   2.0000      -0.682562       -18.5734
 133   2.0000      -0.677653       -18.4399
 134   2.0000      -0.673707       -18.3325
 135   2.0000      -0.669782       -18.2257
 136   2.0000      -0.655155       -17.8277
 137   2.0000      -0.650685       -17.7060
 138   2.0000      -0.647693       -17.6246
 139   2.0000      -0.645719       -17.5709
 140   2.0000      -0.640500       -17.4289
 141   2.0000      -0.635998       -17.3064
 142   2.0000      -0.632592       -17.2137
 143   2.0000      -0.629393       -17.1267
 144   2.0000      -0.626753       -17.0548
 145   2.0000      -0.625296       -17.0152
 146   2.0000      -0.623189       -16.9578
 147   2.0000      -0.620602       -16.8874
 148   2.0000      -0.616198       -16.7676
 149   2.0000      -0.608664       -16.5626
 150   2.0000      -0.605617       -16.4797
 151   2.0000      -0.597916       -16.2701
 152   2.0000      -0.594851       -16.1867
 153   2.0000      -0.590041       -16.0558
 154   2.0000      -0.588875       -16.0241
 155   2.0000      -0.583282       -15.8719
 156   2.0000      -0.581027       -15.8106
 157   2.0000      -0.572989       -15.5918
 158   2.0000      -0.571151       -15.5418
 159   2.0000      -0.564702       -15.3663
 160   2.0000      -0.562919       -15.3178
 161   2.0000      -0.559468       -15.2239
 162   2.0000      -0.557119       -15.1600
 163   2.0000      -0.556749       -15.1499
 164   2.0000      -0.554336       -15.0842
 165   2.0000      -0.552831       -15.0433
 166   2.0000      -0.547248       -14.8914
 167   2.0000      -0.544575       -14.8186
 168   2.0000      -0.543539       -14.7904
 169   2.0000      -0.542099       -14.7513
 170   2.0000      -0.538751       -14.6602
 171   2.0000      -0.533437       -14.5155
 172   2.0000      -0.528284       -14.3754
 173   2.0000      -0.528215       -14.3735
 174   2.0000      -0.522552       -14.2194
 175   2.0000      -0.521634       -14.1944
 176   2.0000      -0.518771       -14.1165
 177   2.0000      -0.517859       -14.0917
 178   2.0000      -0.516610       -14.0577
 179   2.0000      -0.511550       -13.9200
 180   2.0000      -0.510362       -13.8877
 181   2.0000      -0.507164       -13.8006
 182   2.0000      -0.506685       -13.7876
 183   2.0000      -0.501921       -13.6580
 184   2.0000      -0.498616       -13.5680
 185   2.0000      -0.495926       -13.4948
 186   2.0000      -0.491790       -13.3823
 187   2.0000      -0.488961       -13.3053
 188   2.0000      -0.486767       -13.2456
 189   2.0000      -0.486362       -13.2346
 190   2.0000      -0.484154       -13.1745
 191   2.0000      -0.476700       -12.9717
 192   2.0000      -0.475278       -12.9330
 193   2.0000      -0.472960       -12.8699
 194   2.0000      -0.469563       -12.7775
 195   2.0000      -0.466554       -12.6956
 196   2.0000      -0.461313       -12.5530
 197   2.0000      -0.460851       -12.5404
 198   2.0000      -0.456729       -12.4282
 199   2.0000      -0.452602       -12.3159
 200   2.0000      -0.451121       -12.2756
 201   2.0000      -0.450151       -12.2492
 202   2.0000      -0.445250       -12.1159
 203   2.0000      -0.444960       -12.1080
 204   2.0000      -0.440073       -11.9750
 205   2.0000      -0.438874       -11.9424
 206   2.0000      -0.436196       -11.8695
 207   2.0000      -0.434647       -11.8274
 208   2.0000      -0.431755       -11.7486
 209   2.0000      -0.430125       -11.7043
 210   2.0000      -0.425556       -11.5800
 211   2.0000      -0.421579       -11.4718
 212   2.0000      -0.420794       -11.4504
 213   2.0000      -0.417007       -11.3473
 214   2.0000      -0.412161       -11.2155
 215   2.0000      -0.405777       -11.0418
 216   2.0000      -0.402562       -10.9543
 217   2.0000      -0.401018       -10.9123
 218   2.0000      -0.394232       -10.7276
 219   2.0000      -0.385721       -10.4960
 220   2.0000      -0.382110       -10.3977
 221   2.0000      -0.378582       -10.3017
 222   2.0000      -0.376325       -10.2403
 223   2.0000      -0.372587       -10.1386
 224   2.0000      -0.353887        -9.6297
 225   2.0000      -0.351774        -9.5723
 226   2.0000      -0.342270        -9.3137
 227   2.0000      -0.341046        -9.2803
 228   2.0000      -0.333227        -9.0676
 229   2.0000      -0.328562        -8.9406
 230   2.0000      -0.326677        -8.8893
 231   2.0000      -0.323125        -8.7927
 232   2.0000      -0.316607        -8.6153
 233   2.0000      -0.307698        -8.3729
 234   2.0000      -0.294248        -8.0069
 235   2.0000      -0.288444        -7.8490
 236   2.0000      -0.253714        -6.9039
 237   2.0000      -0.224062        -6.0970
 238   0.0000      -0.110425        -3.0048
 239   0.0000      -0.087586        -2.3833
 240   0.0000      -0.065328        -1.7777
 241   0.0000      -0.056110        -1.5268
 242   0.0000      -0.040883        -1.1125

MULLIKEN ATOMIC CHARGES
-----------------------
   0 C :   -0.098903
   1 C :    0.302299
   2 F :   -0.192614
   3 C :   -0.031698
   4 C :   -0.011780
   5 C :    0.101362
   6 C :    0.103410
   7 C :   -0.086940
   8 C :    0.038495
   9 C :    0.011466
  10 C :   -0.084298
  11 C :    0.140350
  12 O :   -0.153638
  13 C :   -0.147151
  14 C :    0.255322
  15 C :   -0.333959
  16 C :   -0.223645
  17 N :    0.171967
  18 C :   -0.173237
  19 N :    0.145260
  20 C :    0.015436
  21 C :   -0.106873
  22 S :    0.175844
  23 C :   -0.060529
  24 C :    0.109334
  25 C :    0.160321
  26 C :   -0.108275
  27 C :    0.236490
  28 F :   -0.169947
  29 C :    0.224446
  30 F :   -0.175772
  31 C :   -0.104722
  32 C :   -0.002332
  33 C :   -0.006604
  34 C :    0.038116
  35 C :   -0.094961
  36 C :    0.268635
  37 F :   -0.190134
  38 C :    0.016430
  39 C :   -0.086609
  40 C :    0.251790
  41 F :   -0.189720
  42 C :   -0.037112
  43 C :   -0.001783
  44 C :    0.031880
  45 C :    0.037222
  46 C :   -0.047889
  47 S :    0.066144
  48 C :   -0.032881
  49 C :    0.028606
  50 C :    0.045210
  51 C :   -0.031766
  52 S :    0.066403
  53 C :   -0.000990
  54 C :   -0.194960
  55 S :    0.146159
  56 C :   -0.128182
  57 C :    0.123173
  58 C :    0.195844
  59 O :   -0.181621
  60 C :    0.231638
  61 N :    0.273056
  62 O :   -0.247047
  63 O :   -0.227787
  64 C :   -0.066007
  65 H :   -0.004501
  66 H :    0.001666
  67 H :   -0.009955
  68 H :   -0.007187
  69 H :   -0.013548
  70 H :    0.015892
  71 H :    0.002785
  72 H :   -0.003701
  73 H :    0.007487
  74 H :    0.003361
  75 H :   -0.002678
  76 H :    0.000539
  77 H :   -0.001656
  78 H :   -0.004865
  79 H :   -0.007490
  80 H :   -0.009855
  81 H :   -0.005102
  82 H :    0.008421
  83 H :    0.035978
  84 H :    0.014669
Sum of atomic charges:   -0.0000000

LOEWDIN ATOMIC CHARGES
----------------------
   0 C :   -0.043429
   1 C :    0.091825
   2 F :   -0.066798
   3 C :   -0.039230
   4 C :    0.003722
   5 C :   -0.019700
   6 C :    0.002670
   7 C :    0.007045
   8 C :   -0.015170
   9 C :   -0.057271
  10 C :    0.031206
  11 C :    0.080818
  12 O :   -0.155040
  13 C :   -0.112948
  14 C :    0.060677
  15 C :   -0.157632
  16 C :   -0.040699
  17 N :   -0.053996
  18 C :   -0.021065
  19 N :   -0.060811
  20 C :    0.045128
  21 C :   -0.193025
  22 S :    0.525773
  23 C :   -0.128782
  24 C :   -0.050352
  25 C :   -0.011117
  26 C :   -0.038450
  27 C :    0.076232
  28 F :   -0.047286
  29 C :    0.059372
  30 F :   -0.053665
  31 C :   -0.029008
  32 C :   -0.044295
  33 C :    0.006303
  34 C :   -0.055726
  35 C :   -0.029260
  36 C :    0.085716
  37 F :   -0.066129
  38 C :   -0.039340
  39 C :   -0.047315
  40 C :    0.094068
  41 F :   -0.062664
  42 C :   -0.060875
  43 C :   -0.130597
  44 C :   -0.029193
  45 C :   -0.026763
  46 C :   -0.181845
  47 S :    0.383792
  48 C :   -0.168174
  49 C :   -0.035827
  50 C :   -0.021160
  51 C :   -0.154525
  52 S :    0.365489
  53 C :   -0.059554
  54 C :   -0.206853
  55 S :    0.477469
  56 C :   -0.184891
  57 C :   -0.084178
  58 C :    0.022844
  59 O :    0.002868
  60 C :    0.026053
  61 N :    0.271360
  62 O :   -0.208060
  63 O :   -0.190301
  64 C :   -0.007937
  65 H :    0.042273
  66 H :    0.041076
  67 H :    0.035193
  68 H :    0.038128
  69 H :    0.038921
  70 H :    0.047922
  71 H :    0.045273
  72 H :    0.043465
  73 H :    0.033263
  74 H :    0.029347
  75 H :    0.043840
  76 H :    0.025839
  77 H :    0.038154
  78 H :    0.036365
  79 H :    0.034380
  80 H :    0.033701
  81 H :    0.036878
  82 H :    0.048026
  83 H :    0.030521
  84 H :    0.047940

  Mayer bond orders larger than 0.100000
B(  0-C ,  1-C ) :   1.4382 B(  0-C ,  6-C ) :   1.2039 B(  0-C , 65-H ) :   1.0066
B(  1-C ,  2-F ) :   1.0864 B(  1-C ,  3-C ) :   1.2573 B(  3-C ,  4-C ) :   1.4566
B(  3-C , 66-H ) :   0.9941 B(  4-C ,  5-C ) :   1.2362 B(  4-C , 67-H ) :   0.9975
B(  5-C ,  6-C ) :   1.2594 B(  5-C , 10-C ) :   1.1859 B(  6-C ,  7-C ) :   1.1960
B(  7-C ,  8-C ) :   1.4698 B(  7-C , 68-H ) :   0.9954 B(  8-C ,  9-C ) :   1.2173
B(  8-C , 14-C ) :   0.9981 B(  9-C , 10-C ) :   1.4785 B(  9-C , 11-C ) :   0.9210
B( 10-C , 69-H ) :   1.0154 B( 11-C , 12-O ) :   2.2464 B( 11-C , 13-C ) :   0.9578
B( 13-C , 14-C ) :   1.0656 B( 13-C , 20-C ) :   1.5569 B( 14-C , 15-C ) :   1.6219
B( 15-C , 16-C ) :   1.1579 B( 15-C , 18-C ) :   1.1372 B( 16-C , 17-N ) :   3.0240
B( 18-C , 19-N ) :   2.9850 B( 20-C , 21-C ) :   1.2581 B( 20-C , 70-H ) :   0.9327
B( 21-C , 22-S ) :   1.1026 B( 21-C , 25-C ) :   1.2699 B( 22-S , 23-C ) :   1.1997
B( 23-C , 24-C ) :   1.2782 B( 23-C , 32-C ) :   1.1968 B( 24-C , 25-C ) :   1.2375
B( 24-C , 31-C ) :   1.1769 B( 25-C , 26-C ) :   1.1944 B( 26-C , 27-C ) :   1.4755
B( 26-C , 31-C ) :   0.1110 B( 26-C , 71-H ) :   0.9980 B( 27-C , 28-F ) :   1.1360
B( 27-C , 29-C ) :   1.1693 B( 29-C , 30-F ) :   1.1303 B( 29-C , 31-C ) :   1.4917
B( 31-C , 72-H ) :   0.9986 B( 32-C , 33-C ) :   1.6168 B( 32-C , 73-H ) :   0.9612
B( 33-C , 34-C ) :   1.1281 B( 33-C , 74-H ) :   0.9752 B( 34-C , 35-C ) :   1.2407
B( 34-C , 40-C ) :   1.2784 B( 35-C , 36-C ) :   1.4068 B( 35-C , 75-H ) :   1.0043
B( 36-C , 37-F ) :   1.1088 B( 36-C , 38-C ) :   1.2726 B( 38-C , 39-C ) :   1.2581
B( 38-C , 42-C ) :   1.1332 B( 39-C , 40-C ) :   1.4284 B( 39-C , 76-H ) :   0.9698
B( 40-C , 41-F ) :   1.0882 B( 42-C , 43-C ) :   1.5816 B( 42-C , 77-H ) :   0.9686
B( 43-C , 44-C ) :   1.1346 B( 43-C , 47-S ) :   1.0377 B( 44-C , 45-C ) :   1.6024
B( 44-C , 78-H ) :   1.0000 B( 45-C , 46-C ) :   1.1764 B( 45-C , 79-H ) :   0.9930
B( 46-C , 47-S ) :   1.0352 B( 46-C , 48-C ) :   1.5285 B( 48-C , 49-C ) :   1.1749
B( 48-C , 52-S ) :   1.0454 B( 49-C , 50-C ) :   1.6039 B( 49-C , 80-H ) :   0.9933
B( 50-C , 51-C ) :   1.1332 B( 50-C , 81-H ) :   1.0006 B( 51-C , 52-S ) :   1.0290
B( 51-C , 53-C ) :   1.5800 B( 53-C , 54-C ) :   1.1720 B( 53-C , 82-H ) :   0.9726
B( 54-C , 55-S ) :   1.1050 B( 54-C , 56-C ) :   0.1083 B( 54-C , 58-C ) :   1.4423
B( 55-S , 56-C ) :   1.1957 B( 56-C , 57-C ) :   1.4129 B( 56-C , 83-H ) :   0.9759
B( 57-C , 58-C ) :   1.2322 B( 57-C , 64-C ) :   1.0599 B( 58-C , 59-O ) :   1.1274
B( 59-O , 60-C ) :   1.1207 B( 60-C , 61-N ) :   0.9147 B( 60-C , 64-C ) :   1.5819
B( 61-N , 62-O ) :   1.5354 B( 61-N , 63-O ) :   1.5161 B( 62-O , 63-O ) :   0.2810
B( 64-C , 84-H ) :   1.0259

-----------------------------------------------------------------------------
         ABSORPTION SPECTRUM VIA TRANSITION ELECTRIC DIPOLE MOMENTS
-----------------------------------------------------------------------------
State   Energy  Wavelength   fosc         T2         TX        TY        TZ
        (cm-1)    (nm)                  (au**2)     (au)      (au)      (au)
-----------------------------------------------------------------------------
   0   12155.9    822.6   1.342196820  36.35009  -1.13488  -5.67939  -1.67529
   1   16616.6    601.8   0.301222329   5.96788   0.35683   0.28378  -2.40000
   2   17944.3    557.3   0.236066589   4.33096   0.86457  -1.39191  -1.28299
   3   21091.1    474.1   0.178437359   2.78524  -0.71852  -1.35158  -0.66498
   4   23828.0    419.7   0.369562439   5.10595   1.89091  -0.07778  -1.23465
   5   24606.7    406.4   0.294107162   3.93484  -1.67982  -0.51407   0.92129
   6   25556.6    391.3   0.132404334   1.70559   0.58970   0.45435  -1.07304
   7   26276.6    380.6   0.095120084   1.19173   0.68247   0.81938  -0.23360
   8   26806.3    373.0   0.155749929   1.91279   0.76681   0.27065  -1.11872
   9   28068.0    356.3   0.309376910   3.62871  -1.83460   0.44388   0.25679
  10   28577.1    349.9   0.044939990   0.51772   0.27994   0.32895  -0.57545
  11   29141.6    343.2   0.089874454   1.01531   0.80359   0.17632  -0.58177
  12   29365.5    340.5   0.148132145   1.66068  -1.03833   0.69730  -0.31037
  13   29978.6    333.6   0.132772426   1.45805   0.70062  -0.97971  -0.08565
  14   30696.4    325.8   0.135364212   1.45175   0.92638   0.67852  -0.36494
  15   31475.1    317.7   0.020444374   0.21384  -0.31888   0.25450   0.21767
  16   31789.3    314.6   0.042154743   0.43656  -0.05346   0.65848   0.01044
  17   32307.3    309.5   0.016468420   0.16781  -0.04664  -0.38818   0.12228
  18   32397.1    308.7   0.067539900   0.68633   0.52658  -0.42089  -0.48155
  19   32612.7    306.6   0.137253577   1.38552  -0.50260   0.63972  -0.85068
  20   33362.4    299.7   0.160096729   1.57980  -1.25185   0.10572   0.03854
  21   33558.5    298.0   0.271967048   2.66802  -0.10548   1.46157  -0.72159
  22   33955.9    294.5   0.103230122   1.00085  -0.89642   0.43925   0.06591
  23   34129.7    293.0   0.318735180   3.07449  -1.66441   0.40354  -0.37601
  24   34298.4    291.6   0.043325570   0.41586   0.09960   0.52930  -0.35466
  25   35244.4    283.7   0.085990477   0.80322   0.00498   0.34859   0.82564
  26   35947.4    278.2   0.015283854   0.13997   0.05904   0.19082  -0.31635
  27   36125.4    276.8   0.107482859   0.97949   0.50314  -0.80349  -0.28416
  28   36266.3    275.7   0.064928525   0.58940   0.42902  -0.52672   0.35763
  29   36635.7    273.0   0.034188161   0.30722  -0.31347  -0.12924   0.43847
  30   36792.1    271.8   0.158528953   1.41850  -0.84906   0.72192   0.42003
  31   37148.2    269.2   0.086061375   0.76269  -0.19471  -0.54509  -0.65395
  32   37740.7    265.0   0.351628454   3.06725   0.16808  -0.91029   1.48673
  33   38304.0    261.1   0.023918294   0.20557   0.25931   0.35792  -0.10110
  34   38601.8    259.1   0.346350839   2.95382   0.17174  -1.26767  -1.14776
  35   39130.8    255.6   0.010646440   0.08957   0.26801  -0.13150  -0.02112
  36   39418.3    253.7   0.058030839   0.48466  -0.06859  -0.40333   0.56328
  37   39584.1    252.6   0.084349046   0.70151  -0.76692   0.19500   0.27444
  38   39955.4    250.3   0.030709235   0.25303  -0.16566  -0.45344   0.14133
  39   40033.0    249.8   0.103729215   0.85302   0.46712  -0.36693  -0.70723

FINAL SINGLE POINT ENERGY     -4432.231262512551

DIPOLE MOMENT
-------------
                                X             Y             Z
Electronic contribution:    -21.13332      -3.63604      -2.81573
Nuclear contribution   :     22.76750       4.77980       3.29723
                        -----------------------------------------
Total Dipole Moment    :      1.63418       1.14376       0.48151
                        -----------------------------------------
Magnitude (a.u.)       :      2.05197
Magnitude (Debye)      :      5.21571

Rotational constants in cm-1:     0.001197     0.000304     0.000287
Rotational constants in MHz :    35.897330     9.117223     8.615981

                             ****ORCA TERMINATED NORMALLY****
TOTAL RUN TIME: 0 days 0 hours 7 minutes 46 seconds 804 msec
