                         Program Version 4.2.0 -  RELEASE  -
|  1> # ORCA input file
|  2> # SCF done       -190.014169644305          0.000401563586
|  3> ! CAM-B3LYP def2-SVP def2/J RIJCOSX Grid4 TightSCF
|  4> %maxcore 5000
|  5> %tddft
|  6>     Mode sTDDFT
|  7>     Ethresh 5.0
|  8>     maxcore 5000
|  9> end
| 10>
| 11> %pal
| 12>   nprocs 6
| 13>   end
| 14> * xyz 0 1
| 15>    C       -8.78883         0.24522         1.77926
| 16>    C       -7.98095        -0.71947         2.33439
| 17>    C       -8.43078        -1.67044         3.26835
| 18>    N       -8.75366        -2.46615         4.03217
| 19>    C       -6.58878        -0.80387         2.12981
| 20>    N       -5.44453        -0.88319         2.06496
| 21>    C      -10.17390         0.50649         2.16563
| 22>    C      -10.56169         1.74540         1.60322
| 23>    C      -11.79546         2.30506         1.82090
| 24>    C      -12.70389         1.58849         2.60942
| 25>    C      -12.32515         0.32753         3.12118
| 26>    C      -11.06349        -0.22395         2.92669
| 27>    S      -13.62284        -0.42444         4.00014
| 28>    C      -14.62587         0.96812         3.70762
| 29>    C      -14.03350         1.93955         2.97587
| 30>   Br      -16.36499         0.99800         4.39543
| 31>    C       -9.44937         2.26837         0.77842
| 32>    O       -9.45553         3.33381         0.18350
| 33>    C       -8.39908         1.25431         0.82713
| 34>    C       -7.30838         1.13976        -0.02364
| 35>    C       -6.81744         2.05299        -0.94777
| 36>    S       -7.25274         3.73722        -0.89073
| 37>    C       -5.99805         4.20829        -1.99265
| 38>    C       -5.29685         3.06409        -2.46512
| 39>    C       -5.79887         1.84507        -1.92562
| 40>    C       -5.29946         0.62670        -2.43667
| 41>    C       -5.93214        -0.70952        -2.17562
| 42>    F       -7.27853        -0.66270        -2.15583
| 43>    F       -5.62761        -1.60006        -3.13708
| 44>    F       -5.55420        -1.29368        -1.02378
| 45>    C       -4.23447         0.65209        -3.31505
| 46>    C       -3.66904         1.84315        -3.75189
| 47>    C       -4.21162         3.05884        -3.37332
| 48>    O       -3.77236         4.25540        -3.82172
| 49>    C       -2.69234         4.29045        -4.72793
| 50>    C       -5.85137         5.55665        -2.33159
| 51>    C       -6.70098         6.48647        -1.76485
| 52>    C       -6.81352         7.85464        -1.93628
| 53>    C       -7.78869         8.54360        -1.21381
| 54>    C       -8.15719         9.89870        -1.22035
| 55>    C       -9.19244        10.20848        -0.36639
| 56>    C       -9.66962         9.10804         0.35625
| 57>    S       -8.78841         7.66881        -0.07759
| 58>    C      -10.66045         8.96513         1.32762
| 59>    C      -11.55367         9.87618         1.90936
| 60>    C      -12.36237         9.31327         2.86323
| 61>    C      -12.12368         7.94128         3.09451
| 62>    S      -10.87839         7.37501         2.01212
| 63>    C      -12.77931         7.14165         4.01172
| 64>    C      -12.50841         5.83325         4.41582
| 65>    S      -13.72297         5.07889         5.44944
| 66>    C      -12.81198         3.60948         5.66704
| 67>    C      -11.59996         3.71137         4.97233
| 68>    C      -11.44888         4.93248         4.26612
| 69>    S       -9.91357         5.00330         3.46637
| 70>    C       -9.50223         3.43384         4.07246
| 71>    C      -10.46128         2.86878         4.83555
| 72>    C      -13.29756         2.52875         6.43108
| 73>    S      -12.30214         1.11384         6.67728
| 74>    C      -13.56449         0.30653         7.55745
| 75>    C      -14.67256         1.12041         7.69196
| 76>    C      -14.53090         2.36695         7.05846
| 77>    C      -15.60398         3.40105         7.08128
| 78>    C      -16.92602         2.90191         7.67552
| 79>    C      -17.81740         4.10584         7.96880
| 80>    C      -16.64693         2.04183         8.91390
| 81>    C      -17.92025         1.63848         9.65207
| 82>    C      -15.89983         0.78044         8.47044
| 83>    C      -13.29900        -1.03475         8.00060
| 84>    C      -14.20157        -1.95913         8.32463
| 85>    H      -12.05542         3.26181         1.39474
| 86>    H      -10.81808        -1.18402         3.34922
| 87>    H      -14.51037         2.86320         2.70091
| 88>    H       -6.77454         0.20393         0.04808
| 89>    H       -3.83606        -0.27639        -3.69311
| 90>    H       -2.82983         1.79411        -4.42477
| 91>    H       -2.52690         5.34487        -4.94363
| 92>    H       -2.93162         3.76447        -5.65675
| 93>    H       -1.78589         3.86549        -4.28755
| 94>    H       -5.08786         5.84785        -3.03388
| 95>    H       -7.42045         6.06686        -1.06968
| 96>    H       -6.17565         8.39953        -2.61703
| 97>    H       -7.66346        10.61918        -1.84907
| 98>    H       -9.60177        11.19658        -0.24901
| 99>    H      -11.58346        10.91269         1.62417
|100>    H      -13.10644         9.85557         3.42003
|101>    H      -13.63535         7.59644         4.49655
|102>    H       -8.54467         3.02548         3.81361
|103>    H      -10.36190         1.89920         5.28477
|104>    H      -15.78865         3.76164         6.06515
|105>    H      -15.24760         4.26001         7.66159
|106>    H      -17.42539         2.27234         6.93143
|107>    H      -17.41427         4.68869         8.79481
|108>    H      -18.82616         3.79423         8.22191
|109>    H      -17.87334         4.74692         7.09186
|110>    H      -16.00598         2.60922         9.59861
|111>    H      -18.62476         1.17334         8.96579
|112>    H      -18.39766         2.49868        10.11183
|113>    H      -17.68552         0.92425        10.43868
|114>    H      -16.56980         0.17779         7.84882
|115>    H      -15.62137         0.18393         9.34222
|116>    H      -12.24766        -1.29490         8.01938
|117>    H      -15.26057        -1.78780         8.26769
|118>    H      -13.89049        -2.94191         8.63308
|119> *
|120>
|121>                          ****END OF INPUT****

CARTESIAN COORDINATES (ANGSTROEM)
---------------------------------
  C     -8.788830    0.245220    1.779260
  C     -7.980950   -0.719470    2.334390
  C     -8.430780   -1.670440    3.268350
  N     -8.753660   -2.466150    4.032170
  C     -6.588780   -0.803870    2.129810
  N     -5.444530   -0.883190    2.064960
  C    -10.173900    0.506490    2.165630
  C    -10.561690    1.745400    1.603220
  C    -11.795460    2.305060    1.820900
  C    -12.703890    1.588490    2.609420
  C    -12.325150    0.327530    3.121180
  C    -11.063490   -0.223950    2.926690
  S    -13.622840   -0.424440    4.000140
  C    -14.625870    0.968120    3.707620
  C    -14.033500    1.939550    2.975870
  Br   -16.364990    0.998000    4.395430
  C     -9.449370    2.268370    0.778420
  O     -9.455530    3.333810    0.183500
  C     -8.399080    1.254310    0.827130
  C     -7.308380    1.139760   -0.023640
  C     -6.817440    2.052990   -0.947770
  S     -7.252740    3.737220   -0.890730
  C     -5.998050    4.208290   -1.992650
  C     -5.296850    3.064090   -2.465120
  C     -5.798870    1.845070   -1.925620
  C     -5.299460    0.626700   -2.436670
  C     -5.932140   -0.709520   -2.175620
  F     -7.278530   -0.662700   -2.155830
  F     -5.627610   -1.600060   -3.137080
  F     -5.554200   -1.293680   -1.023780
  C     -4.234470    0.652090   -3.315050
  C     -3.669040    1.843150   -3.751890
  C     -4.211620    3.058840   -3.373320
  O     -3.772360    4.255400   -3.821720
  C     -2.692340    4.290450   -4.727930
  C     -5.851370    5.556650   -2.331590
  C     -6.700980    6.486470   -1.764850
  C     -6.813520    7.854640   -1.936280
  C     -7.788690    8.543600   -1.213810
  C     -8.157190    9.898700   -1.220350
  C     -9.192440   10.208480   -0.366390
  C     -9.669620    9.108040    0.356250
  S     -8.788410    7.668810   -0.077590
  C    -10.660450    8.965130    1.327620
  C    -11.553670    9.876180    1.909360
  C    -12.362370    9.313270    2.863230
  C    -12.123680    7.941280    3.094510
  S    -10.878390    7.375010    2.012120
  C    -12.779310    7.141650    4.011720
  C    -12.508410    5.833250    4.415820
  S    -13.722970    5.078890    5.449440
  C    -12.811980    3.609480    5.667040
  C    -11.599960    3.711370    4.972330
  C    -11.448880    4.932480    4.266120
  S     -9.913570    5.003300    3.466370
  C     -9.502230    3.433840    4.072460
  C    -10.461280    2.868780    4.835550
  C    -13.297560    2.528750    6.431080
  S    -12.302140    1.113840    6.677280
  C    -13.564490    0.306530    7.557450
  C    -14.672560    1.120410    7.691960
  C    -14.530900    2.366950    7.058460
  C    -15.603980    3.401050    7.081280
  C    -16.926020    2.901910    7.675520
  C    -17.817400    4.105840    7.968800
  C    -16.646930    2.041830    8.913900
  C    -17.920250    1.638480    9.652070
  C    -15.899830    0.780440    8.470440
  C    -13.299000   -1.034750    8.000600
  C    -14.201570   -1.959130    8.324630
  H    -12.055420    3.261810    1.394740
  H    -10.818080   -1.184020    3.349220
  H    -14.510370    2.863200    2.700910
  H     -6.774540    0.203930    0.048080
  H     -3.836060   -0.276390   -3.693110
  H     -2.829830    1.794110   -4.424770
  H     -2.526900    5.344870   -4.943630
  H     -2.931620    3.764470   -5.656750
  H     -1.785890    3.865490   -4.287550
  H     -5.087860    5.847850   -3.033880
  H     -7.420450    6.066860   -1.069680
  H     -6.175650    8.399530   -2.617030
  H     -7.663460   10.619180   -1.849070
  H     -9.601770   11.196580   -0.249010
  H    -11.583460   10.912690    1.624170
  H    -13.106440    9.855570    3.420030
  H    -13.635350    7.596440    4.496550
  H     -8.544670    3.025480    3.813610
  H    -10.361900    1.899200    5.284770
  H    -15.788650    3.761640    6.065150
  H    -15.247600    4.260010    7.661590
  H    -17.425390    2.272340    6.931430
  H    -17.414270    4.688690    8.794810
  H    -18.826160    3.794230    8.221910
  H    -17.873340    4.746920    7.091860
  H    -16.005980    2.609220    9.598610
  H    -18.624760    1.173340    8.965790
  H    -18.397660    2.498680   10.111830
  H    -17.685520    0.924250   10.438680
  H    -16.569800    0.177790    7.848820
  H    -15.621370    0.183930    9.342220
  H    -12.247660   -1.294900    8.019380
  H    -15.260570   -1.787800    8.267690
  H    -13.890490   -2.941910    8.633080

 Total Charge           Charge          ....    0
 Multiplicity           Mult            ....    1
 Number of Electrons    NEL             ....  568
 Basis Dimension        Dim             .... 1196

ORBITAL ENERGIES
----------------

  NO   OCC          E(Eh)            E(eV)
   0   2.0000    -482.880207    -13139.8385
   1   2.0000     -88.971232     -2421.0303
   2   2.0000     -88.959801     -2420.7193
   3   2.0000     -88.956789     -2420.6373
   4   2.0000     -88.954508     -2420.5752
   5   2.0000     -88.954499     -2420.5750
   6   2.0000     -88.944316     -2420.2979
   7   2.0000     -88.940395     -2420.1912
   8   2.0000     -62.557399     -1702.2734
   9   2.0000     -56.391299     -1534.4853
  10   2.0000     -56.388777     -1534.4166
  11   2.0000     -56.388621     -1534.4124
  12   2.0000     -24.780322      -674.3068
  13   2.0000     -24.778955      -674.2696
  14   2.0000     -24.777724      -674.2361
  15   2.0000     -19.261489      -524.1318
  16   2.0000     -19.189549      -522.1742
  17   2.0000     -14.387211      -391.4959
  18   2.0000     -14.382232      -391.3604
  19   2.0000     -10.499142      -285.6962
  20   2.0000     -10.348384      -281.5939
  21   2.0000     -10.344516      -281.4886
  22   2.0000     -10.339590      -281.3546
  23   2.0000     -10.332465      -281.1607
  24   2.0000     -10.329777      -281.0875
  25   2.0000     -10.323819      -280.9254
  26   2.0000     -10.317294      -280.7479
  27   2.0000     -10.314348      -280.6677
  28   2.0000     -10.313320      -280.6397
  29   2.0000     -10.312032      -280.6047
  30   2.0000     -10.310119      -280.5526
  31   2.0000     -10.310044      -280.5506
  32   2.0000     -10.307836      -280.4905
  33   2.0000     -10.306807      -280.4625
  34   2.0000     -10.306360      -280.4503
  35   2.0000     -10.306050      -280.4419
  36   2.0000     -10.305931      -280.4386
  37   2.0000     -10.300140      -280.2811
  38   2.0000     -10.297768      -280.2165
  39   2.0000     -10.296441      -280.1804
  40   2.0000     -10.295697      -280.1601
  41   2.0000     -10.293334      -280.0958
  42   2.0000     -10.292244      -280.0662
  43   2.0000     -10.291201      -280.0378
  44   2.0000     -10.290294      -280.0131
  45   2.0000     -10.287774      -279.9446
  46   2.0000     -10.287643      -279.9410
  47   2.0000     -10.287020      -279.9240
  48   2.0000     -10.286423      -279.9078
  49   2.0000     -10.285560      -279.8843
  50   2.0000     -10.284356      -279.8515
  51   2.0000     -10.284064      -279.8436
  52   2.0000     -10.283396      -279.8254
  53   2.0000     -10.283293      -279.8226
  54   2.0000     -10.281994      -279.7873
  55   2.0000     -10.281578      -279.7760
  56   2.0000     -10.280881      -279.7570
  57   2.0000     -10.280394      -279.7437
  58   2.0000     -10.278581      -279.6944
  59   2.0000     -10.277341      -279.6607
  60   2.0000     -10.276255      -279.6311
  61   2.0000     -10.276154      -279.6284
  62   2.0000     -10.272708      -279.5346
  63   2.0000     -10.271238      -279.4946
  64   2.0000     -10.270696      -279.4798
  65   2.0000     -10.270130      -279.4644
  66   2.0000     -10.269117      -279.4369
  67   2.0000     -10.268751      -279.4269
  68   2.0000     -10.268540      -279.4212
  69   2.0000     -10.268169      -279.4111
  70   2.0000     -10.263205      -279.2760
  71   2.0000     -10.259154      -279.1658
  72   2.0000     -10.257331      -279.1162
  73   2.0000     -10.255891      -279.0770
  74   2.0000      -8.786642      -239.0967
  75   2.0000      -8.065460      -219.4723
  76   2.0000      -8.055152      -219.1918
  77   2.0000      -8.051848      -219.1019
  78   2.0000      -8.051008      -219.0791
  79   2.0000      -8.049197      -219.0298
  80   2.0000      -8.040674      -218.7979
  81   2.0000      -8.034563      -218.6316
  82   2.0000      -6.622635      -180.2111
  83   2.0000      -6.608494      -179.8263
  84   2.0000      -6.608409      -179.8240
  85   2.0000      -6.034988      -164.2204
  86   2.0000      -6.030650      -164.1023
  87   2.0000      -6.027439      -164.0149
  88   2.0000      -6.024930      -163.9467
  89   2.0000      -6.021610      -163.8563
  90   2.0000      -6.020604      -163.8290
  91   2.0000      -6.020580      -163.8283
  92   2.0000      -6.018582      -163.7739
  93   2.0000      -6.016956      -163.7297
  94   2.0000      -6.016449      -163.7159
  95   2.0000      -6.016366      -163.7136
  96   2.0000      -6.014452      -163.6616
  97   2.0000      -6.013397      -163.6328
  98   2.0000      -6.012133      -163.5985
  99   2.0000      -6.011200      -163.5731
 100   2.0000      -6.010252      -163.5473
 101   2.0000      -6.006183      -163.4365
 102   2.0000      -6.003924      -163.3751
 103   2.0000      -6.001866      -163.3191
 104   2.0000      -5.999474      -163.2540
 105   2.0000      -5.996633      -163.1767
 106   2.0000      -2.738551       -74.5197
 107   2.0000      -2.734620       -74.4128
 108   2.0000      -2.734533       -74.4104
 109   2.0000      -2.723298       -74.1047
 110   2.0000      -2.723269       -74.1039
 111   2.0000      -1.369497       -37.2659
 112   2.0000      -1.270658       -34.5764
 113   2.0000      -1.269475       -34.5442
 114   2.0000      -1.165966       -31.7275
 115   2.0000      -1.105000       -30.0686
 116   2.0000      -1.016298       -27.6549
 117   2.0000      -1.003494       -27.3064
 118   2.0000      -1.002198       -27.2712
 119   2.0000      -0.989866       -26.9356
 120   2.0000      -0.989444       -26.9241
 121   2.0000      -0.986014       -26.8308
 122   2.0000      -0.978241       -26.6193
 123   2.0000      -0.965553       -26.2740
 124   2.0000      -0.963188       -26.2097
 125   2.0000      -0.949110       -25.8266
 126   2.0000      -0.935915       -25.4675
 127   2.0000      -0.930201       -25.3121
 128   2.0000      -0.924062       -25.1450
 129   2.0000      -0.912430       -24.8285
 130   2.0000      -0.904563       -24.6144
 131   2.0000      -0.891469       -24.2581
 132   2.0000      -0.887591       -24.1526
 133   2.0000      -0.881589       -23.9893
 134   2.0000      -0.868445       -23.6316
 135   2.0000      -0.865961       -23.5640
 136   2.0000      -0.863347       -23.4929
 137   2.0000      -0.853973       -23.2378
 138   2.0000      -0.852131       -23.1877
 139   2.0000      -0.850521       -23.1439
 140   2.0000      -0.840850       -22.8807
 141   2.0000      -0.838252       -22.8100
 142   2.0000      -0.826795       -22.4982
 143   2.0000      -0.825688       -22.4681
 144   2.0000      -0.820721       -22.3329
 145   2.0000      -0.813001       -22.1229
 146   2.0000      -0.809411       -22.0252
 147   2.0000      -0.805550       -21.9201
 148   2.0000      -0.798870       -21.7384
 149   2.0000      -0.785641       -21.3784
 150   2.0000      -0.773521       -21.0486
 151   2.0000      -0.761068       -20.7097
 152   2.0000      -0.759581       -20.6693
 153   2.0000      -0.753272       -20.4976
 154   2.0000      -0.741886       -20.1877
 155   2.0000      -0.732897       -19.9431
 156   2.0000      -0.728399       -19.8208
 157   2.0000      -0.707834       -19.2612
 158   2.0000      -0.701605       -19.0916
 159   2.0000      -0.698040       -18.9946
 160   2.0000      -0.693140       -18.8613
 161   2.0000      -0.689648       -18.7663
 162   2.0000      -0.679736       -18.4965
 163   2.0000      -0.677535       -18.4367
 164   2.0000      -0.669959       -18.2305
 165   2.0000      -0.668768       -18.1981
 166   2.0000      -0.663024       -18.0418
 167   2.0000      -0.656103       -17.8535
 168   2.0000      -0.652714       -17.7613
 169   2.0000      -0.651519       -17.7287
 170   2.0000      -0.649075       -17.6622
 171   2.0000      -0.640947       -17.4410
 172   2.0000      -0.636895       -17.3308
 173   2.0000      -0.635110       -17.2822
 174   2.0000      -0.631572       -17.1859
 175   2.0000      -0.628410       -17.0999
 176   2.0000      -0.624045       -16.9811
 177   2.0000      -0.618036       -16.8176
 178   2.0000      -0.611914       -16.6510
 179   2.0000      -0.603592       -16.4246
 180   2.0000      -0.591067       -16.0837
 181   2.0000      -0.589609       -16.0441
 182   2.0000      -0.587044       -15.9743
 183   2.0000      -0.581267       -15.8171
 184   2.0000      -0.578059       -15.7298
 185   2.0000      -0.577165       -15.7055
 186   2.0000      -0.569157       -15.4875
 187   2.0000      -0.565907       -15.3991
 188   2.0000      -0.565724       -15.3941
 189   2.0000      -0.557010       -15.1570
 190   2.0000      -0.546536       -14.8720
 191   2.0000      -0.542635       -14.7659
 192   2.0000      -0.539731       -14.6868
 193   2.0000      -0.538467       -14.6524
 194   2.0000      -0.535875       -14.5819
 195   2.0000      -0.534767       -14.5517
 196   2.0000      -0.532211       -14.4822
 197   2.0000      -0.530663       -14.4401
 198   2.0000      -0.529378       -14.4051
 199   2.0000      -0.526532       -14.3277
 200   2.0000      -0.523127       -14.2350
 201   2.0000      -0.517021       -14.0689
 202   2.0000      -0.516827       -14.0636
 203   2.0000      -0.513180       -13.9643
 204   2.0000      -0.510984       -13.9046
 205   2.0000      -0.510442       -13.8898
 206   2.0000      -0.507365       -13.8061
 207   2.0000      -0.507143       -13.8001
 208   2.0000      -0.505812       -13.7638
 209   2.0000      -0.500668       -13.6239
 210   2.0000      -0.499253       -13.5854
 211   2.0000      -0.498493       -13.5647
 212   2.0000      -0.495813       -13.4918
 213   2.0000      -0.495037       -13.4707
 214   2.0000      -0.489571       -13.3219
 215   2.0000      -0.487948       -13.2777
 216   2.0000      -0.485647       -13.2151
 217   2.0000      -0.484386       -13.1808
 218   2.0000      -0.483822       -13.1655
 219   2.0000      -0.481765       -13.1095
 220   2.0000      -0.477887       -13.0040
 221   2.0000      -0.474934       -12.9236
 222   2.0000      -0.472566       -12.8592
 223   2.0000      -0.471497       -12.8301
 224   2.0000      -0.470040       -12.7904
 225   2.0000      -0.469253       -12.7690
 226   2.0000      -0.467879       -12.7316
 227   2.0000      -0.466331       -12.6895
 228   2.0000      -0.464928       -12.6513
 229   2.0000      -0.459257       -12.4970
 230   2.0000      -0.458955       -12.4888
 231   2.0000      -0.455933       -12.4066
 232   2.0000      -0.455772       -12.4022
 233   2.0000      -0.452555       -12.3147
 234   2.0000      -0.448765       -12.2115
 235   2.0000      -0.447508       -12.1773
 236   2.0000      -0.445637       -12.1264
 237   2.0000      -0.441617       -12.0170
 238   2.0000      -0.438374       -11.9288
 239   2.0000      -0.436448       -11.8764
 240   2.0000      -0.435096       -11.8396
 241   2.0000      -0.433218       -11.7885
 242   2.0000      -0.431188       -11.7332
 243   2.0000      -0.426792       -11.6136
 244   2.0000      -0.423850       -11.5335
 245   2.0000      -0.422130       -11.4868
 246   2.0000      -0.421773       -11.4770
 247   2.0000      -0.418948       -11.4002
 248   2.0000      -0.417895       -11.3715
 249   2.0000      -0.414090       -11.2680
 250   2.0000      -0.411249       -11.1907
 251   2.0000      -0.409488       -11.1427
 252   2.0000      -0.408684       -11.1208
 253   2.0000      -0.402579       -10.9547
 254   2.0000      -0.399619       -10.8742
 255   2.0000      -0.397846       -10.8260
 256   2.0000      -0.397078       -10.8050
 257   2.0000      -0.393933       -10.7194
 258   2.0000      -0.388883       -10.5820
 259   2.0000      -0.387897       -10.5552
 260   2.0000      -0.385400       -10.4873
 261   2.0000      -0.382540       -10.4095
 262   2.0000      -0.379359       -10.3229
 263   2.0000      -0.376478       -10.2445
 264   2.0000      -0.375995       -10.2313
 265   2.0000      -0.368820       -10.0361
 266   2.0000      -0.368552       -10.0288
 267   2.0000      -0.356639        -9.7046
 268   2.0000      -0.349909        -9.5215
 269   2.0000      -0.341027        -9.2798
 270   2.0000      -0.335092        -9.1183
 271   2.0000      -0.322000        -8.7621
 272   2.0000      -0.318448        -8.6654
 273   2.0000      -0.315690        -8.5904
 274   2.0000      -0.311998        -8.4899
 275   2.0000      -0.308031        -8.3819
 276   2.0000      -0.304608        -8.2888
 277   2.0000      -0.296012        -8.0549
 278   2.0000      -0.294097        -8.0028
 279   2.0000      -0.290157        -7.8956
 280   2.0000      -0.272902        -7.4260
 281   2.0000      -0.260837        -7.0977
 282   2.0000      -0.232878        -6.3369
 283   2.0000      -0.195684        -5.3248
 284   0.0000      -0.104647        -2.8476
 285   0.0000      -0.064147        -1.7455
 286   0.0000      -0.042034        -1.1438
 287   0.0000      -0.035537        -0.9670
 288   0.0000      -0.015907        -0.4328

MULLIKEN ATOMIC CHARGES
-----------------------
   0 C :    0.278037
   1 C :   -0.351376
   2 C :   -0.186486
   3 N :    0.120773
   4 C :   -0.212813
   5 N :    0.146916
   6 C :    0.010038
   7 C :    0.022624
   8 C :   -0.097018
   9 C :    0.123281
  10 C :   -0.095724
  11 C :   -0.035734
  12 S :    0.174364
  13 C :   -0.130175
  14 C :    0.059386
  15 Br:    0.004965
  16 C :    0.133424
  17 O :   -0.190499
  18 C :   -0.134671
  19 C :   -0.025835
  20 C :   -0.122642
  21 S :    0.130122
  22 C :   -0.081280
  23 C :    0.078533
  24 C :    0.174027
  25 C :   -0.150913
  26 C :    0.506416
  27 F :   -0.165229
  28 F :   -0.165017
  29 F :   -0.150823
  30 C :    0.020887
  31 C :   -0.119256
  32 C :    0.202791
  33 O :   -0.303556
  34 C :    0.178466
  35 C :   -0.014654
  36 C :    0.000909
  37 C :    0.004856
  38 C :   -0.010011
  39 C :    0.008686
  40 C :    0.041832
  41 C :   -0.042553
  42 S :    0.050069
  43 C :   -0.016603
  44 C :    0.017340
  45 C :    0.041939
  46 C :   -0.049584
  47 S :    0.091545
  48 C :    0.041490
  49 C :   -0.167773
  50 S :    0.097943
  51 C :   -0.066272
  52 C :    0.065199
  53 C :   -0.043128
  54 S :    0.146510
  55 C :   -0.037752
  56 C :    0.010472
  57 C :   -0.104656
  58 S :    0.103330
  59 C :   -0.136125
  60 C :   -0.046226
  61 C :   -0.081245
  62 C :    0.136721
  63 C :   -0.102421
  64 C :    0.091871
  65 C :   -0.135986
  66 C :    0.094657
  67 C :    0.161254
  68 C :    0.022378
  69 C :   -0.022140
  70 H :   -0.019036
  71 H :   -0.014967
  72 H :   -0.014286
  73 H :    0.023465
  74 H :    0.000627
  75 H :   -0.027246
  76 H :    0.040481
  77 H :    0.031739
  78 H :    0.033100
  79 H :   -0.011942
  80 H :    0.053591
  81 H :   -0.021289
  82 H :   -0.014634
  83 H :   -0.013509
  84 H :   -0.011666
  85 H :   -0.008035
  86 H :   -0.007434
  87 H :    0.041415
  88 H :    0.015864
  89 H :    0.022658
  90 H :    0.013826
  91 H :   -0.016432
  92 H :    0.003518
  93 H :    0.011755
  94 H :    0.003520
  95 H :   -0.005935
  96 H :    0.000095
  97 H :    0.012686
  98 H :    0.005519
  99 H :    0.007078
 100 H :    0.012455
 101 H :    0.003438
 102 H :    0.021741
 103 H :    0.029964
Sum of atomic charges:   -0.0000000

LOEWDIN ATOMIC CHARGES
----------------------
   0 C :    0.072363
   1 C :   -0.166558
   2 C :   -0.018758
   3 N :   -0.082076
   4 C :   -0.029964
   5 N :   -0.066544
   6 C :   -0.015831
   7 C :   -0.044156
   8 C :    0.013324
   9 C :   -0.039245
  10 C :   -0.150672
  11 C :   -0.020266
  12 S :    0.429120
  13 C :   -0.280880
  14 C :   -0.068592
  15 Br:    0.141758
  16 C :    0.070000
  17 O :   -0.183999
  18 C :   -0.142218
  19 C :    0.035806
  20 C :   -0.208186
  21 S :    0.519061
  22 C :   -0.114181
  23 C :   -0.075877
  24 C :    0.008254
  25 C :   -0.108140
  26 C :    0.171594
  27 F :   -0.061277
  28 F :   -0.062033
  29 F :   -0.055425
  30 C :    0.025452
  31 C :   -0.097214
  32 C :    0.086437
  33 O :   -0.080739
  34 C :    0.080861
  35 C :   -0.082126
  36 C :   -0.001293
  37 C :   -0.083012
  38 C :   -0.115588
  39 C :   -0.061754
  40 C :   -0.016942
  41 C :   -0.205028
  42 S :    0.408473
  43 C :   -0.149675
  44 C :   -0.053446
  45 C :   -0.015467
  46 C :   -0.179475
  47 S :    0.410525
  48 C :   -0.043251
  49 C :   -0.209987
  50 S :    0.465350
  51 C :   -0.148808
  52 C :   -0.084409
  53 C :   -0.181839
  54 S :    0.437307
  55 C :   -0.150002
  56 C :   -0.063980
  57 C :   -0.196995
  58 S :    0.457487
  59 C :   -0.165578
  60 C :   -0.054586
  61 C :   -0.040389
  62 C :   -0.039385
  63 C :   -0.026172
  64 C :   -0.046676
  65 C :   -0.027158
  66 C :   -0.047238
  67 C :   -0.021178
  68 C :   -0.042732
  69 C :   -0.035114
  70 H :    0.035769
  71 H :    0.038071
  72 H :    0.034011
  73 H :    0.038160
  74 H :    0.036905
  75 H :    0.029519
  76 H :    0.030335
  77 H :    0.019620
  78 H :    0.020148
  79 H :    0.027609
  80 H :    0.005310
  81 H :    0.030010
  82 H :    0.031803
  83 H :    0.032524
  84 H :    0.033379
  85 H :    0.034399
  86 H :    0.037050
  87 H :    0.030440
  88 H :    0.022448
  89 H :    0.017863
  90 H :    0.028194
  91 H :    0.011961
  92 H :    0.022385
  93 H :    0.023038
  94 H :    0.023567
  95 H :    0.020495
  96 H :    0.022093
  97 H :    0.023142
  98 H :    0.024577
  99 H :    0.027482
 100 H :    0.031692
 101 H :    0.032762
 102 H :    0.022924
 103 H :    0.029258

  Mayer bond orders larger than 0.100000
B(  0-C ,  1-C ) :   1.5851 B(  0-C ,  6-C ) :   0.9842 B(  0-C , 18-C ) :   1.1265
B(  1-C ,  2-C ) :   1.1493 B(  1-C ,  4-C ) :   1.1477 B(  2-C ,  3-N ) :   2.9662
B(  4-C ,  5-N ) :   2.9973 B(  6-C ,  7-C ) :   1.2864 B(  6-C , 11-C ) :   1.4246
B(  7-C ,  8-C ) :   1.4247 B(  7-C , 16-C ) :   0.9449 B(  8-C ,  9-C ) :   1.2214
B(  8-C , 70-H ) :   1.0215 B(  9-C , 10-C ) :   1.3302 B(  9-C , 14-C ) :   1.1635
B( 10-C , 11-C ) :   1.2978 B( 10-C , 12-S ) :   1.0775 B( 11-C , 71-H ) :   0.9845
B( 12-S , 13-C ) :   1.0904 B( 13-C , 14-C ) :   1.6102 B( 13-C , 15-Br) :   1.0050
B( 14-C , 72-H ) :   1.0003 B( 16-C , 17-O ) :   2.1245 B( 16-C , 18-C ) :   1.0055
B( 18-C , 19-C ) :   1.3922 B( 19-C , 20-C ) :   1.3929 B( 19-C , 73-H ) :   0.9244
B( 20-C , 21-S ) :   1.0595 B( 20-C , 24-C ) :   1.2082 B( 21-S , 22-C ) :   1.1518
B( 22-C , 23-C ) :   1.1763 B( 22-C , 35-C ) :   1.3183 B( 23-C , 24-C ) :   1.2976
B( 23-C , 32-C ) :   1.2397 B( 24-C , 25-C ) :   1.2746 B( 25-C , 26-C ) :   0.9565
B( 25-C , 30-C ) :   1.4733 B( 26-C , 27-F ) :   1.1445 B( 26-C , 28-F ) :   1.1496
B( 26-C , 29-F ) :   1.1328 B( 30-C , 31-C ) :   1.2726 B( 30-C , 74-H ) :   0.9890
B( 31-C , 32-C ) :   1.3594 B( 31-C , 75-H ) :   0.9964 B( 32-C , 33-O ) :   1.1936
B( 33-O , 34-C ) :   0.9490 B( 34-C , 76-H ) :   0.9782 B( 34-C , 77-H ) :   0.9700
B( 34-C , 78-H ) :   0.9704 B( 35-C , 36-C ) :   1.3996 B( 35-C , 79-H ) :   0.9855
B( 36-C , 37-C ) :   1.3071 B( 36-C , 80-H ) :   0.9484 B( 37-C , 38-C ) :   1.3849
B( 37-C , 81-H ) :   0.9919 B( 38-C , 39-C ) :   1.2345 B( 38-C , 42-S ) :   1.0906
B( 39-C , 40-C ) :   1.4756 B( 39-C , 82-H ) :   0.9983 B( 40-C , 41-C ) :   1.2850
B( 40-C , 83-H ) :   0.9965 B( 41-C , 42-S ) :   1.0553 B( 41-C , 43-C ) :   1.3690
B( 43-C , 44-C ) :   1.2553 B( 43-C , 47-S ) :   1.1018 B( 44-C , 45-C ) :   1.5128
B( 44-C , 84-H ) :   0.9950 B( 45-C , 46-C ) :   1.2065 B( 45-C , 85-H ) :   0.9986
B( 46-C , 47-S ) :   1.0334 B( 46-C , 48-C ) :   1.5028 B( 48-C , 49-C ) :   1.2628
B( 48-C , 86-H ) :   0.9441 B( 49-C , 50-S ) :   1.0690 B( 49-C , 53-C ) :   1.3742
B( 50-S , 51-C ) :   1.1415 B( 51-C , 52-C ) :   1.3478 B( 51-C , 57-C ) :   1.2093
B( 52-C , 53-C ) :   1.2880 B( 52-C , 56-C ) :   1.1626 B( 53-C , 54-S ) :   1.0929
B( 54-S , 55-C ) :   1.1011 B( 55-C , 56-C ) :   1.6599 B( 55-C , 87-H ) :   0.9599
B( 56-C , 88-H ) :   0.9854 B( 57-C , 58-S ) :   1.1170 B( 57-C , 61-C ) :   1.4480
B( 58-S , 59-C ) :   1.1181 B( 59-C , 60-C ) :   1.5019 B( 59-C , 68-C ) :   1.0901
B( 60-C , 61-C ) :   1.3353 B( 60-C , 67-C ) :   1.0526 B( 61-C , 62-C ) :   1.0524
B( 62-C , 63-C ) :   1.0458 B( 62-C , 89-H ) :   0.8921 B( 62-C , 90-H ) :   0.9018
B( 63-C , 64-C ) :   1.0805 B( 63-C , 65-C ) :   1.0126 B( 63-C , 91-H ) :   0.9090
B( 64-C , 92-H ) :   0.9600 B( 64-C , 93-H ) :   0.9568 B( 64-C , 94-H ) :   0.9587
B( 65-C , 66-C ) :   1.0845 B( 65-C , 67-C ) :   1.0493 B( 65-C , 95-H ) :   0.9226
B( 66-C , 96-H ) :   0.9586 B( 66-C , 97-H ) :   0.9584 B( 66-C , 98-H ) :   0.9591
B( 67-C , 99-H ) :   0.8908 B( 67-C ,100-H ) :   0.9121 B( 68-C , 69-C ) :   1.9322
B( 68-C ,101-H ) :   0.9473 B( 69-C ,102-H ) :   0.9583 B( 69-C ,103-H ) :   0.9451

-----------------------------------------------------------------------------
         ABSORPTION SPECTRUM VIA TRANSITION ELECTRIC DIPOLE MOMENTS
-----------------------------------------------------------------------------
State   Energy  Wavelength   fosc         T2         TX        TY        TZ
        (cm-1)    (nm)                  (au**2)     (au)      (au)      (au)
-----------------------------------------------------------------------------
   0    5654.7   1768.5   0.194022519  11.29593  -2.10841   1.11142   2.36966
   1   13277.0    753.2   0.010091414   0.25022  -0.00831  -0.47085   0.16867
   2   16067.7    622.4   1.871785497  38.35114   2.04099   4.58434  -3.62895
   3   18029.1    554.7   0.193725072   3.53742   0.62492   1.62111  -0.72034
   4   19673.9    508.3   0.010230162   0.17119  -0.17346   0.37563   0.00179
   5   20953.0    477.3   0.245002007   3.84946   1.36637  -1.14622  -0.81773
   6   22344.6    447.5   0.026349892   0.38822  -0.54063  -0.29669   0.08901
   7   22760.5    439.4   0.388279848   5.61615   1.31527  -1.69391  -1.00841
   8   24033.8    416.1   0.096728597   1.32498  -0.82071   0.37051   0.71703
   9   24554.7    407.3   0.002071972   0.02778  -0.01341   0.12115  -0.11368
  10   25529.8    391.7   0.005252867   0.06774  -0.23441  -0.10106   0.05076
  11   26056.6    383.8   0.202621327   2.56002  -1.01031   1.20152   0.30927
  12   26701.9    374.5   0.034860298   0.42980   0.59503  -0.03359  -0.27314
  13   27663.3    361.5   0.057287682   0.68176  -0.46230  -0.44283   0.52148
  14   28039.7    356.6   0.098846046   1.16054   0.79998   0.09215  -0.71561
  15   28334.6    352.9   0.003631574   0.04219  -0.20042  -0.00888   0.04413
  16   28651.2    349.0   0.020253159   0.23272  -0.14894   0.43454   0.14734
  17   29255.0    341.8   0.038110138   0.42886  -0.55920   0.32571  -0.10034
  18   29493.3    339.1   0.021036030   0.23481   0.40605   0.07196  -0.25447
  19   29939.6    334.0   0.146892617   1.61521   1.08595   0.10150  -0.65240
  20   30064.9    332.6   0.056044736   0.61369   0.65755   0.02857  -0.42486
  21   30341.0    329.6   0.128027252   1.38915   1.11043  -0.18226  -0.35053
  22   30405.6    328.9   0.096591205   1.04583  -0.69463   0.69786   0.27625
  23   30833.1    324.3   0.078334480   0.83640   0.79310  -0.10128  -0.44399
  24   31069.2    321.9   0.087532473   0.92750  -0.92260   0.18453   0.20557
  25   31967.9    312.8   0.138053506   1.42170   0.96579  -0.22304  -0.66272
  26   32210.4    310.5   0.032476586   0.33193   0.25830  -0.46450  -0.22237
  27   32581.1    306.9   0.046117315   0.46599  -0.30068   0.55094   0.26841
  28   32777.8    305.1   0.034700429   0.34852  -0.49722   0.04382   0.31523
  29   32870.8    304.2   0.009785054   0.09800  -0.26671   0.13566  -0.09200
  30   33027.5    302.8   0.017715376   0.17658   0.26594   0.07371  -0.31690
  31   33944.5    294.6   0.215147029   2.08661   1.40843  -0.27174  -0.17055
  32   34385.1    290.8   0.295662280   2.83075  -1.06573   1.29815  -0.09880
  33   34480.2    290.0   0.001375480   0.01313   0.04734  -0.08929   0.05404
  34   35048.4    285.3   0.032606089   0.30627   0.53418   0.03272   0.14088
  35   35418.2    282.3   0.006051849   0.05625   0.12272  -0.16292  -0.12103
  36   35742.5    279.8   0.024982934   0.23011   0.32107  -0.06457  -0.35050
  37   35934.7    278.3   0.015503936   0.14204  -0.37567  -0.01281   0.02735
  38   36101.0    277.0   0.076898234   0.70125  -0.02944  -0.61643   0.56604
  39   36506.7    273.9   0.010624592   0.09581   0.04027   0.23054   0.20258
  40   36608.9    273.2   0.034667894   0.31176   0.28150   0.47686  -0.07157
  41   36762.8    272.0   0.006451270   0.05777  -0.06930   0.18365  -0.13872
  42   37296.9    268.1   0.111384043   0.98316  -0.84756   0.51441  -0.01378
  43   37367.4    267.6   0.045986972   0.40515  -0.60103   0.19368   0.08000
  44   37973.4    263.3   0.069287143   0.60069  -0.01849  -0.56406   0.53121
  45   38314.3    261.0   0.031881079   0.27393   0.16828   0.34921  -0.35167
  46   38648.1    258.7   0.134869133   1.14884   0.83065   0.55990  -0.38128
  47   38832.5    257.5   0.014226169   0.12061   0.27408  -0.16113  -0.13973
  48   38970.3    256.6   0.078027184   0.65915  -0.50669   0.52939   0.34952
  49   39072.7    255.9   0.065785972   0.55429   0.61862   0.29799  -0.28776
  50   39394.0    253.8   0.035404034   0.29587   0.20549  -0.50200   0.04046
  51   39668.4    252.1   0.010872794   0.09023   0.08541   0.05820  -0.28205
  52   39766.1    251.5   0.072763227   0.60238  -0.56362   0.52766  -0.07930
  53   39970.3    250.2   0.001333598   0.01098  -0.07853   0.04725   0.05084
  54   40054.7    249.7   0.001063991   0.00875   0.05688  -0.04790   0.05671
  55   40170.0    248.9   0.031047641   0.25445  -0.47648  -0.07936   0.14532

FINAL SINGLE POINT ENERGY     -8032.819165486655

DIPOLE MOMENT
-------------
                                X             Y             Z
Electronic contribution:     -7.06983     -44.06999     -30.92796
Nuclear contribution   :      4.99253      48.50150      30.84687
                        -----------------------------------------
Total Dipole Moment    :     -2.07730       4.43151      -0.08108
                        -----------------------------------------
Magnitude (a.u.)       :      4.89490
Magnitude (Debye)      :     12.44184

Rotational constants in cm-1:     0.001299     0.000539     0.000411
Rotational constants in MHz :    38.930084    16.164480    12.316079

                             ****ORCA TERMINATED NORMALLY****
TOTAL RUN TIME: 0 days 0 hours 14 minutes 47 seconds 487 msec
