                         Program Version 4.2.0 -  RELEASE  -
|  1> # ORCA input file
|  2> # SCF done       -177.530164896209          0.001323591749
|  3> ! CAM-B3LYP def2-SVP def2/J RIJCOSX Grid4 TightSCF
|  4> %maxcore 5000
|  5> %tddft
|  6>     Mode sTDDFT
|  7>     Ethresh 5.0
|  8>     maxcore 5000
|  9> end
| 10>
| 11> %pal
| 12>   nprocs 6
| 13>   end
| 14> * xyz 0 1
| 15>    C      -15.99076       -11.28793        -1.96778
| 16>    C      -14.61277       -11.31459        -1.91750
| 17>    C      -13.81803       -12.31262        -2.50968
| 18>    N      -13.10802       -13.06276        -3.01347
| 19>    C      -13.79840       -10.36792        -1.27250
| 20>    N      -13.05208        -9.66681        -0.74720
| 21>    C      -16.83019       -12.37121        -2.47495
| 22>    C      -18.18768       -12.01096        -2.29539
| 23>    C      -19.22461       -12.83854        -2.64490
| 24>    C      -18.90750       -14.08273        -3.20338
| 25>    C      -17.54953       -14.43192        -3.38121
| 26>    C      -16.49872       -13.59475        -3.02271
| 27>    S      -17.38229       -16.01315        -4.08338
| 28>    C      -19.11716       -16.17992        -4.12760
| 29>    C      -19.78843       -15.10930        -3.64209
| 30>   Br      -19.87894       -17.75350        -4.80800
| 31>    C      -18.25582       -10.65991        -1.69374
| 32>    O      -19.26884       -10.05174        -1.40777
| 33>    C      -16.85548       -10.23088        -1.52744
| 34>    C      -16.46098        -8.96919        -1.11898
| 35>    C      -17.31425        -7.92615        -0.79159
| 36>    C      -16.85313        -6.64714        -0.52264
| 37>    C      -17.62250        -5.50392        -0.22715
| 38>    C      -16.88646        -4.36038        -0.06909
| 39>    C      -15.50441        -4.55582        -0.23491
| 40>    S      -15.15783        -6.23231        -0.57073
| 41>    C      -14.47279        -3.62434        -0.19213
| 42>    C      -14.52614        -2.24119         0.05533
| 43>    C      -13.30377        -1.62869        -0.00151
| 44>    C      -12.22981        -2.49604        -0.29660
| 45>    S      -12.83266        -4.12596        -0.49603
| 46>    C      -10.90209        -2.13109        -0.42436
| 47>    C       -9.82765        -2.97152        -0.71729
| 48>    N       -8.54556        -2.50824        -0.86170
| 49>    C       -7.68618        -3.53118        -1.16140
| 50>    C       -8.46883        -4.71155        -1.18484
| 51>    C       -9.76734        -4.37238        -0.91589
| 52>    C       -6.31444        -3.34112        -1.35059
| 53>    C       -5.41321        -4.29877        -1.77547
| 54>    C       -4.00662        -4.17676        -1.83325
| 55>    C       -3.35518        -5.30796        -2.24420
| 56>    C       -4.22095        -6.37274        -2.55411
| 57>    S       -5.88194        -5.88844        -2.32997
| 58>    C       -3.96016        -7.69072        -2.90131
| 59>    C       -2.76266        -8.42906        -2.92146
| 60>    C       -2.95585        -9.77002        -3.10199
| 61>    C       -4.31265       -10.15972        -3.22041
| 62>    S       -5.32246        -8.74264        -3.20530
| 63>    C       -4.77935       -11.45384        -3.37808
| 64>    C       -6.09093       -11.92225        -3.45723
| 65>    C       -7.31327       -11.36286        -3.13234
| 66>    C       -7.72528       -10.28574        -2.28638
| 67>    C       -7.04340        -9.78900        -1.19451
| 68>    C       -7.47545        -8.69442        -0.42656
| 69>    N       -7.75141        -7.76890         0.19690
| 70>    C       -5.85083       -10.35997        -0.71504
| 71>    N       -4.87766       -10.80620        -0.29869
| 72>    C       -9.08280        -9.90854        -2.67256
| 73>    C       -9.58756       -10.89265        -3.55790
| 74>    C       -8.52468       -11.88786        -3.82139
| 75>    O       -8.59315       -12.88613        -4.50146
| 76>    C      -10.85526       -10.83009        -4.07986
| 77>    C      -11.63980        -9.71800        -3.74867
| 78>    C      -11.11172        -8.72397        -2.89440
| 79>    C       -9.84393        -8.80984        -2.33083
| 80>    S      -12.22809        -7.41332        -2.66792
| 81>    C      -13.38256        -8.21657        -3.69194
| 82>    C      -12.95653        -9.40303        -4.18552
| 83>   Br      -15.04700        -7.41535        -4.02966
| 84>    H      -20.24958       -12.53921        -2.49155
| 85>    H      -15.47942       -13.90928        -3.17366
| 86>    H      -20.86004       -15.04404        -3.59351
| 87>    H      -15.39850        -8.75826        -1.08292
| 88>    H      -18.38034        -8.09889        -0.78032
| 89>    H      -18.69386        -5.55432        -0.14894
| 90>    H      -17.30648        -3.39516         0.15074
| 91>    H      -15.44885        -1.73183         0.26663
| 92>    H      -13.14882        -0.57629         0.16007
| 93>    H      -10.68165        -1.07930        -0.28681
| 94>    H       -8.27553        -1.54191        -0.77784
| 95>    H       -8.10319        -5.70708        -1.32527
| 96>    H      -10.58813        -5.05603        -0.85021
| 97>    H       -5.91269        -2.35905        -1.13282
| 98>    H       -3.50961        -3.26744        -1.54357
| 99>    H       -2.28687        -5.39810        -2.32553
|100>    H       -1.80380        -7.96821        -2.76585
|101>    H       -2.16569       -10.49939        -3.10861
|102>    H       -4.00524       -12.19542        -3.53383
|103>    H       -6.19706       -12.89433        -3.93305
|104>    H      -11.23228       -11.60728        -4.72529
|105>    H       -9.48707        -8.03608        -1.67217
|106>    H      -13.53917       -10.03095        -4.83568
|107> *
|108>
|109>                          ****END OF INPUT****

CARTESIAN COORDINATES (ANGSTROEM)
---------------------------------
  C    -15.990760  -11.287930   -1.967780
  C    -14.612770  -11.314590   -1.917500
  C    -13.818030  -12.312620   -2.509680
  N    -13.108020  -13.062760   -3.013470
  C    -13.798400  -10.367920   -1.272500
  N    -13.052080   -9.666810   -0.747200
  C    -16.830190  -12.371210   -2.474950
  C    -18.187680  -12.010960   -2.295390
  C    -19.224610  -12.838540   -2.644900
  C    -18.907500  -14.082730   -3.203380
  C    -17.549530  -14.431920   -3.381210
  C    -16.498720  -13.594750   -3.022710
  S    -17.382290  -16.013150   -4.083380
  C    -19.117160  -16.179920   -4.127600
  C    -19.788430  -15.109300   -3.642090
  Br   -19.878940  -17.753500   -4.808000
  C    -18.255820  -10.659910   -1.693740
  O    -19.268840  -10.051740   -1.407770
  C    -16.855480  -10.230880   -1.527440
  C    -16.460980   -8.969190   -1.118980
  C    -17.314250   -7.926150   -0.791590
  C    -16.853130   -6.647140   -0.522640
  C    -17.622500   -5.503920   -0.227150
  C    -16.886460   -4.360380   -0.069090
  C    -15.504410   -4.555820   -0.234910
  S    -15.157830   -6.232310   -0.570730
  C    -14.472790   -3.624340   -0.192130
  C    -14.526140   -2.241190    0.055330
  C    -13.303770   -1.628690   -0.001510
  C    -12.229810   -2.496040   -0.296600
  S    -12.832660   -4.125960   -0.496030
  C    -10.902090   -2.131090   -0.424360
  C     -9.827650   -2.971520   -0.717290
  N     -8.545560   -2.508240   -0.861700
  C     -7.686180   -3.531180   -1.161400
  C     -8.468830   -4.711550   -1.184840
  C     -9.767340   -4.372380   -0.915890
  C     -6.314440   -3.341120   -1.350590
  C     -5.413210   -4.298770   -1.775470
  C     -4.006620   -4.176760   -1.833250
  C     -3.355180   -5.307960   -2.244200
  C     -4.220950   -6.372740   -2.554110
  S     -5.881940   -5.888440   -2.329970
  C     -3.960160   -7.690720   -2.901310
  C     -2.762660   -8.429060   -2.921460
  C     -2.955850   -9.770020   -3.101990
  C     -4.312650  -10.159720   -3.220410
  S     -5.322460   -8.742640   -3.205300
  C     -4.779350  -11.453840   -3.378080
  C     -6.090930  -11.922250   -3.457230
  C     -7.313270  -11.362860   -3.132340
  C     -7.725280  -10.285740   -2.286380
  C     -7.043400   -9.789000   -1.194510
  C     -7.475450   -8.694420   -0.426560
  N     -7.751410   -7.768900    0.196900
  C     -5.850830  -10.359970   -0.715040
  N     -4.877660  -10.806200   -0.298690
  C     -9.082800   -9.908540   -2.672560
  C     -9.587560  -10.892650   -3.557900
  C     -8.524680  -11.887860   -3.821390
  O     -8.593150  -12.886130   -4.501460
  C    -10.855260  -10.830090   -4.079860
  C    -11.639800   -9.718000   -3.748670
  C    -11.111720   -8.723970   -2.894400
  C     -9.843930   -8.809840   -2.330830
  S    -12.228090   -7.413320   -2.667920
  C    -13.382560   -8.216570   -3.691940
  C    -12.956530   -9.403030   -4.185520
  Br   -15.047000   -7.415350   -4.029660
  H    -20.249580  -12.539210   -2.491550
  H    -15.479420  -13.909280   -3.173660
  H    -20.860040  -15.044040   -3.593510
  H    -15.398500   -8.758260   -1.082920
  H    -18.380340   -8.098890   -0.780320
  H    -18.693860   -5.554320   -0.148940
  H    -17.306480   -3.395160    0.150740
  H    -15.448850   -1.731830    0.266630
  H    -13.148820   -0.576290    0.160070
  H    -10.681650   -1.079300   -0.286810
  H     -8.275530   -1.541910   -0.777840
  H     -8.103190   -5.707080   -1.325270
  H    -10.588130   -5.056030   -0.850210
  H     -5.912690   -2.359050   -1.132820
  H     -3.509610   -3.267440   -1.543570
  H     -2.286870   -5.398100   -2.325530
  H     -1.803800   -7.968210   -2.765850
  H     -2.165690  -10.499390   -3.108610
  H     -4.005240  -12.195420   -3.533830
  H     -6.197060  -12.894330   -3.933050
  H    -11.232280  -11.607280   -4.725290
  H     -9.487070   -8.036080   -1.672170
  H    -13.539170  -10.030950   -4.835680

 Total Charge           Charge          ....    0
 Multiplicity           Mult            ....    1
 Number of Electrons    NEL             ....  564
 Basis Dimension        Dim             .... 1141

ORBITAL ENERGIES
----------------

  NO   OCC          E(Eh)            E(eV)
   0   2.0000    -482.874184    -13139.6745
   1   2.0000    -482.870759    -13139.5814
   2   2.0000     -88.964116     -2420.8367
   3   2.0000     -88.961451     -2420.7641
   4   2.0000     -88.959298     -2420.7056
   5   2.0000     -88.957028     -2420.6438
   6   2.0000     -88.955715     -2420.6081
   7   2.0000     -88.954974     -2420.5879
   8   2.0000     -62.551910     -1702.1240
   9   2.0000     -62.548006     -1702.0178
  10   2.0000     -56.385841     -1534.3367
  11   2.0000     -56.383158     -1534.2637
  12   2.0000     -56.383118     -1534.2626
  13   2.0000     -56.381962     -1534.2312
  14   2.0000     -56.379261     -1534.1577
  15   2.0000     -56.379236     -1534.1570
  16   2.0000     -19.195531      -522.3370
  17   2.0000     -19.189729      -522.1791
  18   2.0000     -14.481991      -394.0750
  19   2.0000     -14.397349      -391.7718
  20   2.0000     -14.396395      -391.7458
  21   2.0000     -14.395510      -391.7217
  22   2.0000     -14.391488      -391.6123
  23   2.0000     -10.345614      -281.5185
  24   2.0000     -10.345084      -281.5040
  25   2.0000     -10.339764      -281.3593
  26   2.0000     -10.337969      -281.3104
  27   2.0000     -10.332647      -281.1656
  28   2.0000     -10.329947      -281.0921
  29   2.0000     -10.328453      -281.0515
  30   2.0000     -10.328217      -281.0451
  31   2.0000     -10.323898      -280.9275
  32   2.0000     -10.323138      -280.9069
  33   2.0000     -10.321677      -280.8671
  34   2.0000     -10.318811      -280.7891
  35   2.0000     -10.318746      -280.7874
  36   2.0000     -10.318420      -280.7785
  37   2.0000     -10.317405      -280.7509
  38   2.0000     -10.316052      -280.7140
  39   2.0000     -10.315531      -280.6999
  40   2.0000     -10.312419      -280.6152
  41   2.0000     -10.311672      -280.5949
  42   2.0000     -10.309525      -280.5364
  43   2.0000     -10.308955      -280.5209
  44   2.0000     -10.305687      -280.4320
  45   2.0000     -10.304328      -280.3950
  46   2.0000     -10.302815      -280.3539
  47   2.0000     -10.301967      -280.3308
  48   2.0000     -10.301501      -280.3181
  49   2.0000     -10.301128      -280.3080
  50   2.0000     -10.300003      -280.2773
  51   2.0000     -10.299914      -280.2749
  52   2.0000     -10.299722      -280.2697
  53   2.0000     -10.294031      -280.1148
  54   2.0000     -10.293611      -280.1034
  55   2.0000     -10.292626      -280.0766
  56   2.0000     -10.291412      -280.0436
  57   2.0000     -10.289765      -279.9988
  58   2.0000     -10.288764      -279.9715
  59   2.0000     -10.288360      -279.9605
  60   2.0000     -10.287888      -279.9477
  61   2.0000     -10.286115      -279.8994
  62   2.0000     -10.284198      -279.8473
  63   2.0000     -10.283543      -279.8294
  64   2.0000     -10.283211      -279.8204
  65   2.0000     -10.281024      -279.7609
  66   2.0000     -10.280158      -279.7373
  67   2.0000     -10.279690      -279.7246
  68   2.0000     -10.278595      -279.6948
  69   2.0000     -10.276562      -279.6395
  70   2.0000     -10.276480      -279.6372
  71   2.0000     -10.274792      -279.5913
  72   2.0000     -10.273764      -279.5633
  73   2.0000     -10.271782      -279.5094
  74   2.0000     -10.270236      -279.4673
  75   2.0000     -10.269330      -279.4427
  76   2.0000     -10.265147      -279.3288
  77   2.0000      -8.781345      -238.9526
  78   2.0000      -8.777276      -238.8418
  79   2.0000      -8.060046      -219.3250
  80   2.0000      -8.057461      -219.2547
  81   2.0000      -8.055224      -219.1938
  82   2.0000      -8.052260      -219.1131
  83   2.0000      -8.051585      -219.0948
  84   2.0000      -8.050187      -219.0567
  85   2.0000      -6.617567      -180.0731
  86   2.0000      -6.613394      -179.9596
  87   2.0000      -6.603105      -179.6796
  88   2.0000      -6.602947      -179.6753
  89   2.0000      -6.599175      -179.5727
  90   2.0000      -6.598854      -179.5639
  91   2.0000      -6.029714      -164.0769
  92   2.0000      -6.027130      -164.0065
  93   2.0000      -6.025528      -163.9629
  94   2.0000      -6.024962      -163.9476
  95   2.0000      -6.022912      -163.8918
  96   2.0000      -6.021744      -163.8600
  97   2.0000      -6.021210      -163.8455
  98   2.0000      -6.021131      -163.8433
  99   2.0000      -6.020734      -163.8325
 100   2.0000      -6.019915      -163.8102
 101   2.0000      -6.018684      -163.7767
 102   2.0000      -6.017516      -163.7449
 103   2.0000      -6.017083      -163.7331
 104   2.0000      -6.016263      -163.7108
 105   2.0000      -6.015637      -163.6938
 106   2.0000      -6.013902      -163.6466
 107   2.0000      -6.012880      -163.6188
 108   2.0000      -6.011521      -163.5818
 109   2.0000      -2.733479       -74.3817
 110   2.0000      -2.729378       -74.2702
 111   2.0000      -2.729311       -74.2683
 112   2.0000      -2.729259       -74.2669
 113   2.0000      -2.725323       -74.1598
 114   2.0000      -2.725131       -74.1546
 115   2.0000      -2.717775       -73.9544
 116   2.0000      -2.717748       -73.9537
 117   2.0000      -2.713803       -73.8463
 118   2.0000      -2.713788       -73.8459
 119   2.0000      -1.108948       -30.1760
 120   2.0000      -1.104436       -30.0532
 121   2.0000      -1.099158       -29.9096
 122   2.0000      -1.011456       -27.5231
 123   2.0000      -1.009949       -27.4821
 124   2.0000      -1.006105       -27.3775
 125   2.0000      -1.000778       -27.2325
 126   2.0000      -0.996265       -27.1097
 127   2.0000      -0.991717       -26.9860
 128   2.0000      -0.987614       -26.8743
 129   2.0000      -0.984173       -26.7807
 130   2.0000      -0.975521       -26.5453
 131   2.0000      -0.972886       -26.4736
 132   2.0000      -0.971007       -26.4224
 133   2.0000      -0.965360       -26.2688
 134   2.0000      -0.927379       -25.2353
 135   2.0000      -0.923177       -25.1209
 136   2.0000      -0.920449       -25.0467
 137   2.0000      -0.907439       -24.6927
 138   2.0000      -0.898313       -24.4443
 139   2.0000      -0.893124       -24.3031
 140   2.0000      -0.891335       -24.2545
 141   2.0000      -0.887247       -24.1432
 142   2.0000      -0.885140       -24.0859
 143   2.0000      -0.871115       -23.7043
 144   2.0000      -0.869378       -23.6570
 145   2.0000      -0.863391       -23.4941
 146   2.0000      -0.861927       -23.4542
 147   2.0000      -0.860124       -23.4052
 148   2.0000      -0.856331       -23.3020
 149   2.0000      -0.843145       -22.9431
 150   2.0000      -0.834299       -22.7024
 151   2.0000      -0.830771       -22.6064
 152   2.0000      -0.829503       -22.5719
 153   2.0000      -0.814732       -22.1700
 154   2.0000      -0.812506       -22.1094
 155   2.0000      -0.805755       -21.9257
 156   2.0000      -0.795600       -21.6494
 157   2.0000      -0.778756       -21.1910
 158   2.0000      -0.764119       -20.7927
 159   2.0000      -0.748958       -20.3802
 160   2.0000      -0.740311       -20.1449
 161   2.0000      -0.735726       -20.0201
 162   2.0000      -0.726030       -19.7563
 163   2.0000      -0.715799       -19.4779
 164   2.0000      -0.704122       -19.1601
 165   2.0000      -0.700104       -19.0508
 166   2.0000      -0.695124       -18.9153
 167   2.0000      -0.690791       -18.7974
 168   2.0000      -0.681494       -18.5444
 169   2.0000      -0.678469       -18.4621
 170   2.0000      -0.673064       -18.3150
 171   2.0000      -0.665172       -18.1002
 172   2.0000      -0.664474       -18.0813
 173   2.0000      -0.654125       -17.7996
 174   2.0000      -0.651711       -17.7340
 175   2.0000      -0.641538       -17.4571
 176   2.0000      -0.640980       -17.4419
 177   2.0000      -0.636265       -17.3136
 178   2.0000      -0.629786       -17.1373
 179   2.0000      -0.626723       -17.0540
 180   2.0000      -0.624589       -16.9959
 181   2.0000      -0.615958       -16.7611
 182   2.0000      -0.610022       -16.5995
 183   2.0000      -0.606533       -16.5046
 184   2.0000      -0.603760       -16.4291
 185   2.0000      -0.600728       -16.3466
 186   2.0000      -0.598838       -16.2952
 187   2.0000      -0.582948       -15.8628
 188   2.0000      -0.577740       -15.7211
 189   2.0000      -0.575610       -15.6632
 190   2.0000      -0.572031       -15.5658
 191   2.0000      -0.565500       -15.3881
 192   2.0000      -0.560221       -15.2444
 193   2.0000      -0.556857       -15.1528
 194   2.0000      -0.548624       -14.9288
 195   2.0000      -0.542044       -14.7498
 196   2.0000      -0.537927       -14.6377
 197   2.0000      -0.535078       -14.5602
 198   2.0000      -0.529817       -14.4171
 199   2.0000      -0.528910       -14.3924
 200   2.0000      -0.524435       -14.2706
 201   2.0000      -0.522774       -14.2254
 202   2.0000      -0.521733       -14.1971
 203   2.0000      -0.518619       -14.1123
 204   2.0000      -0.514887       -14.0108
 205   2.0000      -0.513823       -13.9818
 206   2.0000      -0.511512       -13.9189
 207   2.0000      -0.511081       -13.9072
 208   2.0000      -0.509332       -13.8596
 209   2.0000      -0.508180       -13.8283
 210   2.0000      -0.505129       -13.7453
 211   2.0000      -0.504073       -13.7165
 212   2.0000      -0.499911       -13.6033
 213   2.0000      -0.497977       -13.5507
 214   2.0000      -0.494525       -13.4567
 215   2.0000      -0.491530       -13.3752
 216   2.0000      -0.490616       -13.3503
 217   2.0000      -0.489325       -13.3152
 218   2.0000      -0.487912       -13.2768
 219   2.0000      -0.485198       -13.2029
 220   2.0000      -0.483259       -13.1501
 221   2.0000      -0.478562       -13.0223
 222   2.0000      -0.477447       -12.9920
 223   2.0000      -0.476161       -12.9570
 224   2.0000      -0.474594       -12.9144
 225   2.0000      -0.469380       -12.7725
 226   2.0000      -0.467652       -12.7254
 227   2.0000      -0.464060       -12.6277
 228   2.0000      -0.461741       -12.5646
 229   2.0000      -0.460248       -12.5240
 230   2.0000      -0.455164       -12.3857
 231   2.0000      -0.447771       -12.1845
 232   2.0000      -0.444431       -12.0936
 233   2.0000      -0.443169       -12.0592
 234   2.0000      -0.440570       -11.9885
 235   2.0000      -0.437109       -11.8943
 236   2.0000      -0.435977       -11.8635
 237   2.0000      -0.434662       -11.8277
 238   2.0000      -0.432827       -11.7778
 239   2.0000      -0.431287       -11.7359
 240   2.0000      -0.429119       -11.6769
 241   2.0000      -0.427498       -11.6328
 242   2.0000      -0.426176       -11.5968
 243   2.0000      -0.424759       -11.5583
 244   2.0000      -0.423686       -11.5291
 245   2.0000      -0.422596       -11.4994
 246   2.0000      -0.417272       -11.3546
 247   2.0000      -0.413628       -11.2554
 248   2.0000      -0.412063       -11.2128
 249   2.0000      -0.408406       -11.1133
 250   2.0000      -0.407842       -11.0979
 251   2.0000      -0.405670       -11.0388
 252   2.0000      -0.403256       -10.9732
 253   2.0000      -0.401184       -10.9168
 254   2.0000      -0.397648       -10.8205
 255   2.0000      -0.390780       -10.6337
 256   2.0000      -0.389739       -10.6053
 257   2.0000      -0.384983       -10.4759
 258   2.0000      -0.375674       -10.2226
 259   2.0000      -0.370342       -10.0775
 260   2.0000      -0.366942        -9.9850
 261   2.0000      -0.363789        -9.8992
 262   2.0000      -0.363451        -9.8900
 263   2.0000      -0.356350        -9.6968
 264   2.0000      -0.353097        -9.6083
 265   2.0000      -0.349339        -9.5060
 266   2.0000      -0.345296        -9.3960
 267   2.0000      -0.344163        -9.3652
 268   2.0000      -0.339601        -9.2410
 269   2.0000      -0.330522        -8.9940
 270   2.0000      -0.326127        -8.8744
 271   2.0000      -0.319153        -8.6846
 272   2.0000      -0.315969        -8.5979
 273   2.0000      -0.310236        -8.4419
 274   2.0000      -0.300227        -8.1696
 275   2.0000      -0.297229        -8.0880
 276   2.0000      -0.290204        -7.8969
 277   2.0000      -0.279494        -7.6054
 278   2.0000      -0.274515        -7.4699
 279   2.0000      -0.267224        -7.2715
 280   2.0000      -0.236707        -6.4411
 281   2.0000      -0.210110        -5.7174
 282   0.0000      -0.118750        -3.2314
 283   0.0000      -0.089895        -2.4462
 284   0.0000      -0.055524        -1.5109
 285   0.0000      -0.045722        -1.2442
 286   0.0000      -0.035551        -0.9674

MULLIKEN ATOMIC CHARGES
-----------------------
   0 C :    0.328847
   1 C :   -0.380403
   2 C :   -0.185592
   3 N :    0.129589
   4 C :   -0.192386
   5 N :    0.143372
   6 C :    0.018129
   7 C :   -0.007727
   8 C :   -0.086146
   9 C :    0.121086
  10 C :   -0.088836
  11 C :   -0.036758
  12 S :    0.178246
  13 C :   -0.123330
  14 C :    0.034071
  15 Br:    0.013143
  16 C :    0.136847
  17 O :   -0.167142
  18 C :   -0.083198
  19 C :   -0.038310
  20 C :   -0.022069
  21 C :    0.009806
  22 C :    0.018963
  23 C :    0.043164
  24 C :   -0.048307
  25 S :    0.101013
  26 C :   -0.013116
  27 C :    0.021768
  28 C :    0.041219
  29 C :   -0.051438
  30 S :    0.084858
  31 C :    0.014898
  32 C :    0.080512
  33 N :   -0.050305
  34 C :    0.079881
  35 C :   -0.009302
  36 C :   -0.025616
  37 C :    0.009873
  38 C :   -0.045612
  39 C :    0.043363
  40 C :    0.026044
  41 C :   -0.011337
  42 S :    0.084190
  43 C :   -0.051585
  44 C :    0.041255
  45 C :    0.055121
  46 C :   -0.038645
  47 S :    0.103346
  48 C :    0.008021
  49 C :    0.025455
  50 C :   -0.142438
  51 C :    0.264357
  52 C :   -0.360392
  53 C :   -0.163471
  54 N :    0.127947
  55 C :   -0.205230
  56 N :    0.163748
  57 C :    0.023606
  58 C :   -0.000036
  59 C :    0.136982
  60 O :   -0.145304
  61 C :   -0.058986
  62 C :    0.100916
  63 C :   -0.055569
  64 C :   -0.034173
  65 S :    0.168529
  66 C :   -0.133623
  67 C :    0.043951
  68 Br:    0.007896
  69 H :   -0.016874
  70 H :   -0.009693
  71 H :   -0.006890
  72 H :    0.013044
  73 H :    0.014569
  74 H :   -0.001482
  75 H :   -0.008840
  76 H :   -0.009037
  77 H :   -0.007033
  78 H :   -0.021705
  79 H :    0.120242
  80 H :    0.019994
  81 H :    0.011959
  82 H :   -0.021849
  83 H :   -0.006772
  84 H :   -0.004584
  85 H :   -0.011449
  86 H :   -0.004745
  87 H :   -0.002449
  88 H :    0.023795
  89 H :   -0.008626
  90 H :   -0.036239
  91 H :   -0.002968
Sum of atomic charges:   -0.0000000

LOEWDIN ATOMIC CHARGES
----------------------
   0 C :    0.072983
   1 C :   -0.163525
   2 C :   -0.017734
   3 N :   -0.073837
   4 C :   -0.020544
   5 N :   -0.075511
   6 C :   -0.017790
   7 C :   -0.048192
   8 C :    0.015975
   9 C :   -0.036748
  10 C :   -0.146320
  11 C :   -0.015782
  12 S :    0.426573
  13 C :   -0.275901
  14 C :   -0.071321
  15 Br:    0.128577
  16 C :    0.081316
  17 O :   -0.160527
  18 C :   -0.111311
  19 C :    0.046752
  20 C :   -0.073095
  21 C :   -0.105693
  22 C :   -0.045288
  23 C :   -0.011115
  24 C :   -0.195385
  25 S :    0.416921
  26 C :   -0.149290
  27 C :   -0.046512
  28 C :   -0.015735
  29 C :   -0.158604
  30 S :    0.421703
  31 C :   -0.042120
  32 C :   -0.009432
  33 N :    0.091757
  34 C :   -0.003697
  35 C :   -0.033616
  36 C :   -0.038870
  37 C :   -0.049560
  38 C :   -0.150101
  39 C :   -0.015395
  40 C :   -0.040432
  41 C :   -0.148083
  42 S :    0.423540
  43 C :   -0.189670
  44 C :   -0.023748
  45 C :   -0.027778
  46 C :   -0.118781
  47 S :    0.464442
  48 C :   -0.065561
  49 C :    0.034487
  50 C :   -0.104135
  51 C :    0.038854
  52 C :   -0.170407
  53 C :   -0.013961
  54 N :   -0.077327
  55 C :   -0.027690
  56 N :   -0.063683
  57 C :   -0.010978
  58 C :   -0.054477
  59 C :    0.085418
  60 O :   -0.144042
  61 C :    0.032677
  62 C :   -0.040429
  63 C :   -0.133877
  64 C :   -0.022861
  65 S :    0.433606
  66 C :   -0.280875
  67 C :   -0.068585
  68 Br:    0.130881
  69 H :    0.038209
  70 H :    0.039669
  71 H :    0.037176
  72 H :    0.026954
  73 H :    0.038168
  74 H :    0.037863
  75 H :    0.034337
  76 H :    0.033944
  77 H :    0.035428
  78 H :    0.036005
  79 H :    0.090321
  80 H :    0.018048
  81 H :    0.017514
  82 H :    0.034979
  83 H :    0.035479
  84 H :    0.035664
  85 H :    0.034017
  86 H :    0.036968
  87 H :    0.040187
  88 H :    0.046101
  89 H :    0.041531
  90 H :    0.033352
  91 H :    0.037555

  Mayer bond orders larger than 0.100000
B(  0-C ,  1-C ) :   1.5605 B(  0-C ,  6-C ) :   0.9916 B(  0-C , 18-C ) :   1.1314
B(  1-C ,  2-C ) :   1.1631 B(  1-C ,  4-C ) :   1.1686 B(  2-C ,  3-N ) :   2.9094
B(  4-C ,  5-N ) :   2.9214 B(  6-C ,  7-C ) :   1.2763 B(  6-C , 11-C ) :   1.4186
B(  7-C ,  8-C ) :   1.4300 B(  7-C , 16-C ) :   0.9309 B(  8-C ,  9-C ) :   1.2354
B(  8-C , 69-H ) :   1.0179 B(  9-C , 10-C ) :   1.3188 B(  9-C , 14-C ) :   1.1599
B( 10-C , 11-C ) :   1.3161 B( 10-C , 12-S ) :   1.0825 B( 11-C , 70-H ) :   0.9820
B( 12-S , 13-C ) :   1.0852 B( 13-C , 14-C ) :   1.6199 B( 13-C , 15-Br) :   1.0131
B( 14-C , 71-H ) :   1.0013 B( 16-C , 17-O ) :   2.1872 B( 16-C , 18-C ) :   0.9676
B( 18-C , 19-C ) :   1.4501 B( 19-C , 20-C ) :   1.2871 B( 19-C , 72-H ) :   0.9438
B( 20-C , 21-C ) :   1.3886 B( 20-C , 73-H ) :   0.9799 B( 21-C , 22-C ) :   1.2006
B( 21-C , 25-S ) :   1.0908 B( 22-C , 23-C ) :   1.5131 B( 22-C , 74-H ) :   1.0018
B( 23-C , 24-C ) :   1.2416 B( 23-C , 75-H ) :   0.9953 B( 24-C , 25-S ) :   1.0567
B( 24-C , 26-C ) :   1.4193 B( 26-C , 27-C ) :   1.2278 B( 26-C , 30-S ) :   1.0846
B( 27-C , 28-C ) :   1.5394 B( 27-C , 76-H ) :   0.9950 B( 28-C , 29-C ) :   1.1849
B( 28-C , 77-H ) :   0.9982 B( 29-C , 30-S ) :   1.0457 B( 29-C , 31-C ) :   1.5193
B( 31-C , 32-C ) :   1.1927 B( 31-C , 78-H ) :   0.9580 B( 32-C , 33-N ) :   1.1891
B( 32-C , 36-C ) :   1.2928 B( 33-N , 34-C ) :   1.1966 B( 33-N , 79-H ) :   0.9364
B( 34-C , 35-C ) :   1.2981 B( 34-C , 37-C ) :   1.1795 B( 35-C , 36-C ) :   1.4617
B( 35-C , 80-H ) :   0.9783 B( 36-C , 81-H ) :   0.9894 B( 37-C , 38-C ) :   1.5330
B( 37-C , 82-H ) :   0.9586 B( 38-C , 39-C ) :   1.1743 B( 38-C , 42-S ) :   1.0559
B( 39-C , 40-C ) :   1.5536 B( 39-C , 83-H ) :   0.9971 B( 40-C , 41-C ) :   1.2137
B( 40-C , 84-H ) :   0.9970 B( 41-C , 42-S ) :   1.0828 B( 41-C , 43-C ) :   1.4405
B( 43-C , 44-C ) :   1.2144 B( 43-C , 47-S ) :   1.0471 B( 44-C , 45-C ) :   1.5590
B( 44-C , 85-H ) :   0.9932 B( 45-C , 46-C ) :   1.1754 B( 45-C , 86-H ) :   0.9966
B( 46-C , 47-S ) :   1.1092 B( 46-C , 48-C ) :   1.4485 B( 48-C , 49-C ) :   1.3238
B( 48-C , 87-H ) :   0.9549 B( 49-C , 50-C ) :   1.4886 B( 49-C , 88-H ) :   0.9262
B( 50-C , 51-C ) :   1.1307 B( 50-C , 59-C ) :   0.9511 B( 51-C , 52-C ) :   1.5525
B( 51-C , 57-C ) :   1.0044 B( 52-C , 53-C ) :   1.1533 B( 52-C , 55-C ) :   1.1667
B( 53-C , 54-N ) :   2.9385 B( 55-C , 56-N ) :   3.0093 B( 57-C , 58-C ) :   1.2743
B( 57-C , 64-C ) :   1.4295 B( 58-C , 59-C ) :   0.9164 B( 58-C , 61-C ) :   1.4310
B( 59-C , 60-O ) :   2.2577 B( 61-C , 62-C ) :   1.2433 B( 61-C , 89-H ) :   1.0150
B( 62-C , 63-C ) :   1.3282 B( 62-C , 67-C ) :   1.1601 B( 63-C , 64-C ) :   1.3087
B( 63-C , 65-S ) :   1.0800 B( 64-C , 90-H ) :   0.9872 B( 65-S , 66-C ) :   1.1004
B( 66-C , 67-C ) :   1.5995 B( 66-C , 68-Br) :   1.0147 B( 67-C , 91-H ) :   1.0008

-----------------------------------------------------------------------------
         ABSORPTION SPECTRUM VIA TRANSITION ELECTRIC DIPOLE MOMENTS
-----------------------------------------------------------------------------
State   Energy  Wavelength   fosc         T2         TX        TY        TZ
        (cm-1)    (nm)                  (au**2)     (au)      (au)      (au)
-----------------------------------------------------------------------------
   0    6647.1   1504.4   0.371262897  18.38749  -4.25785  -0.14205   0.48789
   1   12751.7    784.2   0.189572707   4.89423   0.80235   2.04860   0.23169
   2   13644.8    732.9   1.218019016  29.38752  -1.86030  -5.03163  -0.78070
   3   17735.6    563.8   0.028114275   0.52186  -0.23308  -0.64599   0.22412
   4   19099.2    523.6   0.257183147   4.43306   1.85883  -0.69210  -0.70625
   5   20194.3    495.2   0.038493309   0.62753   0.78580  -0.10008   0.00535
   6   20857.4    479.4   0.548281973   8.65404   2.65952  -1.00836  -0.75112
   7   21170.4    472.4   0.322500295   5.01507   2.14335  -0.48549  -0.43058
   8   22061.8    453.3   0.179109974   2.67272  -0.16795  -1.41330  -0.80442
   9   23212.9    430.8   0.090935776   1.28968   0.81317  -0.61280  -0.50290
  10   23693.8    422.1   0.088762789   1.23331  -1.01777  -0.42852  -0.11755
  11   24572.9    407.0   0.247507077   3.31594   1.46026  -0.97407  -0.48453
  12   25017.8    399.7   0.136867555   1.80106   0.79696  -0.81574  -0.70744
  13   25745.7    388.4   0.016138763   0.20637   0.15485  -0.42564  -0.03490
  14   26342.6    379.6   0.051056252   0.63807  -0.39762  -0.65118  -0.23650
  15   26528.5    377.0   0.002054433   0.02549  -0.14721   0.06028   0.01386
  16   26855.3    372.4   0.037796235   0.46333  -0.42939   0.46439   0.25160
  17   27570.7    362.7   0.017008747   0.20310   0.44288   0.07878  -0.02735
  18   27702.7    361.0   0.088125035   1.04726   0.99559  -0.22447  -0.07534
  19   27756.8    360.3   0.006116635   0.07255   0.00681   0.26921   0.00513
  20   28219.2    354.4   0.001768067   0.02063  -0.07043  -0.10637  -0.06597
  21   28610.9    349.5   0.024380900   0.28054   0.38733   0.18521  -0.31019
  22   28844.2    346.7   0.028177466   0.32160  -0.29181  -0.47413  -0.10793
  23   29801.7    335.6   0.049307773   0.54469   0.04177  -0.71257  -0.18759
  24   30179.9    331.3   0.115919588   1.26449   1.02984   0.44464   0.07879
  25   30604.5    326.7   0.023354403   0.25122   0.20135  -0.24020   0.39113
  26   31079.2    321.8   0.001129500   0.01196  -0.09410  -0.05409   0.01358
  27   31160.1    320.9   0.699229561   7.38748  -2.32156  -0.99486  -1.00403
  28   31518.4    317.3   0.148488848   1.55098   0.90981  -0.82971   0.18657
  29   31887.1    313.6   0.012706768   0.13119  -0.26742  -0.11625  -0.21484
  30   32080.7    311.7   0.024276778   0.24913   0.27550   0.27547   0.31200
  31   32235.8    310.2   0.102782564   1.04968  -0.92046   0.25136  -0.37317
  32   32583.4    306.9   0.109302549   1.10436   0.03722  -1.03178  -0.19595
  33   32783.5    305.0   0.073961899   0.74273  -0.20086  -0.76513  -0.34198
  34   32819.1    304.7   0.032047642   0.32147  -0.56398  -0.01327  -0.05678
  35   33293.9    300.4   0.018485835   0.18279   0.20676   0.17059   0.33307
  36   33443.4    299.0   0.049492653   0.48720   0.59712  -0.32509   0.15800
  37   33864.8    295.3   0.097949503   0.95220  -0.89204  -0.13584  -0.37149
  38   34227.7    292.2   0.083583644   0.80393   0.76753   0.13422   0.44364
  39   34388.3    290.8   0.019273980   0.18452  -0.02229  -0.41071  -0.12384
  40   34426.2    290.5   0.001271605   0.01216  -0.07397   0.06876  -0.04428
  41   34509.3    289.8   0.055287068   0.52743  -0.44398   0.44655   0.36181
  42   34743.7    287.8   0.178980073   1.69592  -0.76092  -0.99278  -0.36236
  43   34963.0    286.0   0.077016118   0.72518   0.61632  -0.54677  -0.21537
  44   34980.0    285.9   0.029711510   0.27963   0.03950   0.51379   0.11870
  45   35355.1    282.8   0.070435706   0.65587  -0.49555  -0.32993  -0.54905
  46   35429.0    282.3   0.038523852   0.35797  -0.57538  -0.10412   0.12675
  47   35906.7    278.5   0.062209879   0.57037   0.64654   0.14260   0.36336
  48   36243.4    275.9   0.017925521   0.16282   0.15774  -0.33869  -0.15242
  49   36806.3    271.7   0.070273778   0.62856   0.07287   0.70928   0.34665
  50   36901.9    271.0   0.115960333   1.03451   0.74650   0.56410   0.39880
  51   37069.3    269.8   0.028393257   0.25216   0.24752   0.27065   0.34300
  52   37299.9    268.1   0.002855168   0.02520   0.08717  -0.12578  -0.04220
  53   37486.4    266.8   0.018942914   0.16636  -0.29685   0.10535  -0.25912
  54   37743.3    264.9   0.090918983   0.79303  -0.39098   0.71586   0.35735
  55   37885.4    264.0   0.000610001   0.00530  -0.01912  -0.03864  -0.05867
  56   37941.4    263.6   0.014524835   0.12603  -0.33513   0.08497   0.08060
  57   38231.3    261.6   0.020561337   0.17705  -0.38394   0.01344  -0.17166
  58   38496.9    259.8   0.018832107   0.16105   0.27339   0.28499  -0.07128
  59   38569.3    259.3   0.121457908   1.03672  -0.79588  -0.55485  -0.30892
  60   38866.7    257.3   0.008279151   0.07013   0.01594  -0.26243  -0.03166
  61   38952.8    256.7   0.029072735   0.24571   0.34669   0.35363   0.02163
  62   39380.2    253.9   0.059527533   0.49764   0.48308  -0.47088  -0.20628
  63   39490.0    253.2   0.014670127   0.12230   0.02684   0.24198   0.25104
  64   39705.9    251.9   0.074950753   0.62144   0.74295  -0.25987  -0.04392
  65   40126.1    249.2   0.255355268   2.09504   1.05008  -0.98646  -0.13882

FINAL SINGLE POINT ENERGY    -10028.822757412760

DIPOLE MOMENT
-------------
                                X             Y             Z
Electronic contribution:   -123.28561     -97.80218     -48.71045
Nuclear contribution   :    123.99093     104.02737      48.37129
                        -----------------------------------------
Total Dipole Moment    :      0.70532       6.22519      -0.33915
                        -----------------------------------------
Magnitude (a.u.)       :      6.27419
Magnitude (Debye)      :     15.94773

Rotational constants in cm-1:     0.001108     0.000443     0.000330
Rotational constants in MHz :    33.206061    13.268187     9.892164

                             ****ORCA TERMINATED NORMALLY****
TOTAL RUN TIME: 0 days 0 hours 10 minutes 59 seconds 936 msec
