                         Program Version 4.2.0 -  RELEASE  -
|  1> # ORCA input file
|  2> # SCF done       -169.329686250061          0.000644633404
|  3> ! CAM-B3LYP def2-SVP def2/J RIJCOSX Grid4 TightSCF
|  4> %maxcore 5000
|  5> %tddft
|  6>     Mode sTDDFT
|  7>     Ethresh 5.0
|  8>     maxcore 5000
|  9> end
| 10>
| 11> %pal
| 12>   nprocs 6
| 13>   end
| 14> * xyz 0 1
| 15>    C        1.48515         2.31427         2.12843
| 16>    C        1.95600         2.93609         0.99644
| 17>    C        3.31781         3.01806         0.65332
| 18>    N        4.41625         3.13414         0.33748
| 19>    C        1.11031         3.47655         0.00930
| 20>    N        0.44664         3.88824        -0.83336
| 21>    C        2.27963         1.47465         3.01968
| 22>    C        1.39407         0.61884         3.73784
| 23>    C        1.85685        -0.30513         4.62831
| 24>    C        3.24927        -0.40970         4.85233
| 25>    C        4.13781         0.45033         4.14536
| 26>    C        3.62972         1.39422         3.22216
| 27>    C        5.52261         0.33759         4.38091
| 28>    C        6.00965        -0.58114         5.27060
| 29>    C        5.13419        -1.42698         5.96695
| 30>    C        3.78353        -1.34326         5.76162
| 31>    C        0.00248         0.93390         3.35969
| 32>    O       -1.01334         0.38166         3.72199
| 33>    C        0.10077         2.12731         2.48098
| 34>    C       -1.02169         2.87141         2.23175
| 35>    C       -1.12852         4.22299         1.87490
| 36>    S        0.15791         5.36670         2.08667
| 37>    C       -0.79649         6.71503         1.56831
| 38>    C       -2.10796         6.29685         1.26174
| 39>    C       -2.29040         4.89094         1.43661
| 40>    C       -3.52994         4.29375         1.15309
| 41>    C       -4.56624         5.08328         0.74026
| 42>    F       -5.76005         4.53735         0.46761
| 43>    C       -4.40485         6.47800         0.61133
| 44>    F       -5.45539         7.22717         0.23560
| 45>    C       -3.20615         7.08244         0.86701
| 46>    C       -0.13826         7.96592         1.51718
| 47>    C       -0.54521         9.11551         0.92141
| 48>    C        0.25814        10.29182         0.94137
| 49>    C       -0.03812        11.48841         0.39472
| 50>    C       -1.27209        11.81419        -0.37961
| 51>    C        0.97238        12.60620         0.45894
| 52>    N        1.64660        12.70842        -0.82029
| 53>    C        1.20407        13.50832        -1.81470
| 54>    C        1.47601        13.31261        -3.13431
| 55>    C        1.09828        14.20914        -4.14676
| 56>    C        1.31444        14.00119        -5.48511
| 57>    C        0.97329        14.86156        -6.55525
| 58>    C        1.30221        14.38347        -7.78741
| 59>    C        1.91562        13.11046        -7.76408
| 60>    S        2.07745        12.54497        -6.11911
| 61>    C        2.33940        12.35169        -8.83812
| 62>    C        2.28606        12.67877       -10.21064
| 63>    C        2.77365        11.70679       -11.02882
| 64>    C        3.23654        10.54994       -10.35021
| 65>    S        3.03799        10.75637        -8.62039
| 66>    C        3.75574         9.42789       -10.93957
| 67>    C        4.20183         8.25797       -10.30152
| 68>    S        4.18857         7.97445        -8.56790
| 69>    C        4.85101         6.39275        -8.69289
| 70>    C        5.08342         6.06793       -10.00885
| 71>    C        4.71699         7.12048       -10.90094
| 72>    O        4.95607         6.77363       -12.18350
| 73>    C        5.46936         5.51483       -12.12064
| 74>    N        5.82000         4.88806       -13.33772
| 75>    O        6.27940         3.76318       -13.25596
| 76>    O        5.64704         5.50400       -14.36805
| 77>    C        5.57407         5.02784       -10.84463
| 78>    H        1.17132        -0.95046         5.15726
| 79>    H        4.32225         2.04006         2.70484
| 80>    H        6.19293         0.98941         3.83983
| 81>    H        7.07278        -0.66122         5.44195
| 82>    H        5.53474        -2.14538         6.66660
| 83>    H        3.10451        -1.99252         6.29496
| 84>    H       -1.95651         2.36298         2.44630
| 85>    H       -3.67554         3.23106         1.25395
| 86>    H       -3.13872         8.15229         0.78046
| 87>    H        0.84149         7.96646         1.98221
| 88>    H       -1.47937         9.15170         0.38841
| 89>    H        1.19840        10.19904         1.47277
| 90>    H       -1.85616        10.93293        -0.62091
| 91>    H       -1.00564        12.31496        -1.31208
| 92>    H       -1.89944        12.49901         0.19277
| 93>    H        1.72103        12.41176         1.23170
| 94>    H        0.48789        13.56298         0.66705
| 95>    H        2.11924        11.86297        -1.11404
| 96>    H        0.64948        14.38065        -1.49352
| 97>    H        2.01207        12.42144        -3.43392
| 98>    H        0.59737        15.12478        -3.86029
| 99>    H        0.49569        15.80952        -6.37893
|100>    H        1.11626        14.90555        -8.70860
|101>    H        1.89266        13.61796       -10.55597
|102>    H        2.81465        11.77525       -12.10134
|103>    H        3.83276         9.41914       -12.01885
|104>    H        5.02146         5.81302        -7.81024
|105>    H        5.94923         4.06469       -10.56754
|106> *
|107>
|108>                          ****END OF INPUT****

CARTESIAN COORDINATES (ANGSTROEM)
---------------------------------
  C      1.485150    2.314270    2.128430
  C      1.956000    2.936090    0.996440
  C      3.317810    3.018060    0.653320
  N      4.416250    3.134140    0.337480
  C      1.110310    3.476550    0.009300
  N      0.446640    3.888240   -0.833360
  C      2.279630    1.474650    3.019680
  C      1.394070    0.618840    3.737840
  C      1.856850   -0.305130    4.628310
  C      3.249270   -0.409700    4.852330
  C      4.137810    0.450330    4.145360
  C      3.629720    1.394220    3.222160
  C      5.522610    0.337590    4.380910
  C      6.009650   -0.581140    5.270600
  C      5.134190   -1.426980    5.966950
  C      3.783530   -1.343260    5.761620
  C      0.002480    0.933900    3.359690
  O     -1.013340    0.381660    3.721990
  C      0.100770    2.127310    2.480980
  C     -1.021690    2.871410    2.231750
  C     -1.128520    4.222990    1.874900
  S      0.157910    5.366700    2.086670
  C     -0.796490    6.715030    1.568310
  C     -2.107960    6.296850    1.261740
  C     -2.290400    4.890940    1.436610
  C     -3.529940    4.293750    1.153090
  C     -4.566240    5.083280    0.740260
  F     -5.760050    4.537350    0.467610
  C     -4.404850    6.478000    0.611330
  F     -5.455390    7.227170    0.235600
  C     -3.206150    7.082440    0.867010
  C     -0.138260    7.965920    1.517180
  C     -0.545210    9.115510    0.921410
  C      0.258140   10.291820    0.941370
  C     -0.038120   11.488410    0.394720
  C     -1.272090   11.814190   -0.379610
  C      0.972380   12.606200    0.458940
  N      1.646600   12.708420   -0.820290
  C      1.204070   13.508320   -1.814700
  C      1.476010   13.312610   -3.134310
  C      1.098280   14.209140   -4.146760
  C      1.314440   14.001190   -5.485110
  C      0.973290   14.861560   -6.555250
  C      1.302210   14.383470   -7.787410
  C      1.915620   13.110460   -7.764080
  S      2.077450   12.544970   -6.119110
  C      2.339400   12.351690   -8.838120
  C      2.286060   12.678770  -10.210640
  C      2.773650   11.706790  -11.028820
  C      3.236540   10.549940  -10.350210
  S      3.037990   10.756370   -8.620390
  C      3.755740    9.427890  -10.939570
  C      4.201830    8.257970  -10.301520
  S      4.188570    7.974450   -8.567900
  C      4.851010    6.392750   -8.692890
  C      5.083420    6.067930  -10.008850
  C      4.716990    7.120480  -10.900940
  O      4.956070    6.773630  -12.183500
  C      5.469360    5.514830  -12.120640
  N      5.820000    4.888060  -13.337720
  O      6.279400    3.763180  -13.255960
  O      5.647040    5.504000  -14.368050
  C      5.574070    5.027840  -10.844630
  H      1.171320   -0.950460    5.157260
  H      4.322250    2.040060    2.704840
  H      6.192930    0.989410    3.839830
  H      7.072780   -0.661220    5.441950
  H      5.534740   -2.145380    6.666600
  H      3.104510   -1.992520    6.294960
  H     -1.956510    2.362980    2.446300
  H     -3.675540    3.231060    1.253950
  H     -3.138720    8.152290    0.780460
  H      0.841490    7.966460    1.982210
  H     -1.479370    9.151700    0.388410
  H      1.198400   10.199040    1.472770
  H     -1.856160   10.932930   -0.620910
  H     -1.005640   12.314960   -1.312080
  H     -1.899440   12.499010    0.192770
  H      1.721030   12.411760    1.231700
  H      0.487890   13.562980    0.667050
  H      2.119240   11.862970   -1.114040
  H      0.649480   14.380650   -1.493520
  H      2.012070   12.421440   -3.433920
  H      0.597370   15.124780   -3.860290
  H      0.495690   15.809520   -6.378930
  H      1.116260   14.905550   -8.708600
  H      1.892660   13.617960  -10.555970
  H      2.814650   11.775250  -12.101340
  H      3.832760    9.419140  -12.018850
  H      5.021460    5.813020   -7.810240
  H      5.949230    4.064690  -10.567540

 Total Charge           Charge          ....    0
 Multiplicity           Mult            ....    1
 Number of Electrons    NEL             ....  464
 Basis Dimension        Dim             .... 1038

ORBITAL ENERGIES
----------------

  NO   OCC          E(Eh)            E(eV)
   0   2.0000     -88.986435     -2421.4440
   1   2.0000     -88.960361     -2420.7345
   2   2.0000     -88.933968     -2420.0163
   3   2.0000     -88.933786     -2420.0113
   4   2.0000     -24.799206      -674.8207
   5   2.0000     -24.797384      -674.7711
   6   2.0000     -19.294732      -525.0363
   7   2.0000     -19.232043      -523.3305
   8   2.0000     -19.229811      -523.2698
   9   2.0000     -19.207491      -522.6624
  10   2.0000     -14.643544      -398.4711
  11   2.0000     -14.448170      -393.1547
  12   2.0000     -14.410691      -392.1348
  13   2.0000     -14.409778      -392.1100
  14   2.0000     -10.383980      -282.5624
  15   2.0000     -10.380177      -282.4590
  16   2.0000     -10.373506      -282.2774
  17   2.0000     -10.359574      -281.8983
  18   2.0000     -10.338967      -281.3376
  19   2.0000     -10.336314      -281.2654
  20   2.0000     -10.335405      -281.2407
  21   2.0000     -10.329220      -281.0724
  22   2.0000     -10.328332      -281.0482
  23   2.0000     -10.325423      -280.9690
  24   2.0000     -10.320869      -280.8451
  25   2.0000     -10.319779      -280.8155
  26   2.0000     -10.313985      -280.6578
  27   2.0000     -10.313970      -280.6574
  28   2.0000     -10.312120      -280.6071
  29   2.0000     -10.310698      -280.5683
  30   2.0000     -10.305474      -280.4262
  31   2.0000     -10.305306      -280.4216
  32   2.0000     -10.304609      -280.4027
  33   2.0000     -10.304269      -280.3934
  34   2.0000     -10.302620      -280.3485
  35   2.0000     -10.302606      -280.3481
  36   2.0000     -10.301883      -280.3285
  37   2.0000     -10.299366      -280.2600
  38   2.0000     -10.298851      -280.2460
  39   2.0000     -10.296724      -280.1881
  40   2.0000     -10.294526      -280.1283
  41   2.0000     -10.294078      -280.1161
  42   2.0000     -10.293693      -280.1056
  43   2.0000     -10.293269      -280.0941
  44   2.0000     -10.292722      -280.0792
  45   2.0000     -10.292555      -280.0747
  46   2.0000     -10.291410      -280.0435
  47   2.0000     -10.290685      -280.0238
  48   2.0000     -10.290518      -280.0192
  49   2.0000     -10.285442      -279.8811
  50   2.0000     -10.284764      -279.8626
  51   2.0000     -10.283385      -279.8251
  52   2.0000     -10.283033      -279.8155
  53   2.0000     -10.282996      -279.8146
  54   2.0000     -10.282781      -279.8087
  55   2.0000     -10.282384      -279.7979
  56   2.0000     -10.280958      -279.7591
  57   2.0000     -10.278350      -279.6881
  58   2.0000     -10.275424      -279.6085
  59   2.0000     -10.274861      -279.5932
  60   2.0000     -10.272396      -279.5261
  61   2.0000     -10.269875      -279.4575
  62   2.0000     -10.265161      -279.3292
  63   2.0000      -8.081123      -219.8985
  64   2.0000      -8.054899      -219.1849
  65   2.0000      -8.030158      -218.5117
  66   2.0000      -8.030110      -218.5104
  67   2.0000      -6.050087      -164.6312
  68   2.0000      -6.045936      -164.5183
  69   2.0000      -6.043971      -164.4648
  70   2.0000      -6.024212      -163.9272
  71   2.0000      -6.019833      -163.8080
  72   2.0000      -6.017330      -163.7399
  73   2.0000      -5.999906      -163.2657
  74   2.0000      -5.999846      -163.2641
  75   2.0000      -5.995951      -163.1581
  76   2.0000      -5.995849      -163.1554
  77   2.0000      -5.991007      -163.0236
  78   2.0000      -5.990968      -163.0225
  79   2.0000      -1.320438       -35.9309
  80   2.0000      -1.314604       -35.7722
  81   2.0000      -1.305371       -35.5210
  82   2.0000      -1.214482       -33.0477
  83   2.0000      -1.130749       -30.7692
  84   2.0000      -1.122210       -30.5369
  85   2.0000      -1.051497       -28.6127
  86   2.0000      -1.023624       -27.8542
  87   2.0000      -1.011816       -27.5329
  88   2.0000      -0.993716       -27.0404
  89   2.0000      -0.988714       -26.9043
  90   2.0000      -0.985760       -26.8239
  91   2.0000      -0.978934       -26.6382
  92   2.0000      -0.968271       -26.3480
  93   2.0000      -0.960474       -26.1358
  94   2.0000      -0.959625       -26.1127
  95   2.0000      -0.941950       -25.6318
  96   2.0000      -0.924447       -25.1555
  97   2.0000      -0.922003       -25.0890
  98   2.0000      -0.914537       -24.8858
  99   2.0000      -0.898847       -24.4589
 100   2.0000      -0.891088       -24.2477
 101   2.0000      -0.883920       -24.0527
 102   2.0000      -0.878013       -23.8920
 103   2.0000      -0.876528       -23.8515
 104   2.0000      -0.863935       -23.5089
 105   2.0000      -0.863407       -23.4945
 106   2.0000      -0.852195       -23.1894
 107   2.0000      -0.842561       -22.9273
 108   2.0000      -0.832829       -22.6624
 109   2.0000      -0.825199       -22.4548
 110   2.0000      -0.824424       -22.4337
 111   2.0000      -0.817096       -22.2343
 112   2.0000      -0.808169       -21.9914
 113   2.0000      -0.802230       -21.8298
 114   2.0000      -0.789569       -21.4853
 115   2.0000      -0.772218       -21.0131
 116   2.0000      -0.767936       -20.8966
 117   2.0000      -0.755312       -20.5531
 118   2.0000      -0.753051       -20.4916
 119   2.0000      -0.750812       -20.4306
 120   2.0000      -0.727307       -19.7910
 121   2.0000      -0.721909       -19.6442
 122   2.0000      -0.716168       -19.4879
 123   2.0000      -0.702059       -19.1040
 124   2.0000      -0.697453       -18.9787
 125   2.0000      -0.695933       -18.9373
 126   2.0000      -0.692445       -18.8424
 127   2.0000      -0.678765       -18.4701
 128   2.0000      -0.671672       -18.2771
 129   2.0000      -0.669800       -18.2262
 130   2.0000      -0.663881       -18.0651
 131   2.0000      -0.659737       -17.9524
 132   2.0000      -0.647338       -17.6150
 133   2.0000      -0.637225       -17.3398
 134   2.0000      -0.632921       -17.2227
 135   2.0000      -0.629160       -17.1203
 136   2.0000      -0.628380       -17.0991
 137   2.0000      -0.625804       -17.0290
 138   2.0000      -0.624790       -17.0014
 139   2.0000      -0.621457       -16.9107
 140   2.0000      -0.618488       -16.8299
 141   2.0000      -0.613927       -16.7058
 142   2.0000      -0.608686       -16.5632
 143   2.0000      -0.603359       -16.4182
 144   2.0000      -0.600112       -16.3299
 145   2.0000      -0.597359       -16.2550
 146   2.0000      -0.588014       -16.0007
 147   2.0000      -0.585513       -15.9326
 148   2.0000      -0.584830       -15.9140
 149   2.0000      -0.580289       -15.7905
 150   2.0000      -0.577528       -15.7153
 151   2.0000      -0.572768       -15.5858
 152   2.0000      -0.568656       -15.4739
 153   2.0000      -0.561693       -15.2844
 154   2.0000      -0.556925       -15.1547
 155   2.0000      -0.552996       -15.0478
 156   2.0000      -0.551706       -15.0127
 157   2.0000      -0.548639       -14.9292
 158   2.0000      -0.546955       -14.8834
 159   2.0000      -0.542949       -14.7744
 160   2.0000      -0.538915       -14.6646
 161   2.0000      -0.537643       -14.6300
 162   2.0000      -0.536484       -14.5985
 163   2.0000      -0.532347       -14.4859
 164   2.0000      -0.529876       -14.4187
 165   2.0000      -0.521112       -14.1802
 166   2.0000      -0.520142       -14.1538
 167   2.0000      -0.518380       -14.1058
 168   2.0000      -0.512733       -13.9522
 169   2.0000      -0.508589       -13.8394
 170   2.0000      -0.507449       -13.8084
 171   2.0000      -0.505445       -13.7538
 172   2.0000      -0.503480       -13.7004
 173   2.0000      -0.499526       -13.5928
 174   2.0000      -0.495282       -13.4773
 175   2.0000      -0.493887       -13.4394
 176   2.0000      -0.490360       -13.3434
 177   2.0000      -0.487057       -13.2535
 178   2.0000      -0.486529       -13.2391
 179   2.0000      -0.484526       -13.1846
 180   2.0000      -0.480269       -13.0688
 181   2.0000      -0.479589       -13.0503
 182   2.0000      -0.478804       -13.0289
 183   2.0000      -0.471925       -12.8417
 184   2.0000      -0.470586       -12.8053
 185   2.0000      -0.466397       -12.6913
 186   2.0000      -0.464556       -12.6412
 187   2.0000      -0.462215       -12.5775
 188   2.0000      -0.460923       -12.5424
 189   2.0000      -0.457794       -12.4572
 190   2.0000      -0.454845       -12.3770
 191   2.0000      -0.448029       -12.1915
 192   2.0000      -0.446462       -12.1489
 193   2.0000      -0.444019       -12.0824
 194   2.0000      -0.442978       -12.0541
 195   2.0000      -0.440686       -11.9917
 196   2.0000      -0.438861       -11.9420
 197   2.0000      -0.438046       -11.9198
 198   2.0000      -0.437137       -11.8951
 199   2.0000      -0.435160       -11.8413
 200   2.0000      -0.431080       -11.7303
 201   2.0000      -0.428804       -11.6684
 202   2.0000      -0.425817       -11.5871
 203   2.0000      -0.424894       -11.5620
 204   2.0000      -0.420352       -11.4383
 205   2.0000      -0.417020       -11.3477
 206   2.0000      -0.412008       -11.2113
 207   2.0000      -0.405860       -11.0440
 208   2.0000      -0.402920       -10.9640
 209   2.0000      -0.397529       -10.8173
 210   2.0000      -0.396753       -10.7962
 211   2.0000      -0.382984       -10.4215
 212   2.0000      -0.382836       -10.4175
 213   2.0000      -0.377476       -10.2716
 214   2.0000      -0.375717       -10.2238
 215   2.0000      -0.369570       -10.0565
 216   2.0000      -0.368170       -10.0184
 217   2.0000      -0.359654        -9.7867
 218   2.0000      -0.344714        -9.3802
 219   2.0000      -0.343537        -9.3481
 220   2.0000      -0.330621        -8.9967
 221   2.0000      -0.327825        -8.9206
 222   2.0000      -0.326325        -8.8798
 223   2.0000      -0.322458        -8.7745
 224   2.0000      -0.318067        -8.6550
 225   2.0000      -0.311436        -8.4746
 226   2.0000      -0.306484        -8.3399
 227   2.0000      -0.293543        -7.9877
 228   2.0000      -0.291221        -7.9245
 229   2.0000      -0.258964        -7.0468
 230   2.0000      -0.250841        -6.8257
 231   2.0000      -0.194392        -5.2897
 232   0.0000      -0.107156        -2.9159
 233   0.0000      -0.065548        -1.7837
 234   0.0000      -0.057472        -1.5639
 235   0.0000      -0.046019        -1.2523
 236   0.0000      -0.043299        -1.1782

MULLIKEN ATOMIC CHARGES
-----------------------
   0 C :    0.259473
   1 C :   -0.335095
   2 C :   -0.171184
   3 N :    0.142584
   4 C :   -0.219297
   5 N :    0.169456
   6 C :    0.034112
   7 C :    0.012921
   8 C :   -0.083196
   9 C :    0.094002
  10 C :    0.094689
  11 C :   -0.081983
  12 C :   -0.019561
  13 C :    0.033568
  14 C :    0.034241
  15 C :   -0.015741
  16 C :    0.139527
  17 O :   -0.151321
  18 C :   -0.149260
  19 C :    0.021031
  20 C :   -0.131871
  21 S :    0.193824
  22 C :   -0.089671
  23 C :    0.129614
  24 C :    0.167265
  25 C :   -0.113872
  26 C :    0.237948
  27 F :   -0.169684
  28 C :    0.226948
  29 F :   -0.176194
  30 C :   -0.118612
  31 C :    0.033801
  32 C :    0.013620
  33 C :    0.007608
  34 C :   -0.187708
  35 C :    0.091945
  36 C :    0.199086
  37 N :   -0.138721
  38 C :    0.037709
  39 C :   -0.020306
  40 C :   -0.009348
  41 C :   -0.038612
  42 C :    0.045045
  43 C :    0.009510
  44 C :   -0.037248
  45 S :    0.058545
  46 C :   -0.047315
  47 C :    0.028952
  48 C :    0.027567
  49 C :   -0.020813
  50 S :    0.050290
  51 C :   -0.025286
  52 C :   -0.184965
  53 S :    0.135182
  54 C :   -0.140400
  55 C :    0.129925
  56 C :    0.183292
  57 O :   -0.185786
  58 C :    0.231393
  59 N :    0.275030
  60 O :   -0.254742
  61 O :   -0.235453
  62 C :   -0.073245
  63 H :   -0.013313
  64 H :   -0.008055
  65 H :   -0.012525
  66 H :   -0.005756
  67 H :   -0.006606
  68 H :   -0.017942
  69 H :    0.020789
  70 H :    0.004209
  71 H :   -0.014760
  72 H :   -0.011043
  73 H :   -0.008661
  74 H :   -0.024008
  75 H :    0.016008
  76 H :    0.039176
  77 H :    0.032475
  78 H :    0.015939
  79 H :    0.016953
  80 H :    0.121284
  81 H :    0.002218
  82 H :   -0.009101
  83 H :   -0.023402
  84 H :   -0.020042
  85 H :   -0.018835
  86 H :   -0.019354
  87 H :   -0.014980
  88 H :   -0.001145
  89 H :    0.028172
  90 H :    0.009088
Sum of atomic charges:   -0.0000000

LOEWDIN ATOMIC CHARGES
----------------------
   0 C :    0.060499
   1 C :   -0.155659
   2 C :   -0.019908
   3 N :   -0.061168
   4 C :   -0.036812
   5 N :   -0.056219
   6 C :   -0.022011
   7 C :   -0.055326
   8 C :    0.029933
   9 C :   -0.009890
  10 C :   -0.006426
  11 C :    0.012897
  12 C :   -0.007656
  13 C :   -0.014951
  14 C :   -0.015008
  15 C :   -0.009940
  16 C :    0.081028
  17 O :   -0.152925
  18 C :   -0.108867
  19 C :    0.046194
  20 C :   -0.196467
  21 S :    0.529204
  22 C :   -0.130886
  23 C :   -0.049059
  24 C :   -0.010394
  25 C :   -0.035792
  26 C :    0.075565
  27 F :   -0.047596
  28 C :    0.062655
  29 F :   -0.055702
  30 C :   -0.034046
  31 C :   -0.051872
  32 C :   -0.000197
  33 C :   -0.054595
  34 C :   -0.023286
  35 C :   -0.049128
  36 C :    0.048767
  37 N :    0.001945
  38 C :    0.036836
  39 C :   -0.118694
  40 C :   -0.036268
  41 C :   -0.173666
  42 C :   -0.026491
  43 C :   -0.049781
  44 C :   -0.166552
  45 S :    0.357510
  46 C :   -0.196940
  47 C :   -0.032660
  48 C :   -0.044309
  49 C :   -0.147277
  50 S :    0.354699
  51 C :   -0.087787
  52 C :   -0.199818
  53 S :    0.467960
  54 C :   -0.201108
  55 C :   -0.084751
  56 C :    0.013078
  57 O :   -0.000744
  58 C :    0.021976
  59 N :    0.272616
  60 O :   -0.215550
  61 O :   -0.196404
  62 C :   -0.009888
  63 H :    0.038612
  64 H :    0.037738
  65 H :    0.033414
  66 H :    0.032490
  67 H :    0.032073
  68 H :    0.031389
  69 H :    0.047660
  70 H :    0.045951
  71 H :    0.038649
  72 H :    0.030804
  73 H :    0.025871
  74 H :    0.026732
  75 H :    0.030374
  76 H :    0.041037
  77 H :    0.041407
  78 H :    0.027784
  79 H :    0.030943
  80 H :    0.080926
  81 H :    0.025914
  82 H :    0.019675
  83 H :    0.029871
  84 H :    0.030845
  85 H :    0.029397
  86 H :    0.030088
  87 H :    0.032086
  88 H :    0.043352
  89 H :    0.026691
  90 H :    0.045343

  Mayer bond orders larger than 0.100000
B(  0-C ,  1-C ) :   1.6207 B(  0-C ,  6-C ) :   0.9993 B(  0-C , 18-C ) :   1.0628
B(  1-C ,  2-C ) :   1.1397 B(  1-C ,  4-C ) :   1.1618 B(  2-C ,  3-N ) :   2.9821
B(  4-C ,  5-N ) :   3.0228 B(  6-C ,  7-C ) :   1.2133 B(  6-C , 11-C ) :   1.4678
B(  7-C ,  8-C ) :   1.4835 B(  7-C , 16-C ) :   0.9199 B(  8-C ,  9-C ) :   1.1816
B(  8-C , 63-H ) :   1.0150 B(  9-C , 10-C ) :   1.2596 B(  9-C , 15-C ) :   1.2466
B( 10-C , 11-C ) :   1.1999 B( 10-C , 12-C ) :   1.2441 B( 11-C , 64-H ) :   0.9929
B( 12-C , 13-C ) :   1.4894 B( 12-C , 65-H ) :   0.9968 B( 13-C , 14-C ) :   1.2619
B( 13-C , 66-H ) :   0.9883 B( 14-C , 15-C ) :   1.4890 B( 14-C , 67-H ) :   0.9886
B( 15-C , 68-H ) :   0.9971 B( 16-C , 17-O ) :   2.2561 B( 16-C , 18-C ) :   0.9529
B( 18-C , 19-C ) :   1.5780 B( 19-C , 20-C ) :   1.2193 B( 19-C , 69-H ) :   0.9367
B( 20-C , 21-S ) :   1.1187 B( 20-C , 24-C ) :   1.2708 B( 21-S , 22-C ) :   1.2090
B( 22-C , 23-C ) :   1.3050 B( 22-C , 31-C ) :   1.1409 B( 23-C , 24-C ) :   1.2375
B( 23-C , 30-C ) :   1.1639 B( 24-C , 25-C ) :   1.1933 B( 25-C , 26-C ) :   1.4768
B( 25-C , 30-C ) :   0.1102 B( 25-C , 70-H ) :   0.9988 B( 26-C , 27-F ) :   1.1370
B( 26-C , 28-C ) :   1.1684 B( 28-C , 29-F ) :   1.1352 B( 28-C , 30-C ) :   1.4940
B( 30-C , 71-H ) :   0.9958 B( 31-C , 32-C ) :   1.6699 B( 31-C , 72-H ) :   0.9532
B( 32-C , 33-C ) :   1.1290 B( 32-C , 73-H ) :   0.9682 B( 33-C , 34-C ) :   1.7305
B( 33-C , 74-H ) :   0.9750 B( 34-C , 35-C ) :   1.0770 B( 34-C , 36-C ) :   1.0364
B( 35-C , 75-H ) :   0.9519 B( 35-C , 76-H ) :   0.9397 B( 35-C , 77-H ) :   0.9416
B( 36-C , 37-N ) :   1.0134 B( 36-C , 78-H ) :   0.9424 B( 36-C , 79-H ) :   0.9327
B( 37-N , 38-C ) :   1.2222 B( 37-N , 80-H ) :   0.9351 B( 38-C , 39-C ) :   1.5879
B( 38-C , 81-H ) :   0.9662 B( 39-C , 40-C ) :   1.1751 B( 39-C , 82-H ) :   0.9614
B( 40-C , 41-C ) :   1.5821 B( 40-C , 83-H ) :   0.9790 B( 41-C , 42-C ) :   1.1502
B( 41-C , 45-S ) :   1.0114 B( 42-C , 43-C ) :   1.5855 B( 42-C , 84-H ) :   0.9975
B( 43-C , 44-C ) :   1.1894 B( 43-C , 85-H ) :   0.9943 B( 44-C , 45-S ) :   1.0544
B( 44-C , 46-C ) :   1.5106 B( 46-C , 47-C ) :   1.1916 B( 46-C , 50-S ) :   1.0251
B( 47-C , 48-C ) :   1.5892 B( 47-C , 86-H ) :   0.9918 B( 48-C , 49-C ) :   1.1420
B( 48-C , 87-H ) :   1.0007 B( 49-C , 50-S ) :   1.0396 B( 49-C , 51-C ) :   1.5640
B( 51-C , 52-C ) :   1.1739 B( 51-C , 88-H ) :   0.9736 B( 52-C , 53-S ) :   1.1100
B( 52-C , 54-C ) :   0.1086 B( 52-C , 56-C ) :   1.4423 B( 53-S , 54-C ) :   1.1785
B( 54-C , 55-C ) :   1.4140 B( 54-C , 89-H ) :   0.9763 B( 55-C , 56-C ) :   1.2300
B( 55-C , 62-C ) :   1.0634 B( 56-C , 57-O ) :   1.1177 B( 57-O , 58-C ) :   1.1258
B( 58-C , 59-N ) :   0.9197 B( 58-C , 62-C ) :   1.5705 B( 59-N , 60-O ) :   1.5293
B( 59-N , 61-O ) :   1.5126 B( 60-O , 61-O ) :   0.2771 B( 62-C , 90-H ) :   1.0248

-----------------------------------------------------------------------------
         ABSORPTION SPECTRUM VIA TRANSITION ELECTRIC DIPOLE MOMENTS
-----------------------------------------------------------------------------
State   Energy  Wavelength   fosc         T2         TX        TY        TZ
        (cm-1)    (nm)                  (au**2)     (au)      (au)      (au)
-----------------------------------------------------------------------------
   0    9387.9   1065.2   0.139639151   4.89681   0.45018   1.06724  -1.88551
   1   14723.4    679.2   0.563188031  12.59278   0.93580  -1.35863  -3.14184
   2   16104.7    620.9   1.017331658  20.79626   1.87786  -4.14933  -0.23015
   3   18721.9    534.1   0.538302769   9.46568   1.00979  -1.25745  -2.62008
   4   21048.1    475.1   0.065730531   1.02809   0.18282   0.95023   0.30287
   5   22463.7    445.2   0.026383976   0.38667  -0.26825  -0.44125   0.34642
   6   24188.7    413.4   0.038276769   0.52095   0.57896  -0.17198   0.39520
   7   24978.1    400.4   0.027885816   0.36754  -0.20546   0.25809  -0.50864
   8   25590.0    390.8   0.029779842   0.38311   0.00612   0.41217  -0.46173
   9   26221.3    381.4   0.159870252   2.00719  -0.20344  -1.27260   0.58847
  10   27110.5    368.9   0.320083447   3.88688   0.56789   1.62106  -0.96776
  11   28633.9    349.2   0.215902330   2.48229  -0.36828   1.13556  -1.02818
  12   28693.2    348.5   0.074692085   0.85698   0.48197  -0.57024   0.54727
  13   28911.6    345.9   0.040396588   0.45999  -0.32891  -0.45985   0.37463
  14   29733.0    336.3   0.239924285   2.65651  -1.26168  -0.98970   0.29183
  15   30090.9    332.3   0.112124550   1.22671   0.91333  -0.49824   0.37987
  16   30348.4    329.5   0.019281117   0.20916   0.20297  -0.27739   0.30169
  17   30459.8    328.3   0.351532544   3.79939   0.89299  -0.90441   1.47784
  18   30888.6    323.7   0.147686885   1.57405  -0.62955   1.08522   0.00446
  19   31625.7    316.2   0.116429590   1.21199   0.35291  -0.83033   0.63087
  20   31907.7    313.4   0.024213887   0.24983  -0.46100  -0.02692  -0.19126
  21   32573.1    307.0   0.293267800   2.96401  -0.49791   1.01501  -1.29840
  22   33218.5    301.0   0.078029753   0.77331  -0.37866   0.29035   0.73866
  23   33319.6    300.1   0.001960205   0.01937   0.09711  -0.04311   0.08988
  24   33814.2    295.7   0.020763132   0.20215   0.29023  -0.27589   0.20445
  25   33973.0    294.4   0.555901240   5.38690   1.72836  -0.88580   1.27084
  26   34052.2    293.7   0.006884177   0.06656   0.15359   0.11601  -0.17178
  27   34442.8    290.3   0.012016083   0.11485   0.14180   0.20327  -0.23114
  28   34933.2    286.3   0.011928204   0.11241   0.18122   0.15825   0.23351
  29   35631.2    280.7   0.240837593   2.22520   0.90282   1.14494  -0.31500
  30   36722.3    272.3   0.306877886   2.75113  -0.40613   1.01854   1.24449
  31   36820.1    271.6   0.070259099   0.62819  -0.37887   0.22222  -0.65975
  32   37021.4    270.1   0.144779635   1.28745   0.05411  -0.63879  -0.93620
  33   37708.5    265.2   0.037986194   0.33164  -0.29030   0.28705   0.40616
  34   37755.5    264.9   0.041889326   0.36526  -0.16561   0.04361   0.57959
  35   38218.7    261.7   0.076821863   0.66174  -0.71534   0.06946   0.38106
  36   38388.7    260.5   0.008568514   0.07348  -0.04171   0.09089  -0.25195
  37   39265.9    254.7   0.010913359   0.09150  -0.05193  -0.08705  -0.28500
  38   39500.7    253.2   0.302680878   2.52265   0.93756   0.88112  -0.93127
  39   39697.4    251.9   0.027985901   0.23209   0.01091  -0.13533   0.46223
  40   40184.5    248.9   0.001027712   0.00842   0.07055  -0.05256   0.02608

FINAL SINGLE POINT ENERGY     -4192.452299376028

DIPOLE MOMENT
-------------
                                X             Y             Z
Electronic contribution:    -12.32434     -36.80033     -23.46970
Nuclear contribution   :     11.52768      39.75038      28.71811
                        -----------------------------------------
Total Dipole Moment    :     -0.79665       2.95005       5.24842
                        -----------------------------------------
Magnitude (a.u.)       :      6.07316
Magnitude (Debye)      :     15.43676

Rotational constants in cm-1:     0.000939     0.000382     0.000308
Rotational constants in MHz :    28.148393    11.453510     9.220025

                             ****ORCA TERMINATED NORMALLY****
TOTAL RUN TIME: 0 days 0 hours 8 minutes 13 seconds 751 msec
