                         Program Version 4.2.0 -  RELEASE  -
|  1> # ORCA input file
|  2> # SCF done       -192.455341972440          0.000588007893
|  3> ! CAM-B3LYP def2-SVP def2/J RIJCOSX Grid4 TightSCF
|  4> %maxcore 5000
|  5> %tddft
|  6>     Mode sTDDFT
|  7>     Ethresh 5.0
|  8>     maxcore 5000
|  9> end
| 10>
| 11> %pal
| 12>   nprocs 6
| 13>   end
| 14> * xyz 0 1
| 15>    C       11.98864        -8.31772        -8.14269
| 16>    C       10.83979        -7.70169        -7.83746
| 17>    C       10.09540        -6.78040        -8.65019
| 18>    C        8.96229        -6.32057        -8.08033
| 19>    C        8.70800        -6.83464        -6.77506
| 20>    S        9.99151        -7.93497        -6.30008
| 21>    C        7.63876        -6.55859        -5.96612
| 22>    C        6.53443        -5.70600        -6.24665
| 23>    C        5.61665        -5.64232        -5.25641
| 24>    C        5.91910        -6.44684        -4.11303
| 25>    S        7.46502        -7.26529        -4.36674
| 26>    C        5.11679        -6.63227        -3.03927
| 27>    C        5.45266        -7.43598        -1.88221
| 28>    C        6.69138        -7.31875        -1.32209
| 29>    S        6.94983        -8.29081         0.06716
| 30>    C        5.35196        -8.94681        -0.10327
| 31>    C        4.63715        -8.40760        -1.18340
| 32>    C        3.34265        -8.91685        -1.45621
| 33>    C        2.54846        -8.31829        -2.58923
| 34>    C        2.96104        -8.91259        -3.93679
| 35>    C        2.82672        -9.96963        -0.71185
| 36>    C        1.49880       -10.58504        -1.07404
| 37>    C        0.36833       -10.04707        -0.19558
| 38>    C        3.53291       -10.46964         0.41185
| 39>    C        3.17359       -11.45288         1.41270
| 40>    C        4.13576       -11.56966         2.37358
| 41>    S        5.51660       -10.57727         2.13908
| 42>    C        4.78949        -9.91917         0.70679
| 43>    C        1.98174       -12.27123         1.50040
| 44>    C        1.35515       -12.55465         2.65705
| 45>    C        0.20988       -13.39912         2.75344
| 46>    S       -0.38969       -14.21945         1.34412
| 47>    C       -1.67186       -14.91138         2.25371
| 48>    C       -1.67735       -14.53573         3.55740
| 49>    C       -2.68651       -15.06763         4.52099
| 50>    C       -0.59094       -13.65142         3.86943
| 51>    C       -0.29533       -13.07313         5.14482
| 52>    C       -1.13874       -12.87238         6.18696
| 53>    C       -0.71695       -12.25487         7.38868
| 54>    C       -1.54785       -11.97976         8.43061
| 55>    C       -1.15329       -11.33693         9.61949
| 56>    S        0.47854       -10.82297         9.89396
| 57>    C        0.11929       -10.15542        11.45916
| 58>    C       -1.23267       -10.32827        11.76419
| 59>    C       -1.95778       -11.00034        10.72481
| 60>    C       -3.32466       -11.24930        10.88346
| 61>    C       -3.94712       -10.84167        12.04014
| 62>    N       -5.34458       -11.09431        12.20583
| 63>    O       -5.92969       -11.66990        11.30577
| 64>    O       -5.87402       -10.72108        13.23563
| 65>    C       -3.24263       -10.17803        13.07188
| 66>    C       -1.91183        -9.92645        12.93707
| 67>    C        1.11935        -9.52592        12.24307
| 68>    C        2.40947        -9.40675        11.86084
| 69>    C        3.44843        -8.79469        12.64977
| 70>    C        3.36366        -8.79227        14.01521
| 71>    S        4.71994        -8.12881        14.82291
| 72>    C        5.47138        -7.81531        13.28876
| 73>    C        4.68676        -8.19484        12.18880
| 74>    C        5.16577        -7.90006        10.88320
| 75>    C        4.24920        -8.08757         9.69952
| 76>    C        3.05073        -7.13802         9.76005
| 77>    C        6.44380        -7.38263        10.71053
| 78>    C        6.99604        -7.05937         9.34555
| 79>    C        6.59685        -5.64956         8.90617
| 80>    C        7.25497        -7.07928        11.83178
| 81>    C        8.58075        -6.51752        11.91077
| 82>    C        8.95097        -6.26167        13.19049
| 83>    S        7.78361        -6.70598        14.37889
| 84>    C        6.72377        -7.25043        13.11865
| 85>    C        9.53470        -6.25053        10.82460
| 86>    C        9.96894        -5.03911        10.51981
| 87>    H       12.46729        -8.14803        -9.09097
| 88>    H       12.46695        -8.99486        -7.45898
| 89>    H       10.44797        -6.50661        -9.62898
| 90>    H        8.28717        -5.62575        -8.54791
| 91>    H        6.45614        -5.17669        -7.17956
| 92>    H        4.71478        -5.05654        -5.29439
| 93>    H        4.17309        -6.10683        -3.04514
| 94>    H        7.47380        -6.65726        -1.63859
| 95>    H        1.48201        -8.47137        -2.43333
| 96>    H        2.70032        -7.24167        -2.60067
| 97>    H        2.78492        -9.98593        -3.94968
| 98>    H        4.01826        -8.74078        -4.12194
| 99>    H        2.39033        -8.45730        -4.74328
|100>    H        1.56720       -11.66583        -0.96947
|101>    H        1.26223       -10.39967        -2.11976
|102>    H        0.56830       -10.24775         0.85407
|103>    H       -0.57486       -10.51829        -0.46270
|104>    H        0.26802        -8.97107        -0.32287
|105>    H        4.12279       -12.24325         3.20838
|106>    H        1.59218       -12.70715         0.59306
|107>    H        1.70359       -12.09701         3.57203
|108>    H       -2.35724       -15.57440         1.76287
|109>    H       -3.18235       -15.93564         4.09214
|110>    H       -3.44881       -14.31925         4.73657
|111>    H       -2.20909       -15.36000         5.45398
|112>    H        0.72182       -12.72362         5.27067
|113>    H       -2.18144       -13.13740         6.12016
|114>    H        0.32719       -11.97733         7.46988
|115>    H       -2.59096       -12.25615         8.35743
|116>    H       -3.89974       -11.75258        10.12191
|117>    H       -3.78859        -9.88383        13.95413
|118>    H       -1.37098        -9.42098        13.72120
|119>    H        0.78799        -9.10244        13.18025
|120>    H        2.68753        -9.82924        10.90810
|121>    H        2.57258        -9.20812        14.60772
|122>    H        4.77802        -7.89061         8.77125
|123>    H        3.90736        -9.12143         9.64706
|124>    H        3.39182        -6.10530         9.78531
|125>    H        2.44503        -7.31504        10.64422
|126>    H        2.42371        -7.27392         8.88146
|127>    H        6.66944        -7.78915         8.60431
|128>    H        8.08098        -7.10856         9.37849
|129>    H        5.51661        -5.54860         8.84552
|130>    H        7.02133        -5.42618         7.93000
|131>    H        6.97064        -4.91888         9.61979
|132>    H        9.88621        -5.84699        13.51338
|133>    H        9.93758        -7.12255        10.32156
|134>    H        9.58910        -4.16339        11.01942
|135>    H       10.70469        -4.87433         9.75166
|136> *
|137>
|138>                          ****END OF INPUT****

CARTESIAN COORDINATES (ANGSTROEM)
---------------------------------
  C     11.988640   -8.317720   -8.142690
  C     10.839790   -7.701690   -7.837460
  C     10.095400   -6.780400   -8.650190
  C      8.962290   -6.320570   -8.080330
  C      8.708000   -6.834640   -6.775060
  S      9.991510   -7.934970   -6.300080
  C      7.638760   -6.558590   -5.966120
  C      6.534430   -5.706000   -6.246650
  C      5.616650   -5.642320   -5.256410
  C      5.919100   -6.446840   -4.113030
  S      7.465020   -7.265290   -4.366740
  C      5.116790   -6.632270   -3.039270
  C      5.452660   -7.435980   -1.882210
  C      6.691380   -7.318750   -1.322090
  S      6.949830   -8.290810    0.067160
  C      5.351960   -8.946810   -0.103270
  C      4.637150   -8.407600   -1.183400
  C      3.342650   -8.916850   -1.456210
  C      2.548460   -8.318290   -2.589230
  C      2.961040   -8.912590   -3.936790
  C      2.826720   -9.969630   -0.711850
  C      1.498800  -10.585040   -1.074040
  C      0.368330  -10.047070   -0.195580
  C      3.532910  -10.469640    0.411850
  C      3.173590  -11.452880    1.412700
  C      4.135760  -11.569660    2.373580
  S      5.516600  -10.577270    2.139080
  C      4.789490   -9.919170    0.706790
  C      1.981740  -12.271230    1.500400
  C      1.355150  -12.554650    2.657050
  C      0.209880  -13.399120    2.753440
  S     -0.389690  -14.219450    1.344120
  C     -1.671860  -14.911380    2.253710
  C     -1.677350  -14.535730    3.557400
  C     -2.686510  -15.067630    4.520990
  C     -0.590940  -13.651420    3.869430
  C     -0.295330  -13.073130    5.144820
  C     -1.138740  -12.872380    6.186960
  C     -0.716950  -12.254870    7.388680
  C     -1.547850  -11.979760    8.430610
  C     -1.153290  -11.336930    9.619490
  S      0.478540  -10.822970    9.893960
  C      0.119290  -10.155420   11.459160
  C     -1.232670  -10.328270   11.764190
  C     -1.957780  -11.000340   10.724810
  C     -3.324660  -11.249300   10.883460
  C     -3.947120  -10.841670   12.040140
  N     -5.344580  -11.094310   12.205830
  O     -5.929690  -11.669900   11.305770
  O     -5.874020  -10.721080   13.235630
  C     -3.242630  -10.178030   13.071880
  C     -1.911830   -9.926450   12.937070
  C      1.119350   -9.525920   12.243070
  C      2.409470   -9.406750   11.860840
  C      3.448430   -8.794690   12.649770
  C      3.363660   -8.792270   14.015210
  S      4.719940   -8.128810   14.822910
  C      5.471380   -7.815310   13.288760
  C      4.686760   -8.194840   12.188800
  C      5.165770   -7.900060   10.883200
  C      4.249200   -8.087570    9.699520
  C      3.050730   -7.138020    9.760050
  C      6.443800   -7.382630   10.710530
  C      6.996040   -7.059370    9.345550
  C      6.596850   -5.649560    8.906170
  C      7.254970   -7.079280   11.831780
  C      8.580750   -6.517520   11.910770
  C      8.950970   -6.261670   13.190490
  S      7.783610   -6.705980   14.378890
  C      6.723770   -7.250430   13.118650
  C      9.534700   -6.250530   10.824600
  C      9.968940   -5.039110   10.519810
  H     12.467290   -8.148030   -9.090970
  H     12.466950   -8.994860   -7.458980
  H     10.447970   -6.506610   -9.628980
  H      8.287170   -5.625750   -8.547910
  H      6.456140   -5.176690   -7.179560
  H      4.714780   -5.056540   -5.294390
  H      4.173090   -6.106830   -3.045140
  H      7.473800   -6.657260   -1.638590
  H      1.482010   -8.471370   -2.433330
  H      2.700320   -7.241670   -2.600670
  H      2.784920   -9.985930   -3.949680
  H      4.018260   -8.740780   -4.121940
  H      2.390330   -8.457300   -4.743280
  H      1.567200  -11.665830   -0.969470
  H      1.262230  -10.399670   -2.119760
  H      0.568300  -10.247750    0.854070
  H     -0.574860  -10.518290   -0.462700
  H      0.268020   -8.971070   -0.322870
  H      4.122790  -12.243250    3.208380
  H      1.592180  -12.707150    0.593060
  H      1.703590  -12.097010    3.572030
  H     -2.357240  -15.574400    1.762870
  H     -3.182350  -15.935640    4.092140
  H     -3.448810  -14.319250    4.736570
  H     -2.209090  -15.360000    5.453980
  H      0.721820  -12.723620    5.270670
  H     -2.181440  -13.137400    6.120160
  H      0.327190  -11.977330    7.469880
  H     -2.590960  -12.256150    8.357430
  H     -3.899740  -11.752580   10.121910
  H     -3.788590   -9.883830   13.954130
  H     -1.370980   -9.420980   13.721200
  H      0.787990   -9.102440   13.180250
  H      2.687530   -9.829240   10.908100
  H      2.572580   -9.208120   14.607720
  H      4.778020   -7.890610    8.771250
  H      3.907360   -9.121430    9.647060
  H      3.391820   -6.105300    9.785310
  H      2.445030   -7.315040   10.644220
  H      2.423710   -7.273920    8.881460
  H      6.669440   -7.789150    8.604310
  H      8.080980   -7.108560    9.378490
  H      5.516610   -5.548600    8.845520
  H      7.021330   -5.426180    7.930000
  H      6.970640   -4.918880    9.619790
  H      9.886210   -5.846990   13.513380
  H      9.937580   -7.122550   10.321560
  H      9.589100   -4.163390   11.019420
  H     10.704690   -4.874330    9.751660

 Total Charge           Charge          ....    0
 Multiplicity           Mult            ....    1
 Number of Electrons    NEL             ....  566
 Basis Dimension        Dim             .... 1285

ORBITAL ENERGIES
----------------

  NO   OCC          E(Eh)            E(eV)
   0   2.0000     -88.968973     -2420.9688
   1   2.0000     -88.949688     -2420.4441
   2   2.0000     -88.948611     -2420.4148
   3   2.0000     -88.947614     -2420.3876
   4   2.0000     -88.946443     -2420.3558
   5   2.0000     -88.944904     -2420.3139
   6   2.0000     -88.935278     -2420.0520
   7   2.0000     -88.931433     -2419.9473
   8   2.0000     -19.229437      -523.2596
   9   2.0000     -19.227388      -523.2038
  10   2.0000     -14.634307      -398.2197
  11   2.0000     -10.318261      -280.7741
  12   2.0000     -10.313142      -280.6348
  13   2.0000     -10.306815      -280.4627
  14   2.0000     -10.302660      -280.3496
  15   2.0000     -10.301848      -280.3275
  16   2.0000     -10.301250      -280.3113
  17   2.0000     -10.300650      -280.2949
  18   2.0000     -10.298044      -280.2240
  19   2.0000     -10.297523      -280.2098
  20   2.0000     -10.294428      -280.1256
  21   2.0000     -10.293381      -280.0971
  22   2.0000     -10.292745      -280.0798
  23   2.0000     -10.292559      -280.0748
  24   2.0000     -10.292123      -280.0629
  25   2.0000     -10.290519      -280.0192
  26   2.0000     -10.290159      -280.0095
  27   2.0000     -10.288773      -279.9717
  28   2.0000     -10.288431      -279.9624
  29   2.0000     -10.287493      -279.9369
  30   2.0000     -10.284744      -279.8621
  31   2.0000     -10.284698      -279.8609
  32   2.0000     -10.284567      -279.8573
  33   2.0000     -10.284483      -279.8550
  34   2.0000     -10.283496      -279.8282
  35   2.0000     -10.282634      -279.8047
  36   2.0000     -10.282434      -279.7993
  37   2.0000     -10.281956      -279.7863
  38   2.0000     -10.281539      -279.7749
  39   2.0000     -10.280833      -279.7557
  40   2.0000     -10.280402      -279.7440
  41   2.0000     -10.280046      -279.7343
  42   2.0000     -10.279712      -279.7252
  43   2.0000     -10.279231      -279.7121
  44   2.0000     -10.279054      -279.7073
  45   2.0000     -10.278399      -279.6895
  46   2.0000     -10.278104      -279.6814
  47   2.0000     -10.277319      -279.6601
  48   2.0000     -10.276726      -279.6439
  49   2.0000     -10.276484      -279.6373
  50   2.0000     -10.275948      -279.6228
  51   2.0000     -10.275844      -279.6199
  52   2.0000     -10.275670      -279.6152
  53   2.0000     -10.275043      -279.5981
  54   2.0000     -10.274684      -279.5884
  55   2.0000     -10.274411      -279.5809
  56   2.0000     -10.273111      -279.5456
  57   2.0000     -10.271387      -279.4986
  58   2.0000     -10.270129      -279.4644
  59   2.0000     -10.270028      -279.4617
  60   2.0000     -10.269690      -279.4525
  61   2.0000     -10.266677      -279.3705
  62   2.0000     -10.263596      -279.2867
  63   2.0000     -10.262888      -279.2674
  64   2.0000     -10.262241      -279.2498
  65   2.0000     -10.260316      -279.1974
  66   2.0000     -10.260183      -279.1938
  67   2.0000     -10.257711      -279.1265
  68   2.0000     -10.249685      -278.9081
  69   2.0000     -10.249627      -278.9065
  70   2.0000     -10.249203      -278.8950
  71   2.0000     -10.248771      -278.8832
  72   2.0000      -8.063770      -219.4263
  73   2.0000      -8.045931      -218.9409
  74   2.0000      -8.044524      -218.9026
  75   2.0000      -8.043926      -218.8863
  76   2.0000      -8.042712      -218.8533
  77   2.0000      -8.041284      -218.8145
  78   2.0000      -8.031200      -218.5401
  79   2.0000      -8.028112      -218.4560
  80   2.0000      -6.032654      -164.1569
  81   2.0000      -6.028765      -164.0510
  82   2.0000      -6.026633      -163.9930
  83   2.0000      -6.015386      -163.6870
  84   2.0000      -6.013730      -163.6419
  85   2.0000      -6.013391      -163.6327
  86   2.0000      -6.012177      -163.5996
  87   2.0000      -6.011172      -163.5723
  88   2.0000      -6.010787      -163.5618
  89   2.0000      -6.009609      -163.5298
  90   2.0000      -6.009210      -163.5189
  91   2.0000      -6.007995      -163.4858
  92   2.0000      -6.007679      -163.4773
  93   2.0000      -6.006797      -163.4533
  94   2.0000      -6.006605      -163.4480
  95   2.0000      -6.005605      -163.4208
  96   2.0000      -6.004400      -163.3880
  97   2.0000      -6.002864      -163.3462
  98   2.0000      -6.001088      -163.2979
  99   2.0000      -5.997970      -163.2131
 100   2.0000      -5.997075      -163.1887
 101   2.0000      -5.994079      -163.1072
 102   2.0000      -5.991799      -163.0451
 103   2.0000      -5.988555      -162.9569
 104   2.0000      -1.307091       -35.5677
 105   2.0000      -1.125177       -30.6176
 106   2.0000      -1.003944       -27.3187
 107   2.0000      -0.997673       -27.1481
 108   2.0000      -0.997646       -27.1473
 109   2.0000      -0.985199       -26.8086
 110   2.0000      -0.981746       -26.7147
 111   2.0000      -0.968355       -26.3503
 112   2.0000      -0.967597       -26.3296
 113   2.0000      -0.960052       -26.1244
 114   2.0000      -0.955523       -26.0011
 115   2.0000      -0.921859       -25.0851
 116   2.0000      -0.920701       -25.0536
 117   2.0000      -0.920353       -25.0441
 118   2.0000      -0.903689       -24.5906
 119   2.0000      -0.901419       -24.5289
 120   2.0000      -0.888576       -24.1794
 121   2.0000      -0.887802       -24.1583
 122   2.0000      -0.882123       -24.0038
 123   2.0000      -0.868293       -23.6275
 124   2.0000      -0.864808       -23.5326
 125   2.0000      -0.863156       -23.4877
 126   2.0000      -0.860277       -23.4093
 127   2.0000      -0.853945       -23.2370
 128   2.0000      -0.848741       -23.0954
 129   2.0000      -0.847326       -23.0569
 130   2.0000      -0.845179       -22.9985
 131   2.0000      -0.838816       -22.8253
 132   2.0000      -0.830828       -22.6080
 133   2.0000      -0.823273       -22.4024
 134   2.0000      -0.817900       -22.2562
 135   2.0000      -0.812336       -22.1048
 136   2.0000      -0.810831       -22.0638
 137   2.0000      -0.809280       -22.0216
 138   2.0000      -0.793710       -21.5979
 139   2.0000      -0.787409       -21.4265
 140   2.0000      -0.779957       -21.2237
 141   2.0000      -0.779509       -21.2115
 142   2.0000      -0.775141       -21.0927
 143   2.0000      -0.761863       -20.7314
 144   2.0000      -0.755631       -20.5618
 145   2.0000      -0.746023       -20.3003
 146   2.0000      -0.725093       -19.7308
 147   2.0000      -0.715131       -19.4597
 148   2.0000      -0.713567       -19.4172
 149   2.0000      -0.713225       -19.4078
 150   2.0000      -0.709008       -19.2931
 151   2.0000      -0.702690       -19.1212
 152   2.0000      -0.697400       -18.9772
 153   2.0000      -0.688014       -18.7218
 154   2.0000      -0.687490       -18.7076
 155   2.0000      -0.686999       -18.6942
 156   2.0000      -0.681267       -18.5382
 157   2.0000      -0.672876       -18.3099
 158   2.0000      -0.671819       -18.2811
 159   2.0000      -0.659231       -17.9386
 160   2.0000      -0.647795       -17.6274
 161   2.0000      -0.645475       -17.5643
 162   2.0000      -0.642472       -17.4826
 163   2.0000      -0.639867       -17.4117
 164   2.0000      -0.638884       -17.3849
 165   2.0000      -0.627755       -17.0821
 166   2.0000      -0.623128       -16.9562
 167   2.0000      -0.621037       -16.8993
 168   2.0000      -0.618198       -16.8220
 169   2.0000      -0.616704       -16.7814
 170   2.0000      -0.615915       -16.7599
 171   2.0000      -0.609269       -16.5790
 172   2.0000      -0.607457       -16.5297
 173   2.0000      -0.597486       -16.2584
 174   2.0000      -0.593270       -16.1437
 175   2.0000      -0.592831       -16.1318
 176   2.0000      -0.592298       -16.1172
 177   2.0000      -0.582395       -15.8478
 178   2.0000      -0.581036       -15.8108
 179   2.0000      -0.577946       -15.7267
 180   2.0000      -0.576708       -15.6930
 181   2.0000      -0.560843       -15.2613
 182   2.0000      -0.554340       -15.0844
 183   2.0000      -0.548980       -14.9385
 184   2.0000      -0.548056       -14.9134
 185   2.0000      -0.545476       -14.8432
 186   2.0000      -0.539612       -14.6836
 187   2.0000      -0.535691       -14.5769
 188   2.0000      -0.534525       -14.5452
 189   2.0000      -0.529904       -14.4194
 190   2.0000      -0.529048       -14.3961
 191   2.0000      -0.528919       -14.3926
 192   2.0000      -0.524748       -14.2791
 193   2.0000      -0.522947       -14.2301
 194   2.0000      -0.518222       -14.1015
 195   2.0000      -0.512316       -13.9408
 196   2.0000      -0.511048       -13.9063
 197   2.0000      -0.509664       -13.8687
 198   2.0000      -0.508663       -13.8414
 199   2.0000      -0.506326       -13.7778
 200   2.0000      -0.505821       -13.7641
 201   2.0000      -0.504259       -13.7216
 202   2.0000      -0.500173       -13.6104
 203   2.0000      -0.499572       -13.5940
 204   2.0000      -0.498267       -13.5585
 205   2.0000      -0.496664       -13.5149
 206   2.0000      -0.494940       -13.4680
 207   2.0000      -0.491617       -13.3776
 208   2.0000      -0.487685       -13.2706
 209   2.0000      -0.486531       -13.2392
 210   2.0000      -0.484441       -13.1823
 211   2.0000      -0.483947       -13.1689
 212   2.0000      -0.479653       -13.0520
 213   2.0000      -0.477890       -13.0041
 214   2.0000      -0.477229       -12.9861
 215   2.0000      -0.475587       -12.9414
 216   2.0000      -0.472008       -12.8440
 217   2.0000      -0.470862       -12.8128
 218   2.0000      -0.469182       -12.7671
 219   2.0000      -0.468522       -12.7491
 220   2.0000      -0.461884       -12.5685
 221   2.0000      -0.460369       -12.5273
 222   2.0000      -0.456953       -12.4343
 223   2.0000      -0.454574       -12.3696
 224   2.0000      -0.453473       -12.3396
 225   2.0000      -0.450453       -12.2575
 226   2.0000      -0.449905       -12.2425
 227   2.0000      -0.448838       -12.2135
 228   2.0000      -0.448175       -12.1955
 229   2.0000      -0.445232       -12.1154
 230   2.0000      -0.442056       -12.0289
 231   2.0000      -0.441338       -12.0094
 232   2.0000      -0.439078       -11.9479
 233   2.0000      -0.437250       -11.8982
 234   2.0000      -0.436390       -11.8748
 235   2.0000      -0.433899       -11.8070
 236   2.0000      -0.431275       -11.7356
 237   2.0000      -0.430338       -11.7101
 238   2.0000      -0.427695       -11.6382
 239   2.0000      -0.425039       -11.5659
 240   2.0000      -0.423284       -11.5181
 241   2.0000      -0.421233       -11.4623
 242   2.0000      -0.420134       -11.4324
 243   2.0000      -0.419335       -11.4107
 244   2.0000      -0.419194       -11.4069
 245   2.0000      -0.415074       -11.2947
 246   2.0000      -0.413758       -11.2589
 247   2.0000      -0.412357       -11.2208
 248   2.0000      -0.409544       -11.1443
 249   2.0000      -0.409096       -11.1321
 250   2.0000      -0.403760       -10.9869
 251   2.0000      -0.402105       -10.9418
 252   2.0000      -0.398998       -10.8573
 253   2.0000      -0.394565       -10.7367
 254   2.0000      -0.391609       -10.6562
 255   2.0000      -0.386193       -10.5088
 256   2.0000      -0.381852       -10.3907
 257   2.0000      -0.380665       -10.3584
 258   2.0000      -0.376346       -10.2409
 259   2.0000      -0.375054       -10.2057
 260   2.0000      -0.371456       -10.1078
 261   2.0000      -0.368567       -10.0292
 262   2.0000      -0.368178       -10.0186
 263   2.0000      -0.363037        -9.8787
 264   2.0000      -0.354862        -9.6563
 265   2.0000      -0.346333        -9.4242
 266   2.0000      -0.344766        -9.3816
 267   2.0000      -0.340730        -9.2717
 268   2.0000      -0.332307        -9.0425
 269   2.0000      -0.328153        -8.9295
 270   2.0000      -0.325905        -8.8683
 271   2.0000      -0.323835        -8.8120
 272   2.0000      -0.319930        -8.7057
 273   2.0000      -0.316404        -8.6098
 274   2.0000      -0.303969        -8.2714
 275   2.0000      -0.294025        -8.0008
 276   2.0000      -0.281594        -7.6626
 277   2.0000      -0.267168        -7.2700
 278   2.0000      -0.265762        -7.2318
 279   2.0000      -0.264334        -7.1929
 280   2.0000      -0.250016        -6.8033
 281   2.0000      -0.220666        -6.0046
 282   2.0000      -0.218301        -5.9403
 283   0.0000      -0.077341        -2.1045
 284   0.0000      -0.051234        -1.3941
 285   0.0000      -0.033297        -0.9061
 286   0.0000      -0.026896        -0.7319
 287   0.0000      -0.002599        -0.0707

MULLIKEN ATOMIC CHARGES
-----------------------
   0 C :   -0.034128
   1 C :   -0.062676
   2 C :    0.053612
   3 C :    0.027073
   4 C :   -0.070836
   5 S :    0.074466
   6 C :   -0.059319
   7 C :    0.037447
   8 C :    0.032809
   9 C :   -0.031235
  10 S :    0.077774
  11 C :   -0.065896
  12 C :    0.044571
  13 C :   -0.113943
  14 S :    0.126694
  15 C :   -0.145869
  16 C :    0.117799
  17 C :   -0.126074
  18 C :    0.035479
  19 C :    0.043311
  20 C :   -0.126231
  21 C :    0.034292
  22 C :    0.038525
  23 C :    0.125046
  24 C :    0.069178
  25 C :   -0.123268
  26 S :    0.123439
  27 C :   -0.150408
  28 C :   -0.049849
  29 C :    0.016066
  30 C :   -0.129201
  31 S :    0.091413
  32 C :   -0.109899
  33 C :   -0.091973
  34 C :    0.113597
  35 C :    0.146896
  36 C :   -0.047573
  37 C :    0.011089
  38 C :    0.011914
  39 C :   -0.012457
  40 C :   -0.068871
  41 S :    0.119749
  42 C :   -0.092887
  43 C :    0.126754
  44 C :    0.118671
  45 C :   -0.091960
  46 C :    0.161186
  47 N :    0.246591
  48 O :   -0.247332
  49 O :   -0.241123
  50 C :   -0.027342
  51 C :   -0.024117
  52 C :    0.000429
  53 C :   -0.040280
  54 C :    0.073180
  55 C :   -0.124360
  56 S :    0.131731
  57 C :   -0.157403
  58 C :    0.123986
  59 C :   -0.124461
  60 C :    0.050455
  61 C :    0.013869
  62 C :   -0.127368
  63 C :    0.053459
  64 C :    0.047744
  65 C :    0.105596
  66 C :    0.023282
  67 C :   -0.101456
  68 S :    0.114502
  69 C :   -0.132479
  70 C :   -0.055700
  71 C :   -0.007405
  72 H :    0.017116
  73 H :    0.020523
  74 H :   -0.014324
  75 H :   -0.013152
  76 H :   -0.017318
  77 H :   -0.014237
  78 H :    0.003264
  79 H :    0.029171
  80 H :   -0.000657
  81 H :   -0.009200
  82 H :    0.005498
  83 H :    0.028326
  84 H :    0.008689
  85 H :   -0.003153
  86 H :   -0.002116
  87 H :    0.023586
  88 H :    0.012614
  89 H :    0.004348
  90 H :    0.017622
  91 H :    0.017044
  92 H :   -0.015609
  93 H :    0.012870
  94 H :    0.006797
  95 H :    0.038902
  96 H :    0.029178
  97 H :   -0.018271
  98 H :   -0.022643
  99 H :   -0.009179
 100 H :   -0.012801
 101 H :    0.001128
 102 H :    0.004233
 103 H :   -0.022245
 104 H :   -0.016905
 105 H :   -0.001852
 106 H :    0.017152
 107 H :   -0.009704
 108 H :    0.000173
 109 H :    0.013464
 110 H :    0.029129
 111 H :    0.012250
 112 H :    0.005147
 113 H :   -0.021426
 114 H :    0.001662
 115 H :    0.011076
 116 H :    0.009301
 117 H :    0.015369
 118 H :    0.035562
 119 H :    0.021674
 120 H :    0.023630
Sum of atomic charges:   -0.0000000

LOEWDIN ATOMIC CHARGES
----------------------
   0 C :   -0.081753
   1 C :   -0.138841
   2 C :   -0.033490
   3 C :   -0.026968
   4 C :   -0.180492
   5 S :    0.345108
   6 C :   -0.181961
   7 C :   -0.030766
   8 C :   -0.034057
   9 C :   -0.141011
  10 S :    0.360177
  11 C :   -0.055642
  12 C :   -0.070091
  13 C :   -0.171842
  14 S :    0.414594
  15 C :   -0.178388
  16 C :   -0.040224
  17 C :   -0.019473
  18 C :   -0.030985
  19 C :   -0.049935
  20 C :   -0.020270
  21 C :   -0.030579
  22 C :   -0.050734
  23 C :   -0.041450
  24 C :   -0.062510
  25 C :   -0.170506
  26 S :    0.410799
  27 C :   -0.177783
  28 C :   -0.018257
  29 C :   -0.042626
  30 C :   -0.160909
  31 S :    0.429327
  32 C :   -0.190704
  33 C :   -0.054036
  34 C :   -0.045238
  35 C :   -0.064963
  36 C :   -0.010616
  37 C :   -0.032445
  38 C :   -0.016311
  39 C :   -0.052283
  40 C :   -0.158072
  41 S :    0.476202
  42 C :   -0.171392
  43 C :   -0.041681
  44 C :   -0.052330
  45 C :    0.026383
  46 C :   -0.044687
  47 N :    0.286440
  48 O :   -0.218154
  49 O :   -0.209984
  50 C :   -0.019632
  51 C :   -0.009153
  52 C :   -0.044874
  53 C :   -0.019659
  54 C :   -0.065834
  55 C :   -0.169001
  56 S :    0.419068
  57 C :   -0.177362
  58 C :   -0.040181
  59 C :   -0.023252
  60 C :   -0.030029
  61 C :   -0.051342
  62 C :   -0.019336
  63 C :   -0.029882
  64 C :   -0.047746
  65 C :   -0.043723
  66 C :   -0.063001
  67 C :   -0.167014
  68 S :    0.402076
  69 C :   -0.178874
  70 C :   -0.020024
  71 C :   -0.042910
  72 H :    0.027512
  73 H :    0.025635
  74 H :    0.032351
  75 H :    0.031296
  76 H :    0.030389
  77 H :    0.032023
  78 H :    0.030604
  79 H :    0.020494
  80 H :    0.024697
  81 H :    0.023009
  82 H :    0.022273
  83 H :    0.027719
  84 H :    0.022342
  85 H :    0.024048
  86 H :    0.025252
  87 H :    0.025700
  88 H :    0.023906
  89 H :    0.022199
  90 H :    0.021611
  91 H :    0.019041
  92 H :    0.028926
  93 H :    0.021078
  94 H :    0.033000
  95 H :    0.034285
  96 H :    0.034887
  97 H :    0.026642
  98 H :    0.027951
  99 H :    0.020507
 100 H :    0.033671
 101 H :    0.038891
 102 H :    0.039193
 103 H :    0.030871
 104 H :    0.030291
 105 H :    0.018540
 106 H :    0.020872
 107 H :    0.025766
 108 H :    0.022231
 109 H :    0.023589
 110 H :    0.025265
 111 H :    0.024339
 112 H :    0.023926
 113 H :    0.027194
 114 H :    0.020471
 115 H :    0.024032
 116 H :    0.024750
 117 H :    0.023556
 118 H :    0.032487
 119 H :    0.023750
 120 H :    0.024026

  Mayer bond orders larger than 0.100000
B(  0-C ,  1-C ) :   1.8691 B(  0-C , 72-H ) :   0.9504 B(  0-C , 73-H ) :   0.9422
B(  1-C ,  2-C ) :   1.0758 B(  1-C ,  5-S ) :   1.0077 B(  2-C ,  3-C ) :   1.6717
B(  2-C , 74-H ) :   0.9926 B(  3-C ,  4-C ) :   1.1430 B(  3-C , 75-H ) :   0.9912
B(  4-C ,  5-S ) :   1.0359 B(  4-C ,  6-C ) :   1.5918 B(  6-C ,  7-C ) :   1.1471
B(  6-C , 10-S ) :   1.0247 B(  7-C ,  8-C ) :   1.6470 B(  7-C , 76-H ) :   0.9914
B(  8-C ,  9-C ) :   1.0947 B(  8-C , 77-H ) :   0.9961 B(  9-C , 10-S ) :   1.0165
B(  9-C , 11-C ) :   1.7325 B( 11-C , 12-C ) :   0.9838 B( 11-C , 78-H ) :   0.9577
B( 12-C , 13-C ) :   1.6113 B( 12-C , 16-C ) :   1.1580 B( 13-C , 14-S ) :   1.1182
B( 13-C , 79-H ) :   0.9606 B( 14-S , 15-C ) :   1.0793 B( 15-C , 16-C ) :   1.3759
B( 15-C , 27-C ) :   1.3720 B( 16-C , 17-C ) :   1.2519 B( 17-C , 18-C ) :   1.0647
B( 17-C , 20-C ) :   1.5300 B( 18-C , 19-C ) :   1.1058 B( 18-C , 80-H ) :   0.9125
B( 18-C , 81-H ) :   0.9246 B( 19-C , 82-H ) :   0.9588 B( 19-C , 83-H ) :   0.9654
B( 19-C , 84-H ) :   0.9654 B( 20-C , 21-C ) :   1.0608 B( 20-C , 23-C ) :   1.2519
B( 21-C , 22-C ) :   1.1057 B( 21-C , 85-H ) :   0.9275 B( 21-C , 86-H ) :   0.9103
B( 22-C , 87-H ) :   0.9637 B( 22-C , 88-H ) :   0.9658 B( 22-C , 89-H ) :   0.9578
B( 23-C , 24-C ) :   1.1472 B( 23-C , 27-C ) :   1.3731 B( 24-C , 25-C ) :   1.6131
B( 24-C , 28-C ) :   1.0170 B( 25-C , 26-S ) :   1.1117 B( 25-C , 90-H ) :   0.9631
B( 26-S , 27-C ) :   1.0800 B( 28-C , 29-C ) :   1.7517 B( 28-C , 91-H ) :   0.9567
B( 29-C , 30-C ) :   1.1372 B( 29-C , 92-H ) :   0.9676 B( 30-C , 31-S ) :   1.1416
B( 30-C , 35-C ) :   1.4206 B( 31-S , 32-C ) :   1.1257 B( 32-C , 33-C ) :   1.6255
B( 32-C , 93-H ) :   0.9657 B( 33-C , 34-C ) :   1.0939 B( 33-C , 35-C ) :   1.2089
B( 34-C , 94-H ) :   0.9455 B( 34-C , 95-H ) :   0.9390 B( 34-C , 96-H ) :   0.9464
B( 35-C , 36-C ) :   1.0959 B( 36-C , 37-C ) :   1.6439 B( 36-C , 97-H ) :   0.9645
B( 37-C , 38-C ) :   1.1464 B( 37-C , 98-H ) :   0.9885 B( 38-C , 39-C ) :   1.5938
B( 38-C , 99-H ) :   0.9856 B( 39-C , 40-C ) :   1.1891 B( 39-C ,100-H ) :   0.9716
B( 40-C , 41-S ) :   1.1477 B( 40-C , 42-C ) :   0.1005 B( 40-C , 44-C ) :   1.3023
B( 41-S , 42-C ) :   1.1233 B( 42-C , 43-C ) :   1.3624 B( 42-C , 52-C ) :   1.1625
B( 43-C , 44-C ) :   1.1860 B( 43-C , 51-C ) :   1.1850 B( 44-C , 45-C ) :   1.1801
B( 45-C , 46-C ) :   1.4959 B( 45-C ,101-H ) :   0.9884 B( 46-C , 47-N ) :   0.8970
B( 46-C , 50-C ) :   1.2148 B( 47-N , 48-O ) :   1.5511 B( 47-N , 49-O ) :   1.5627
B( 48-O , 49-O ) :   0.2622 B( 50-C , 51-C ) :   1.5337 B( 50-C ,102-H ) :   0.9830
B( 51-C ,103-H ) :   0.9927 B( 52-C , 53-C ) :   1.6949 B( 52-C ,104-H ) :   0.9684
B( 53-C , 54-C ) :   1.0453 B( 53-C ,105-H ) :   0.9662 B( 54-C , 55-C ) :   1.5957
B( 54-C , 58-C ) :   1.1360 B( 55-C , 56-S ) :   1.1217 B( 55-C ,106-H ) :   0.9607
B( 56-S , 57-C ) :   1.0790 B( 57-C , 58-C ) :   1.3793 B( 57-C , 69-C ) :   1.3701
B( 58-C , 59-C ) :   1.2364 B( 59-C , 60-C ) :   1.0729 B( 59-C , 62-C ) :   1.5191
B( 60-C , 61-C ) :   1.1016 B( 60-C ,107-H ) :   0.9092 B( 60-C ,108-H ) :   0.9243
B( 61-C ,109-H ) :   0.9571 B( 61-C ,110-H ) :   0.9639 B( 61-C ,111-H ) :   0.9660
B( 62-C , 63-C ) :   1.0719 B( 62-C , 65-C ) :   1.2666 B( 63-C , 64-C ) :   1.1072
B( 63-C ,112-H ) :   0.9160 B( 63-C ,113-H ) :   0.9021 B( 64-C ,114-H ) :   0.9667
B( 64-C ,115-H ) :   0.9635 B( 64-C ,116-H ) :   0.9616 B( 65-C , 66-C ) :   1.1594
B( 65-C , 69-C ) :   1.3745 B( 66-C , 67-C ) :   1.6573 B( 66-C , 70-C ) :   0.9852
B( 67-C , 68-S ) :   1.1024 B( 67-C ,117-H ) :   0.9664 B( 68-S , 69-C ) :   1.0809
B( 70-C , 71-C ) :   2.0077 B( 70-C ,118-H ) :   0.9398 B( 71-C ,119-H ) :   0.9568
B( 71-C ,120-H ) :   0.9562

-----------------------------------------------------------------------------
         ABSORPTION SPECTRUM VIA TRANSITION ELECTRIC DIPOLE MOMENTS
-----------------------------------------------------------------------------
State   Energy  Wavelength   fosc         T2         TX        TY        TZ
        (cm-1)    (nm)                  (au**2)     (au)      (au)      (au)
-----------------------------------------------------------------------------
   0   16103.9    621.0   0.841348218  17.19963   0.07032   1.41925   3.89621
   1   22107.9    452.3   1.265010527  18.83747  -3.03305   0.08423   3.10338
   2   23940.2    417.7   0.055504118   0.76326  -0.65154  -0.27862   0.51101
   3   24158.4    413.9   0.051805601   0.70597   0.55940   0.29434  -0.55353
   4   24990.5    400.2   0.483565515   6.37024   2.12195   0.80903   1.10139
   5   27404.6    364.9   0.491878604   5.90895  -2.14912  -0.92485   0.65946
   6   27745.7    360.4   0.286598312   3.40059  -1.17185   0.20103   1.40959
   7   28584.4    349.8   0.027654715   0.31850   0.47441  -0.00695  -0.30560
   8   29743.8    336.2   0.000492972   0.00546   0.01254  -0.02864   0.06693
   9   30307.9    329.9   0.027224918   0.29572  -0.11938  -0.46908   0.24785
  10   31225.8    320.2   0.011260323   0.11872   0.01897   0.11366   0.32471
  11   31532.2    317.1   0.192659934   2.01147   1.21668   0.02524  -0.72837
  12   31917.1    313.3   0.085117393   0.87795   0.72918  -0.55419   0.19778
  13   32565.9    307.1   0.011541097   0.11667  -0.13283  -0.05599  -0.30966
  14   32638.2    306.4   0.061778555   0.62314  -0.68409  -0.31958  -0.23029
  15   33070.3    302.4   0.085885874   0.85499   0.69431  -0.60402  -0.08986
  16   33536.7    298.2   0.091980404   0.90292  -0.03133  -0.26118  -0.91308
  17   33752.5    296.3   0.350783873   3.42145   1.36244   1.19943   0.35577
  18   34224.5    292.2   0.093098247   0.89553   0.60921   0.17825  -0.70187
  19   34616.0    288.9   0.003096560   0.02945   0.16447  -0.00655   0.04854
  20   35288.0    283.4   0.002312459   0.02157  -0.14310  -0.00767   0.03223
  21   35806.3    279.3   0.103036694   0.94734  -0.18616  -0.57061   0.76622
  22   36029.5    277.6   0.041993317   0.38371  -0.26493  -0.09143   0.55241
  23   36112.7    276.9   0.150508837   1.37207  -0.79690  -0.40525   0.75684
  24   36366.8    275.0   0.026536176   0.24022  -0.44786  -0.16849   0.10609
  25   36620.4    273.1   0.318745979   2.86548  -1.66576  -0.23978  -0.18231
  26   36973.8    270.5   0.360298916   3.20807   1.57385  -0.23466  -0.82219
  27   37513.8    266.6   0.011926968   0.10467   0.09862   0.14172   0.27360
  28   38108.5    262.4   0.013269345   0.11463   0.03994   0.32167   0.09778
  29   38545.5    259.4   0.180636907   1.54280  -1.16869  -0.31141   0.28282
  30   38572.2    259.3   0.116791923   0.99681  -0.94871  -0.18060   0.25327
  31   39090.5    255.8   0.023963243   0.20181  -0.15522   0.12332   0.40313
  32   39279.5    254.6   0.009192686   0.07705  -0.17218  -0.15783   0.14997
  33   39916.9    250.5   0.321877751   2.65467  -1.06238  -0.47281   1.14126
  34   40181.8    248.9   0.231646610   1.89790  -0.38198   0.46054  -1.24092
  35   40207.7    248.7   0.116066272   0.95033  -0.34942  -0.76043   0.49997

FINAL SINGLE POINT ENERGY     -5740.282145664269

DIPOLE MOMENT
-------------
                                X             Y             Z
Electronic contribution:     10.78600     -10.60691      33.14841
Nuclear contribution   :     -9.29882      11.31067     -35.33551
                        -----------------------------------------
Total Dipole Moment    :      1.48718       0.70376      -2.18710
                        -----------------------------------------
Magnitude (a.u.)       :      2.73686
Magnitude (Debye)      :      6.95655

Rotational constants in cm-1:     0.000756     0.000268     0.000207
Rotational constants in MHz :    22.670121     8.046554     6.212799

                             ****ORCA TERMINATED NORMALLY****
TOTAL RUN TIME: 0 days 0 hours 11 minutes 23 seconds 447 msec
