                         Program Version 4.2.0 -  RELEASE  -
|  1> # ORCA input file
|  2> # SCF done       -159.271692487139          0.006361274655
|  3> ! CAM-B3LYP def2-SVP def2/J RIJCOSX Grid4 TightSCF
|  4> %maxcore 5000
|  5> %tddft
|  6>     Mode sTDDFT
|  7>     Ethresh 5.0
|  8>     maxcore 5000
|  9> end
| 10>
| 11> %pal
| 12>   nprocs 6
| 13>   end
| 14> * xyz 0 1
| 15>    C        2.06041        -1.90068         2.62165
| 16>    S        0.83370        -2.86344         1.87811
| 17>    C        3.27120        -2.50260         2.50524
| 18>    S        4.90691        -2.15931         2.97788
| 19>    C        5.36244        -3.68882         2.21709
| 20>    N        4.43489        -4.37474         1.67939
| 21>    C        3.22967        -3.75836         1.80906
| 22>    C        1.95917        -4.10900         1.39130
| 23>    C        1.59264        -5.26826         0.66253
| 24>    C        0.33430        -5.55097         0.25553
| 25>    C       -0.00928        -6.71362        -0.49136
| 26>    O        0.94183        -7.67346        -0.69554
| 27>    C        0.41987        -8.66616        -1.38570
| 28>    C       -0.90748        -8.41043        -1.66002
| 29>    N       -1.77096        -9.20741        -2.42103
| 30>    O       -1.29880       -10.15786        -3.01221
| 31>    O       -2.95333        -8.88222        -2.45942
| 32>    C       -1.20431        -7.12506        -1.08761
| 33>    N       -2.41753        -6.52973        -1.19317
| 34>    C       -2.68034        -5.18125        -1.15845
| 35>    C       -3.90173        -4.64761        -1.29406
| 36>    C       -5.15674        -5.44398        -1.49668
| 37>    C       -4.05920        -3.14712        -1.29004
| 38>    N       -4.45320        -2.69045        -2.60729
| 39>    C       -5.64530        -2.15313        -2.90794
| 40>    C       -6.16932        -2.14252        -4.16692
| 41>    C       -7.39778        -1.56353        -4.51343
| 42>    C       -8.04497        -1.84685        -5.69115
| 43>    C       -9.30742        -1.40524        -6.14460
| 44>    C       -9.76244        -2.05114        -7.25869
| 45>    C       -8.88557        -3.05103        -7.72988
| 46>    S       -7.41299        -3.06063        -6.80172
| 47>    C       -9.11072        -4.05955        -8.65474
| 48>    C      -10.26081        -4.38401        -9.39570
| 49>    C      -10.20829        -5.62845        -9.96380
| 50>    C       -9.03381        -6.35486        -9.66745
| 51>    S       -7.92801        -5.34300        -8.78897
| 52>    C       -8.76632        -7.67147       -10.03255
| 53>    C       -7.72607        -8.49910        -9.64432
| 54>    C       -6.76052        -8.41877        -8.64067
| 55>    C       -5.51227        -9.18922        -8.84429
| 56>    O       -5.28200        -9.99239        -9.72857
| 57>    C       -4.58119        -8.72953        -7.78620
| 58>    C       -3.26844        -9.03764        -7.59025
| 59>    C       -2.55199        -8.37756        -6.56014
| 60>    C       -3.22349        -7.41686        -5.75147
| 61>    C       -2.48958        -6.71139        -4.77916
| 62>    C       -1.15346        -6.95904        -4.63790
| 63>    C       -0.48052        -7.92182        -5.39618
| 64>    C       -1.18279        -8.62195        -6.34075
| 65>    F       -0.44362        -6.24699        -3.72358
| 66>    C       -4.60152        -7.15944        -5.94492
| 67>    C       -5.26751        -7.80548        -6.94895
| 68>    C       -6.65904        -7.72507        -7.39989
| 69>    C       -7.68674        -7.19665        -6.63420
| 70>    C       -9.04551        -7.39120        -6.93596
| 71>    N      -10.16704        -7.54918        -7.13089
| 72>    C       -7.48938        -6.49456        -5.43417
| 73>    N       -7.38124        -5.88183        -4.46544
| 74>    H        1.80052        -0.97005         3.08334
| 75>    H        6.39130        -3.99000         2.23040
| 76>    H        2.40992        -5.93421         0.42270
| 77>    H       -0.47072        -4.87901         0.51554
| 78>    H        1.03043        -9.51317        -1.63063
| 79>    H       -3.14062        -7.13904        -1.57293
| 80>    H       -1.81418        -4.54819        -1.03320
| 81>    H       -5.63960        -5.64280        -0.53807
| 82>    H       -4.96230        -6.40333        -1.97391
| 83>    H       -5.86463        -4.90154        -2.12203
| 84>    H       -3.11405        -2.66735        -1.00870
| 85>    H       -4.83155        -2.84505        -0.57755
| 86>    H       -3.94331        -3.10944        -3.37373
| 87>    H       -6.18640        -1.71496        -2.07987
| 88>    H       -5.64057        -2.67527        -4.94696
| 89>    H       -7.89064        -0.91172        -3.80430
| 90>    H       -9.85682        -0.64367        -5.61846
| 91>    H      -10.71499        -1.86787        -7.72269
| 92>    H      -11.10445        -3.72067        -9.46327
| 93>    H      -11.00886        -6.06859       -10.53203
| 94>    H       -9.45671        -8.08453       -10.75868
| 95>    H       -7.57298        -9.36761       -10.28164
| 96>    H       -2.77012        -9.75999        -8.22126
| 97>    H       -2.97983        -5.97713        -4.15733
| 98>    H        0.57115        -8.09182        -5.22854
| 99>    H       -0.68439        -9.37117        -6.93791
|100>    H       -5.08810        -6.43796        -5.30802
|101> *
|102>
|103>                          ****END OF INPUT****

CARTESIAN COORDINATES (ANGSTROEM)
---------------------------------
  C      2.060410   -1.900680    2.621650
  S      0.833700   -2.863440    1.878110
  C      3.271200   -2.502600    2.505240
  S      4.906910   -2.159310    2.977880
  C      5.362440   -3.688820    2.217090
  N      4.434890   -4.374740    1.679390
  C      3.229670   -3.758360    1.809060
  C      1.959170   -4.109000    1.391300
  C      1.592640   -5.268260    0.662530
  C      0.334300   -5.550970    0.255530
  C     -0.009280   -6.713620   -0.491360
  O      0.941830   -7.673460   -0.695540
  C      0.419870   -8.666160   -1.385700
  C     -0.907480   -8.410430   -1.660020
  N     -1.770960   -9.207410   -2.421030
  O     -1.298800  -10.157860   -3.012210
  O     -2.953330   -8.882220   -2.459420
  C     -1.204310   -7.125060   -1.087610
  N     -2.417530   -6.529730   -1.193170
  C     -2.680340   -5.181250   -1.158450
  C     -3.901730   -4.647610   -1.294060
  C     -5.156740   -5.443980   -1.496680
  C     -4.059200   -3.147120   -1.290040
  N     -4.453200   -2.690450   -2.607290
  C     -5.645300   -2.153130   -2.907940
  C     -6.169320   -2.142520   -4.166920
  C     -7.397780   -1.563530   -4.513430
  C     -8.044970   -1.846850   -5.691150
  C     -9.307420   -1.405240   -6.144600
  C     -9.762440   -2.051140   -7.258690
  C     -8.885570   -3.051030   -7.729880
  S     -7.412990   -3.060630   -6.801720
  C     -9.110720   -4.059550   -8.654740
  C    -10.260810   -4.384010   -9.395700
  C    -10.208290   -5.628450   -9.963800
  C     -9.033810   -6.354860   -9.667450
  S     -7.928010   -5.343000   -8.788970
  C     -8.766320   -7.671470  -10.032550
  C     -7.726070   -8.499100   -9.644320
  C     -6.760520   -8.418770   -8.640670
  C     -5.512270   -9.189220   -8.844290
  O     -5.282000   -9.992390   -9.728570
  C     -4.581190   -8.729530   -7.786200
  C     -3.268440   -9.037640   -7.590250
  C     -2.551990   -8.377560   -6.560140
  C     -3.223490   -7.416860   -5.751470
  C     -2.489580   -6.711390   -4.779160
  C     -1.153460   -6.959040   -4.637900
  C     -0.480520   -7.921820   -5.396180
  C     -1.182790   -8.621950   -6.340750
  F     -0.443620   -6.246990   -3.723580
  C     -4.601520   -7.159440   -5.944920
  C     -5.267510   -7.805480   -6.948950
  C     -6.659040   -7.725070   -7.399890
  C     -7.686740   -7.196650   -6.634200
  C     -9.045510   -7.391200   -6.935960
  N    -10.167040   -7.549180   -7.130890
  C     -7.489380   -6.494560   -5.434170
  N     -7.381240   -5.881830   -4.465440
  H      1.800520   -0.970050    3.083340
  H      6.391300   -3.990000    2.230400
  H      2.409920   -5.934210    0.422700
  H     -0.470720   -4.879010    0.515540
  H      1.030430   -9.513170   -1.630630
  H     -3.140620   -7.139040   -1.572930
  H     -1.814180   -4.548190   -1.033200
  H     -5.639600   -5.642800   -0.538070
  H     -4.962300   -6.403330   -1.973910
  H     -5.864630   -4.901540   -2.122030
  H     -3.114050   -2.667350   -1.008700
  H     -4.831550   -2.845050   -0.577550
  H     -3.943310   -3.109440   -3.373730
  H     -6.186400   -1.714960   -2.079870
  H     -5.640570   -2.675270   -4.946960
  H     -7.890640   -0.911720   -3.804300
  H     -9.856820   -0.643670   -5.618460
  H    -10.714990   -1.867870   -7.722690
  H    -11.104450   -3.720670   -9.463270
  H    -11.008860   -6.068590  -10.532030
  H     -9.456710   -8.084530  -10.758680
  H     -7.572980   -9.367610  -10.281640
  H     -2.770120   -9.759990   -8.221260
  H     -2.979830   -5.977130   -4.157330
  H      0.571150   -8.091820   -5.228540
  H     -0.684390   -9.371170   -6.937910
  H     -5.088100   -6.437960   -5.308020

 Total Charge           Charge          ....    0
 Multiplicity           Mult            ....    1
 Number of Electrons    NEL             ....  438
 Basis Dimension        Dim             ....  977

ORBITAL ENERGIES
----------------

  NO   OCC          E(Eh)            E(eV)
   0   2.0000     -88.965163     -2420.8652
   1   2.0000     -88.958360     -2420.6800
   2   2.0000     -88.951480     -2420.4928
   3   2.0000     -88.948556     -2420.4133
   4   2.0000     -24.781165      -674.3298
   5   2.0000     -19.317014      -525.6427
   6   2.0000     -19.250573      -523.8347
   7   2.0000     -19.248623      -523.7817
   8   2.0000     -19.180343      -521.9237
   9   2.0000     -14.658890      -398.8887
  10   2.0000     -14.460661      -393.4946
  11   2.0000     -14.451439      -393.2436
  12   2.0000     -14.416872      -392.3030
  13   2.0000     -14.388604      -391.5338
  14   2.0000     -14.379483      -391.2856
  15   2.0000     -10.364200      -282.0242
  16   2.0000     -10.355054      -281.7754
  17   2.0000     -10.345051      -281.5031
  18   2.0000     -10.340567      -281.3811
  19   2.0000     -10.339574      -281.3541
  20   2.0000     -10.338136      -281.3150
  21   2.0000     -10.331459      -281.1333
  22   2.0000     -10.329337      -281.0755
  23   2.0000     -10.327575      -281.0276
  24   2.0000     -10.327496      -281.0255
  25   2.0000     -10.317696      -280.7588
  26   2.0000     -10.308588      -280.5109
  27   2.0000     -10.308079      -280.4971
  28   2.0000     -10.307553      -280.4828
  29   2.0000     -10.306199      -280.4459
  30   2.0000     -10.305289      -280.4212
  31   2.0000     -10.304468      -280.3988
  32   2.0000     -10.303583      -280.3748
  33   2.0000     -10.303202      -280.3644
  34   2.0000     -10.300264      -280.2844
  35   2.0000     -10.299101      -280.2528
  36   2.0000     -10.297390      -280.2062
  37   2.0000     -10.295529      -280.1556
  38   2.0000     -10.290543      -280.0199
  39   2.0000     -10.286050      -279.8977
  40   2.0000     -10.285000      -279.8691
  41   2.0000     -10.283839      -279.8375
  42   2.0000     -10.283317      -279.8233
  43   2.0000     -10.282460      -279.8000
  44   2.0000     -10.280172      -279.7377
  45   2.0000     -10.279128      -279.7093
  46   2.0000     -10.278493      -279.6920
  47   2.0000     -10.278301      -279.6868
  48   2.0000     -10.277992      -279.6784
  49   2.0000     -10.276388      -279.6347
  50   2.0000     -10.275499      -279.6106
  51   2.0000     -10.274571      -279.5853
  52   2.0000     -10.274438      -279.5817
  53   2.0000     -10.270798      -279.4826
  54   2.0000     -10.268215      -279.4123
  55   2.0000     -10.266891      -279.3763
  56   2.0000     -10.262504      -279.2569
  57   2.0000     -10.262139      -279.2470
  58   2.0000     -10.256763      -279.1007
  59   2.0000      -8.060350      -219.3333
  60   2.0000      -8.054788      -219.1819
  61   2.0000      -8.047580      -218.9858
  62   2.0000      -8.043302      -218.8694
  63   2.0000      -6.029714      -164.0769
  64   2.0000      -6.025519      -163.9627
  65   2.0000      -6.024356      -163.9311
  66   2.0000      -6.022513      -163.8809
  67   2.0000      -6.020420      -163.8240
  68   2.0000      -6.017199      -163.7363
  69   2.0000      -6.015924      -163.7016
  70   2.0000      -6.013143      -163.6259
  71   2.0000      -6.012682      -163.6134
  72   2.0000      -6.008718      -163.5055
  73   2.0000      -6.008453      -163.4983
  74   2.0000      -6.005297      -163.4124
  75   2.0000      -1.326685       -36.1009
  76   2.0000      -1.290811       -35.1247
  77   2.0000      -1.237873       -33.6842
  78   2.0000      -1.145967       -31.1834
  79   2.0000      -1.092804       -29.7367
  80   2.0000      -1.069092       -29.0915
  81   2.0000      -1.062010       -28.8987
  82   2.0000      -1.057322       -28.7712
  83   2.0000      -0.999250       -27.1910
  84   2.0000      -0.987795       -26.8793
  85   2.0000      -0.977303       -26.5938
  86   2.0000      -0.975189       -26.5363
  87   2.0000      -0.972727       -26.4692
  88   2.0000      -0.961470       -26.1629
  89   2.0000      -0.949595       -25.8398
  90   2.0000      -0.949131       -25.8272
  91   2.0000      -0.922039       -25.0899
  92   2.0000      -0.916459       -24.9381
  93   2.0000      -0.903208       -24.5775
  94   2.0000      -0.899183       -24.4680
  95   2.0000      -0.891470       -24.2581
  96   2.0000      -0.880548       -23.9609
  97   2.0000      -0.869483       -23.6598
  98   2.0000      -0.861363       -23.4389
  99   2.0000      -0.855956       -23.2917
 100   2.0000      -0.852461       -23.1966
 101   2.0000      -0.840919       -22.8826
 102   2.0000      -0.827802       -22.5256
 103   2.0000      -0.823877       -22.4188
 104   2.0000      -0.820534       -22.3279
 105   2.0000      -0.816858       -22.2278
 106   2.0000      -0.811940       -22.0940
 107   2.0000      -0.797800       -21.7092
 108   2.0000      -0.792645       -21.5690
 109   2.0000      -0.784143       -21.3376
 110   2.0000      -0.776806       -21.1380
 111   2.0000      -0.752417       -20.4743
 112   2.0000      -0.733890       -19.9702
 113   2.0000      -0.729483       -19.8502
 114   2.0000      -0.726883       -19.7795
 115   2.0000      -0.711164       -19.3518
 116   2.0000      -0.704953       -19.1827
 117   2.0000      -0.699647       -19.0384
 118   2.0000      -0.694978       -18.9113
 119   2.0000      -0.686702       -18.6861
 120   2.0000      -0.685421       -18.6513
 121   2.0000      -0.675607       -18.3842
 122   2.0000      -0.662901       -18.0385
 123   2.0000      -0.659561       -17.9476
 124   2.0000      -0.649669       -17.6784
 125   2.0000      -0.641911       -17.4673
 126   2.0000      -0.641165       -17.4470
 127   2.0000      -0.640063       -17.4170
 128   2.0000      -0.632385       -17.2081
 129   2.0000      -0.629987       -17.1428
 130   2.0000      -0.625342       -17.0164
 131   2.0000      -0.623156       -16.9569
 132   2.0000      -0.613008       -16.6808
 133   2.0000      -0.610125       -16.6023
 134   2.0000      -0.605147       -16.4669
 135   2.0000      -0.603011       -16.4088
 136   2.0000      -0.596514       -16.2320
 137   2.0000      -0.589782       -16.0488
 138   2.0000      -0.587693       -15.9919
 139   2.0000      -0.585638       -15.9360
 140   2.0000      -0.581689       -15.8286
 141   2.0000      -0.575989       -15.6735
 142   2.0000      -0.567332       -15.4379
 143   2.0000      -0.567060       -15.4305
 144   2.0000      -0.556726       -15.1493
 145   2.0000      -0.551796       -15.0151
 146   2.0000      -0.550935       -14.9917
 147   2.0000      -0.546111       -14.8604
 148   2.0000      -0.543880       -14.7997
 149   2.0000      -0.542667       -14.7667
 150   2.0000      -0.537473       -14.6254
 151   2.0000      -0.529797       -14.4165
 152   2.0000      -0.528333       -14.3767
 153   2.0000      -0.526807       -14.3351
 154   2.0000      -0.521857       -14.2005
 155   2.0000      -0.521304       -14.1854
 156   2.0000      -0.519233       -14.1290
 157   2.0000      -0.511208       -13.9107
 158   2.0000      -0.508920       -13.8484
 159   2.0000      -0.507385       -13.8067
 160   2.0000      -0.505404       -13.7527
 161   2.0000      -0.502497       -13.6736
 162   2.0000      -0.499111       -13.5815
 163   2.0000      -0.496790       -13.5183
 164   2.0000      -0.492657       -13.4059
 165   2.0000      -0.488753       -13.2996
 166   2.0000      -0.487131       -13.2555
 167   2.0000      -0.484103       -13.1731
 168   2.0000      -0.480462       -13.0740
 169   2.0000      -0.478057       -13.0086
 170   2.0000      -0.475045       -12.9266
 171   2.0000      -0.472533       -12.8583
 172   2.0000      -0.466724       -12.7002
 173   2.0000      -0.465278       -12.6609
 174   2.0000      -0.464744       -12.6463
 175   2.0000      -0.457981       -12.4623
 176   2.0000      -0.457536       -12.4502
 177   2.0000      -0.454462       -12.3665
 178   2.0000      -0.452196       -12.3049
 179   2.0000      -0.450814       -12.2673
 180   2.0000      -0.446170       -12.1409
 181   2.0000      -0.438980       -11.9453
 182   2.0000      -0.435043       -11.8381
 183   2.0000      -0.432089       -11.7577
 184   2.0000      -0.430148       -11.7049
 185   2.0000      -0.426334       -11.6011
 186   2.0000      -0.425994       -11.5919
 187   2.0000      -0.423868       -11.5340
 188   2.0000      -0.416879       -11.3439
 189   2.0000      -0.416781       -11.3412
 190   2.0000      -0.413322       -11.2471
 191   2.0000      -0.410216       -11.1625
 192   2.0000      -0.406071       -11.0498
 193   2.0000      -0.404732       -11.0133
 194   2.0000      -0.400705       -10.9037
 195   2.0000      -0.394533       -10.7358
 196   2.0000      -0.393878       -10.7180
 197   2.0000      -0.390736       -10.6325
 198   2.0000      -0.388792       -10.5796
 199   2.0000      -0.379979       -10.3398
 200   2.0000      -0.378812       -10.3080
 201   2.0000      -0.374989       -10.2040
 202   2.0000      -0.372075       -10.1247
 203   2.0000      -0.369046       -10.0422
 204   2.0000      -0.358240        -9.7482
 205   2.0000      -0.352904        -9.6030
 206   2.0000      -0.345638        -9.4053
 207   2.0000      -0.337404        -9.1812
 208   2.0000      -0.326388        -8.8815
 209   2.0000      -0.317847        -8.6490
 210   2.0000      -0.313218        -8.5231
 211   2.0000      -0.311267        -8.4700
 212   2.0000      -0.304507        -8.2860
 213   2.0000      -0.288608        -7.8534
 214   2.0000      -0.285391        -7.7659
 215   2.0000      -0.273891        -7.4530
 216   2.0000      -0.263311        -7.1651
 217   2.0000      -0.237681        -6.4676
 218   2.0000      -0.213483        -5.8092
 219   0.0000      -0.085990        -2.3399
 220   0.0000      -0.052305        -1.4233
 221   0.0000      -0.045338        -1.2337
 222   0.0000      -0.038330        -1.0430
 223   0.0000      -0.025429        -0.6919

MULLIKEN ATOMIC CHARGES
-----------------------
   0 C :   -0.181264
   1 S :    0.101513
   2 C :    0.033338
   3 S :    0.077233
   4 C :    0.012034
   5 N :   -0.046830
   6 C :    0.061506
   7 C :   -0.137208
   8 C :   -0.003789
   9 C :   -0.066878
  10 C :    0.019729
  11 O :   -0.162254
  12 C :    0.087650
  13 C :    0.096666
  14 N :    0.286367
  15 O :   -0.232782
  16 O :   -0.263211
  17 C :    0.085035
  18 N :   -0.029130
  19 C :    0.056659
  20 C :   -0.255074
  21 C :    0.074174
  22 C :    0.209123
  23 N :   -0.131187
  24 C :    0.076111
  25 C :   -0.027968
  26 C :    0.037955
  27 C :   -0.060814
  28 C :    0.060162
  29 C :    0.013746
  30 C :   -0.006932
  31 S :    0.098435
  32 C :   -0.074896
  33 C :    0.043080
  34 C :    0.055108
  35 C :   -0.057261
  36 S :    0.115730
  37 C :    0.006264
  38 C :    0.018853
  39 C :   -0.157351
  40 C :    0.134363
  41 O :   -0.165811
  42 C :    0.023382
  43 C :   -0.093621
  44 C :    0.101667
  45 C :    0.133871
  46 C :   -0.107066
  47 C :    0.292779
  48 C :   -0.040774
  49 C :   -0.003225
  50 F :   -0.210573
  51 C :   -0.108258
  52 C :    0.045031
  53 C :    0.284004
  54 C :   -0.369333
  55 C :   -0.209106
  56 N :    0.148726
  57 C :   -0.171580
  58 N :    0.114866
  59 H :    0.026724
  60 H :    0.044113
  61 H :    0.011417
  62 H :   -0.000347
  63 H :    0.027178
  64 H :    0.138761
  65 H :    0.000578
  66 H :    0.031724
  67 H :    0.028950
  68 H :    0.036660
  69 H :    0.011512
  70 H :    0.020290
  71 H :    0.129995
  72 H :    0.014376
  73 H :    0.002804
  74 H :   -0.004754
  75 H :   -0.005577
  76 H :   -0.010550
  77 H :   -0.013588
  78 H :   -0.013766
  79 H :   -0.010033
  80 H :    0.018009
  81 H :   -0.018810
  82 H :   -0.042738
  83 H :   -0.009092
  84 H :   -0.013066
  85 H :   -0.031755
Sum of atomic charges:   -0.0000000

LOEWDIN ATOMIC CHARGES
----------------------
   0 C :   -0.210666
   1 S :    0.434778
   2 C :   -0.207544
   3 S :    0.354712
   4 C :   -0.092149
   5 N :   -0.085707
   6 C :   -0.071525
   7 C :   -0.176192
   8 C :   -0.032547
   9 C :   -0.051808
  10 C :   -0.014109
  11 O :    0.050628
  12 C :    0.089985
  13 C :   -0.106143
  14 N :    0.298151
  15 O :   -0.197173
  16 O :   -0.215786
  17 C :    0.003544
  18 N :    0.029189
  19 C :    0.009903
  20 C :   -0.107269
  21 C :   -0.052106
  22 C :    0.052578
  23 N :    0.025872
  24 C :    0.078670
  25 C :   -0.123895
  26 C :    0.018716
  27 C :   -0.187310
  28 C :    0.002423
  29 C :   -0.060503
  30 C :   -0.123733
  31 S :    0.407443
  32 C :   -0.219841
  33 C :   -0.014830
  34 C :   -0.049373
  35 C :   -0.112792
  36 S :    0.476130
  37 C :   -0.082977
  38 C :    0.032122
  39 C :   -0.128675
  40 C :    0.081102
  41 O :   -0.165585
  42 C :   -0.051242
  43 C :    0.025199
  44 C :   -0.019518
  45 C :    0.004514
  46 C :   -0.055070
  47 C :    0.074873
  48 C :   -0.052395
  49 C :    0.009344
  50 F :   -0.079503
  51 C :   -0.011910
  52 C :   -0.003346
  53 C :    0.035346
  54 C :   -0.186596
  55 C :   -0.029665
  56 N :   -0.074415
  57 C :   -0.011132
  58 N :   -0.104466
  59 H :    0.025905
  60 H :    0.019945
  61 H :    0.041985
  62 H :    0.026738
  63 H :    0.038080
  64 H :    0.072928
  65 H :    0.024836
  66 H :    0.039154
  67 H :    0.032802
  68 H :    0.036720
  69 H :    0.025432
  70 H :    0.030131
  71 H :    0.084320
  72 H :    0.032914
  73 H :    0.021401
  74 H :    0.037282
  75 H :    0.036305
  76 H :    0.033061
  77 H :    0.032386
  78 H :    0.033493
  79 H :    0.037086
  80 H :    0.042862
  81 H :    0.036699
  82 H :    0.029759
  83 H :    0.036728
  84 H :    0.034716
  85 H :    0.030603

  Mayer bond orders larger than 0.100000
B(  0-C ,  1-S ) :   1.1483 B(  0-C ,  2-C ) :   1.5541 B(  0-C ,  7-C ) :   0.1030
B(  0-C , 59-H ) :   0.9792 B(  1-S ,  7-C ) :   1.1225 B(  2-C ,  3-S ) :   1.0277
B(  2-C ,  6-C ) :   1.2156 B(  3-S ,  4-C ) :   1.0782 B(  3-S ,  5-N ) :   0.1073
B(  4-C ,  5-N ) :   1.7960 B(  4-C , 60-H ) :   0.9628 B(  5-N ,  6-C ) :   1.3035
B(  6-C ,  7-C ) :   1.4411 B(  7-C ,  8-C ) :   1.1589 B(  8-C ,  9-C ) :   1.6209
B(  8-C , 61-H ) :   0.9900 B(  9-C , 10-C ) :   1.1564 B(  9-C , 62-H ) :   0.9624
B( 10-C , 11-O ) :   1.0953 B( 10-C , 17-C ) :   1.3686 B( 11-O , 12-C ) :   1.2345
B( 12-C , 13-C ) :   1.4138 B( 12-C , 63-H ) :   1.0146 B( 13-C , 14-N ) :   0.9559
B( 13-C , 17-C ) :   1.2384 B( 14-N , 15-O ) :   1.5497 B( 14-N , 16-O ) :   1.4662
B( 15-O , 16-O ) :   0.2521 B( 17-C , 18-N ) :   1.2415 B( 18-N , 19-C ) :   1.1282
B( 18-N , 64-H ) :   0.8640 B( 19-C , 20-C ) :   1.7720 B( 19-C , 65-H ) :   0.9524
B( 20-C , 21-C ) :   1.0552 B( 20-C , 22-C ) :   1.0699 B( 21-C , 66-H ) :   0.9487
B( 21-C , 67-H ) :   0.9518 B( 21-C , 68-H ) :   0.9476 B( 22-C , 23-N ) :   0.9757
B( 22-C , 69-H ) :   0.9370 B( 22-C , 70-H ) :   0.9332 B( 23-N , 24-C ) :   1.3011
B( 23-N , 71-H ) :   0.9332 B( 24-C , 25-C ) :   1.5195 B( 24-C , 72-H ) :   0.9714
B( 25-C , 26-C ) :   1.2407 B( 25-C , 73-H ) :   0.9549 B( 26-C , 27-C ) :   1.5180
B( 26-C , 74-H ) :   0.9810 B( 27-C , 28-C ) :   1.1919 B( 27-C , 31-S ) :   1.0205
B( 28-C , 29-C ) :   1.5341 B( 28-C , 75-H ) :   0.9969 B( 29-C , 30-C ) :   1.2378
B( 29-C , 76-H ) :   0.9948 B( 30-C , 31-S ) :   1.1303 B( 30-C , 32-C ) :   1.3865
B( 32-C , 33-C ) :   1.2570 B( 32-C , 36-S ) :   1.0462 B( 33-C , 34-C ) :   1.5122
B( 33-C , 77-H ) :   0.9904 B( 34-C , 35-C ) :   1.2232 B( 34-C , 78-H ) :   0.9954
B( 35-C , 36-S ) :   1.1477 B( 35-C , 37-C ) :   1.3464 B( 37-C , 38-C ) :   1.4415
B( 37-C , 79-H ) :   0.9558 B( 38-C , 39-C ) :   1.3563 B( 38-C , 80-H ) :   0.9308
B( 39-C , 40-C ) :   0.9822 B( 39-C , 53-C ) :   1.1885 B( 40-C , 41-O ) :   2.2380
B( 40-C , 42-C ) :   0.9091 B( 42-C , 43-C ) :   1.4902 B( 42-C , 52-C ) :   1.2182
B( 43-C , 44-C ) :   1.1684 B( 43-C , 81-H ) :   1.0155 B( 44-C , 45-C ) :   1.2705
B( 44-C , 49-C ) :   1.2448 B( 45-C , 46-C ) :   1.1999 B( 45-C , 51-C ) :   1.1793
B( 46-C , 47-C ) :   1.4404 B( 46-C , 82-H ) :   1.0051 B( 47-C , 48-C ) :   1.2742
B( 47-C , 50-F ) :   1.0263 B( 48-C , 49-C ) :   1.4437 B( 48-C , 83-H ) :   0.9940
B( 49-C , 84-H ) :   0.9954 B( 51-C , 52-C ) :   1.4859 B( 51-C , 85-H ) :   0.9929
B( 52-C , 53-C ) :   0.9846 B( 53-C , 54-C ) :   1.5013 B( 54-C , 55-C ) :   1.1647
B( 54-C , 57-C ) :   1.1637 B( 55-C , 56-N ) :   3.0064 B( 57-C , 58-N ) :   2.9496

-----------------------------------------------------------------------------
         ABSORPTION SPECTRUM VIA TRANSITION ELECTRIC DIPOLE MOMENTS
-----------------------------------------------------------------------------
State   Energy  Wavelength   fosc         T2         TX        TY        TZ
        (cm-1)    (nm)                  (au**2)     (au)      (au)      (au)
-----------------------------------------------------------------------------
   0   11814.2    846.4   0.395982089  11.03432  -0.13720  -2.94335  -1.53368
   1   20778.2    481.3   0.026286557   0.41649   0.02460  -0.36746  -0.52996
   2   21154.0    472.7   0.085521800   1.33095   0.49208  -1.04033   0.08075
   3   22161.7    451.2   0.354272316   5.26271   1.37284   0.39082   1.79591
   4   23022.3    434.4   0.109030117   1.55910  -0.13220   0.60434   1.08462
   5   23923.1    418.0   0.135295397   1.86184  -0.67545  -0.26593  -1.15538
   6   24313.0    411.3   0.002800214   0.03792   0.17274  -0.04600   0.07720
   7   25204.1    396.8   1.400663491  18.29526   3.25880   1.25436   2.47024
   8   26035.6    384.1   0.336141882   4.25040   1.02077  -0.98458   1.49633
   9   27308.9    366.2   0.094509389   1.13932  -0.53227  -0.88561  -0.26777
  10   28296.9    353.4   0.009911523   0.11531   0.09305   0.06073   0.32088
  11   29311.8    341.2   0.096119962   1.07956   0.41257  -0.35201   0.88625
  12   29364.3    340.5   0.003056031   0.03426   0.14662  -0.00298  -0.11294
  13   29627.2    337.5   0.008333737   0.09260  -0.27502   0.02075   0.12859
  14   31062.8    321.9   0.059599832   0.63165  -0.65312   0.32140  -0.31905
  15   31350.3    319.0   0.097764468   1.02663  -0.61996   0.80037   0.04101
  16   31728.0    315.2   0.031118777   0.32289  -0.50127   0.26719   0.01505
  17   32496.5    307.7   0.293225582   2.97058   1.61384   0.07801   0.60001
  18   32654.6    306.2   0.236109487   2.38037  -1.27650   0.86524  -0.04785
  19   32943.2    303.6   0.063415505   0.63373   0.59794  -0.06075   0.52202
  20   33170.3    301.5   0.029827570   0.29604   0.49817  -0.01475   0.21827
  21   33531.5    298.2   0.041555524   0.40799   0.61791  -0.09394  -0.13173
  22   33534.1    298.2   0.020180681   0.19812  -0.41416   0.16204  -0.01818
  23   33931.4    294.7   0.108440252   1.05212   0.87129   0.29614   0.45308
  24   34037.6    293.8   0.044822111   0.43352  -0.15360  -0.63380  -0.09069
  25   34677.9    288.4   0.089922287   0.85367   0.82622   0.06868   0.40782
  26   35117.4    284.8   0.052797758   0.49496  -0.68892  -0.07928  -0.11860
  27   35321.4    283.1   0.190759961   1.77797   0.03828   1.21488   0.54824
  28   35949.2    278.2   0.037369397   0.34222   0.55099  -0.16069  -0.11317
  29   36297.5    275.5   0.052972348   0.48045  -0.54461   0.37274   0.21191
  30   36423.0    274.6   0.202077143   1.82649   0.73996  -1.01153  -0.50572
  31   37171.6    269.0   0.010842122   0.09602   0.23085  -0.19835   0.05821
  32   37286.9    268.2   0.012671286   0.11188  -0.30936   0.12484  -0.02420
  33   37987.5    263.2   0.236514972   2.04972  -0.65745   1.21925   0.36179
  34   38115.9    262.4   0.008079246   0.06978   0.19360   0.14170   0.11056
  35   38611.1    259.0   0.010893490   0.09288   0.20831  -0.19558  -0.10599
  36   39355.0    254.1   0.016944206   0.14174   0.06807  -0.24037  -0.28165
  37   39508.5    253.1   0.076732213   0.63939  -0.70120  -0.12523  -0.36335
  38   39846.6    251.0   0.006646663   0.05491  -0.04883  -0.08832  -0.21150
  39   39951.7    250.3   0.022723929   0.18725   0.21647  -0.25665  -0.27299

FINAL SINGLE POINT ENERGY     -4011.224757142411

DIPOLE MOMENT
-------------
                                X             Y             Z
Electronic contribution:     19.08789     -10.42006      -1.98029
Nuclear contribution   :    -17.53849      14.48972       4.51018
                        -----------------------------------------
Total Dipole Moment    :      1.54941       4.06966       2.52989
                        -----------------------------------------
Magnitude (a.u.)       :      5.03618
Magnitude (Debye)      :     12.80096

Rotational constants in cm-1:     0.002341     0.000584     0.000497
Rotational constants in MHz :    70.184287    17.501097    14.914488

                             ****ORCA TERMINATED NORMALLY****
TOTAL RUN TIME: 0 days 0 hours 8 minutes 21 seconds 143 msec
