                         Program Version 4.2.0 -  RELEASE  -
|  1> # ORCA input file
|  2> # SCF done       -161.615035486227          0.000316422331
|  3> ! CAM-B3LYP def2-SVP def2/J RIJCOSX Grid4 TightSCF
|  4> %maxcore 5000
|  5> %tddft
|  6>     Mode sTDDFT
|  7>     Ethresh 5.0
|  8>     maxcore 5000
|  9> end
| 10>
| 11> %pal
| 12>   nprocs 6
| 13>   end
| 14> * xyz 0 1
| 15>    C        0.52992         0.16945        -0.21003
| 16>    S        1.36536        -1.21395        -0.76790
| 17>    C       -0.43838         0.60722        -1.07106
| 18>    C       -1.28834         1.80271        -0.76779
| 19>    C       -0.89272         3.02938        -1.60101
| 20>    N        0.54310         3.24114        -1.52555
| 21>    C       -0.52294        -0.19790        -2.22806
| 22>    C       -1.43799         0.07546        -3.37592
| 23>    C       -0.67972         0.74339        -4.53552
| 24>    N       -1.63453         1.32672        -5.46210
| 25>    C        0.39514        -1.24746        -2.21960
| 26>    C        0.55254        -2.23276        -3.21091
| 27>    C        1.48969        -3.23134        -3.28179
| 28>    C        1.59286        -4.17947        -4.33135
| 29>    C        2.63071        -5.05145        -4.20181
| 30>    C        3.40304        -4.84626        -3.03893
| 31>    S        2.76440        -3.51172        -2.10731
| 32>    C        4.52947        -5.55155        -2.64244
| 33>    C        5.17304        -6.59956        -3.32770
| 34>    C        6.29343        -7.07417        -2.70494
| 35>    C        6.58835        -6.43203        -1.48672
| 36>    S        5.37998        -5.19762        -1.15871
| 37>    C        7.61017        -6.60655        -0.56980
| 38>    C        8.72526        -7.43748        -0.62846
| 39>    S        9.86083        -7.42005         0.72198
| 40>    C       11.01029        -8.54259        -0.01163
| 41>    C       10.48655        -8.93891        -1.26492
| 42>    C        9.24326        -8.32812        -1.57156
| 43>    O        8.77864        -8.76198        -2.75693
| 44>    C        9.70045        -9.65298        -3.21065
| 45>    N        9.44462       -10.27903        -4.44252
| 46>    O       10.27030       -11.08561        -4.83427
| 47>    O        8.42033        -9.97671        -5.02780
| 48>    C       10.75840        -9.80393        -2.34633
| 49>    C       12.15099        -8.83223         0.71146
| 50>    C       13.31512        -9.50419         0.36129
| 51>    C       14.38811        -9.72638         1.24448
| 52>    C       15.47551       -10.33408         0.67563
| 53>    C       15.31403       -10.61164        -0.69129
| 54>    S       13.73058       -10.10306        -1.22667
| 55>    C       16.23434       -11.17709        -1.56628
| 56>    C       17.53838       -11.61931        -1.26917
| 57>    C       18.22310       -12.09952        -2.34788
| 58>    C       17.49157       -12.05892        -3.55763
| 59>    S       15.89197       -11.39919        -3.26513
| 60>    C       17.86622       -12.43058        -4.82720
| 61>    C       19.11841       -12.95163        -5.20477
| 62>    O       20.11813       -13.17686        -4.32611
| 63>    C       21.18498       -13.67188        -5.00322
| 64>    C       20.87979       -13.77134        -6.34418
| 65>    C       19.56058       -13.31367        -6.48245
| 66>    C       18.78080       -13.21871        -7.73875
| 67>    F       17.65309       -13.95820        -7.71376
| 68>    F       18.38022       -11.95923        -8.01126
| 69>    F       19.47971       -13.63107        -8.80489
| 70>    C       22.39912       -14.00495        -4.31516
| 71>    C       22.58587       -13.86680        -3.00301
| 72>    H        0.79762         0.59115         0.73874
| 73>    H       -1.17596         2.04390         0.29165
| 74>    H       -2.34024         1.57556        -0.95281
| 75>    H       -1.48329         3.89180        -1.24411
| 76>    H       -1.14541         2.86572        -2.65037
| 77>    H        0.82572         3.40773        -0.56518
| 78>    H        0.81088         4.05147        -2.07268
| 79>    H       -2.23442         0.75072        -3.06580
| 80>    H       -1.90121        -0.84889        -3.72998
| 81>    H       -0.00254         0.00723        -5.00027
| 82>    H       -0.05988         1.55176        -4.13908
| 83>    H       -2.19313         0.60097        -5.89966
| 84>    H       -1.15514         1.83451        -6.19681
| 85>    H       -0.15439        -2.19825        -4.02957
| 86>    H        0.89709        -4.18154        -5.15202
| 87>    H        2.85817        -5.83020        -4.90687
| 88>    H        4.80860        -6.97929        -4.26487
| 89>    H        6.89566        -7.86769        -3.10114
| 90>    H        7.55359        -5.99353         0.32077
| 91>    H       11.58616       -10.46149        -2.50385
| 92>    H       12.15884        -8.42836         1.71753
| 93>    H       14.33438        -9.43087         2.27745
| 94>    H       16.37870       -10.57249         1.20707
| 95>    H       17.94153       -11.57227        -0.27338
| 96>    H       19.22768       -12.47640        -2.31288
| 97>    H       17.14935       -12.31055        -5.62513
| 98>    H       21.51822       -14.12577        -7.12699
| 99>    H       23.18254       -14.38948        -4.95234
|100>    H       21.80931       -13.48513        -2.36295
|101>    H       23.51716       -14.13166        -2.53585
|102> *
|103>
|104>                          ****END OF INPUT****

CARTESIAN COORDINATES (ANGSTROEM)
---------------------------------
  C      0.529920    0.169450   -0.210030
  S      1.365360   -1.213950   -0.767900
  C     -0.438380    0.607220   -1.071060
  C     -1.288340    1.802710   -0.767790
  C     -0.892720    3.029380   -1.601010
  N      0.543100    3.241140   -1.525550
  C     -0.522940   -0.197900   -2.228060
  C     -1.437990    0.075460   -3.375920
  C     -0.679720    0.743390   -4.535520
  N     -1.634530    1.326720   -5.462100
  C      0.395140   -1.247460   -2.219600
  C      0.552540   -2.232760   -3.210910
  C      1.489690   -3.231340   -3.281790
  C      1.592860   -4.179470   -4.331350
  C      2.630710   -5.051450   -4.201810
  C      3.403040   -4.846260   -3.038930
  S      2.764400   -3.511720   -2.107310
  C      4.529470   -5.551550   -2.642440
  C      5.173040   -6.599560   -3.327700
  C      6.293430   -7.074170   -2.704940
  C      6.588350   -6.432030   -1.486720
  S      5.379980   -5.197620   -1.158710
  C      7.610170   -6.606550   -0.569800
  C      8.725260   -7.437480   -0.628460
  S      9.860830   -7.420050    0.721980
  C     11.010290   -8.542590   -0.011630
  C     10.486550   -8.938910   -1.264920
  C      9.243260   -8.328120   -1.571560
  O      8.778640   -8.761980   -2.756930
  C      9.700450   -9.652980   -3.210650
  N      9.444620  -10.279030   -4.442520
  O     10.270300  -11.085610   -4.834270
  O      8.420330   -9.976710   -5.027800
  C     10.758400   -9.803930   -2.346330
  C     12.150990   -8.832230    0.711460
  C     13.315120   -9.504190    0.361290
  C     14.388110   -9.726380    1.244480
  C     15.475510  -10.334080    0.675630
  C     15.314030  -10.611640   -0.691290
  S     13.730580  -10.103060   -1.226670
  C     16.234340  -11.177090   -1.566280
  C     17.538380  -11.619310   -1.269170
  C     18.223100  -12.099520   -2.347880
  C     17.491570  -12.058920   -3.557630
  S     15.891970  -11.399190   -3.265130
  C     17.866220  -12.430580   -4.827200
  C     19.118410  -12.951630   -5.204770
  O     20.118130  -13.176860   -4.326110
  C     21.184980  -13.671880   -5.003220
  C     20.879790  -13.771340   -6.344180
  C     19.560580  -13.313670   -6.482450
  C     18.780800  -13.218710   -7.738750
  F     17.653090  -13.958200   -7.713760
  F     18.380220  -11.959230   -8.011260
  F     19.479710  -13.631070   -8.804890
  C     22.399120  -14.004950   -4.315160
  C     22.585870  -13.866800   -3.003010
  H      0.797620    0.591150    0.738740
  H     -1.175960    2.043900    0.291650
  H     -2.340240    1.575560   -0.952810
  H     -1.483290    3.891800   -1.244110
  H     -1.145410    2.865720   -2.650370
  H      0.825720    3.407730   -0.565180
  H      0.810880    4.051470   -2.072680
  H     -2.234420    0.750720   -3.065800
  H     -1.901210   -0.848890   -3.729980
  H     -0.002540    0.007230   -5.000270
  H     -0.059880    1.551760   -4.139080
  H     -2.193130    0.600970   -5.899660
  H     -1.155140    1.834510   -6.196810
  H     -0.154390   -2.198250   -4.029570
  H      0.897090   -4.181540   -5.152020
  H      2.858170   -5.830200   -4.906870
  H      4.808600   -6.979290   -4.264870
  H      6.895660   -7.867690   -3.101140
  H      7.553590   -5.993530    0.320770
  H     11.586160  -10.461490   -2.503850
  H     12.158840   -8.428360    1.717530
  H     14.334380   -9.430870    2.277450
  H     16.378700  -10.572490    1.207070
  H     17.941530  -11.572270   -0.273380
  H     19.227680  -12.476400   -2.312880
  H     17.149350  -12.310550   -5.625130
  H     21.518220  -14.125770   -7.126990
  H     23.182540  -14.389480   -4.952340
  H     21.809310  -13.485130   -2.362950
  H     23.517160  -14.131660   -2.535850

 Total Charge           Charge          ....    0
 Multiplicity           Mult            ....    1
 Number of Electrons    NEL             ....  452
 Basis Dimension        Dim             ....  972

ORBITAL ENERGIES
----------------

  NO   OCC          E(Eh)            E(eV)
   0   2.0000     -88.961168     -2420.7565
   1   2.0000     -88.952185     -2420.5120
   2   2.0000     -88.943807     -2420.2840
   3   2.0000     -88.941589     -2420.2237
   4   2.0000     -88.941392     -2420.2183
   5   2.0000     -88.938418     -2420.1374
   6   2.0000     -24.790028      -674.5710
   7   2.0000     -24.782736      -674.3725
   8   2.0000     -24.782406      -674.3635
   9   2.0000     -19.308182      -525.4023
  10   2.0000     -19.295353      -525.0533
  11   2.0000     -19.236211      -523.4439
  12   2.0000     -19.234583      -523.3996
  13   2.0000     -14.648013      -398.5927
  14   2.0000     -14.380303      -391.3079
  15   2.0000     -14.378170      -391.2499
  16   2.0000     -10.507720      -285.9296
  17   2.0000     -10.378843      -282.4227
  18   2.0000     -10.345253      -281.5086
  19   2.0000     -10.343342      -281.4566
  20   2.0000     -10.331043      -281.1220
  21   2.0000     -10.317191      -280.7450
  22   2.0000     -10.317013      -280.7402
  23   2.0000     -10.313178      -280.6358
  24   2.0000     -10.310759      -280.5700
  25   2.0000     -10.310493      -280.5628
  26   2.0000     -10.309754      -280.5427
  27   2.0000     -10.307560      -280.4830
  28   2.0000     -10.306672      -280.4588
  29   2.0000     -10.306273      -280.4480
  30   2.0000     -10.301607      -280.3210
  31   2.0000     -10.300427      -280.2889
  32   2.0000     -10.297813      -280.2177
  33   2.0000     -10.293115      -280.0899
  34   2.0000     -10.287980      -279.9502
  35   2.0000     -10.287616      -279.9403
  36   2.0000     -10.286062      -279.8980
  37   2.0000     -10.285564      -279.8844
  38   2.0000     -10.284487      -279.8551
  39   2.0000     -10.283303      -279.8229
  40   2.0000     -10.283268      -279.8220
  41   2.0000     -10.283201      -279.8201
  42   2.0000     -10.282734      -279.8074
  43   2.0000     -10.282369      -279.7975
  44   2.0000     -10.282162      -279.7919
  45   2.0000     -10.281943      -279.7859
  46   2.0000     -10.280559      -279.7482
  47   2.0000     -10.279408      -279.7169
  48   2.0000     -10.279306      -279.7141
  49   2.0000     -10.278847      -279.7017
  50   2.0000     -10.277935      -279.6768
  51   2.0000     -10.268902      -279.4310
  52   2.0000     -10.268066      -279.4083
  53   2.0000     -10.267754      -279.3998
  54   2.0000     -10.264817      -279.3199
  55   2.0000     -10.263372      -279.2805
  56   2.0000     -10.263340      -279.2797
  57   2.0000      -8.056212      -219.2207
  58   2.0000      -8.048038      -218.9983
  59   2.0000      -8.040325      -218.7884
  60   2.0000      -8.037614      -218.7146
  61   2.0000      -8.037143      -218.7018
  62   2.0000      -8.034877      -218.6401
  63   2.0000      -6.025701      -163.9677
  64   2.0000      -6.021764      -163.8605
  65   2.0000      -6.017783      -163.7522
  66   2.0000      -6.017714      -163.7503
  67   2.0000      -6.013591      -163.6381
  68   2.0000      -6.010077      -163.5425
  69   2.0000      -6.009258      -163.5202
  70   2.0000      -6.007374      -163.4690
  71   2.0000      -6.006397      -163.4424
  72   2.0000      -6.006013      -163.4319
  73   2.0000      -6.004581      -163.3929
  74   2.0000      -6.003254      -163.3569
  75   2.0000      -6.002152      -163.3269
  76   2.0000      -6.001185      -163.3005
  77   2.0000      -6.000567      -163.2837
  78   2.0000      -5.999417      -163.2524
  79   2.0000      -5.998539      -163.2286
  80   2.0000      -5.995829      -163.1548
  81   2.0000      -1.374435       -37.4003
  82   2.0000      -1.317487       -35.8506
  83   2.0000      -1.279682       -34.8219
  84   2.0000      -1.272521       -34.6270
  85   2.0000      -1.228572       -33.4311
  86   2.0000      -1.213412       -33.0186
  87   2.0000      -1.133465       -30.8432
  88   2.0000      -0.998065       -27.1587
  89   2.0000      -0.991363       -26.9764
  90   2.0000      -0.987869       -26.8813
  91   2.0000      -0.977322       -26.5943
  92   2.0000      -0.973743       -26.4969
  93   2.0000      -0.965855       -26.2822
  94   2.0000      -0.959230       -26.1020
  95   2.0000      -0.955292       -25.9948
  96   2.0000      -0.931757       -25.3544
  97   2.0000      -0.918914       -25.0049
  98   2.0000      -0.910279       -24.7699
  99   2.0000      -0.899397       -24.4738
 100   2.0000      -0.892390       -24.2832
 101   2.0000      -0.884584       -24.0708
 102   2.0000      -0.874430       -23.7945
 103   2.0000      -0.862699       -23.4752
 104   2.0000      -0.860278       -23.4094
 105   2.0000      -0.847841       -23.0709
 106   2.0000      -0.842874       -22.9358
 107   2.0000      -0.836117       -22.7519
 108   2.0000      -0.831208       -22.6183
 109   2.0000      -0.826138       -22.4804
 110   2.0000      -0.815789       -22.1988
 111   2.0000      -0.809866       -22.0376
 112   2.0000      -0.797804       -21.7094
 113   2.0000      -0.790200       -21.5024
 114   2.0000      -0.780649       -21.2425
 115   2.0000      -0.771356       -20.9897
 116   2.0000      -0.768247       -20.9051
 117   2.0000      -0.753203       -20.4957
 118   2.0000      -0.735212       -20.0061
 119   2.0000      -0.723422       -19.6853
 120   2.0000      -0.710171       -19.3247
 121   2.0000      -0.705084       -19.1863
 122   2.0000      -0.690556       -18.7910
 123   2.0000      -0.687963       -18.7204
 124   2.0000      -0.684409       -18.6237
 125   2.0000      -0.683374       -18.5955
 126   2.0000      -0.678502       -18.4630
 127   2.0000      -0.672957       -18.3121
 128   2.0000      -0.668163       -18.1816
 129   2.0000      -0.656845       -17.8737
 130   2.0000      -0.655118       -17.8267
 131   2.0000      -0.654129       -17.7998
 132   2.0000      -0.651459       -17.7271
 133   2.0000      -0.639884       -17.4121
 134   2.0000      -0.633485       -17.2380
 135   2.0000      -0.628559       -17.1040
 136   2.0000      -0.623135       -16.9564
 137   2.0000      -0.619631       -16.8610
 138   2.0000      -0.619094       -16.8464
 139   2.0000      -0.616204       -16.7678
 140   2.0000      -0.610036       -16.5999
 141   2.0000      -0.596005       -16.2181
 142   2.0000      -0.595146       -16.1948
 143   2.0000      -0.587203       -15.9786
 144   2.0000      -0.582291       -15.8449
 145   2.0000      -0.578526       -15.7425
 146   2.0000      -0.574995       -15.6464
 147   2.0000      -0.567742       -15.4490
 148   2.0000      -0.564160       -15.3516
 149   2.0000      -0.563466       -15.3327
 150   2.0000      -0.561020       -15.2661
 151   2.0000      -0.560470       -15.2512
 152   2.0000      -0.553699       -15.0669
 153   2.0000      -0.548863       -14.9353
 154   2.0000      -0.545738       -14.8503
 155   2.0000      -0.540124       -14.6975
 156   2.0000      -0.536640       -14.6027
 157   2.0000      -0.533606       -14.5202
 158   2.0000      -0.532233       -14.4828
 159   2.0000      -0.529374       -14.4050
 160   2.0000      -0.526313       -14.3217
 161   2.0000      -0.522726       -14.2241
 162   2.0000      -0.516917       -14.0660
 163   2.0000      -0.511904       -13.9296
 164   2.0000      -0.508339       -13.8326
 165   2.0000      -0.502218       -13.6660
 166   2.0000      -0.500010       -13.6060
 167   2.0000      -0.499578       -13.5942
 168   2.0000      -0.497916       -13.5490
 169   2.0000      -0.497584       -13.5399
 170   2.0000      -0.491893       -13.3851
 171   2.0000      -0.491742       -13.3810
 172   2.0000      -0.490754       -13.3541
 173   2.0000      -0.488754       -13.2997
 174   2.0000      -0.482884       -13.1399
 175   2.0000      -0.478334       -13.0161
 176   2.0000      -0.476589       -12.9686
 177   2.0000      -0.474355       -12.9079
 178   2.0000      -0.470999       -12.8165
 179   2.0000      -0.470715       -12.8088
 180   2.0000      -0.467925       -12.7329
 181   2.0000      -0.464762       -12.6468
 182   2.0000      -0.460380       -12.5276
 183   2.0000      -0.458255       -12.4697
 184   2.0000      -0.455017       -12.3816
 185   2.0000      -0.453668       -12.3449
 186   2.0000      -0.452758       -12.3202
 187   2.0000      -0.450377       -12.2554
 188   2.0000      -0.444179       -12.0867
 189   2.0000      -0.442769       -12.0484
 190   2.0000      -0.438249       -11.9254
 191   2.0000      -0.432377       -11.7656
 192   2.0000      -0.430526       -11.7152
 193   2.0000      -0.428491       -11.6598
 194   2.0000      -0.425196       -11.5702
 195   2.0000      -0.424167       -11.5422
 196   2.0000      -0.423804       -11.5323
 197   2.0000      -0.416482       -11.3331
 198   2.0000      -0.414172       -11.2702
 199   2.0000      -0.413528       -11.2527
 200   2.0000      -0.409863       -11.1529
 201   2.0000      -0.403986       -10.9930
 202   2.0000      -0.402722       -10.9586
 203   2.0000      -0.400709       -10.9038
 204   2.0000      -0.383303       -10.4302
 205   2.0000      -0.382679       -10.4132
 206   2.0000      -0.381524       -10.3818
 207   2.0000      -0.378975       -10.3124
 208   2.0000      -0.372936       -10.1481
 209   2.0000      -0.369584       -10.0569
 210   2.0000      -0.364358        -9.9147
 211   2.0000      -0.352475        -9.5913
 212   2.0000      -0.337369        -9.1803
 213   2.0000      -0.337064        -9.1720
 214   2.0000      -0.331317        -9.0156
 215   2.0000      -0.324218        -8.8224
 216   2.0000      -0.318535        -8.6678
 217   2.0000      -0.316206        -8.6044
 218   2.0000      -0.307139        -8.3577
 219   2.0000      -0.306251        -8.3335
 220   2.0000      -0.301238        -8.1971
 221   2.0000      -0.291583        -7.9344
 222   2.0000      -0.281348        -7.6559
 223   2.0000      -0.258086        -7.0229
 224   2.0000      -0.220761        -6.0072
 225   2.0000      -0.184454        -5.0192
 226   0.0000      -0.101967        -2.7747
 227   0.0000      -0.063131        -1.7179
 228   0.0000      -0.049294        -1.3414
 229   0.0000      -0.016322        -0.4441
 230   0.0000       0.002883         0.0784

MULLIKEN ATOMIC CHARGES
-----------------------
   0 C :   -0.111973
   1 S :    0.098856
   2 C :   -0.004695
   3 C :    0.086107
   4 C :    0.082397
   5 N :   -0.227311
   6 C :   -0.034105
   7 C :    0.096511
   8 C :    0.082586
   9 N :   -0.226374
  10 C :   -0.133634
  11 C :   -0.005629
  12 C :   -0.042520
  13 C :    0.032656
  14 C :    0.022477
  15 C :   -0.025684
  16 S :    0.078331
  17 C :   -0.052305
  18 C :    0.014251
  19 C :    0.012578
  20 C :   -0.076236
  21 S :    0.088151
  22 C :    0.100165
  23 C :   -0.191010
  24 S :    0.127031
  25 C :   -0.138014
  26 C :    0.122331
  27 C :    0.167956
  28 O :   -0.192326
  29 C :    0.232081
  30 N :    0.276275
  31 O :   -0.248958
  32 O :   -0.240880
  33 C :   -0.099708
  34 C :    0.029700
  35 C :   -0.033285
  36 C :    0.028844
  37 C :    0.020732
  38 C :   -0.032545
  39 S :    0.072078
  40 C :   -0.045452
  41 C :    0.019168
  42 C :    0.029226
  43 C :   -0.050496
  44 S :    0.100910
  45 C :   -0.003663
  46 C :    0.122691
  47 O :   -0.214573
  48 C :    0.166648
  49 C :   -0.062140
  50 C :   -0.107047
  51 C :    0.522092
  52 F :   -0.170069
  53 F :   -0.171219
  54 F :   -0.157029
  55 C :   -0.017528
  56 C :   -0.008054
  57 H :    0.004235
  58 H :   -0.010803
  59 H :    0.012999
  60 H :   -0.006699
  61 H :    0.011650
  62 H :    0.084975
  63 H :    0.092549
  64 H :   -0.003361
  65 H :   -0.000749
  66 H :   -0.009465
  67 H :    0.016028
  68 H :    0.089675
  69 H :    0.091758
  70 H :   -0.017771
  71 H :   -0.013922
  72 H :   -0.013206
  73 H :   -0.010206
  74 H :    0.000076
  75 H :   -0.021400
  76 H :    0.019571
  77 H :   -0.017443
  78 H :   -0.011997
  79 H :   -0.013820
  80 H :   -0.015316
  81 H :   -0.009187
  82 H :    0.004080
  83 H :   -0.007167
  84 H :   -0.002104
  85 H :    0.024026
  86 H :    0.024627
Sum of atomic charges:   -0.0000000

LOEWDIN ATOMIC CHARGES
----------------------
   0 C :   -0.185836
   1 S :    0.427921
   2 C :   -0.052915
   3 C :   -0.030816
   4 C :    0.019207
   5 N :   -0.119253
   6 C :   -0.039377
   7 C :   -0.033770
   8 C :    0.021851
   9 N :   -0.122650
  10 C :   -0.186699
  11 C :   -0.054866
  12 C :   -0.164592
  13 C :   -0.026052
  14 C :   -0.044056
  15 C :   -0.167516
  16 S :    0.373732
  17 C :   -0.189987
  18 C :   -0.019470
  19 C :   -0.048002
  20 C :   -0.132998
  21 S :    0.378094
  22 C :   -0.098220
  23 C :   -0.178059
  24 S :    0.437117
  25 C :   -0.169619
  26 C :   -0.075778
  27 C :    0.015595
  28 O :    0.015480
  29 C :    0.015742
  30 N :    0.273702
  31 O :   -0.211385
  32 O :   -0.208514
  33 C :   -0.011451
  34 C :   -0.074805
  35 C :   -0.159688
  36 C :   -0.032445
  37 C :   -0.042768
  38 C :   -0.174524
  39 S :    0.403455
  40 C :   -0.183407
  41 C :   -0.023715
  42 C :   -0.043105
  43 C :   -0.132212
  44 S :    0.384319
  45 C :   -0.083311
  46 C :    0.057390
  47 O :    0.018383
  48 C :    0.029351
  49 C :   -0.040524
  50 C :   -0.132075
  51 C :    0.169422
  52 F :   -0.069730
  53 F :   -0.070732
  54 F :   -0.056928
  55 C :   -0.038685
  56 C :   -0.040167
  57 H :    0.017027
  58 H :    0.025206
  59 H :    0.031079
  60 H :    0.000657
  61 H :    0.018922
  62 H :    0.050317
  63 H :    0.054914
  64 H :    0.027669
  65 H :    0.023313
  66 H :   -0.000206
  67 H :    0.021443
  68 H :    0.051428
  69 H :    0.055004
  70 H :    0.035586
  71 H :    0.032357
  72 H :    0.031982
  73 H :    0.033872
  74 H :    0.030847
  75 H :    0.028938
  76 H :    0.030398
  77 H :    0.035958
  78 H :    0.033484
  79 H :    0.031750
  80 H :    0.032165
  81 H :    0.030870
  82 H :    0.039167
  83 H :    0.036314
  84 H :    0.039059
  85 H :    0.023469
  86 H :    0.026956

  Mayer bond orders larger than 0.100000
B(  0-C ,  1-S ) :   1.1596 B(  0-C ,  2-C ) :   1.5465 B(  0-C , 57-H ) :   0.9644
B(  1-S , 10-C ) :   1.1072 B(  2-C ,  3-C ) :   1.0508 B(  2-C ,  6-C ) :   1.3288
B(  3-C ,  4-C ) :   1.0794 B(  3-C , 58-H ) :   0.9189 B(  3-C , 59-H ) :   0.9223
B(  4-C ,  5-N ) :   1.0687 B(  4-C , 60-H ) :   0.9464 B(  4-C , 61-H ) :   0.9436
B(  5-N , 62-H ) :   0.9713 B(  5-N , 63-H ) :   0.9712 B(  6-C ,  7-C ) :   1.0879
B(  6-C , 10-C ) :   1.4418 B(  7-C ,  8-C ) :   1.0871 B(  7-C , 64-H ) :   0.9067
B(  7-C , 65-H ) :   0.8978 B(  8-C ,  9-N ) :   1.0719 B(  8-C , 66-H ) :   0.9423
B(  8-C , 67-H ) :   0.9381 B(  9-N , 68-H ) :   0.9711 B(  9-N , 69-H ) :   0.9704
B( 10-C , 11-C ) :   1.1922 B( 11-C , 12-C ) :   1.5773 B( 11-C , 70-H ) :   0.9530
B( 12-C , 13-C ) :   1.1474 B( 12-C , 16-S ) :   1.0259 B( 13-C , 14-C ) :   1.5773
B( 13-C , 71-H ) :   0.9993 B( 14-C , 15-C ) :   1.1994 B( 14-C , 72-H ) :   0.9938
B( 15-C , 16-S ) :   1.0562 B( 15-C , 17-C ) :   1.4633 B( 17-C , 18-C ) :   1.2161
B( 17-C , 21-S ) :   1.0485 B( 18-C , 19-C ) :   1.5557 B( 18-C , 73-H ) :   0.9949
B( 19-C , 20-C ) :   1.1950 B( 19-C , 74-H ) :   0.9849 B( 20-C , 21-S ) :   1.0572
B( 20-C , 22-C ) :   1.5024 B( 22-C , 23-C ) :   1.2706 B( 22-C , 75-H ) :   0.9180
B( 23-C , 24-S ) :   1.0974 B( 23-C , 27-C ) :   1.3619 B( 24-S , 25-C ) :   1.1008
B( 25-C , 26-C ) :   1.2526 B( 25-C , 34-C ) :   1.2920 B( 26-C , 27-C ) :   1.2727
B( 26-C , 33-C ) :   1.1297 B( 27-C , 28-O ) :   1.1046 B( 28-O , 29-C ) :   1.1051
B( 29-C , 30-N ) :   0.9332 B( 29-C , 33-C ) :   1.5348 B( 30-N , 31-O ) :   1.5194
B( 30-N , 32-O ) :   1.5042 B( 31-O , 32-O ) :   0.2716 B( 33-C , 76-H ) :   1.0060
B( 34-C , 35-C ) :   1.5014 B( 34-C , 77-H ) :   0.9372 B( 35-C , 36-C ) :   1.1973
B( 35-C , 39-S ) :   1.0431 B( 36-C , 37-C ) :   1.5327 B( 36-C , 78-H ) :   0.9993
B( 37-C , 38-C ) :   1.2300 B( 37-C , 79-H ) :   0.9926 B( 38-C , 39-S ) :   1.0594
B( 38-C , 40-C ) :   1.4423 B( 40-C , 41-C ) :   1.2196 B( 40-C , 44-S ) :   1.0538
B( 41-C , 42-C ) :   1.5560 B( 41-C , 80-H ) :   0.9954 B( 42-C , 43-C ) :   1.1908
B( 42-C , 81-H ) :   0.9913 B( 43-C , 44-S ) :   1.0518 B( 43-C , 45-C ) :   1.5127
B( 45-C , 46-C ) :   1.2492 B( 45-C , 82-H ) :   0.9320 B( 46-C , 47-O ) :   1.1462
B( 46-C , 50-C ) :   1.4084 B( 47-O , 48-C ) :   1.1171 B( 48-C , 49-C ) :   1.4480
B( 48-C , 55-C ) :   1.1279 B( 49-C , 50-C ) :   1.2590 B( 49-C , 83-H ) :   1.0163
B( 50-C , 51-C ) :   0.9579 B( 51-C , 52-F ) :   1.1599 B( 51-C , 53-F ) :   1.1592
B( 51-C , 54-F ) :   1.1803 B( 55-C , 56-C ) :   1.9048 B( 55-C , 84-H ) :   0.9578
B( 56-C , 85-H ) :   0.9613 B( 56-C , 86-H ) :   0.9458

-----------------------------------------------------------------------------
         ABSORPTION SPECTRUM VIA TRANSITION ELECTRIC DIPOLE MOMENTS
-----------------------------------------------------------------------------
State   Energy  Wavelength   fosc         T2         TX        TY        TZ
        (cm-1)    (nm)                  (au**2)     (au)      (au)      (au)
-----------------------------------------------------------------------------
   0    6767.4   1477.7   1.401751607  68.19083   7.24112  -3.95149  -0.37782
   1   13561.8    737.4   0.091266270   2.21549  -1.22158   0.58052   0.62147
   2   14252.3    701.6   0.457516779  10.56809   2.39527  -2.18965   0.19025
   3   16425.9    608.8   0.228466605   4.57899  -0.58547  -0.28099   2.03894
   4   20899.0    478.5   0.091108989   1.43519  -0.38698   0.66423   0.91883
   5   22476.4    444.9   0.038800973   0.56832   0.48509  -0.44437   0.36815
   6   24738.5    404.2   0.355847526   4.73550  -0.69835   1.20411   1.67270
   7   24888.5    401.8   0.068150865   0.90146   0.11041   0.25780   0.90709
   8   25569.7    391.1   0.016563348   0.21325  -0.07638  -0.10746  -0.44258
   9   28880.7    346.3   0.027095776   0.30887  -0.34357  -0.24249  -0.36335
  10   29226.2    342.2   0.015232489   0.17158  -0.29935   0.26483   0.10881
  11   29947.1    333.9   0.016510632   0.18150   0.20027  -0.18504   0.32735
  12   30502.9    327.8   0.001644814   0.01775  -0.02248  -0.01924   0.12991
  13   30796.8    324.7   0.080515882   0.86070  -0.03289  -0.54067  -0.75319
  14   31010.0    322.5   0.044772803   0.47532  -0.45908   0.35897   0.36838
  15   31766.6    314.8   0.035259224   0.36541  -0.23962  -0.18958  -0.52158
  16   31988.5    312.6   0.000772393   0.00795  -0.08493  -0.01892   0.01946
  17   32165.3    310.9   0.008166267   0.08358  -0.21771  -0.10486  -0.15871
  18   32604.0    306.7   0.015454658   0.15605  -0.10202  -0.20158  -0.32405
  19   33130.2    301.8   0.251839078   2.50250  -0.63504  -0.41564  -1.38798
  20   33328.9    300.0   0.011465228   0.11325  -0.10386   0.24480   0.20624
  21   33502.7    298.5   0.052466400   0.51556   0.51619  -0.49170  -0.08566
  22   33870.3    295.2   0.014526923   0.14120   0.19899  -0.20184  -0.24670
  23   34197.7    292.4   0.019098245   0.18385   0.10050  -0.05312  -0.41344
  24   34384.4    290.8   0.006137573   0.05876  -0.09130   0.14268   0.17340
  25   35369.8    282.7   0.009871086   0.09188   0.21842  -0.19327   0.08256
  26   35439.6    282.2   0.048705681   0.45245   0.05115  -0.21296  -0.63599
  27   36629.9    273.0   0.052815051   0.47468  -0.33489   0.57195   0.18816
  28   37257.3    268.4   0.044565027   0.39378  -0.29830  -0.14096  -0.53379
  29   37850.7    264.2   0.025598199   0.22264   0.24855  -0.36384  -0.16878
  30   37965.6    263.4   0.030150799   0.26145  -0.33155   0.34405  -0.18206
  31   38409.4    260.4   0.233865514   2.00449  -0.56490  -0.30126  -1.26278
  32   38908.8    257.0   0.220817726   1.86836   0.24542  -0.88366  -1.01355
  33   39612.6    252.4   0.165513327   1.37554   0.23771   0.41946   1.06915
  34   40016.2    249.9   0.027966271   0.23008  -0.00673   0.34830   0.32973

FINAL SINGLE POINT ENERGY     -4730.435261376870

DIPOLE MOMENT
-------------
                                X             Y             Z
Electronic contribution:     98.59784     -89.90528     -18.37670
Nuclear contribution   :    -99.18303      92.08668      20.31103
                        -----------------------------------------
Total Dipole Moment    :     -0.58519       2.18139       1.93433
                        -----------------------------------------
Magnitude (a.u.)       :      2.97364
Magnitude (Debye)      :      7.55840

Rotational constants in cm-1:     0.002927     0.000240     0.000230
Rotational constants in MHz :    87.740769     7.183612     6.890329

                             ****ORCA TERMINATED NORMALLY****
TOTAL RUN TIME: 0 days 0 hours 7 minutes 13 seconds 94 msec
