                         Program Version 4.2.0 -  RELEASE  -
|  1> # ORCA input file
|  2> # SCF done       -170.397711385411          0.000920190430
|  3> ! CAM-B3LYP def2-SVP def2/J RIJCOSX Grid4 TightSCF
|  4> %maxcore 5000
|  5> %tddft
|  6>     Mode sTDDFT
|  7>     Ethresh 5.0
|  8>     maxcore 5000
|  9> end
| 10>
| 11> %pal
| 12>   nprocs 6
| 13>   end
| 14> * xyz 0 1
| 15>    C        1.11632         1.06600         0.69155
| 16>    F        1.20751         1.83500        -0.38796
| 17>    C        1.09480         1.63999         1.96788
| 18>    C        1.07339         3.14074         2.11204
| 19>    O        0.65040         3.85202         1.24998
| 20>    O        1.55769         3.64347         3.25000
| 21>    C        1.02610         0.73841         3.03089
| 22>    F        1.00676         1.19497         4.29948
| 23>    C        0.96989        -0.62946         2.84337
| 24>    F        0.90206        -1.39840         3.94289
| 25>    C        0.99480        -1.22478         1.56742
| 26>    C        1.07767        -0.30639         0.50227
| 27>    F        1.10879        -0.74369        -0.76405
| 28>    C        0.93877        -2.64499         1.37704
| 29>    S        0.60165        -3.72009         2.73709
| 30>    C        0.68988        -5.08014         1.72223
| 31>    C        0.97703        -4.73129         0.39732
| 32>    C        1.11350        -3.36526         0.20112
| 33>    C        1.04373        -5.97936        -0.37792
| 34>    O        1.27604        -6.14759        -1.54945
| 35>    C        0.75656        -7.07038         0.63868
| 36>    C        0.55705        -6.48922         1.86696
| 37>    C        0.74653        -8.41871         0.22208
| 38>    C        0.48431        -9.47742         1.03858
| 39>    C        0.47346       -10.85119         0.71154
| 40>    S       -0.12966       -11.94611         1.92810
| 41>    C        0.13604       -13.33407         0.91604
| 42>    C        0.66200       -12.94203        -0.31443
| 43>    C        0.86497       -11.56055        -0.42449
| 44>    C        1.46988       -10.93946        -1.64428
| 45>    C        2.12470       -11.98636        -2.54081
| 46>    C        1.15417       -13.14683        -2.75409
| 47>    N        1.74927       -14.07030        -3.74918
| 48>    O        1.25981       -14.08189        -4.85121
| 49>    O        2.69982       -14.72551        -3.39580
| 50>    C        0.94243       -13.89023        -1.43858
| 51>    C       -0.20237       -14.59826         1.45976
| 52>    C        0.12358       -15.82886         0.98422
| 53>    C       -0.25713       -17.04337         1.60535
| 54>    S        0.32353       -18.55770         0.92081
| 55>    C       -0.48764       -19.44969         2.12897
| 56>    C       -1.17767       -18.61653         3.01449
| 57>    C       -1.05143       -17.26625         2.72526
| 58>    C       -1.83726       -19.48802         4.00634
| 59>    O       -2.53532       -19.18436         4.94128
| 60>    C       -1.44367       -20.89286         3.59602
| 61>    C       -0.64779       -20.81948         2.48047
| 62>    C       -1.89838       -22.00005         4.34905
| 63>    C       -1.59536       -23.29973         4.09926
| 64>    C       -2.04963       -24.40001         4.87401
| 65>    C       -2.86814       -24.41970         5.97448
| 66>    C       -3.09340       -25.71508         6.49394
| 67>    C       -2.41238       -26.71707         5.74934
| 68>    S       -1.52114       -26.01854         4.42851
| 69>    C       -2.47847       -28.05409         6.07424
| 70>    C       -3.24579       -28.41962         7.17748
| 71>    C       -3.92826       -27.42084         7.92076
| 72>    C       -3.86481       -26.08431         7.59769
| 73>    S       -4.81501       -28.12479         9.24805
| 74>    C       -4.27185       -29.70697         8.80082
| 75>    C       -3.46940       -29.72000         7.71649
| 76>    H        1.80349         2.98853         3.91687
| 77>    H        1.33886        -2.92446        -0.75083
| 78>    H        0.33813        -6.98873         2.79220
| 79>    H        0.94926        -8.55630        -0.82850
| 80>    H        0.22862        -9.26418         2.06894
| 81>    H        2.22092       -10.20489        -1.34836
| 82>    H        0.69109       -10.41411        -2.20595
| 83>    H        3.03438       -12.36966        -2.07383
| 84>    H        2.39248       -11.53158        -3.49630
| 85>    H        0.21318       -12.78621        -3.17933
| 86>    H        1.85374       -14.46013        -1.22488
| 87>    H        0.11180       -14.59458        -1.53631
| 88>    H       -0.75641       -14.54408         2.38732
| 89>    H        0.73571       -15.93643         0.10332
| 90>    H       -1.51240       -16.47981         3.29333
| 91>    H       -0.20807       -21.64159         1.94668
| 92>    H       -2.53101       -21.74393         5.18838
| 93>    H       -0.95763       -23.54459         3.26088
| 94>    H       -3.30146       -23.53603         6.40732
| 95>    H       -1.95331       -28.79851         5.49671
| 96>    H       -4.39018       -25.33989         8.17456
| 97>    H       -4.59520       -30.54201         9.39155
| 98>    H       -3.04010       -30.61250         7.29781
| 99> *
|100>
|101>                          ****END OF INPUT****

CARTESIAN COORDINATES (ANGSTROEM)
---------------------------------
  C      1.116320    1.066000    0.691550
  F      1.207510    1.835000   -0.387960
  C      1.094800    1.639990    1.967880
  C      1.073390    3.140740    2.112040
  O      0.650400    3.852020    1.249980
  O      1.557690    3.643470    3.250000
  C      1.026100    0.738410    3.030890
  F      1.006760    1.194970    4.299480
  C      0.969890   -0.629460    2.843370
  F      0.902060   -1.398400    3.942890
  C      0.994800   -1.224780    1.567420
  C      1.077670   -0.306390    0.502270
  F      1.108790   -0.743690   -0.764050
  C      0.938770   -2.644990    1.377040
  S      0.601650   -3.720090    2.737090
  C      0.689880   -5.080140    1.722230
  C      0.977030   -4.731290    0.397320
  C      1.113500   -3.365260    0.201120
  C      1.043730   -5.979360   -0.377920
  O      1.276040   -6.147590   -1.549450
  C      0.756560   -7.070380    0.638680
  C      0.557050   -6.489220    1.866960
  C      0.746530   -8.418710    0.222080
  C      0.484310   -9.477420    1.038580
  C      0.473460  -10.851190    0.711540
  S     -0.129660  -11.946110    1.928100
  C      0.136040  -13.334070    0.916040
  C      0.662000  -12.942030   -0.314430
  C      0.864970  -11.560550   -0.424490
  C      1.469880  -10.939460   -1.644280
  C      2.124700  -11.986360   -2.540810
  C      1.154170  -13.146830   -2.754090
  N      1.749270  -14.070300   -3.749180
  O      1.259810  -14.081890   -4.851210
  O      2.699820  -14.725510   -3.395800
  C      0.942430  -13.890230   -1.438580
  C     -0.202370  -14.598260    1.459760
  C      0.123580  -15.828860    0.984220
  C     -0.257130  -17.043370    1.605350
  S      0.323530  -18.557700    0.920810
  C     -0.487640  -19.449690    2.128970
  C     -1.177670  -18.616530    3.014490
  C     -1.051430  -17.266250    2.725260
  C     -1.837260  -19.488020    4.006340
  O     -2.535320  -19.184360    4.941280
  C     -1.443670  -20.892860    3.596020
  C     -0.647790  -20.819480    2.480470
  C     -1.898380  -22.000050    4.349050
  C     -1.595360  -23.299730    4.099260
  C     -2.049630  -24.400010    4.874010
  C     -2.868140  -24.419700    5.974480
  C     -3.093400  -25.715080    6.493940
  C     -2.412380  -26.717070    5.749340
  S     -1.521140  -26.018540    4.428510
  C     -2.478470  -28.054090    6.074240
  C     -3.245790  -28.419620    7.177480
  C     -3.928260  -27.420840    7.920760
  C     -3.864810  -26.084310    7.597690
  S     -4.815010  -28.124790    9.248050
  C     -4.271850  -29.706970    8.800820
  C     -3.469400  -29.720000    7.716490
  H      1.803490    2.988530    3.916870
  H      1.338860   -2.924460   -0.750830
  H      0.338130   -6.988730    2.792200
  H      0.949260   -8.556300   -0.828500
  H      0.228620   -9.264180    2.068940
  H      2.220920  -10.204890   -1.348360
  H      0.691090  -10.414110   -2.205950
  H      3.034380  -12.369660   -2.073830
  H      2.392480  -11.531580   -3.496300
  H      0.213180  -12.786210   -3.179330
  H      1.853740  -14.460130   -1.224880
  H      0.111800  -14.594580   -1.536310
  H     -0.756410  -14.544080    2.387320
  H      0.735710  -15.936430    0.103320
  H     -1.512400  -16.479810    3.293330
  H     -0.208070  -21.641590    1.946680
  H     -2.531010  -21.743930    5.188380
  H     -0.957630  -23.544590    3.260880
  H     -3.301460  -23.536030    6.407320
  H     -1.953310  -28.798510    5.496710
  H     -4.390180  -25.339890    8.174560
  H     -4.595200  -30.542010    9.391550
  H     -3.040100  -30.612500    7.297810

 Total Charge           Charge          ....    0
 Multiplicity           Mult            ....    1
 Number of Electrons    NEL             ....  464
 Basis Dimension        Dim             ....  989

ORBITAL ENERGIES
----------------

  NO   OCC          E(Eh)            E(eV)
   0   2.0000     -88.984872     -2421.4015
   1   2.0000     -88.978496     -2421.2280
   2   2.0000     -88.962428     -2420.7907
   3   2.0000     -88.945101     -2420.3192
   4   2.0000     -88.943470     -2420.2749
   5   2.0000     -24.828722      -675.6239
   6   2.0000     -24.818890      -675.3563
   7   2.0000     -24.810379      -675.1247
   8   2.0000     -24.801084      -674.8718
   9   2.0000     -19.262400      -524.1566
  10   2.0000     -19.247344      -523.7469
  11   2.0000     -19.246944      -523.7360
  12   2.0000     -19.233200      -523.3620
  13   2.0000     -19.229611      -523.2643
  14   2.0000     -19.202750      -522.5334
  15   2.0000     -14.644345      -398.4929
  16   2.0000     -10.416666      -283.4519
  17   2.0000     -10.399978      -282.9978
  18   2.0000     -10.393709      -282.8272
  19   2.0000     -10.392737      -282.8008
  20   2.0000     -10.389294      -282.7071
  21   2.0000     -10.374239      -282.2974
  22   2.0000     -10.370429      -282.1937
  23   2.0000     -10.340797      -281.3874
  24   2.0000     -10.334674      -281.2208
  25   2.0000     -10.326523      -280.9990
  26   2.0000     -10.323530      -280.9175
  27   2.0000     -10.322454      -280.8882
  28   2.0000     -10.315274      -280.6929
  29   2.0000     -10.314218      -280.6642
  30   2.0000     -10.313829      -280.6535
  31   2.0000     -10.310154      -280.5536
  32   2.0000     -10.303763      -280.3797
  33   2.0000     -10.303667      -280.3770
  34   2.0000     -10.302317      -280.3403
  35   2.0000     -10.300907      -280.3019
  36   2.0000     -10.300780      -280.2985
  37   2.0000     -10.297586      -280.2116
  38   2.0000     -10.297399      -280.2065
  39   2.0000     -10.296990      -280.1953
  40   2.0000     -10.296096      -280.1710
  41   2.0000     -10.295593      -280.1573
  42   2.0000     -10.294291      -280.1219
  43   2.0000     -10.294250      -280.1208
  44   2.0000     -10.294203      -280.1195
  45   2.0000     -10.293503      -280.1005
  46   2.0000     -10.293192      -280.0920
  47   2.0000     -10.292915      -280.0844
  48   2.0000     -10.291419      -280.0437
  49   2.0000     -10.289345      -279.9873
  50   2.0000     -10.289177      -279.9827
  51   2.0000     -10.285556      -279.8842
  52   2.0000     -10.281199      -279.7657
  53   2.0000     -10.279900      -279.7303
  54   2.0000     -10.279610      -279.7224
  55   2.0000     -10.278776      -279.6997
  56   2.0000     -10.278294      -279.6866
  57   2.0000     -10.278194      -279.6839
  58   2.0000     -10.277814      -279.6735
  59   2.0000     -10.273176      -279.5473
  60   2.0000     -10.270424      -279.4725
  61   2.0000      -8.079280      -219.8484
  62   2.0000      -8.073489      -219.6908
  63   2.0000      -8.058505      -219.2831
  64   2.0000      -8.041155      -218.8109
  65   2.0000      -8.039758      -218.7729
  66   2.0000      -6.048475      -164.5874
  67   2.0000      -6.044191      -164.4708
  68   2.0000      -6.042550      -164.4262
  69   2.0000      -6.041792      -164.4055
  70   2.0000      -6.038545      -164.3172
  71   2.0000      -6.036069      -164.2498
  72   2.0000      -6.027580      -164.0188
  73   2.0000      -6.023772      -163.9152
  74   2.0000      -6.020621      -163.8294
  75   2.0000      -6.010707      -163.5597
  76   2.0000      -6.009420      -163.5246
  77   2.0000      -6.006824      -163.4540
  78   2.0000      -6.005198      -163.4097
  79   2.0000      -6.002420      -163.3341
  80   2.0000      -6.001118      -163.2987
  81   2.0000      -1.347527       -36.6681
  82   2.0000      -1.333265       -36.2800
  83   2.0000      -1.328724       -36.1564
  84   2.0000      -1.327880       -36.1335
  85   2.0000      -1.314236       -35.7622
  86   2.0000      -1.188681       -32.3457
  87   2.0000      -1.148518       -31.2528
  88   2.0000      -1.143516       -31.1166
  89   2.0000      -1.139946       -31.0195
  90   2.0000      -1.103348       -30.0236
  91   2.0000      -1.018236       -27.7076
  92   2.0000      -1.009779       -27.4775
  93   2.0000      -1.003876       -27.3168
  94   2.0000      -0.999496       -27.1977
  95   2.0000      -0.994494       -27.0616
  96   2.0000      -0.969847       -26.3909
  97   2.0000      -0.958859       -26.0919
  98   2.0000      -0.951538       -25.8927
  99   2.0000      -0.947649       -25.7868
 100   2.0000      -0.919099       -25.0100
 101   2.0000      -0.910040       -24.7635
 102   2.0000      -0.903555       -24.5870
 103   2.0000      -0.886874       -24.1331
 104   2.0000      -0.880656       -23.9639
 105   2.0000      -0.871320       -23.7098
 106   2.0000      -0.868198       -23.6249
 107   2.0000      -0.866052       -23.5665
 108   2.0000      -0.859716       -23.3941
 109   2.0000      -0.856596       -23.3092
 110   2.0000      -0.850834       -23.1524
 111   2.0000      -0.833651       -22.6848
 112   2.0000      -0.824864       -22.4457
 113   2.0000      -0.816946       -22.2302
 114   2.0000      -0.804855       -21.9012
 115   2.0000      -0.784402       -21.3447
 116   2.0000      -0.781407       -21.2632
 117   2.0000      -0.772923       -21.0323
 118   2.0000      -0.765040       -20.8178
 119   2.0000      -0.758234       -20.6326
 120   2.0000      -0.755215       -20.5505
 121   2.0000      -0.743576       -20.2337
 122   2.0000      -0.741601       -20.1800
 123   2.0000      -0.727911       -19.8075
 124   2.0000      -0.720117       -19.5954
 125   2.0000      -0.709660       -19.3108
 126   2.0000      -0.696319       -18.9478
 127   2.0000      -0.689081       -18.7508
 128   2.0000      -0.684162       -18.6170
 129   2.0000      -0.682034       -18.5591
 130   2.0000      -0.674072       -18.3424
 131   2.0000      -0.664014       -18.0687
 132   2.0000      -0.662047       -18.0152
 133   2.0000      -0.655883       -17.8475
 134   2.0000      -0.652825       -17.7643
 135   2.0000      -0.648250       -17.6398
 136   2.0000      -0.646422       -17.5900
 137   2.0000      -0.639913       -17.4129
 138   2.0000      -0.633880       -17.2488
 139   2.0000      -0.631494       -17.1838
 140   2.0000      -0.629635       -17.1332
 141   2.0000      -0.628026       -17.0895
 142   2.0000      -0.626814       -17.0565
 143   2.0000      -0.621116       -16.9014
 144   2.0000      -0.620376       -16.8813
 145   2.0000      -0.615539       -16.7497
 146   2.0000      -0.612175       -16.6581
 147   2.0000      -0.601062       -16.3557
 148   2.0000      -0.597139       -16.2490
 149   2.0000      -0.590137       -16.0584
 150   2.0000      -0.589965       -16.0538
 151   2.0000      -0.585853       -15.9419
 152   2.0000      -0.579101       -15.7581
 153   2.0000      -0.573736       -15.6121
 154   2.0000      -0.573007       -15.5923
 155   2.0000      -0.571245       -15.5444
 156   2.0000      -0.569535       -15.4978
 157   2.0000      -0.563028       -15.3208
 158   2.0000      -0.558736       -15.2040
 159   2.0000      -0.554229       -15.0814
 160   2.0000      -0.552849       -15.0438
 161   2.0000      -0.540745       -14.7144
 162   2.0000      -0.539567       -14.6824
 163   2.0000      -0.537172       -14.6172
 164   2.0000      -0.533479       -14.5167
 165   2.0000      -0.533234       -14.5100
 166   2.0000      -0.532127       -14.4799
 167   2.0000      -0.529195       -14.4001
 168   2.0000      -0.527942       -14.3660
 169   2.0000      -0.527001       -14.3404
 170   2.0000      -0.524902       -14.2833
 171   2.0000      -0.520289       -14.1578
 172   2.0000      -0.515944       -14.0396
 173   2.0000      -0.513458       -13.9719
 174   2.0000      -0.513050       -13.9608
 175   2.0000      -0.508232       -13.8297
 176   2.0000      -0.504414       -13.7258
 177   2.0000      -0.499657       -13.5964
 178   2.0000      -0.499540       -13.5932
 179   2.0000      -0.496712       -13.5162
 180   2.0000      -0.494248       -13.4492
 181   2.0000      -0.493455       -13.4276
 182   2.0000      -0.490001       -13.3336
 183   2.0000      -0.483636       -13.1604
 184   2.0000      -0.482481       -13.1290
 185   2.0000      -0.481467       -13.1014
 186   2.0000      -0.476719       -12.9722
 187   2.0000      -0.475411       -12.9366
 188   2.0000      -0.468882       -12.7589
 189   2.0000      -0.467230       -12.7140
 190   2.0000      -0.463061       -12.6005
 191   2.0000      -0.462404       -12.5826
 192   2.0000      -0.458185       -12.4679
 193   2.0000      -0.456569       -12.4239
 194   2.0000      -0.454724       -12.3737
 195   2.0000      -0.450868       -12.2688
 196   2.0000      -0.449560       -12.2332
 197   2.0000      -0.446843       -12.1592
 198   2.0000      -0.442503       -12.0411
 199   2.0000      -0.439384       -11.9562
 200   2.0000      -0.434310       -11.8182
 201   2.0000      -0.433232       -11.7888
 202   2.0000      -0.430797       -11.7226
 203   2.0000      -0.429137       -11.6774
 204   2.0000      -0.423407       -11.5215
 205   2.0000      -0.421608       -11.4725
 206   2.0000      -0.416495       -11.3334
 207   2.0000      -0.414159       -11.2698
 208   2.0000      -0.409628       -11.1466
 209   2.0000      -0.401174       -10.9165
 210   2.0000      -0.399110       -10.8603
 211   2.0000      -0.391526       -10.6540
 212   2.0000      -0.385937       -10.5019
 213   2.0000      -0.380087       -10.3427
 214   2.0000      -0.378422       -10.2974
 215   2.0000      -0.373037       -10.1508
 216   2.0000      -0.370344       -10.0776
 217   2.0000      -0.360159        -9.8004
 218   2.0000      -0.355212        -9.6658
 219   2.0000      -0.345705        -9.4071
 220   2.0000      -0.345237        -9.3944
 221   2.0000      -0.341373        -9.2892
 222   2.0000      -0.341321        -9.2878
 223   2.0000      -0.337431        -9.1820
 224   2.0000      -0.331539        -9.0216
 225   2.0000      -0.322889        -8.7863
 226   2.0000      -0.318995        -8.6803
 227   2.0000      -0.306317        -8.3353
 228   2.0000      -0.284379        -7.7384
 229   2.0000      -0.265451        -7.2233
 230   2.0000      -0.249575        -6.7913
 231   2.0000      -0.227059        -6.1786
 232   0.0000      -0.099000        -2.6939
 233   0.0000      -0.085199        -2.3184
 234   0.0000      -0.046203        -1.2572
 235   0.0000      -0.041621        -1.1326
 236   0.0000      -0.022670        -0.6169

MULLIKEN ATOMIC CHARGES
-----------------------
   0 C :    0.203767
   1 F :   -0.137911
   2 C :   -0.222590
   3 C :    0.179539
   4 O :   -0.145051
   5 O :   -0.148703
   6 C :    0.212583
   7 F :   -0.186927
   8 C :    0.143611
   9 F :   -0.174947
  10 C :    0.063170
  11 C :    0.151005
  12 F :   -0.167193
  13 C :   -0.139276
  14 S :    0.188004
  15 C :   -0.037598
  16 C :   -0.006728
  17 C :   -0.014249
  18 C :    0.159136
  19 O :   -0.114775
  20 C :   -0.021874
  21 C :   -0.043336
  22 C :   -0.027726
  23 C :    0.071297
  24 C :   -0.122754
  25 S :    0.126106
  26 C :   -0.116967
  27 C :   -0.081168
  28 C :   -0.100570
  29 C :    0.101716
  30 C :    0.082971
  31 C :   -0.003807
  32 N :    0.212001
  33 O :   -0.227452
  34 O :   -0.236129
  35 C :    0.146801
  36 C :    0.033791
  37 C :    0.041551
  38 C :   -0.107641
  39 S :    0.170392
  40 C :   -0.055407
  41 C :   -0.008832
  42 C :   -0.005585
  43 C :    0.158965
  44 O :   -0.114472
  45 C :   -0.034659
  46 C :   -0.031929
  47 C :    0.011890
  48 C :    0.069801
  49 C :   -0.060323
  50 C :   -0.029932
  51 C :    0.109426
  52 C :   -0.047409
  53 S :    0.099889
  54 C :   -0.048559
  55 C :    0.088214
  56 C :   -0.067507
  57 C :   -0.052223
  58 S :    0.095395
  59 C :   -0.057916
  60 C :    0.027406
  61 H :    0.183079
  62 H :    0.011838
  63 H :   -0.008107
  64 H :   -0.009567
  65 H :   -0.021212
  66 H :    0.039167
  67 H :    0.038830
  68 H :    0.028481
  69 H :    0.024225
  70 H :    0.026091
  71 H :    0.055125
  72 H :    0.034621
  73 H :   -0.017473
  74 H :   -0.021104
  75 H :   -0.004904
  76 H :   -0.006706
  77 H :   -0.003199
  78 H :   -0.022692
  79 H :   -0.019250
  80 H :   -0.034252
  81 H :   -0.031416
  82 H :    0.028578
  83 H :   -0.018458
Sum of atomic charges:    0.0000000

LOEWDIN ATOMIC CHARGES
----------------------
   0 C :    0.082023
   1 F :   -0.019977
   2 C :   -0.134383
   3 C :    0.079822
   4 O :   -0.133371
   5 O :   -0.021844
   6 C :    0.061586
   7 F :   -0.049868
   8 C :    0.043047
   9 F :   -0.050469
  10 C :   -0.057248
  11 C :    0.056572
  12 F :   -0.037764
  13 C :   -0.191235
  14 S :    0.484872
  15 C :   -0.156279
  16 C :   -0.120717
  17 C :   -0.000216
  18 C :    0.099405
  19 O :   -0.105260
  20 C :   -0.041648
  21 C :   -0.022327
  22 C :   -0.039237
  23 C :   -0.015150
  24 C :   -0.177339
  25 S :    0.441559
  26 C :   -0.162476
  27 C :   -0.060700
  28 C :   -0.047726
  29 C :   -0.023400
  30 C :   -0.018772
  31 C :    0.013082
  32 N :    0.274130
  33 O :   -0.196440
  34 O :   -0.204208
  35 C :   -0.029703
  36 C :   -0.048237
  37 C :   -0.040783
  38 C :   -0.173623
  39 S :    0.466778
  40 C :   -0.170608
  41 C :   -0.107157
  42 C :   -0.017199
  43 C :    0.100148
  44 O :   -0.104407
  45 C :   -0.056496
  46 C :   -0.005286
  47 C :   -0.016094
  48 C :   -0.022789
  49 C :   -0.154419
  50 C :   -0.045855
  51 C :   -0.045310
  52 C :   -0.153790
  53 S :    0.385844
  54 C :   -0.038123
  55 C :   -0.045318
  56 C :   -0.156078
  57 C :   -0.034558
  58 S :    0.388239
  59 C :   -0.159991
  60 C :   -0.063105
  61 H :    0.082666
  62 H :    0.039350
  63 H :    0.029048
  64 H :    0.030599
  65 H :    0.026855
  66 H :    0.042823
  67 H :    0.038931
  68 H :    0.033130
  69 H :    0.034609
  70 H :    0.035675
  71 H :    0.039794
  72 H :    0.038615
  73 H :    0.027713
  74 H :    0.028038
  75 H :    0.036931
  76 H :    0.030423
  77 H :    0.033366
  78 H :    0.025290
  79 H :    0.030595
  80 H :    0.029881
  81 H :    0.030509
  82 H :    0.024704
  83 H :    0.030335

  Mayer bond orders larger than 0.100000
B(  0-C ,  1-F ) :   1.2063 B(  0-C ,  2-C ) :   1.3431 B(  0-C , 11-C ) :   1.3172
B(  2-C ,  3-C ) :   0.8561 B(  2-C ,  6-C ) :   1.3172 B(  2-C , 10-C ) :   0.1122
B(  3-C ,  4-O ) :   2.2197 B(  3-C ,  5-O ) :   1.2618 B(  5-O , 61-H ) :   0.9389
B(  6-C ,  7-F ) :   1.1108 B(  6-C ,  8-C ) :   1.3456 B(  8-C ,  9-F ) :   1.1328
B(  8-C , 10-C ) :   1.2667 B( 10-C , 11-C ) :   1.2733 B( 10-C , 13-C ) :   1.1372
B( 11-C , 12-F ) :   1.1350 B( 13-C , 14-S ) :   1.0896 B( 13-C , 17-C ) :   1.4542
B( 14-S , 15-C ) :   1.1473 B( 15-C , 16-C ) :   1.4284 B( 15-C , 21-C ) :   1.0675
B( 16-C , 17-C ) :   1.3045 B( 16-C , 18-C ) :   0.9302 B( 17-C , 62-H ) :   1.0036
B( 18-C , 19-O ) :   2.2552 B( 18-C , 20-C ) :   0.9085 B( 20-C , 21-C ) :   1.6033
B( 20-C , 22-C ) :   1.1648 B( 21-C , 63-H ) :   1.0133 B( 22-C , 23-C ) :   1.5886
B( 22-C , 64-H ) :   0.9635 B( 23-C , 24-C ) :   1.1662 B( 23-C , 65-H ) :   0.9485
B( 24-C , 25-S ) :   1.1117 B( 24-C , 28-C ) :   1.4651 B( 25-S , 26-C ) :   1.1348
B( 26-C , 27-C ) :   1.4678 B( 26-C , 36-C ) :   1.1485 B( 27-C , 28-C ) :   1.3535
B( 27-C , 35-C ) :   1.0479 B( 28-C , 29-C ) :   1.0524 B( 29-C , 30-C ) :   1.0939
B( 29-C , 66-H ) :   0.9103 B( 29-C , 67-H ) :   0.9031 B( 30-C , 31-C ) :   1.0422
B( 30-C , 68-H ) :   0.9264 B( 30-C , 69-H ) :   0.9286 B( 31-C , 32-N ) :   0.8388
B( 31-C , 35-C ) :   1.0200 B( 31-C , 70-H ) :   0.9263 B( 32-N , 33-O ) :   1.5717
B( 32-N , 34-O ) :   1.5491 B( 33-O , 34-O ) :   0.2715 B( 35-C , 71-H ) :   0.8821
B( 35-C , 72-H ) :   0.9110 B( 36-C , 37-C ) :   1.6772 B( 36-C , 73-H ) :   0.9449
B( 37-C , 38-C ) :   1.1388 B( 37-C , 74-H ) :   0.9535 B( 38-C , 39-S ) :   1.1103
B( 38-C , 42-C ) :   1.4386 B( 39-S , 40-C ) :   1.1392 B( 40-C , 41-C ) :   1.4426
B( 40-C , 46-C ) :   1.0684 B( 41-C , 42-C ) :   1.3261 B( 41-C , 43-C ) :   0.9215
B( 42-C , 75-H ) :   0.9989 B( 43-C , 44-O ) :   2.2672 B( 43-C , 45-C ) :   0.9126
B( 45-C , 46-C ) :   1.6115 B( 45-C , 47-C ) :   1.1542 B( 46-C , 76-H ) :   1.0140
B( 47-C , 48-C ) :   1.6464 B( 47-C , 77-H ) :   0.9691 B( 48-C , 49-C ) :   1.1162
B( 48-C , 78-H ) :   0.9642 B( 49-C , 50-C ) :   1.5584 B( 49-C , 53-S ) :   1.0657
B( 50-C , 51-C ) :   1.1636 B( 50-C , 79-H ) :   0.9971 B( 51-C , 52-C ) :   1.2800
B( 51-C , 57-C ) :   1.3149 B( 52-C , 53-S ) :   1.0443 B( 52-C , 54-C ) :   1.3866
B( 54-C , 55-C ) :   1.3353 B( 54-C , 57-C ) :   0.1041 B( 54-C , 80-H ) :   1.0015
B( 55-C , 56-C ) :   1.2805 B( 55-C , 60-C ) :   1.1606 B( 56-C , 57-C ) :   1.3959
B( 56-C , 58-S ) :   1.0525 B( 57-C , 81-H ) :   1.0023 B( 58-S , 59-C ) :   1.1133
B( 59-C , 60-C ) :   1.6458 B( 59-C , 82-H ) :   0.9682 B( 60-C , 83-H ) :   0.9982

-----------------------------------------------------------------------------
         ABSORPTION SPECTRUM VIA TRANSITION ELECTRIC DIPOLE MOMENTS
-----------------------------------------------------------------------------
State   Energy  Wavelength   fosc         T2         TX        TY        TZ
        (cm-1)    (nm)                  (au**2)     (au)      (au)      (au)
-----------------------------------------------------------------------------
   0   13398.9    746.3   1.718436116  42.22222   0.98016   6.29838  -1.26171
   1   15512.1    644.7   0.138393376   2.93711   0.20771  -1.45177  -0.88675
   2   20745.3    482.0   0.122632190   1.94608  -0.48423  -1.00830   0.83362
   3   22405.0    446.3   0.084481065   1.24134  -0.18072   1.05319   0.31539
   4   24569.4    407.0   0.558127019   7.47849  -0.55977  -2.57746   0.72239
   5   25666.1    389.6   0.529534771   6.79221  -0.38353  -2.47211   0.73060
   6   26349.2    379.5   0.000208131   0.00260   0.03114   0.03934  -0.00911
   7   26588.3    376.1   0.000173587   0.00215   0.02135  -0.03658   0.01886
   8   27078.0    369.3   0.398210825   4.84141  -0.09491  -2.17747  -0.30170
   9   28186.7    354.8   0.072210434   0.84340   0.35068  -0.18751  -0.82780
  10   29285.6    341.5   0.055621972   0.62527  -0.22668  -0.65150   0.38656
  11   30058.3    332.7   0.421277000   4.61401   0.71634   1.53946  -1.31565
  12   31163.7    320.9   0.013173623   0.13917   0.17570   0.13435  -0.30041
  13   31714.7    315.3   0.012126135   0.12587  -0.08449   0.24358   0.24373
  14   32564.8    307.1   0.066710306   0.67440  -0.05845  -0.79966  -0.17758
  15   32972.6    303.3   0.090436267   0.90295   0.31706   0.74626  -0.49550
  16   34232.1    292.1   0.014445567   0.13892   0.08981   0.34387  -0.11229
  17   34573.3    289.2   0.008899213   0.08474   0.13930   0.15561  -0.20278
  18   34834.3    287.1   0.008542520   0.08073  -0.18370  -0.21022   0.05284
  19   35035.7    285.4   0.121339226   1.14016   0.20100  -1.00345  -0.30472
  20   35730.7    279.9   0.038510470   0.35482  -0.02441  -0.07107   0.59091
  21   36254.0    275.8   0.268159445   2.43508  -0.16493  -1.48148  -0.46162
  22   36335.7    275.2   0.221244670   2.00454   0.65425  -0.38906  -1.19378
  23   36880.4    271.1   0.080278062   0.71660   0.29888   0.13783  -0.77992
  24   37904.4    263.8   0.076101336   0.66096  -0.43752  -0.32862   0.60129
  25   37974.7    263.3   0.002684911   0.02328  -0.07794  -0.03167   0.12727
  26   38254.7    261.4   0.018007476   0.15497  -0.16763  -0.33747   0.11394
  27   38693.9    258.4   0.035946579   0.30584  -0.18302   0.24763   0.45937
  28   39089.5    255.8   0.001500331   0.01264  -0.09018   0.03427   0.05770
  29   40144.4    249.1   0.029713217   0.24367  -0.08113  -0.44669   0.19380
  30   40215.4    248.7   0.064855856   0.53092   0.00738   0.71060  -0.16098

FINAL SINGLE POINT ENERGY     -4621.118362349142

DIPOLE MOMENT
-------------
                                X             Y             Z
Electronic contribution:      6.11352     109.29352       7.19987
Nuclear contribution   :     -5.89220    -111.95957      -5.48512
                        -----------------------------------------
Total Dipole Moment    :      0.22131      -2.66605       1.71476
                        -----------------------------------------
Magnitude (a.u.)       :      3.17761
Magnitude (Debye)      :      8.07683

Rotational constants in cm-1:     0.002326     0.000170     0.000159
Rotational constants in MHz :    69.726807     5.103009     4.771085

                             ****ORCA TERMINATED NORMALLY****
TOTAL RUN TIME: 0 days 0 hours 6 minutes 25 seconds 567 msec
