                         Program Version 4.2.0 -  RELEASE  -
|  1> # ORCA input file
|  2> # SCF done       -168.467572418724          0.000798456558
|  3> ! CAM-B3LYP def2-SVP def2/J RIJCOSX Grid4 TightSCF
|  4> %maxcore 5000
|  5> %tddft
|  6>     Mode sTDDFT
|  7>     Ethresh 5.0
|  8>     maxcore 5000
|  9> end
| 10>
| 11> %pal
| 12>   nprocs 6
| 13>   end
| 14> * xyz 0 1
| 15>    C       -1.75326         0.59290        -0.09913
| 16>    C       -1.81694        -0.78972        -0.11563
| 17>    C       -0.73468        -1.63748         0.17595
| 18>    N        0.08227        -2.40092         0.44548
| 19>    C       -2.94516        -1.55525        -0.45004
| 20>    N       -3.80472        -2.27867        -0.70055
| 21>    C       -0.54098         1.37219         0.14808
| 22>    C       -0.87670         2.74732         0.12530
| 23>    C        0.04506         3.73957         0.33866
| 24>    C        1.37051         3.35581         0.57953
| 25>    C        1.69858         1.98190         0.58963
| 26>    C        0.76048         0.97616         0.37771
| 27>    S        3.39002         1.73110         0.89987
| 28>    C        3.62927         3.45493         1.01086
| 29>    C        2.50233         4.18102         0.82613
| 30>   Br        5.34466         4.12996         1.35825
| 31>    C       -2.32424         2.88476        -0.13770
| 32>    O       -2.94888         3.92464        -0.21274
| 33>    C       -2.83862         1.50482        -0.26249
| 34>    C       -4.18371         1.18454        -0.41075
| 35>    C       -5.20399         2.10987        -0.49087
| 36>    C       -6.55352         1.76879        -0.52129
| 37>    C       -7.63199         2.65684        -0.63133
| 38>    C       -8.86133         2.04337        -0.63636
| 39>    C       -8.79172         0.65011        -0.52014
| 40>    S       -7.13241         0.12395        -0.39654
| 41>    C       -9.85800        -0.25711        -0.52958
| 42>    C      -11.21647         0.02644        -0.72113
| 43>    C      -12.01288        -1.09170        -0.73750
| 44>    C      -11.31349        -2.29301        -0.55002
| 45>    S       -9.60760        -1.97047        -0.33791
| 46>    C      -11.86669        -3.56828        -0.57141
| 47>    C      -11.20623        -4.76355        -0.38226
| 48>    S       -9.49901        -4.92428         0.04696
| 49>    C       -9.52258        -6.68695         0.05433
| 50>    C      -10.83520        -7.11854        -0.27338
| 51>    C      -11.73458        -6.06060        -0.49313
| 52>    O      -12.95698        -6.51748        -0.79353
| 53>    C      -12.85312        -7.87385        -0.76724
| 54>    N      -14.00288        -8.63727        -1.04984
| 55>    O      -13.87001        -9.84854        -1.01470
| 56>    O      -15.03244        -8.04689        -1.30527
| 57>    C      -11.58041        -8.29944        -0.45488
| 58>    C       -8.43129        -7.47169         0.32880
| 59>    C       -7.16079        -7.03078         0.70635
| 60>    C       -6.03973        -7.84033         0.93615
| 61>    C       -4.91731        -7.14432         1.31658
| 62>    C       -5.12556        -5.76359         1.41150
| 63>    S       -6.76736        -5.35745         0.98495
| 64>    C       -4.21893        -4.77046         1.78826
| 65>    C       -2.84409        -4.90685         2.04899
| 66>    C       -2.23035        -3.73053         2.37522
| 67>    C       -3.09772        -2.61404         2.39184
| 68>    S       -4.72205        -3.12200         1.98635
| 69>    C       -2.70402        -1.31353         2.62338
| 70>    C       -3.50198        -0.15567         2.65880
| 71>    S       -2.70383         1.38986         2.83818
| 72>    C       -4.20540         2.22051         2.71979
| 73>    C       -4.18375         3.67625         2.74009
| 74>    O       -3.20516         4.33498         2.99248
| 75>    O       -5.37666         4.21843         2.44583
| 76>    C       -5.26632         1.34768         2.58079
| 77>    C       -4.87901         0.01521         2.54742
| 78>    H       -0.24473         4.77823         0.32547
| 79>    H        1.06133        -0.05829         0.39687
| 80>    H        2.46712         5.25463         0.86107
| 81>    H       -4.46130         0.13733        -0.42739
| 82>    H       -4.96143         3.16203        -0.51892
| 83>    H       -7.48179         3.71841        -0.71081
| 84>    H       -9.79503         2.56912        -0.72098
| 85>    H      -11.58371         1.02705        -0.85783
| 86>    H      -13.07812        -1.07407        -0.88473
| 87>    H      -12.92724        -3.63820        -0.77746
| 88>    H      -11.26591        -9.31945        -0.37817
| 89>    H       -8.56828        -8.54212         0.24970
| 90>    H       -6.07653        -8.90853         0.81623
| 91>    H       -3.97010        -7.60215         1.53627
| 92>    H       -2.33662        -5.85103         1.97385
| 93>    H       -1.18058        -3.62898         2.58318
| 94>    H       -1.65002        -1.16881         2.82528
| 95>    H       -5.29030         5.18458         2.43287
| 96>    H       -6.28232         1.69086         2.50759
| 97>    H       -5.56973        -0.80045         2.44341
| 98> *
| 99>
|100>                          ****END OF INPUT****

CARTESIAN COORDINATES (ANGSTROEM)
---------------------------------
  C     -1.753260    0.592900   -0.099130
  C     -1.816940   -0.789720   -0.115630
  C     -0.734680   -1.637480    0.175950
  N      0.082270   -2.400920    0.445480
  C     -2.945160   -1.555250   -0.450040
  N     -3.804720   -2.278670   -0.700550
  C     -0.540980    1.372190    0.148080
  C     -0.876700    2.747320    0.125300
  C      0.045060    3.739570    0.338660
  C      1.370510    3.355810    0.579530
  C      1.698580    1.981900    0.589630
  C      0.760480    0.976160    0.377710
  S      3.390020    1.731100    0.899870
  C      3.629270    3.454930    1.010860
  C      2.502330    4.181020    0.826130
  Br     5.344660    4.129960    1.358250
  C     -2.324240    2.884760   -0.137700
  O     -2.948880    3.924640   -0.212740
  C     -2.838620    1.504820   -0.262490
  C     -4.183710    1.184540   -0.410750
  C     -5.203990    2.109870   -0.490870
  C     -6.553520    1.768790   -0.521290
  C     -7.631990    2.656840   -0.631330
  C     -8.861330    2.043370   -0.636360
  C     -8.791720    0.650110   -0.520140
  S     -7.132410    0.123950   -0.396540
  C     -9.858000   -0.257110   -0.529580
  C    -11.216470    0.026440   -0.721130
  C    -12.012880   -1.091700   -0.737500
  C    -11.313490   -2.293010   -0.550020
  S     -9.607600   -1.970470   -0.337910
  C    -11.866690   -3.568280   -0.571410
  C    -11.206230   -4.763550   -0.382260
  S     -9.499010   -4.924280    0.046960
  C     -9.522580   -6.686950    0.054330
  C    -10.835200   -7.118540   -0.273380
  C    -11.734580   -6.060600   -0.493130
  O    -12.956980   -6.517480   -0.793530
  C    -12.853120   -7.873850   -0.767240
  N    -14.002880   -8.637270   -1.049840
  O    -13.870010   -9.848540   -1.014700
  O    -15.032440   -8.046890   -1.305270
  C    -11.580410   -8.299440   -0.454880
  C     -8.431290   -7.471690    0.328800
  C     -7.160790   -7.030780    0.706350
  C     -6.039730   -7.840330    0.936150
  C     -4.917310   -7.144320    1.316580
  C     -5.125560   -5.763590    1.411500
  S     -6.767360   -5.357450    0.984950
  C     -4.218930   -4.770460    1.788260
  C     -2.844090   -4.906850    2.048990
  C     -2.230350   -3.730530    2.375220
  C     -3.097720   -2.614040    2.391840
  S     -4.722050   -3.122000    1.986350
  C     -2.704020   -1.313530    2.623380
  C     -3.501980   -0.155670    2.658800
  S     -2.703830    1.389860    2.838180
  C     -4.205400    2.220510    2.719790
  C     -4.183750    3.676250    2.740090
  O     -3.205160    4.334980    2.992480
  O     -5.376660    4.218430    2.445830
  C     -5.266320    1.347680    2.580790
  C     -4.879010    0.015210    2.547420
  H     -0.244730    4.778230    0.325470
  H      1.061330   -0.058290    0.396870
  H      2.467120    5.254630    0.861070
  H     -4.461300    0.137330   -0.427390
  H     -4.961430    3.162030   -0.518920
  H     -7.481790    3.718410   -0.710810
  H     -9.795030    2.569120   -0.720980
  H    -11.583710    1.027050   -0.857830
  H    -13.078120   -1.074070   -0.884730
  H    -12.927240   -3.638200   -0.777460
  H    -11.265910   -9.319450   -0.378170
  H     -8.568280   -8.542120    0.249700
  H     -6.076530   -8.908530    0.816230
  H     -3.970100   -7.602150    1.536270
  H     -2.336620   -5.851030    1.973850
  H     -1.180580   -3.628980    2.583180
  H     -1.650020   -1.168810    2.825280
  H     -5.290300    5.184580    2.432870
  H     -6.282320    1.690860    2.507590
  H     -5.569730   -0.800450    2.443410

 Total Charge           Charge          ....    0
 Multiplicity           Mult            ....    1
 Number of Electrons    NEL             ....  512
 Basis Dimension        Dim             .... 1028

ORBITAL ENERGIES
----------------

  NO   OCC          E(Eh)            E(eV)
   0   2.0000    -482.873839    -13139.6652
   1   2.0000     -88.976684     -2421.1787
   2   2.0000     -88.973469     -2421.0912
   3   2.0000     -88.971659     -2421.0419
   4   2.0000     -88.970743     -2421.0170
   5   2.0000     -88.968103     -2420.9452
   6   2.0000     -88.961569     -2420.7674
   7   2.0000     -88.959694     -2420.7164
   8   2.0000     -62.551557     -1702.1144
   9   2.0000     -56.385485     -1534.3271
  10   2.0000     -56.382810     -1534.2543
  11   2.0000     -56.382765     -1534.2530
  12   2.0000     -19.327138      -525.9182
  13   2.0000     -19.262244      -524.1523
  14   2.0000     -19.241744      -523.5945
  15   2.0000     -19.239787      -523.5412
  16   2.0000     -19.201931      -522.5111
  17   2.0000     -19.199867      -522.4549
  18   2.0000     -14.654838      -398.7784
  19   2.0000     -14.402200      -391.9038
  20   2.0000     -14.400196      -391.8493
  21   2.0000     -10.407537      -283.2035
  22   2.0000     -10.387194      -282.6499
  23   2.0000     -10.364644      -282.0363
  24   2.0000     -10.347422      -281.5677
  25   2.0000     -10.343577      -281.4630
  26   2.0000     -10.335917      -281.2546
  27   2.0000     -10.335212      -281.2354
  28   2.0000     -10.327284      -281.0197
  29   2.0000     -10.326534      -280.9993
  30   2.0000     -10.326212      -280.9905
  31   2.0000     -10.322368      -280.8859
  32   2.0000     -10.322077      -280.8780
  33   2.0000     -10.321601      -280.8650
  34   2.0000     -10.321088      -280.8511
  35   2.0000     -10.319186      -280.7993
  36   2.0000     -10.318528      -280.7814
  37   2.0000     -10.315844      -280.7084
  38   2.0000     -10.314219      -280.6642
  39   2.0000     -10.313511      -280.6449
  40   2.0000     -10.313159      -280.6353
  41   2.0000     -10.312927      -280.6290
  42   2.0000     -10.310402      -280.5603
  43   2.0000     -10.308689      -280.5137
  44   2.0000     -10.308604      -280.5114
  45   2.0000     -10.305305      -280.4216
  46   2.0000     -10.305096      -280.4159
  47   2.0000     -10.301640      -280.3219
  48   2.0000     -10.300450      -280.2895
  49   2.0000     -10.299409      -280.2612
  50   2.0000     -10.295326      -280.1501
  51   2.0000     -10.294653      -280.1317
  52   2.0000     -10.292763      -280.0803
  53   2.0000     -10.292581      -280.0754
  54   2.0000     -10.289645      -279.9955
  55   2.0000     -10.288949      -279.9765
  56   2.0000     -10.288942      -279.9764
  57   2.0000     -10.288880      -279.9747
  58   2.0000     -10.288672      -279.9690
  59   2.0000     -10.287198      -279.9289
  60   2.0000     -10.283088      -279.8170
  61   2.0000     -10.282809      -279.8095
  62   2.0000     -10.280671      -279.7513
  63   2.0000     -10.279530      -279.7202
  64   2.0000     -10.271676      -279.5065
  65   2.0000     -10.271437      -279.5000
  66   2.0000     -10.267116      -279.3824
  67   2.0000      -8.780990      -238.9429
  68   2.0000      -8.070413      -219.6071
  69   2.0000      -8.068071      -219.5434
  70   2.0000      -8.067223      -219.5203
  71   2.0000      -8.065753      -219.4803
  72   2.0000      -8.063649      -219.4230
  73   2.0000      -8.057509      -219.2560
  74   2.0000      -8.054954      -219.1864
  75   2.0000      -6.617189      -180.0629
  76   2.0000      -6.602740      -179.6697
  77   2.0000      -6.602630      -179.6667
  78   2.0000      -6.039563      -164.3449
  79   2.0000      -6.037881      -164.2991
  80   2.0000      -6.036641      -164.2653
  81   2.0000      -6.035288      -164.2285
  82   2.0000      -6.035221      -164.2267
  83   2.0000      -6.033667      -164.1844
  84   2.0000      -6.033176      -164.1711
  85   2.0000      -6.033111      -164.1693
  86   2.0000      -6.032438      -164.1510
  87   2.0000      -6.031050      -164.1132
  88   2.0000      -6.029161      -164.0618
  89   2.0000      -6.029031      -164.0583
  90   2.0000      -6.028930      -164.0555
  91   2.0000      -6.027491      -164.0164
  92   2.0000      -6.027168      -164.0076
  93   2.0000      -6.025361      -163.9584
  94   2.0000      -6.024267      -163.9286
  95   2.0000      -6.022956      -163.8930
  96   2.0000      -6.020311      -163.8210
  97   2.0000      -6.018782      -163.7794
  98   2.0000      -6.016847      -163.7267
  99   2.0000      -2.733096       -74.3713
 100   2.0000      -2.728993       -74.2597
 101   2.0000      -2.728925       -74.2578
 102   2.0000      -2.717429       -73.9450
 103   2.0000      -2.717421       -73.9448
 104   2.0000      -1.324776       -36.0490
 105   2.0000      -1.244780       -33.8722
 106   2.0000      -1.187653       -32.3177
 107   2.0000      -1.140821       -31.0433
 108   2.0000      -1.112875       -30.2829
 109   2.0000      -1.092740       -29.7350
 110   2.0000      -1.016788       -27.6682
 111   2.0000      -1.010327       -27.4924
 112   2.0000      -1.007019       -27.4024
 113   2.0000      -1.003042       -27.2942
 114   2.0000      -0.999369       -27.1942
 115   2.0000      -0.997631       -27.1469
 116   2.0000      -0.988370       -26.8949
 117   2.0000      -0.981746       -26.7147
 118   2.0000      -0.980352       -26.6767
 119   2.0000      -0.971225       -26.4284
 120   2.0000      -0.943622       -25.6772
 121   2.0000      -0.926027       -25.1985
 122   2.0000      -0.918973       -25.0065
 123   2.0000      -0.910635       -24.7796
 124   2.0000      -0.901011       -24.5177
 125   2.0000      -0.896768       -24.4023
 126   2.0000      -0.891884       -24.2694
 127   2.0000      -0.878157       -23.8959
 128   2.0000      -0.869042       -23.6478
 129   2.0000      -0.868410       -23.6306
 130   2.0000      -0.860294       -23.4098
 131   2.0000      -0.854954       -23.2645
 132   2.0000      -0.849907       -23.1272
 133   2.0000      -0.846858       -23.0442
 134   2.0000      -0.839772       -22.8514
 135   2.0000      -0.836450       -22.7609
 136   2.0000      -0.830900       -22.6099
 137   2.0000      -0.819798       -22.3078
 138   2.0000      -0.813175       -22.1276
 139   2.0000      -0.806323       -21.9412
 140   2.0000      -0.793133       -21.5823
 141   2.0000      -0.779632       -21.2149
 142   2.0000      -0.764183       -20.7945
 143   2.0000      -0.748453       -20.3664
 144   2.0000      -0.739874       -20.1330
 145   2.0000      -0.731130       -19.8951
 146   2.0000      -0.723855       -19.6971
 147   2.0000      -0.708967       -19.2920
 148   2.0000      -0.698797       -19.0152
 149   2.0000      -0.690713       -18.7953
 150   2.0000      -0.684076       -18.6147
 151   2.0000      -0.677484       -18.4353
 152   2.0000      -0.674591       -18.3566
 153   2.0000      -0.672850       -18.3092
 154   2.0000      -0.654882       -17.8202
 155   2.0000      -0.654116       -17.7994
 156   2.0000      -0.649942       -17.6858
 157   2.0000      -0.646620       -17.5954
 158   2.0000      -0.641318       -17.4512
 159   2.0000      -0.641264       -17.4497
 160   2.0000      -0.637983       -17.3604
 161   2.0000      -0.633415       -17.2361
 162   2.0000      -0.628577       -17.1044
 163   2.0000      -0.627100       -17.0643
 164   2.0000      -0.623241       -16.9593
 165   2.0000      -0.619533       -16.8583
 166   2.0000      -0.612735       -16.6734
 167   2.0000      -0.606691       -16.5089
 168   2.0000      -0.605539       -16.4775
 169   2.0000      -0.599301       -16.3078
 170   2.0000      -0.586769       -15.9668
 171   2.0000      -0.584434       -15.9033
 172   2.0000      -0.579964       -15.7816
 173   2.0000      -0.578112       -15.7312
 174   2.0000      -0.576594       -15.6899
 175   2.0000      -0.562562       -15.3081
 176   2.0000      -0.560125       -15.2418
 177   2.0000      -0.556030       -15.1304
 178   2.0000      -0.549370       -14.9491
 179   2.0000      -0.547145       -14.8886
 180   2.0000      -0.545256       -14.8372
 181   2.0000      -0.541497       -14.7349
 182   2.0000      -0.534687       -14.5496
 183   2.0000      -0.529847       -14.4179
 184   2.0000      -0.527633       -14.3576
 185   2.0000      -0.525031       -14.2868
 186   2.0000      -0.519252       -14.1296
 187   2.0000      -0.516312       -14.0496
 188   2.0000      -0.513956       -13.9855
 189   2.0000      -0.513032       -13.9603
 190   2.0000      -0.508818       -13.8456
 191   2.0000      -0.508343       -13.8327
 192   2.0000      -0.505615       -13.7585
 193   2.0000      -0.503035       -13.6883
 194   2.0000      -0.501235       -13.6393
 195   2.0000      -0.499691       -13.5973
 196   2.0000      -0.495139       -13.4734
 197   2.0000      -0.492956       -13.4140
 198   2.0000      -0.491324       -13.3696
 199   2.0000      -0.488658       -13.2971
 200   2.0000      -0.483683       -13.1617
 201   2.0000      -0.482697       -13.1348
 202   2.0000      -0.477037       -12.9808
 203   2.0000      -0.476631       -12.9698
 204   2.0000      -0.474818       -12.9205
 205   2.0000      -0.472550       -12.8587
 206   2.0000      -0.471711       -12.8359
 207   2.0000      -0.469720       -12.7817
 208   2.0000      -0.467202       -12.7132
 209   2.0000      -0.465042       -12.6544
 210   2.0000      -0.463261       -12.6060
 211   2.0000      -0.454694       -12.3729
 212   2.0000      -0.453885       -12.3508
 213   2.0000      -0.449963       -12.2441
 214   2.0000      -0.445644       -12.1266
 215   2.0000      -0.443295       -12.0627
 216   2.0000      -0.439802       -11.9676
 217   2.0000      -0.438729       -11.9384
 218   2.0000      -0.435791       -11.8585
 219   2.0000      -0.432590       -11.7714
 220   2.0000      -0.429861       -11.6971
 221   2.0000      -0.427768       -11.6402
 222   2.0000      -0.424905       -11.5622
 223   2.0000      -0.423761       -11.5311
 224   2.0000      -0.416990       -11.3469
 225   2.0000      -0.412625       -11.2281
 226   2.0000      -0.411572       -11.1994
 227   2.0000      -0.408879       -11.1262
 228   2.0000      -0.400077       -10.8866
 229   2.0000      -0.398140       -10.8339
 230   2.0000      -0.395239       -10.7550
 231   2.0000      -0.392966       -10.6932
 232   2.0000      -0.390731       -10.6323
 233   2.0000      -0.388241       -10.5646
 234   2.0000      -0.379107       -10.3160
 235   2.0000      -0.373547       -10.1647
 236   2.0000      -0.370438       -10.0801
 237   2.0000      -0.369746       -10.0613
 238   2.0000      -0.364303        -9.9132
 239   2.0000      -0.363639        -9.8951
 240   2.0000      -0.356724        -9.7070
 241   2.0000      -0.354013        -9.6332
 242   2.0000      -0.348729        -9.4894
 243   2.0000      -0.345367        -9.3979
 244   2.0000      -0.336504        -9.1567
 245   2.0000      -0.334698        -9.1076
 246   2.0000      -0.328736        -8.9454
 247   2.0000      -0.325613        -8.8604
 248   2.0000      -0.317469        -8.6388
 249   2.0000      -0.316080        -8.6010
 250   2.0000      -0.304758        -8.2929
 251   2.0000      -0.299545        -8.1510
 252   2.0000      -0.282899        -7.6981
 253   2.0000      -0.279008        -7.5922
 254   2.0000      -0.233553        -6.3553
 255   2.0000      -0.211643        -5.7591
 256   0.0000      -0.116299        -3.1647
 257   0.0000      -0.091226        -2.4824
 258   0.0000      -0.057977        -1.5776
 259   0.0000      -0.054851        -1.4926
 260   0.0000      -0.034511        -0.9391

MULLIKEN ATOMIC CHARGES
-----------------------
   0 C :    0.317356
   1 C :   -0.380459
   2 C :   -0.207148
   3 N :    0.118991
   4 C :   -0.191343
   5 N :    0.123012
   6 C :    0.023667
   7 C :    0.000872
   8 C :   -0.069636
   9 C :    0.112197
  10 C :   -0.088463
  11 C :   -0.052157
  12 S :    0.169947
  13 C :   -0.124457
  14 C :    0.036779
  15 Br:    0.008769
  16 C :    0.128499
  17 O :   -0.167135
  18 C :   -0.087289
  19 C :   -0.063320
  20 C :   -0.002367
  21 C :   -0.025966
  22 C :    0.021966
  23 C :    0.025774
  24 C :   -0.056975
  25 S :    0.109473
  26 C :   -0.018693
  27 C :    0.011135
  28 C :    0.037875
  29 C :   -0.059588
  30 S :    0.109231
  31 C :    0.016321
  32 C :   -0.137830
  33 S :    0.064148
  34 C :   -0.050586
  35 C :    0.110384
  36 C :    0.201104
  37 O :   -0.161031
  38 C :    0.217213
  39 N :    0.278981
  40 O :   -0.257614
  41 O :   -0.240113
  42 C :   -0.085107
  43 C :   -0.018492
  44 C :   -0.034741
  45 C :    0.015691
  46 C :    0.037925
  47 C :   -0.045680
  48 S :    0.114340
  49 C :    0.000358
  50 C :    0.011292
  51 C :    0.084251
  52 C :   -0.104988
  53 S :    0.130714
  54 C :    0.158704
  55 C :   -0.154884
  56 S :    0.197757
  57 C :   -0.169883
  58 C :    0.178525
  59 O :   -0.191295
  60 O :   -0.176600
  61 C :    0.082901
  62 C :    0.006914
  63 H :   -0.014725
  64 H :   -0.016137
  65 H :   -0.006649
  66 H :    0.007652
  67 H :    0.010593
  68 H :   -0.011821
  69 H :   -0.014802
  70 H :   -0.013545
  71 H :   -0.006009
  72 H :    0.013401
  73 H :    0.012461
  74 H :   -0.009464
  75 H :   -0.008769
  76 H :   -0.007388
  77 H :   -0.006189
  78 H :    0.010704
  79 H :    0.013635
  80 H :    0.196417
  81 H :    0.007486
  82 H :    0.003926
Sum of atomic charges:   -0.0000000

LOEWDIN ATOMIC CHARGES
----------------------
   0 C :    0.043745
   1 C :   -0.175703
   2 C :   -0.017443
   3 N :   -0.095607
   4 C :   -0.022300
   5 N :   -0.091575
   6 C :   -0.020063
   7 C :   -0.053310
   8 C :    0.023530
   9 C :   -0.041225
  10 C :   -0.147260
  11 C :   -0.028012
  12 S :    0.421207
  13 C :   -0.279552
  14 C :   -0.068867
  15 Br:    0.125130
  16 C :    0.080169
  17 O :   -0.154601
  18 C :   -0.109170
  19 C :    0.009167
  20 C :   -0.057991
  21 C :   -0.133540
  22 C :   -0.051802
  23 C :   -0.029535
  24 C :   -0.200775
  25 S :    0.425238
  26 C :   -0.158814
  27 C :   -0.056899
  28 C :   -0.022980
  29 C :   -0.183198
  30 S :    0.419921
  31 C :   -0.029855
  32 C :   -0.199397
  33 S :    0.400069
  34 C :   -0.139449
  35 C :   -0.085403
  36 C :    0.040949
  37 O :    0.029381
  38 C :    0.010411
  39 N :    0.271682
  40 O :   -0.218678
  41 O :   -0.201513
  42 C :   -0.003449
  43 C :   -0.081695
  44 C :   -0.146015
  45 C :   -0.050070
  46 C :   -0.023837
  47 C :   -0.194197
  48 S :    0.431471
  49 C :   -0.137917
  50 C :   -0.044812
  51 C :    0.007237
  52 C :   -0.164971
  53 S :    0.468041
  54 C :   -0.007604
  55 C :   -0.171262
  56 S :    0.536715
  57 C :   -0.212768
  58 C :    0.056632
  59 O :   -0.182063
  60 O :   -0.037943
  61 C :   -0.010321
  62 C :   -0.060390
  63 H :    0.039689
  64 H :    0.036585
  65 H :    0.037427
  66 H :    0.025778
  67 H :    0.034835
  68 H :    0.034611
  69 H :    0.031609
  70 H :    0.031977
  71 H :    0.036000
  72 H :    0.051164
  73 H :    0.046835
  74 H :    0.042512
  75 H :    0.034571
  76 H :    0.035139
  77 H :    0.035992
  78 H :    0.041813
  79 H :    0.044642
  80 H :    0.104182
  81 H :    0.039845
  82 H :    0.017931

  Mayer bond orders larger than 0.100000
B(  0-C ,  1-C ) :   1.4811 B(  0-C ,  6-C ) :   0.9759 B(  0-C , 18-C ) :   1.2010
B(  1-C ,  2-C ) :   1.1676 B(  1-C ,  4-C ) :   1.1714 B(  2-C ,  3-N ) :   2.9059
B(  4-C ,  5-N ) :   2.8948 B(  6-C ,  7-C ) :   1.2723 B(  6-C , 11-C ) :   1.4328
B(  7-C ,  8-C ) :   1.4457 B(  7-C , 16-C ) :   0.9321 B(  8-C ,  9-C ) :   1.2236
B(  8-C , 63-H ) :   1.0160 B(  9-C , 10-C ) :   1.3326 B(  9-C , 14-C ) :   1.1600
B( 10-C , 11-C ) :   1.2970 B( 10-C , 12-S ) :   1.0829 B( 11-C , 64-H ) :   0.9839
B( 12-S , 13-C ) :   1.0826 B( 13-C , 14-C ) :   1.6212 B( 13-C , 15-Br) :   1.0096
B( 14-C , 65-H ) :   1.0007 B( 16-C , 17-O ) :   2.1524 B( 16-C , 18-C ) :   0.9626
B( 18-C , 19-C ) :   1.3514 B( 19-C , 20-C ) :   1.4044 B( 19-C , 66-H ) :   0.9402
B( 20-C , 21-C ) :   1.2592 B( 20-C , 67-H ) :   0.9788 B( 21-C , 22-C ) :   1.3169
B( 21-C , 25-S ) :   1.0961 B( 22-C , 23-C ) :   1.3835 B( 22-C , 68-H ) :   1.0033
B( 23-C , 24-C ) :   1.3640 B( 23-C , 69-H ) :   0.9962 B( 24-C , 25-S ) :   1.0848
B( 24-C , 26-C ) :   1.2578 B( 26-C , 27-C ) :   1.3560 B( 26-C , 30-S ) :   1.1190
B( 27-C , 28-C ) :   1.4041 B( 27-C , 70-H ) :   0.9951 B( 28-C , 29-C ) :   1.3113
B( 28-C , 71-H ) :   1.0007 B( 29-C , 30-S ) :   1.0678 B( 29-C , 31-C ) :   1.2976
B( 31-C , 32-C ) :   1.4587 B( 31-C , 72-H ) :   0.9742 B( 32-C , 33-S ) :   1.0143
B( 32-C , 36-C ) :   1.2353 B( 33-S , 34-C ) :   1.0552 B( 34-C , 35-C ) :   1.1430
B( 34-C , 43-C ) :   1.5095 B( 35-C , 36-C ) :   1.3557 B( 35-C , 42-C ) :   1.1563
B( 36-C , 37-O ) :   1.1828 B( 37-O , 38-C ) :   1.1202 B( 38-C , 39-N ) :   0.9351
B( 38-C , 42-C ) :   1.5102 B( 39-N , 40-O ) :   1.5218 B( 39-N , 41-O ) :   1.5007
B( 40-O , 41-O ) :   0.2714 B( 42-C , 73-H ) :   1.0240 B( 43-C , 44-C ) :   1.2776
B( 43-C , 74-H ) :   0.9678 B( 44-C , 45-C ) :   1.3120 B( 44-C , 48-S ) :   1.1142
B( 45-C , 46-C ) :   1.4117 B( 45-C , 75-H ) :   1.0019 B( 46-C , 47-C ) :   1.3439
B( 46-C , 76-H ) :   0.9937 B( 47-C , 48-S ) :   1.0827 B( 47-C , 49-C ) :   1.2933
B( 49-C , 50-C ) :   1.2844 B( 49-C , 53-S ) :   1.1442 B( 50-C , 51-C ) :   1.4814
B( 50-C , 77-H ) :   0.9971 B( 51-C , 52-C ) :   1.2146 B( 51-C , 78-H ) :   0.9952
B( 52-C , 53-S ) :   1.0697 B( 52-C , 54-C ) :   1.5066 B( 54-C , 55-C ) :   1.2038
B( 54-C , 79-H ) :   0.9347 B( 55-C , 56-S ) :   1.1293 B( 55-C , 62-C ) :   1.3874
B( 56-S , 57-C ) :   1.1810 B( 57-C , 58-C ) :   0.9696 B( 57-C , 61-C ) :   1.4420
B( 58-C , 59-O ) :   2.1690 B( 58-C , 60-O ) :   1.2875 B( 60-O , 80-H ) :   0.9424
B( 61-C , 62-C ) :   1.3279 B( 61-C , 81-H ) :   0.9979 B( 62-C , 82-H ) :   0.9851

-----------------------------------------------------------------------------
         ABSORPTION SPECTRUM VIA TRANSITION ELECTRIC DIPOLE MOMENTS
-----------------------------------------------------------------------------
State   Energy  Wavelength   fosc         T2         TX        TY        TZ
        (cm-1)    (nm)                  (au**2)     (au)      (au)      (au)
-----------------------------------------------------------------------------
   0    7187.1   1391.4   0.119755347   5.48553   0.06902  -1.78396   1.51600
   1    8902.2   1123.3   0.001315848   0.04866   0.06829   0.12595   0.16774
   2   14975.7    667.7   2.284387575  50.21779   5.89087   3.83139   0.91427
   3   17075.5    585.6   0.213252096   4.11146   0.94675  -1.48379   1.00672
   4   17989.2    555.9   0.134451647   2.46054  -0.18312  -1.55274   0.12658
   5   20089.6    497.8   0.040075833   0.65673   0.06550  -0.68873  -0.42201
   6   20938.8    477.6   0.179459268   2.82157  -0.07296   1.57090   0.59036
   7   22088.8    452.7   0.464656483   6.92525  -0.26636   2.59732   0.32902
   8   23338.1    428.5   0.008948678   0.12623  -0.33172  -0.06029  -0.11206
   9   23728.8    421.4   0.664172357   9.21468  -1.74851   2.48140   0.00637
  10   24994.5    400.1   0.041804952   0.55063  -0.47281  -0.56134   0.10947
  11   25235.6    396.3   0.008619982   0.11245  -0.20733   0.25877   0.05007
  12   25605.1    390.5   0.141366890   1.81760  -1.32078   0.07703  -0.25925
  13   25884.6    386.3   0.122656093   1.56000   1.24897  -0.00283  -0.00789
  14   26345.0    379.6   0.035621879   0.44514   0.20990   0.63325  -0.00836
  15   27712.1    360.9   0.213965633   2.54185   1.58006  -0.05199   0.20631
  16   28007.8    357.0   0.045338714   0.53292  -0.37998  -0.62065  -0.05779
  17   28636.5    349.2   0.109632742   1.26036   0.97767   0.55176  -0.00927
  18   29168.8    342.8   0.042430020   0.47888  -0.49970  -0.16363  -0.44990
  19   29547.5    338.4   0.046997870   0.52364  -0.66728  -0.24953  -0.12694
  20   29992.2    333.4   0.022348690   0.24531  -0.23546  -0.40268  -0.16649
  21   30169.2    331.5   0.022473116   0.24523   0.28292  -0.39054  -0.11257
  22   30327.9    329.7   0.016976173   0.18428  -0.14628  -0.39806  -0.06657
  23   30781.1    324.9   0.042283514   0.45223  -0.09826   0.66424   0.03692
  24   31152.2    321.0   0.241247896   2.54948   1.48242  -0.39663   0.44111
  25   31629.6    316.2   0.012678911   0.13197   0.23496  -0.25748  -0.10229
  26   31881.3    313.7   0.004377502   0.04520  -0.02560   0.21105   0.00212
  27   32253.9    310.0   0.058717426   0.59932   0.72700  -0.23982   0.11525
  28   32509.5    307.6   0.136604005   1.38334   0.24831   1.11179   0.29258
  29   33071.4    302.4   0.009057236   0.09016   0.21650   0.20011   0.05697
  30   33179.6    301.4   0.008359909   0.08295   0.04596  -0.24638  -0.14189
  31   33490.1    298.6   0.211183510   2.07596   0.51505   1.33704   0.15170
  32   33745.5    296.3   0.087778776   0.85635  -0.67786  -0.61445  -0.13894
  33   33962.1    294.4   0.001341039   0.01300   0.07823  -0.05969   0.05759
  34   34311.0    291.5   0.003849712   0.03694   0.01161   0.13822   0.13304
  35   34366.7    291.0   0.013953879   0.13367   0.31930   0.14739   0.09996
  36   34454.3    290.2   0.015988398   0.15277  -0.19219  -0.30232  -0.15632
  37   34922.2    286.4   0.011543504   0.10882  -0.24436   0.22131   0.01146
  38   35150.9    284.5   0.036957879   0.34614  -0.25526  -0.53002   0.00740
  39   35183.7    284.2   0.090853417   0.85011  -0.81096  -0.38635  -0.20782
  40   35896.3    278.6   0.064291120   0.58963   0.06643   0.73375   0.21638
  41   36136.8    276.7   0.006355004   0.05790   0.00045   0.22979  -0.07136
  42   36251.3    275.9   0.046790458   0.42492   0.59530  -0.21361   0.15782
  43   36787.1    271.8   0.085359791   0.76389   0.86380   0.11930   0.05924
  44   37078.4    269.7   0.063700227   0.56558  -0.27844   0.69733  -0.04232
  45   37263.6    268.4   0.003396253   0.03000   0.16299  -0.01160   0.05748
  46   37394.6    267.4   0.039822186   0.35058  -0.18054  -0.56135  -0.05357
  47   37622.5    265.8   0.085334941   0.74671   0.42123  -0.70811  -0.26050
  48   38282.3    261.2   0.017634909   0.15165   0.00812   0.37748   0.09538
  49   38542.3    259.5   0.004349306   0.03715  -0.10586  -0.07871  -0.14053
  50   38827.7    257.5   0.039938234   0.33863  -0.52557  -0.19570  -0.15527
  51   38898.9    257.1   0.090899084   0.76930  -0.13312  -0.86691   0.00716
  52   39247.0    254.8   0.001178364   0.00988  -0.08444  -0.00226  -0.05244
  53   39360.3    254.1   0.001058057   0.00885  -0.05525  -0.05873   0.04845
  54   39602.6    252.5   0.043377834   0.36059   0.26971   0.50973   0.16742
  55   39996.7    250.0   0.101966755   0.83929   0.87139  -0.26971   0.08498
  56   40033.6    249.8   0.040522268   0.33323  -0.39095   0.42448  -0.01430
  57   40159.5    249.0   0.132242781   1.08407  -0.75444   0.71642   0.04039

FINAL SINGLE POINT ENERGY     -7737.829000090381

DIPOLE MOMENT
-------------
                                X             Y             Z
Electronic contribution:    110.47998      49.22619       6.84947
Nuclear contribution   :   -110.95903     -48.95300      -5.61453
                        -----------------------------------------
Total Dipole Moment    :     -0.47905       0.27319       1.23494
                        -----------------------------------------
Magnitude (a.u.)       :      1.35248
Magnitude (Debye)      :      3.43773

Rotational constants in cm-1:     0.002253     0.000408     0.000362
Rotational constants in MHz :    67.531474    12.245711    10.842459

                             ****ORCA TERMINATED NORMALLY****
TOTAL RUN TIME: 0 days 0 hours 9 minutes 54 seconds 179 msec
