                         Program Version 4.2.0 -  RELEASE  -
|  1> # ORCA input file
|  2> # SCF done       -181.052367268734          0.000491226387
|  3> ! CAM-B3LYP def2-SVP def2/J RIJCOSX Grid4 TightSCF
|  4> %maxcore 5000
|  5> %tddft
|  6>     Mode sTDDFT
|  7>     Ethresh 5.0
|  8>     maxcore 5000
|  9> end
| 10>
| 11> %pal
| 12>   nprocs 6
| 13>   end
| 14> * xyz 0 1
| 15>    C       -6.55851        -0.47800        -3.40662
| 16>    C       -7.44717         0.42124        -3.96545
| 17>    C       -7.87537         0.37750        -5.30641
| 18>    N       -8.26671         0.41370        -6.38657
| 19>    C       -8.07823         1.49662        -3.31818
| 20>    N       -8.65279         2.39506        -2.87878
| 21>    C       -5.96917        -1.60579        -4.12265
| 22>    C       -5.15509        -2.33117        -3.22242
| 23>    C       -4.46316        -3.45745        -3.58882
| 24>    C       -4.57418        -3.88943        -4.91588
| 25>    C       -5.38741        -3.15705        -5.80994
| 26>    C       -6.09173        -2.01859        -5.43611
| 27>    S       -5.38449        -3.86158        -7.39999
| 28>    C       -4.30482        -5.11322        -6.84600
| 29>    C       -3.96285        -5.01146        -5.54023
| 30>   Br       -3.73040        -6.43757        -8.04502
| 31>    C       -5.19621        -1.68734        -1.88580
| 32>    O       -4.64686        -2.11203        -0.89330
| 33>    C       -6.05665        -0.49661        -2.05462
| 34>    C       -6.38451         0.48571        -1.14186
| 35>    C       -5.98115         0.71166         0.17856
| 36>    C       -6.49301         1.78726         0.91730
| 37>    O       -6.09921         2.03806         2.20294
| 38>    C       -5.20468         1.15628         2.74476
| 39>    C       -4.68633         0.06485         1.99167
| 40>    C       -3.81570        -0.69444         2.70205
| 41>    S       -3.61875        -0.08253         4.30273
| 42>    C       -4.72115         1.20805         4.01118
| 43>    O       -5.04571        -0.14834         0.70481
| 44>    C       -7.45183         2.70691         0.43343
| 45>    C       -7.89704         3.78083         1.14514
| 46>    N       -8.78132         4.65299         0.64241
| 47>    C       -9.31926         5.77992         1.38947
| 48>    C      -10.00756         5.34608         2.68543
| 49>    C      -10.97957         6.42493         3.16988
| 50>    N      -11.57645         5.98310         4.41241
| 51>    S      -12.91024         5.01394         3.94665
| 52>    N      -13.34400         6.02905         2.61559
| 53>    C      -12.12721         6.65688         2.12240
| 54>    C      -11.74647         6.07721         0.75987
| 55>    C      -10.31070         6.49114         0.44727
| 56>    N       -9.90149         6.12559        -0.88805
| 57>    S       -9.47037         4.48031        -0.92147
| 58>    C      -10.08695         6.84003        -2.02016
| 59>    C      -10.67968         8.05822        -2.18055
| 60>    C      -10.75538         8.76484        -3.41282
| 61>    C      -11.36964         9.97569        -3.33557
| 62>    C      -11.81992        10.31324        -2.03856
| 63>    S      -11.45062         9.02598        -0.91695
| 64>    C      -12.44955        11.45601        -1.58864
| 65>    C      -12.81389        12.62221        -2.29349
| 66>    C      -13.40488        13.57028        -1.51471
| 67>    C      -13.54316        13.20920        -0.14754
| 68>    S      -12.88860        11.60477         0.10261
| 69>    C      -14.12952        13.98309         0.82194
| 70>    C      -14.29818        13.67267         2.18653
| 71>    S      -15.30950        14.69967         3.19788
| 72>    C      -15.10939        13.74093         4.61404
| 73>    C      -14.29257        12.66945         4.34705
| 74>    C      -13.83144        12.64721         2.98979
| 75>    O      -13.00114        11.60196         2.79133
| 76>    C      -12.95331        10.93984         3.97659
| 77>    N      -12.16102         9.79105         4.01761
| 78>    O      -12.23492         9.07623         5.01137
| 79>    O      -11.44871         9.54476         3.05483
| 80>    C      -13.71014        11.52885         4.96078
| 81>    H       -3.85353        -3.98964        -2.87546
| 82>    H       -6.69875        -1.49849        -6.15765
| 83>    H       -3.30731        -5.69784        -5.03600
| 84>    H       -7.06055         1.22903        -1.52298
| 85>    H       -3.29085        -1.56598         2.37314
| 86>    H       -4.94683         1.91953         4.77764
| 87>    H       -7.86250         2.57498        -0.55383
| 88>    H       -7.55054         3.97703         2.14864
| 89>    H       -8.48640         6.45652         1.62321
| 90>    H       -9.27277         5.16818         3.47036
| 91>    H      -10.56095         4.41823         2.53477
| 92>    H      -10.43763         7.35776         3.34107
| 93>    H      -11.86932         6.77022         4.98966
| 94>    H      -14.03666         6.70991         2.90794
| 95>    H      -12.28244         7.73289         1.99889
| 96>    H      -12.42236         6.47003         0.00039
| 97>    H      -11.84703         4.99188         0.77052
| 98>    H      -10.21699         7.57368         0.56367
| 99>    H       -9.68540         6.35555        -2.90084
|100>    H      -10.34754         8.34745        -4.31627
|101>    H      -11.51261        10.63704        -4.17096
|102>    H      -12.62809        12.73226        -3.34712
|103>    H      -13.74808        14.52462        -1.87326
|104>    H      -14.54247        14.93109         0.50515
|105>    H      -15.59000        14.02260         5.52658
|106>    H      -13.81204        11.18570         5.96924
|107> *
|108>
|109>                          ****END OF INPUT****

CARTESIAN COORDINATES (ANGSTROEM)
---------------------------------
  C     -6.558510   -0.478000   -3.406620
  C     -7.447170    0.421240   -3.965450
  C     -7.875370    0.377500   -5.306410
  N     -8.266710    0.413700   -6.386570
  C     -8.078230    1.496620   -3.318180
  N     -8.652790    2.395060   -2.878780
  C     -5.969170   -1.605790   -4.122650
  C     -5.155090   -2.331170   -3.222420
  C     -4.463160   -3.457450   -3.588820
  C     -4.574180   -3.889430   -4.915880
  C     -5.387410   -3.157050   -5.809940
  C     -6.091730   -2.018590   -5.436110
  S     -5.384490   -3.861580   -7.399990
  C     -4.304820   -5.113220   -6.846000
  C     -3.962850   -5.011460   -5.540230
  Br    -3.730400   -6.437570   -8.045020
  C     -5.196210   -1.687340   -1.885800
  O     -4.646860   -2.112030   -0.893300
  C     -6.056650   -0.496610   -2.054620
  C     -6.384510    0.485710   -1.141860
  C     -5.981150    0.711660    0.178560
  C     -6.493010    1.787260    0.917300
  O     -6.099210    2.038060    2.202940
  C     -5.204680    1.156280    2.744760
  C     -4.686330    0.064850    1.991670
  C     -3.815700   -0.694440    2.702050
  S     -3.618750   -0.082530    4.302730
  C     -4.721150    1.208050    4.011180
  O     -5.045710   -0.148340    0.704810
  C     -7.451830    2.706910    0.433430
  C     -7.897040    3.780830    1.145140
  N     -8.781320    4.652990    0.642410
  C     -9.319260    5.779920    1.389470
  C    -10.007560    5.346080    2.685430
  C    -10.979570    6.424930    3.169880
  N    -11.576450    5.983100    4.412410
  S    -12.910240    5.013940    3.946650
  N    -13.344000    6.029050    2.615590
  C    -12.127210    6.656880    2.122400
  C    -11.746470    6.077210    0.759870
  C    -10.310700    6.491140    0.447270
  N     -9.901490    6.125590   -0.888050
  S     -9.470370    4.480310   -0.921470
  C    -10.086950    6.840030   -2.020160
  C    -10.679680    8.058220   -2.180550
  C    -10.755380    8.764840   -3.412820
  C    -11.369640    9.975690   -3.335570
  C    -11.819920   10.313240   -2.038560
  S    -11.450620    9.025980   -0.916950
  C    -12.449550   11.456010   -1.588640
  C    -12.813890   12.622210   -2.293490
  C    -13.404880   13.570280   -1.514710
  C    -13.543160   13.209200   -0.147540
  S    -12.888600   11.604770    0.102610
  C    -14.129520   13.983090    0.821940
  C    -14.298180   13.672670    2.186530
  S    -15.309500   14.699670    3.197880
  C    -15.109390   13.740930    4.614040
  C    -14.292570   12.669450    4.347050
  C    -13.831440   12.647210    2.989790
  O    -13.001140   11.601960    2.791330
  C    -12.953310   10.939840    3.976590
  N    -12.161020    9.791050    4.017610
  O    -12.234920    9.076230    5.011370
  O    -11.448710    9.544760    3.054830
  C    -13.710140   11.528850    4.960780
  H     -3.853530   -3.989640   -2.875460
  H     -6.698750   -1.498490   -6.157650
  H     -3.307310   -5.697840   -5.036000
  H     -7.060550    1.229030   -1.522980
  H     -3.290850   -1.565980    2.373140
  H     -4.946830    1.919530    4.777640
  H     -7.862500    2.574980   -0.553830
  H     -7.550540    3.977030    2.148640
  H     -8.486400    6.456520    1.623210
  H     -9.272770    5.168180    3.470360
  H    -10.560950    4.418230    2.534770
  H    -10.437630    7.357760    3.341070
  H    -11.869320    6.770220    4.989660
  H    -14.036660    6.709910    2.907940
  H    -12.282440    7.732890    1.998890
  H    -12.422360    6.470030    0.000390
  H    -11.847030    4.991880    0.770520
  H    -10.216990    7.573680    0.563670
  H     -9.685400    6.355550   -2.900840
  H    -10.347540    8.347450   -4.316270
  H    -11.512610   10.637040   -4.170960
  H    -12.628090   12.732260   -3.347120
  H    -13.748080   14.524620   -1.873260
  H    -14.542470   14.931090    0.505150
  H    -15.590000   14.022600    5.526580
  H    -13.812040   11.185700    5.969240

 Total Charge           Charge          ....    0
 Multiplicity           Mult            ....    1
 Number of Electrons    NEL             ....  540
 Basis Dimension        Dim             .... 1100

ORBITAL ENERGIES
----------------

  NO   OCC          E(Eh)            E(eV)
   0   2.0000    -482.875031    -13139.6976
   1   2.0000     -89.001514     -2421.8543
   2   2.0000     -88.973565     -2421.0938
   3   2.0000     -88.961833     -2420.7745
   4   2.0000     -88.955347     -2420.5981
   5   2.0000     -88.946172     -2420.3484
   6   2.0000     -88.943976     -2420.2886
   7   2.0000     -88.932225     -2419.9689
   8   2.0000     -62.552757     -1702.1471
   9   2.0000     -56.386692     -1534.3599
  10   2.0000     -56.384005     -1534.2868
  11   2.0000     -56.383964     -1534.2857
  12   2.0000     -19.310687      -525.4705
  13   2.0000     -19.293325      -524.9981
  14   2.0000     -19.266827      -524.2770
  15   2.0000     -19.265983      -524.2541
  16   2.0000     -19.258370      -524.0469
  17   2.0000     -19.188145      -522.1360
  18   2.0000     -14.675523      -399.3413
  19   2.0000     -14.480004      -394.0209
  20   2.0000     -14.476769      -393.9329
  21   2.0000     -14.409641      -392.1063
  22   2.0000     -14.405603      -391.9964
  23   2.0000     -14.405403      -391.9909
  24   2.0000     -14.396492      -391.7485
  25   2.0000     -10.397477      -282.9297
  26   2.0000     -10.376756      -282.3659
  27   2.0000     -10.345986      -281.5286
  28   2.0000     -10.345333      -281.5108
  29   2.0000     -10.343973      -281.4738
  30   2.0000     -10.343481      -281.4604
  31   2.0000     -10.341284      -281.4006
  32   2.0000     -10.340598      -281.3820
  33   2.0000     -10.340451      -281.3780
  34   2.0000     -10.335231      -281.2359
  35   2.0000     -10.333239      -281.1817
  36   2.0000     -10.329653      -281.0842
  37   2.0000     -10.324539      -280.9450
  38   2.0000     -10.324222      -280.9364
  39   2.0000     -10.318991      -280.7940
  40   2.0000     -10.318057      -280.7686
  41   2.0000     -10.317388      -280.7504
  42   2.0000     -10.310414      -280.5606
  43   2.0000     -10.309644      -280.5397
  44   2.0000     -10.309440      -280.5341
  45   2.0000     -10.304995      -280.4132
  46   2.0000     -10.302126      -280.3351
  47   2.0000     -10.301569      -280.3199
  48   2.0000     -10.300383      -280.2877
  49   2.0000     -10.300374      -280.2874
  50   2.0000     -10.298259      -280.2299
  51   2.0000     -10.295822      -280.1635
  52   2.0000     -10.295308      -280.1496
  53   2.0000     -10.292146      -280.0635
  54   2.0000     -10.290971      -280.0316
  55   2.0000     -10.290147      -280.0091
  56   2.0000     -10.289527      -279.9923
  57   2.0000     -10.289127      -279.9814
  58   2.0000     -10.286607      -279.9128
  59   2.0000     -10.284181      -279.8468
  60   2.0000     -10.283339      -279.8239
  61   2.0000     -10.281077      -279.7623
  62   2.0000     -10.278072      -279.6806
  63   2.0000     -10.275623      -279.6139
  64   2.0000     -10.275351      -279.6065
  65   2.0000     -10.275178      -279.6018
  66   2.0000     -10.272782      -279.5366
  67   2.0000     -10.271514      -279.5021
  68   2.0000     -10.270379      -279.4712
  69   2.0000     -10.264272      -279.3050
  70   2.0000      -8.782185      -238.9754
  71   2.0000      -8.091610      -220.1839
  72   2.0000      -8.068441      -219.5535
  73   2.0000      -8.057919      -219.2671
  74   2.0000      -8.051101      -219.0816
  75   2.0000      -8.041592      -218.8228
  76   2.0000      -8.035900      -218.6679
  77   2.0000      -8.028505      -218.4667
  78   2.0000      -6.618438      -180.0969
  79   2.0000      -6.603932      -179.7021
  80   2.0000      -6.603772      -179.6978
  81   2.0000      -6.064018      -165.0103
  82   2.0000      -6.059638      -164.8911
  83   2.0000      -6.047708      -164.5665
  84   2.0000      -6.037771      -164.2961
  85   2.0000      -6.033481      -164.1794
  86   2.0000      -6.030776      -164.1058
  87   2.0000      -6.027613      -164.0197
  88   2.0000      -6.023356      -163.9038
  89   2.0000      -6.020592      -163.8286
  90   2.0000      -6.019104      -163.7881
  91   2.0000      -6.016413      -163.7149
  92   2.0000      -6.012829      -163.6174
  93   2.0000      -6.011502      -163.5813
  94   2.0000      -6.008991      -163.5129
  95   2.0000      -6.007310      -163.4672
  96   2.0000      -6.002676      -163.3411
  97   2.0000      -6.002440      -163.3347
  98   2.0000      -5.998274      -163.2213
  99   2.0000      -5.994153      -163.1092
 100   2.0000      -5.992946      -163.0764
 101   2.0000      -5.989270      -162.9763
 102   2.0000      -2.734272       -74.4033
 103   2.0000      -2.730272       -74.2945
 104   2.0000      -2.730127       -74.2905
 105   2.0000      -2.718612       -73.9772
 106   2.0000      -2.718581       -73.9763
 107   2.0000      -1.343604       -36.5613
 108   2.0000      -1.234248       -33.5856
 109   2.0000      -1.209844       -32.9215
 110   2.0000      -1.164845       -31.6970
 111   2.0000      -1.157315       -31.4921
 112   2.0000      -1.119746       -30.4698
 113   2.0000      -1.103709       -30.0335
 114   2.0000      -1.050575       -28.5876
 115   2.0000      -1.046360       -28.4729
 116   2.0000      -1.008494       -27.4425
 117   2.0000      -1.002065       -27.2676
 118   2.0000      -0.995249       -27.0821
 119   2.0000      -0.987538       -26.8723
 120   2.0000      -0.985435       -26.8150
 121   2.0000      -0.982201       -26.7270
 122   2.0000      -0.972110       -26.4524
 123   2.0000      -0.965196       -26.2643
 124   2.0000      -0.949166       -25.8281
 125   2.0000      -0.945316       -25.7233
 126   2.0000      -0.937349       -25.5066
 127   2.0000      -0.930093       -25.3091
 128   2.0000      -0.918504       -24.9938
 129   2.0000      -0.905203       -24.6318
 130   2.0000      -0.894584       -24.3429
 131   2.0000      -0.893005       -24.2999
 132   2.0000      -0.882476       -24.0134
 133   2.0000      -0.871013       -23.7015
 134   2.0000      -0.870187       -23.6790
 135   2.0000      -0.859998       -23.4017
 136   2.0000      -0.847731       -23.0679
 137   2.0000      -0.844610       -22.9830
 138   2.0000      -0.837756       -22.7965
 139   2.0000      -0.831237       -22.6191
 140   2.0000      -0.820654       -22.3311
 141   2.0000      -0.817824       -22.2541
 142   2.0000      -0.814605       -22.1665
 143   2.0000      -0.812838       -22.1184
 144   2.0000      -0.809420       -22.0255
 145   2.0000      -0.798171       -21.7193
 146   2.0000      -0.788378       -21.4528
 147   2.0000      -0.764214       -20.7953
 148   2.0000      -0.759025       -20.6541
 149   2.0000      -0.749078       -20.3835
 150   2.0000      -0.742184       -20.1959
 151   2.0000      -0.733920       -19.9710
 152   2.0000      -0.716629       -19.5005
 153   2.0000      -0.713546       -19.4166
 154   2.0000      -0.708239       -19.2722
 155   2.0000      -0.695955       -18.9379
 156   2.0000      -0.692986       -18.8571
 157   2.0000      -0.690677       -18.7943
 158   2.0000      -0.684712       -18.6319
 159   2.0000      -0.677978       -18.4487
 160   2.0000      -0.671494       -18.2723
 161   2.0000      -0.668431       -18.1889
 162   2.0000      -0.662236       -18.0204
 163   2.0000      -0.658845       -17.9281
 164   2.0000      -0.658418       -17.9165
 165   2.0000      -0.654160       -17.8006
 166   2.0000      -0.650225       -17.6935
 167   2.0000      -0.641910       -17.4673
 168   2.0000      -0.638577       -17.3766
 169   2.0000      -0.633062       -17.2265
 170   2.0000      -0.626321       -17.0431
 171   2.0000      -0.617449       -16.8016
 172   2.0000      -0.613058       -16.6821
 173   2.0000      -0.608584       -16.5604
 174   2.0000      -0.608254       -16.5514
 175   2.0000      -0.603706       -16.4277
 176   2.0000      -0.601166       -16.3585
 177   2.0000      -0.596581       -16.2338
 178   2.0000      -0.591750       -16.1023
 179   2.0000      -0.582382       -15.8474
 180   2.0000      -0.581006       -15.8100
 181   2.0000      -0.580649       -15.8003
 182   2.0000      -0.572691       -15.5837
 183   2.0000      -0.571954       -15.5637
 184   2.0000      -0.570152       -15.5146
 185   2.0000      -0.567800       -15.4506
 186   2.0000      -0.562441       -15.3048
 187   2.0000      -0.557872       -15.1805
 188   2.0000      -0.548920       -14.9369
 189   2.0000      -0.546691       -14.8762
 190   2.0000      -0.545517       -14.8443
 191   2.0000      -0.533314       -14.5122
 192   2.0000      -0.532255       -14.4834
 193   2.0000      -0.527685       -14.3590
 194   2.0000      -0.522702       -14.2234
 195   2.0000      -0.522076       -14.2064
 196   2.0000      -0.521294       -14.1851
 197   2.0000      -0.518709       -14.1148
 198   2.0000      -0.512773       -13.9533
 199   2.0000      -0.509457       -13.8630
 200   2.0000      -0.507387       -13.8067
 201   2.0000      -0.505391       -13.7524
 202   2.0000      -0.501630       -13.6501
 203   2.0000      -0.500331       -13.6147
 204   2.0000      -0.498879       -13.5752
 205   2.0000      -0.494041       -13.4435
 206   2.0000      -0.492084       -13.3903
 207   2.0000      -0.488066       -13.2809
 208   2.0000      -0.486897       -13.2491
 209   2.0000      -0.483830       -13.1657
 210   2.0000      -0.479011       -13.0346
 211   2.0000      -0.478047       -13.0083
 212   2.0000      -0.477568       -12.9953
 213   2.0000      -0.476856       -12.9759
 214   2.0000      -0.476026       -12.9533
 215   2.0000      -0.473420       -12.8824
 216   2.0000      -0.470616       -12.8061
 217   2.0000      -0.468704       -12.7541
 218   2.0000      -0.466910       -12.7053
 219   2.0000      -0.463468       -12.6116
 220   2.0000      -0.460910       -12.5420
 221   2.0000      -0.459748       -12.5104
 222   2.0000      -0.455445       -12.3933
 223   2.0000      -0.448336       -12.1998
 224   2.0000      -0.447835       -12.1862
 225   2.0000      -0.441997       -12.0273
 226   2.0000      -0.435910       -11.8617
 227   2.0000      -0.434522       -11.8240
 228   2.0000      -0.431772       -11.7491
 229   2.0000      -0.431019       -11.7286
 230   2.0000      -0.429723       -11.6933
 231   2.0000      -0.426605       -11.6085
 232   2.0000      -0.426031       -11.5929
 233   2.0000      -0.424950       -11.5635
 234   2.0000      -0.421805       -11.4779
 235   2.0000      -0.416306       -11.3283
 236   2.0000      -0.415674       -11.3111
 237   2.0000      -0.414214       -11.2713
 238   2.0000      -0.412247       -11.2178
 239   2.0000      -0.409337       -11.1386
 240   2.0000      -0.407567       -11.0905
 241   2.0000      -0.405434       -11.0324
 242   2.0000      -0.402502       -10.9526
 243   2.0000      -0.400760       -10.9052
 244   2.0000      -0.394110       -10.7243
 245   2.0000      -0.391991       -10.6666
 246   2.0000      -0.385086       -10.4787
 247   2.0000      -0.384145       -10.4531
 248   2.0000      -0.382387       -10.4053
 249   2.0000      -0.374678       -10.1955
 250   2.0000      -0.370145       -10.0722
 251   2.0000      -0.364735        -9.9249
 252   2.0000      -0.357566        -9.7299
 253   2.0000      -0.356892        -9.7115
 254   2.0000      -0.343171        -9.3382
 255   2.0000      -0.334293        -9.0966
 256   2.0000      -0.327034        -8.8990
 257   2.0000      -0.322029        -8.7628
 258   2.0000      -0.315943        -8.5972
 259   2.0000      -0.311722        -8.4824
 260   2.0000      -0.308875        -8.4049
 261   2.0000      -0.308163        -8.3855
 262   2.0000      -0.299876        -8.1600
 263   2.0000      -0.296542        -8.0693
 264   2.0000      -0.285082        -7.7575
 265   2.0000      -0.279791        -7.6135
 266   2.0000      -0.274344        -7.4653
 267   2.0000      -0.266532        -7.2527
 268   2.0000      -0.234346        -6.3769
 269   2.0000      -0.201092        -5.4720
 270   0.0000      -0.086348        -2.3496
 271   0.0000      -0.076492        -2.0814
 272   0.0000      -0.057826        -1.5735
 273   0.0000      -0.041245        -1.1223
 274   0.0000      -0.000517        -0.0141

MULLIKEN ATOMIC CHARGES
-----------------------
   0 C :    0.324339
   1 C :   -0.388264
   2 C :   -0.194188
   3 N :    0.132324
   4 C :   -0.146426
   5 N :    0.095396
   6 C :    0.011883
   7 C :   -0.013721
   8 C :   -0.083852
   9 C :    0.121729
  10 C :   -0.091252
  11 C :   -0.024604
  12 S :    0.175675
  13 C :   -0.123186
  14 C :    0.035134
  15 Br:    0.012364
  16 C :    0.120593
  17 O :   -0.131593
  18 C :   -0.071387
  19 C :   -0.042837
  20 C :    0.146727
  21 C :    0.208713
  22 O :   -0.247065
  23 C :    0.202051
  24 C :    0.227085
  25 C :   -0.168909
  26 S :    0.110879
  27 C :   -0.169639
  28 O :   -0.216037
  29 C :   -0.156392
  30 C :    0.195025
  31 N :   -0.372867
  32 C :    0.131639
  33 C :    0.212745
  34 C :   -0.075285
  35 N :   -0.301913
  36 S :    0.202467
  37 N :   -0.322786
  38 C :   -0.004656
  39 C :    0.279460
  40 C :   -0.091817
  41 N :   -0.339052
  42 S :    0.415380
  43 C :    0.110227
  44 C :   -0.062810
  45 C :    0.048478
  46 C :    0.011679
  47 C :   -0.028179
  48 S :    0.041374
  49 C :   -0.058368
  50 C :    0.042595
  51 C :    0.014944
  52 C :   -0.017761
  53 S :    0.064624
  54 C :    0.021888
  55 C :   -0.217888
  56 S :    0.147708
  57 C :   -0.146484
  58 C :    0.124192
  59 C :    0.184087
  60 O :   -0.193739
  61 C :    0.242585
  62 N :    0.289952
  63 O :   -0.261936
  64 O :   -0.227426
  65 C :   -0.073685
  66 H :   -0.015900
  67 H :   -0.012047
  68 H :   -0.006728
  69 H :   -0.059478
  70 H :    0.034870
  71 H :    0.023135
  72 H :    0.028645
  73 H :    0.032262
  74 H :    0.022542
  75 H :    0.011868
  76 H :   -0.008539
  77 H :    0.011912
  78 H :    0.131908
  79 H :    0.125776
  80 H :    0.010842
  81 H :    0.012827
  82 H :   -0.013448
  83 H :    0.057401
  84 H :    0.024203
  85 H :   -0.008291
  86 H :   -0.016590
  87 H :   -0.016747
  88 H :   -0.021243
  89 H :   -0.030422
  90 H :    0.028076
  91 H :    0.013231
Sum of atomic charges:   -0.0000000

LOEWDIN ATOMIC CHARGES
----------------------
   0 C :    0.082816
   1 C :   -0.175858
   2 C :   -0.020234
   3 N :   -0.075734
   4 C :   -0.002763
   5 N :   -0.106750
   6 C :   -0.022453
   7 C :   -0.045924
   8 C :    0.015268
   9 C :   -0.035099
  10 C :   -0.147364
  11 C :   -0.013611
  12 S :    0.424319
  13 C :   -0.275002
  14 C :   -0.071251
  15 Br:    0.128096
  16 C :    0.072146
  17 O :   -0.141614
  18 C :   -0.118085
  19 C :    0.044388
  20 C :   -0.020077
  21 C :    0.103335
  22 O :   -0.037495
  23 C :   -0.015375
  24 C :   -0.004911
  25 C :   -0.205284
  26 S :    0.439358
  27 C :   -0.209445
  28 O :   -0.034144
  29 C :   -0.150765
  30 C :    0.070333
  31 N :   -0.130358
  32 C :    0.028630
  33 C :   -0.036634
  34 C :   -0.013131
  35 N :   -0.222592
  36 S :    0.349737
  37 N :   -0.234997
  38 C :   -0.009148
  39 C :   -0.035543
  40 C :    0.002358
  41 N :   -0.144756
  42 S :    0.505063
  43 C :    0.013173
  44 C :   -0.219447
  45 C :   -0.009964
  46 C :   -0.062628
  47 C :   -0.156853
  48 S :    0.377093
  49 C :   -0.214700
  50 C :   -0.022060
  51 C :   -0.057315
  52 C :   -0.130315
  53 S :    0.378888
  54 C :   -0.121261
  55 C :   -0.187879
  56 S :    0.472399
  57 C :   -0.201718
  58 C :   -0.082447
  59 C :   -0.000971
  60 O :   -0.002294
  61 C :    0.015738
  62 N :    0.284643
  63 O :   -0.219494
  64 O :   -0.187259
  65 C :    0.003693
  66 H :    0.038120
  67 H :    0.039226
  68 H :    0.037320
  69 H :    0.041420
  70 H :    0.034367
  71 H :    0.028466
  72 H :    0.025587
  73 H :    0.039472
  74 H :    0.029526
  75 H :    0.027620
  76 H :    0.023559
  77 H :    0.017897
  78 H :    0.040723
  79 H :    0.045376
  80 H :    0.013022
  81 H :    0.024310
  82 H :    0.024277
  83 H :    0.024191
  84 H :    0.038232
  85 H :    0.034301
  86 H :    0.031093
  87 H :    0.030803
  88 H :    0.029094
  89 H :    0.029856
  90 H :    0.026551
  91 H :    0.047116

  Mayer bond orders larger than 0.100000
B(  0-C ,  1-C ) :   1.5325 B(  0-C ,  6-C ) :   0.9904 B(  0-C , 18-C ) :   1.1510
B(  1-C ,  2-C ) :   1.1553 B(  1-C ,  4-C ) :   1.1693 B(  2-C ,  3-N ) :   2.9609
B(  4-C ,  5-N ) :   2.9229 B(  6-C ,  7-C ) :   1.2802 B(  6-C , 11-C ) :   1.4118
B(  7-C ,  8-C ) :   1.4346 B(  7-C , 16-C ) :   0.9275 B(  8-C ,  9-C ) :   1.2350
B(  8-C , 66-H ) :   1.0168 B(  9-C , 10-C ) :   1.3172 B(  9-C , 14-C ) :   1.1607
B( 10-C , 11-C ) :   1.3247 B( 10-C , 12-S ) :   1.0798 B( 11-C , 67-H ) :   0.9798
B( 12-S , 13-C ) :   1.0862 B( 13-C , 14-C ) :   1.6192 B( 13-C , 15-Br) :   1.0117
B( 14-C , 68-H ) :   1.0010 B( 16-C , 17-O ) :   2.2843 B( 16-C , 18-C ) :   0.9217
B( 18-C , 19-C ) :   1.4401 B( 19-C , 20-C ) :   1.3447 B( 19-C , 69-H ) :   0.9079
B( 20-C , 21-C ) :   1.2767 B( 20-C , 28-O ) :   1.0893 B( 21-C , 22-O ) :   1.1193
B( 21-C , 29-C ) :   1.3220 B( 22-O , 23-C ) :   1.0158 B( 23-C , 24-C ) :   1.2052
B( 23-C , 27-C ) :   1.5658 B( 24-C , 25-C ) :   1.5702 B( 24-C , 28-O ) :   1.0788
B( 25-C , 26-S ) :   1.1365 B( 25-C , 70-H ) :   0.9695 B( 26-S , 27-C ) :   1.1514
B( 27-C , 71-H ) :   0.9738 B( 29-C , 30-C ) :   1.4874 B( 29-C , 72-H ) :   0.9153
B( 30-C , 31-N ) :   1.2220 B( 30-C , 73-H ) :   0.9685 B( 31-N , 32-C ) :   0.8717
B( 31-N , 42-S ) :   0.8970 B( 32-C , 33-C ) :   1.0959 B( 32-C , 40-C ) :   0.9933
B( 32-C , 74-H ) :   0.9136 B( 33-C , 34-C ) :   1.0823 B( 33-C , 39-C ) :   0.1040
B( 33-C , 75-H ) :   0.9262 B( 33-C , 76-H ) :   0.8500 B( 34-C , 35-N ) :   1.0704
B( 34-C , 38-C ) :   0.9753 B( 34-C , 77-H ) :   0.9021 B( 35-N , 36-S ) :   0.9871
B( 35-N , 78-H ) :   0.9353 B( 36-S , 37-N ) :   0.9664 B( 37-N , 38-C ) :   1.0352
B( 37-N , 79-H ) :   0.9433 B( 38-C , 39-C ) :   1.0839 B( 38-C , 80-H ) :   0.9128
B( 39-C , 40-C ) :   1.0812 B( 39-C , 81-H ) :   0.9204 B( 39-C , 82-H ) :   0.8534
B( 40-C , 41-N ) :   0.9218 B( 40-C , 83-H ) :   0.8935 B( 41-N , 42-S ) :   0.9298
B( 41-N , 43-C ) :   1.1481 B( 43-C , 44-C ) :   1.6096 B( 43-C , 84-H ) :   0.9472
B( 44-C , 45-C ) :   1.1570 B( 44-C , 48-S ) :   0.9834 B( 45-C , 46-C ) :   1.6016
B( 45-C , 85-H ) :   0.9953 B( 46-C , 47-C ) :   1.1853 B( 46-C , 86-H ) :   0.9938
B( 47-C , 48-S ) :   1.0628 B( 47-C , 49-C ) :   1.5031 B( 49-C , 50-C ) :   1.1982
B( 49-C , 53-S ) :   1.0137 B( 50-C , 51-C ) :   1.5823 B( 50-C , 87-H ) :   0.9929
B( 51-C , 52-C ) :   1.1507 B( 51-C , 88-H ) :   0.9986 B( 52-C , 53-S ) :   1.0618
B( 52-C , 54-C ) :   1.5826 B( 54-C , 55-C ) :   1.1537 B( 54-C , 89-H ) :   0.9437
B( 55-C , 56-S ) :   1.1374 B( 55-C , 57-C ) :   0.1065 B( 55-C , 59-C ) :   1.4321
B( 56-S , 57-C ) :   1.1720 B( 57-C , 58-C ) :   1.4271 B( 57-C , 90-H ) :   0.9770
B( 58-C , 59-C ) :   1.2222 B( 58-C , 65-C ) :   1.0818 B( 59-C , 60-O ) :   1.0777
B( 60-O , 61-C ) :   1.1250 B( 61-C , 62-N ) :   0.9422 B( 61-C , 65-C ) :   1.5353
B( 62-N , 63-O ) :   1.4846 B( 62-N , 64-O ) :   1.4735 B( 63-O , 64-O ) :   0.2535
B( 65-C , 91-H ) :   1.0260

-----------------------------------------------------------------------------
         ABSORPTION SPECTRUM VIA TRANSITION ELECTRIC DIPOLE MOMENTS
-----------------------------------------------------------------------------
State   Energy  Wavelength   fosc         T2         TX        TY        TZ
        (cm-1)    (nm)                  (au**2)     (au)      (au)      (au)
-----------------------------------------------------------------------------
   0    8091.7   1235.8   0.050026286   2.03532   0.61073  -0.71409  -1.07350
   1   15994.9    625.2   1.205692789  24.81589   1.86299  -3.72588  -2.73184
   2   16878.2    592.5   0.304764476   5.94449   1.23990  -1.82020  -1.04594
   3   17559.8    569.5   0.226472585   4.24591  -0.24423  -0.89016  -1.84225
   4   21553.2    464.0   0.007410489   0.11319  -0.13604   0.00594   0.30765
   5   22548.6    443.5   0.002875829   0.04199  -0.07320   0.09894   0.16383
   6   23393.4    427.5   0.022392890   0.31513  -0.33955   0.39887   0.20185
   7   23644.5    422.9   0.088047305   1.22592  -0.57559   0.94564   0.01956
   8   26028.0    384.2   0.073506152   0.92973  -0.38443   0.41330  -0.78175
   9   26393.9    378.9   0.127013064   1.58424   0.50983  -0.85507   0.77017
  10   27068.8    369.4   0.027509009   0.33457   0.05021  -0.09892   0.56768
  11   27510.8    363.5   0.162901107   1.94938  -0.92325   1.02348  -0.22243
  12   28078.2    356.1   0.010358900   0.12146   0.18567  -0.28753  -0.06563
  13   28370.5    352.5   0.287778215   3.33938   1.06199  -1.48700  -0.01991
  14   28504.0    350.8   0.062148336   0.71779   0.32612  -0.65572  -0.42599
  15   28640.8    349.2   0.013362391   0.15359  -0.07565   0.38452   0.00417
  16   29693.7    336.8   0.012816521   0.14210   0.08338   0.03866   0.36558
  17   30293.9    330.1   0.222700718   2.42014  -0.12470   0.99503   1.18933
  18   30474.4    328.1   0.312498904   3.37589  -0.55310   1.28894  -1.18685
  19   30750.9    325.2   0.078739082   0.84296   0.34770  -0.70425  -0.47550
  20   30991.2    322.7   0.099777639   1.05991   0.00180  -0.51289  -0.89267
  21   31467.6    317.8   0.012809728   0.13401  -0.01898  -0.29979   0.20924
  22   31601.0    316.4   0.212014781   2.20872   0.06991  -0.78196   1.26189
  23   31655.5    315.9   0.121000014   1.25838  -0.25643   0.80433  -0.73870
  24   32058.3    311.9   0.044792205   0.45998   0.22439  -0.48523   0.41735
  25   32235.8    310.2   0.064835375   0.66214   0.20785  -0.50514   0.60314
  26   33242.4    300.8   0.238217900   2.35916  -0.82935   1.27983  -0.18264
  27   33618.0    297.5   0.174819558   1.71196  -0.77819   0.90082   0.54305
  28   34051.1    293.7   0.626528111   6.05738  -1.41244   1.98043   0.37452
  29   34147.9    292.8   0.027238504   0.26260   0.29338  -0.38710   0.16334
  30   34997.1    285.7   0.021518221   0.20242  -0.03034   0.26107   0.36516
  31   35551.8    281.3   0.003577455   0.03313  -0.04742   0.11683  -0.13126
  32   35595.0    280.9   0.002305497   0.02132   0.02777  -0.09440  -0.10790
  33   35704.3    280.1   0.019442607   0.17927  -0.03182   0.16965   0.38662
  34   35821.9    279.2   0.065492370   0.60189   0.07038  -0.31366  -0.70608
  35   35899.8    278.6   0.009608407   0.08811   0.07638  -0.24129   0.15511
  36   35954.0    278.1   0.016886579   0.15462  -0.06709  -0.29614   0.24984
  37   36691.8    272.5   0.034699570   0.31134  -0.37406   0.31753   0.26568
  38   36823.8    271.6   0.067214993   0.60091  -0.13821   0.44797  -0.61736
  39   37920.5    263.7   0.009347956   0.08116   0.08200  -0.24803   0.11364
  40   38105.9    262.4   0.037321059   0.32243  -0.09929   0.40028   0.39032
  41   38159.2    262.1   0.000106680   0.00092   0.00398  -0.02276  -0.01967
  42   38767.0    258.0   0.186927514   1.58740  -0.74899   0.51296  -0.87366
  43   39217.3    255.0   0.025109772   0.21079   0.14503   0.08609   0.42701
  44   39267.8    254.7   0.155592293   1.30445   0.21822   0.18325   1.10601
  45   39450.7    253.5   0.001931528   0.01612  -0.00653   0.12493  -0.02161
  46   39685.2    252.0   0.000835460   0.00693  -0.03972   0.03501  -0.06424
  47   39825.1    251.1   0.004374598   0.03616  -0.03240   0.18585   0.02393
  48   40163.9    249.0   0.006029461   0.04942   0.10699  -0.02091  -0.19374

FINAL SINGLE POINT ENERGY     -7922.006703774954

DIPOLE MOMENT
-------------
                                X             Y             Z
Electronic contribution:     71.34357    -138.05952     -92.81911
Nuclear contribution   :    -71.77356     141.13567      94.74570
                        -----------------------------------------
Total Dipole Moment    :     -0.42998       3.07615       1.92660
                        -----------------------------------------
Magnitude (a.u.)       :      3.65505
Magnitude (Debye)      :      9.29040

Rotational constants in cm-1:     0.001702     0.000264     0.000236
Rotational constants in MHz :    51.011742     7.921898     7.071227

                             ****ORCA TERMINATED NORMALLY****
TOTAL RUN TIME: 0 days 0 hours 9 minutes 42 seconds 718 msec
