                         Program Version 4.2.0 -  RELEASE  -
|  1> # ORCA input file
|  2> # SCF done       -168.001219641828          0.000862819898
|  3> ! CAM-B3LYP def2-SVP def2/J RIJCOSX Grid4 TightSCF
|  4> %maxcore 5000
|  5> %tddft
|  6>     Mode sTDDFT
|  7>     Ethresh 5.0
|  8>     maxcore 5000
|  9> end
| 10>
| 11> %pal
| 12>   nprocs 6
| 13>   end
| 14> * xyz 0 1
| 15>    C       -4.23488         2.03370         1.42162
| 16>    C       -4.63699         2.61816         0.24145
| 17>    C       -3.75474         3.01978        -0.78155
| 18>    N       -3.09871         3.38049        -1.65336
| 19>    C       -5.95484         2.93489        -0.13784
| 20>    N       -6.98127         3.24088        -0.55805
| 21>    C       -2.84894         1.71903         1.76090
| 22>    C       -2.81378         1.19131         3.07308
| 23>    C       -1.64981         0.80165         3.68630
| 24>    C       -0.45815         0.92223         2.96163
| 25>    C       -0.50285         1.44287         1.64794
| 26>    C       -1.68135         1.84835         1.03239
| 27>    S        1.07982         1.50491         0.93096
| 28>    C        1.76892         0.83852         2.38728
| 29>    C        0.86363         0.58287         3.36111
| 30>   Br        3.61912         0.54322         2.48486
| 31>    C       -4.18614         1.16901         3.62859
| 32>    O       -4.47544         0.94946         4.78506
| 33>    C       -5.06763         1.60970         2.52211
| 34>    C       -6.44251         1.69884         2.54839
| 35>    C       -7.31211         1.07948         3.46744
| 36>    C       -8.65947         1.43389         3.59315
| 37>    O       -9.48576         0.83154         4.50278
| 38>    C       -8.91147        -0.10138         5.31764
| 39>    C       -7.54712        -0.47908         5.16901
| 40>    C       -7.15989        -1.41539         6.07018
| 41>    S       -8.46316        -1.85107         7.11164
| 42>    C       -9.53788        -0.75777         6.32637
| 43>    O       -6.76498         0.05501         4.19823
| 44>    C       -9.28671         2.43909         2.82382
| 45>    C      -10.60179         2.78821         2.96404
| 46>    C      -11.19555         3.75233         2.13427
| 47>    S      -12.89040         4.21342         2.22941
| 48>    C      -12.79692         5.33915         0.86795
| 49>    C      -11.49005         5.32752         0.40820
| 50>    C      -10.62841         4.47646         1.10100
| 51>    O       -9.37539         4.56479         0.59344
| 52>    C       -9.47321         5.45738        -0.50161
| 53>    O      -10.79341         5.97839        -0.56550
| 54>    C      -13.94839         6.03425         0.47832
| 55>    C      -14.11697         6.85514        -0.61178
| 56>    C      -15.31450         7.55112        -0.91762
| 57>    C      -15.25886         8.28748        -2.06115
| 58>    C      -14.01599         8.20287        -2.72729
| 59>    S      -12.91335         7.16955        -1.84421
| 60>    C      -13.64572         8.80497        -3.91543
| 61>    C      -14.41012         9.66568        -4.73560
| 62>    C      -13.75875        10.08108        -5.85538
| 63>    C      -12.44235         9.56638        -5.98911
| 64>    S      -12.06214         8.54186        -4.61589
| 65>    C      -11.58876         9.80928        -7.03193
| 66>    C      -10.29374         9.29319        -7.21257
| 67>    S       -9.46767         8.20520        -6.10723
| 68>    C       -8.05497         8.09084        -7.07635
| 69>    C       -8.18302         8.85150        -8.21557
| 70>    C       -9.44105         9.52262        -8.28062
| 71>    O       -9.53812        10.25900        -9.40603
| 72>    C       -8.35963        10.06628       -10.05997
| 73>    N       -8.17766        10.73064       -11.29685
| 74>    O       -7.11581        10.54211       -11.85972
| 75>    O       -9.07819        11.43138       -11.70439
| 76>    C       -7.49713         9.23128        -9.40213
| 77>    H       -1.65666         0.41093         4.69187
| 78>    H       -1.65879         2.24189         0.03017
| 79>    H        1.11556         0.17241         4.32196
| 80>    H       -6.91167         2.26575         1.76002
| 81>    H       -6.19437        -1.86187         6.17854
| 82>    H      -10.55470        -0.66418         6.64559
| 83>    H       -8.70765         2.94638         2.07179
| 84>    H      -11.21975         2.31797         3.71404
| 85>    H       -8.76081         6.28272        -0.36661
| 86>    H       -9.23803         4.91759        -1.43122
| 87>    H      -14.81285         5.89171         1.11355
| 88>    H      -16.17614         7.48452        -0.27719
| 89>    H      -16.07244         8.87883        -2.44053
| 90>    H      -15.41359         9.95303        -4.47770
| 91>    H      -14.17791        10.73675        -6.59780
| 92>    H      -11.93611        10.46207        -7.82227
| 93>    H       -7.23406         7.48310        -6.75718
| 94>    H       -6.52159         8.94344        -9.73521
| 95> *
| 96>
| 97>                          ****END OF INPUT****

CARTESIAN COORDINATES (ANGSTROEM)
---------------------------------
  C     -4.234880    2.033700    1.421620
  C     -4.636990    2.618160    0.241450
  C     -3.754740    3.019780   -0.781550
  N     -3.098710    3.380490   -1.653360
  C     -5.954840    2.934890   -0.137840
  N     -6.981270    3.240880   -0.558050
  C     -2.848940    1.719030    1.760900
  C     -2.813780    1.191310    3.073080
  C     -1.649810    0.801650    3.686300
  C     -0.458150    0.922230    2.961630
  C     -0.502850    1.442870    1.647940
  C     -1.681350    1.848350    1.032390
  S      1.079820    1.504910    0.930960
  C      1.768920    0.838520    2.387280
  C      0.863630    0.582870    3.361110
  Br     3.619120    0.543220    2.484860
  C     -4.186140    1.169010    3.628590
  O     -4.475440    0.949460    4.785060
  C     -5.067630    1.609700    2.522110
  C     -6.442510    1.698840    2.548390
  C     -7.312110    1.079480    3.467440
  C     -8.659470    1.433890    3.593150
  O     -9.485760    0.831540    4.502780
  C     -8.911470   -0.101380    5.317640
  C     -7.547120   -0.479080    5.169010
  C     -7.159890   -1.415390    6.070180
  S     -8.463160   -1.851070    7.111640
  C     -9.537880   -0.757770    6.326370
  O     -6.764980    0.055010    4.198230
  C     -9.286710    2.439090    2.823820
  C    -10.601790    2.788210    2.964040
  C    -11.195550    3.752330    2.134270
  S    -12.890400    4.213420    2.229410
  C    -12.796920    5.339150    0.867950
  C    -11.490050    5.327520    0.408200
  C    -10.628410    4.476460    1.101000
  O     -9.375390    4.564790    0.593440
  C     -9.473210    5.457380   -0.501610
  O    -10.793410    5.978390   -0.565500
  C    -13.948390    6.034250    0.478320
  C    -14.116970    6.855140   -0.611780
  C    -15.314500    7.551120   -0.917620
  C    -15.258860    8.287480   -2.061150
  C    -14.015990    8.202870   -2.727290
  S    -12.913350    7.169550   -1.844210
  C    -13.645720    8.804970   -3.915430
  C    -14.410120    9.665680   -4.735600
  C    -13.758750   10.081080   -5.855380
  C    -12.442350    9.566380   -5.989110
  S    -12.062140    8.541860   -4.615890
  C    -11.588760    9.809280   -7.031930
  C    -10.293740    9.293190   -7.212570
  S     -9.467670    8.205200   -6.107230
  C     -8.054970    8.090840   -7.076350
  C     -8.183020    8.851500   -8.215570
  C     -9.441050    9.522620   -8.280620
  O     -9.538120   10.259000   -9.406030
  C     -8.359630   10.066280  -10.059970
  N     -8.177660   10.730640  -11.296850
  O     -7.115810   10.542110  -11.859720
  O     -9.078190   11.431380  -11.704390
  C     -7.497130    9.231280   -9.402130
  H     -1.656660    0.410930    4.691870
  H     -1.658790    2.241890    0.030170
  H      1.115560    0.172410    4.321960
  H     -6.911670    2.265750    1.760020
  H     -6.194370   -1.861870    6.178540
  H    -10.554700   -0.664180    6.645590
  H     -8.707650    2.946380    2.071790
  H    -11.219750    2.317970    3.714040
  H     -8.760810    6.282720   -0.366610
  H     -9.238030    4.917590   -1.431220
  H    -14.812850    5.891710    1.113550
  H    -16.176140    7.484520   -0.277190
  H    -16.072440    8.878830   -2.440530
  H    -15.413590    9.953030   -4.477700
  H    -14.177910   10.736750   -6.597800
  H    -11.936110   10.462070   -7.822270
  H     -7.234060    7.483100   -6.757180
  H     -6.521590    8.943440   -9.735210

 Total Charge           Charge          ....    0
 Multiplicity           Mult            ....    1
 Number of Electrons    NEL             ....  498
 Basis Dimension        Dim             .... 1000

ORBITAL ENERGIES
----------------

  NO   OCC          E(Eh)            E(eV)
   0   2.0000    -482.880695    -13139.8517
   1   2.0000     -88.976117     -2421.1632
   2   2.0000     -88.968544     -2420.9572
   3   2.0000     -88.961587     -2420.7678
   4   2.0000     -88.959301     -2420.7056
   5   2.0000     -88.951087     -2420.4821
   6   2.0000     -88.946738     -2420.3638
   7   2.0000     -62.558378     -1702.3000
   8   2.0000     -56.392323     -1534.5131
   9   2.0000     -56.389621     -1534.4396
  10   2.0000     -56.389586     -1534.4386
  11   2.0000     -19.308775      -525.4185
  12   2.0000     -19.293501      -525.0028
  13   2.0000     -19.278194      -524.5863
  14   2.0000     -19.273002      -524.4451
  15   2.0000     -19.268890      -524.3332
  16   2.0000     -19.242422      -523.6129
  17   2.0000     -19.240222      -523.5531
  18   2.0000     -19.198678      -522.4226
  19   2.0000     -14.654127      -398.7591
  20   2.0000     -14.414061      -392.2265
  21   2.0000     -14.406215      -392.0130
  22   2.0000     -10.392906      -282.8054
  23   2.0000     -10.385737      -282.6103
  24   2.0000     -10.374769      -282.3118
  25   2.0000     -10.352762      -281.7130
  26   2.0000     -10.352681      -281.7108
  27   2.0000     -10.352138      -281.6960
  28   2.0000     -10.349522      -281.6248
  29   2.0000     -10.346019      -281.5295
  30   2.0000     -10.345706      -281.5210
  31   2.0000     -10.344634      -281.4918
  32   2.0000     -10.340239      -281.3722
  33   2.0000     -10.333357      -281.1849
  34   2.0000     -10.330237      -281.1000
  35   2.0000     -10.322043      -280.8771
  36   2.0000     -10.318555      -280.7822
  37   2.0000     -10.317681      -280.7584
  38   2.0000     -10.317114      -280.7429
  39   2.0000     -10.315783      -280.7067
  40   2.0000     -10.315221      -280.6914
  41   2.0000     -10.313622      -280.6479
  42   2.0000     -10.312683      -280.6224
  43   2.0000     -10.312420      -280.6152
  44   2.0000     -10.311687      -280.5953
  45   2.0000     -10.311334      -280.5857
  46   2.0000     -10.310925      -280.5745
  47   2.0000     -10.310787      -280.5708
  48   2.0000     -10.306203      -280.4460
  49   2.0000     -10.299705      -280.2692
  50   2.0000     -10.299040      -280.2511
  51   2.0000     -10.298731      -280.2427
  52   2.0000     -10.297211      -280.2013
  53   2.0000     -10.297130      -280.1992
  54   2.0000     -10.294004      -280.1141
  55   2.0000     -10.293945      -280.1125
  56   2.0000     -10.292582      -280.0754
  57   2.0000     -10.291961      -280.0585
  58   2.0000     -10.291211      -280.0381
  59   2.0000     -10.290786      -280.0265
  60   2.0000     -10.290429      -280.0168
  61   2.0000     -10.289526      -279.9922
  62   2.0000     -10.289279      -279.9855
  63   2.0000     -10.287475      -279.9364
  64   2.0000     -10.286910      -279.9211
  65   2.0000     -10.281770      -279.7812
  66   2.0000      -8.787779      -239.1276
  67   2.0000      -8.070564      -219.6112
  68   2.0000      -8.064582      -219.4484
  69   2.0000      -8.056704      -219.2341
  70   2.0000      -8.055110      -219.1907
  71   2.0000      -8.047278      -218.9776
  72   2.0000      -8.042781      -218.8552
  73   2.0000      -6.624047      -180.2495
  74   2.0000      -6.609529      -179.8544
  75   2.0000      -6.609334      -179.8491
  76   2.0000      -6.039894      -164.3539
  77   2.0000      -6.035476      -164.2336
  78   2.0000      -6.034267      -164.2008
  79   2.0000      -6.033031      -164.1671
  80   2.0000      -6.030024      -164.0853
  81   2.0000      -6.026496      -163.9893
  82   2.0000      -6.025778      -163.9698
  83   2.0000      -6.024601      -163.9377
  84   2.0000      -6.022667      -163.8851
  85   2.0000      -6.020425      -163.8241
  86   2.0000      -6.017514      -163.7449
  87   2.0000      -6.017043      -163.7321
  88   2.0000      -6.016814      -163.7258
  89   2.0000      -6.012967      -163.6212
  90   2.0000      -6.012550      -163.6098
  91   2.0000      -6.008393      -163.4967
  92   2.0000      -6.008145      -163.4899
  93   2.0000      -6.003612      -163.3666
  94   2.0000      -2.739916       -74.5569
  95   2.0000      -2.735830       -74.4457
  96   2.0000      -2.735735       -74.4431
  97   2.0000      -2.724166       -74.1283
  98   2.0000      -2.724156       -74.1281
  99   2.0000      -1.325687       -36.0738
 100   2.0000      -1.233401       -33.5625
 101   2.0000      -1.228668       -33.4338
 102   2.0000      -1.213094       -33.0100
 103   2.0000      -1.172098       -31.8944
 104   2.0000      -1.142104       -31.0782
 105   2.0000      -1.135430       -30.8966
 106   2.0000      -1.113124       -30.2897
 107   2.0000      -1.015338       -27.6287
 108   2.0000      -1.007885       -27.4259
 109   2.0000      -1.002449       -27.2780
 110   2.0000      -0.996865       -27.1261
 111   2.0000      -0.992634       -27.0109
 112   2.0000      -0.989750       -26.9325
 113   2.0000      -0.988822       -26.9072
 114   2.0000      -0.980536       -26.6817
 115   2.0000      -0.975776       -26.5522
 116   2.0000      -0.938696       -25.5432
 117   2.0000      -0.934544       -25.4302
 118   2.0000      -0.929934       -25.3048
 119   2.0000      -0.909341       -24.7444
 120   2.0000      -0.900957       -24.5163
 121   2.0000      -0.900400       -24.5011
 122   2.0000      -0.889485       -24.2041
 123   2.0000      -0.878065       -23.8934
 124   2.0000      -0.877629       -23.8815
 125   2.0000      -0.869544       -23.6615
 126   2.0000      -0.856514       -23.3069
 127   2.0000      -0.855385       -23.2762
 128   2.0000      -0.847906       -23.0727
 129   2.0000      -0.834092       -22.6968
 130   2.0000      -0.826595       -22.4928
 131   2.0000      -0.825377       -22.4596
 132   2.0000      -0.821219       -22.3465
 133   2.0000      -0.816649       -22.2222
 134   2.0000      -0.806216       -21.9382
 135   2.0000      -0.786984       -21.4149
 136   2.0000      -0.778285       -21.1782
 137   2.0000      -0.766703       -20.8631
 138   2.0000      -0.763357       -20.7720
 139   2.0000      -0.750452       -20.4208
 140   2.0000      -0.742985       -20.2177
 141   2.0000      -0.733747       -19.9663
 142   2.0000      -0.714452       -19.4412
 143   2.0000      -0.707081       -19.2407
 144   2.0000      -0.703282       -19.1373
 145   2.0000      -0.695107       -18.9148
 146   2.0000      -0.694127       -18.8882
 147   2.0000      -0.681751       -18.5514
 148   2.0000      -0.677518       -18.4362
 149   2.0000      -0.675234       -18.3740
 150   2.0000      -0.674274       -18.3479
 151   2.0000      -0.663694       -18.0600
 152   2.0000      -0.658337       -17.9143
 153   2.0000      -0.648399       -17.6438
 154   2.0000      -0.644620       -17.5410
 155   2.0000      -0.639317       -17.3967
 156   2.0000      -0.638321       -17.3696
 157   2.0000      -0.627848       -17.0846
 158   2.0000      -0.624679       -16.9984
 159   2.0000      -0.619609       -16.8604
 160   2.0000      -0.615587       -16.7510
 161   2.0000      -0.614927       -16.7330
 162   2.0000      -0.604819       -16.4579
 163   2.0000      -0.601299       -16.3622
 164   2.0000      -0.594187       -16.1687
 165   2.0000      -0.590195       -16.0600
 166   2.0000      -0.589996       -16.0546
 167   2.0000      -0.583869       -15.8879
 168   2.0000      -0.580450       -15.7949
 169   2.0000      -0.577626       -15.7180
 170   2.0000      -0.572002       -15.5650
 171   2.0000      -0.565584       -15.3903
 172   2.0000      -0.564286       -15.3550
 173   2.0000      -0.562092       -15.2953
 174   2.0000      -0.554835       -15.0978
 175   2.0000      -0.552944       -15.0464
 176   2.0000      -0.549874       -14.9628
 177   2.0000      -0.539994       -14.6940
 178   2.0000      -0.533619       -14.5205
 179   2.0000      -0.531610       -14.4658
 180   2.0000      -0.527570       -14.3559
 181   2.0000      -0.525590       -14.3020
 182   2.0000      -0.518449       -14.1077
 183   2.0000      -0.514422       -13.9981
 184   2.0000      -0.513692       -13.9783
 185   2.0000      -0.511679       -13.9235
 186   2.0000      -0.508574       -13.8390
 187   2.0000      -0.506735       -13.7890
 188   2.0000      -0.503785       -13.7087
 189   2.0000      -0.500999       -13.6329
 190   2.0000      -0.499677       -13.5969
 191   2.0000      -0.497014       -13.5245
 192   2.0000      -0.494773       -13.4635
 193   2.0000      -0.493810       -13.4372
 194   2.0000      -0.490238       -13.3400
 195   2.0000      -0.484884       -13.1944
 196   2.0000      -0.483299       -13.1512
 197   2.0000      -0.481836       -13.1114
 198   2.0000      -0.479744       -13.0545
 199   2.0000      -0.478918       -13.0320
 200   2.0000      -0.473433       -12.8828
 201   2.0000      -0.472301       -12.8520
 202   2.0000      -0.468631       -12.7521
 203   2.0000      -0.466217       -12.6864
 204   2.0000      -0.464788       -12.6475
 205   2.0000      -0.458230       -12.4691
 206   2.0000      -0.454459       -12.3665
 207   2.0000      -0.453565       -12.3421
 208   2.0000      -0.449560       -12.2331
 209   2.0000      -0.446679       -12.1548
 210   2.0000      -0.442546       -12.0423
 211   2.0000      -0.439613       -11.9625
 212   2.0000      -0.437300       -11.8995
 213   2.0000      -0.433619       -11.7994
 214   2.0000      -0.432135       -11.7590
 215   2.0000      -0.431494       -11.7415
 216   2.0000      -0.429755       -11.6942
 217   2.0000      -0.422706       -11.5024
 218   2.0000      -0.420764       -11.4496
 219   2.0000      -0.418239       -11.3809
 220   2.0000      -0.417846       -11.3702
 221   2.0000      -0.416236       -11.3263
 222   2.0000      -0.415073       -11.2947
 223   2.0000      -0.406181       -11.0528
 224   2.0000      -0.402422       -10.9505
 225   2.0000      -0.401660       -10.9297
 226   2.0000      -0.393746       -10.7144
 227   2.0000      -0.387987       -10.5577
 228   2.0000      -0.386629       -10.5207
 229   2.0000      -0.380536       -10.3549
 230   2.0000      -0.378107       -10.2888
 231   2.0000      -0.373062       -10.1515
 232   2.0000      -0.370176       -10.0730
 233   2.0000      -0.370140       -10.0720
 234   2.0000      -0.358355        -9.7513
 235   2.0000      -0.343773        -9.3545
 236   2.0000      -0.342388        -9.3168
 237   2.0000      -0.331464        -9.0196
 238   2.0000      -0.324156        -8.8207
 239   2.0000      -0.321817        -8.7571
 240   2.0000      -0.314117        -8.5476
 241   2.0000      -0.307037        -8.3549
 242   2.0000      -0.302210        -8.2235
 243   2.0000      -0.300250        -8.1702
 244   2.0000      -0.286938        -7.8080
 245   2.0000      -0.285868        -7.7789
 246   2.0000      -0.275511        -7.4970
 247   2.0000      -0.247092        -6.7237
 248   2.0000      -0.210262        -5.7215
 249   0.0000      -0.100947        -2.7469
 250   0.0000      -0.078204        -2.1280
 251   0.0000      -0.059460        -1.6180
 252   0.0000      -0.050464        -1.3732
 253   0.0000      -0.024088        -0.6555

MULLIKEN ATOMIC CHARGES
-----------------------
   0 C :    0.318246
   1 C :   -0.369978
   2 C :   -0.194764
   3 N :    0.137026
   4 C :   -0.188391
   5 N :    0.135849
   6 C :    0.012922
   7 C :   -0.006963
   8 C :   -0.076354
   9 C :    0.117493
  10 C :   -0.093549
  11 C :   -0.020177
  12 S :    0.180027
  13 C :   -0.123426
  14 C :    0.038617
  15 Br:    0.017254
  16 C :    0.124878
  17 O :   -0.139409
  18 C :   -0.071904
  19 C :   -0.075728
  20 C :    0.154983
  21 C :    0.213098
  22 O :   -0.241424
  23 C :    0.206953
  24 C :    0.229781
  25 C :   -0.161778
  26 S :    0.113290
  27 C :   -0.169080
  28 O :   -0.227940
  29 C :   -0.109582
  30 C :    0.096110
  31 C :   -0.174144
  32 S :    0.120726
  33 C :   -0.209126
  34 C :    0.196754
  35 C :    0.178577
  36 O :   -0.287885
  37 C :    0.397503
  38 O :   -0.310537
  39 C :    0.045548
  40 C :   -0.033288
  41 C :    0.030629
  42 C :    0.034622
  43 C :   -0.043179
  44 S :    0.103775
  45 C :   -0.039301
  46 C :    0.028545
  47 C :    0.037107
  48 C :   -0.027613
  49 S :    0.063359
  50 C :   -0.009504
  51 C :   -0.192040
  52 S :    0.142330
  53 C :   -0.130138
  54 C :    0.122499
  55 C :    0.196127
  56 O :   -0.184031
  57 C :    0.233223
  58 N :    0.273663
  59 O :   -0.249931
  60 O :   -0.230562
  61 C :   -0.067666
  62 H :   -0.015465
  63 H :   -0.010807
  64 H :   -0.006031
  65 H :    0.013803
  66 H :    0.030697
  67 H :    0.025001
  68 H :    0.034076
  69 H :   -0.004024
  70 H :    0.044613
  71 H :    0.052392
  72 H :   -0.018945
  73 H :   -0.010531
  74 H :   -0.012280
  75 H :   -0.012555
  76 H :   -0.007722
  77 H :    0.005661
  78 H :    0.036490
  79 H :    0.013505
Sum of atomic charges:   -0.0000000

LOEWDIN ATOMIC CHARGES
----------------------
   0 C :    0.079765
   1 C :   -0.160602
   2 C :   -0.018917
   3 N :   -0.068635
   4 C :   -0.015820
   5 N :   -0.075081
   6 C :   -0.022534
   7 C :   -0.045542
   8 C :    0.016199
   9 C :   -0.033374
  10 C :   -0.146816
  11 C :   -0.011777
  12 S :    0.427243
  13 C :   -0.273031
  14 C :   -0.071150
  15 Br:    0.132069
  16 C :    0.072070
  17 O :   -0.141996
  18 C :   -0.101472
  19 C :    0.042913
  20 C :    0.002447
  21 C :    0.084014
  22 O :   -0.034548
  23 C :   -0.013000
  24 C :   -0.003697
  25 C :   -0.202478
  26 S :    0.441691
  27 C :   -0.206971
  28 O :   -0.033020
  29 C :   -0.061164
  30 C :    0.010697
  31 C :   -0.212229
  32 S :    0.410685
  33 C :   -0.182979
  34 C :   -0.011421
  35 C :    0.019483
  36 O :   -0.077411
  37 C :    0.209568
  38 O :   -0.105946
  39 C :   -0.083952
  40 C :   -0.139992
  41 C :   -0.033053
  42 C :   -0.029836
  43 C :   -0.180802
  44 S :    0.400977
  45 C :   -0.174844
  46 C :   -0.035790
  47 C :   -0.027926
  48 C :   -0.152921
  49 S :    0.365044
  50 C :   -0.066300
  51 C :   -0.204954
  52 S :    0.474075
  53 C :   -0.187597
  54 C :   -0.084542
  55 C :    0.020920
  56 O :    0.001483
  57 C :    0.024826
  58 N :    0.271921
  59 O :   -0.210345
  60 O :   -0.192585
  61 C :   -0.007601
  62 H :    0.038807
  63 H :    0.039678
  64 H :    0.037794
  65 H :    0.044972
  66 H :    0.032870
  67 H :    0.029484
  68 H :    0.038705
  69 H :    0.036125
  70 H :    0.022079
  71 H :    0.022146
  72 H :    0.035365
  73 H :    0.033661
  74 H :    0.032157
  75 H :    0.032617
  76 H :    0.035439
  77 H :    0.046699
  78 H :    0.030506
  79 H :    0.047460

  Mayer bond orders larger than 0.100000
B(  0-C ,  1-C ) :   1.5762 B(  0-C ,  6-C ) :   0.9946 B(  0-C , 18-C ) :   1.1194
B(  1-C ,  2-C ) :   1.1525 B(  1-C ,  4-C ) :   1.1500 B(  2-C ,  3-N ) :   2.9643
B(  4-C ,  5-N ) :   2.9682 B(  6-C ,  7-C ) :   1.2764 B(  6-C , 11-C ) :   1.4134
B(  7-C ,  8-C ) :   1.4340 B(  7-C , 16-C ) :   0.9229 B(  8-C ,  9-C ) :   1.2417
B(  8-C , 62-H ) :   1.0150 B(  9-C , 10-C ) :   1.3127 B(  9-C , 14-C ) :   1.1611
B( 10-C , 11-C ) :   1.3304 B( 10-C , 12-S ) :   1.0812 B( 11-C , 63-H ) :   0.9777
B( 12-S , 13-C ) :   1.0872 B( 13-C , 14-C ) :   1.6195 B( 13-C , 15-Br) :   1.0147
B( 14-C , 64-H ) :   1.0000 B( 16-C , 17-O ) :   2.2638 B( 16-C , 18-C ) :   0.9386
B( 18-C , 19-C ) :   1.4906 B( 19-C , 20-C ) :   1.2871 B( 19-C , 65-H ) :   0.9228
B( 20-C , 21-C ) :   1.3122 B( 20-C , 28-O ) :   1.0822 B( 21-C , 22-O ) :   1.1186
B( 21-C , 29-C ) :   1.2357 B( 22-O , 23-C ) :   1.0222 B( 23-C , 24-C ) :   1.2079
B( 23-C , 27-C ) :   1.5678 B( 24-C , 25-C ) :   1.5743 B( 24-C , 28-O ) :   1.0567
B( 25-C , 26-S ) :   1.1385 B( 25-C , 66-H ) :   0.9698 B( 26-S , 27-C ) :   1.1508
B( 27-C , 67-H ) :   0.9737 B( 29-C , 30-C ) :   1.5757 B( 29-C , 68-H ) :   0.9408
B( 30-C , 31-C ) :   1.1735 B( 30-C , 69-H ) :   0.9732 B( 31-C , 32-S ) :   1.0368
B( 31-C , 35-C ) :   1.4548 B( 32-S , 33-C ) :   1.0775 B( 33-C , 34-C ) :   1.4398
B( 33-C , 39-C ) :   1.1848 B( 34-C , 35-C ) :   1.2832 B( 34-C , 38-O ) :   1.0798
B( 35-C , 36-O ) :   1.1082 B( 36-O , 37-C ) :   0.9610 B( 37-C , 38-O ) :   0.9677
B( 37-C , 70-H ) :   0.9615 B( 37-C , 71-H ) :   0.9554 B( 39-C , 40-C ) :   1.5769
B( 39-C , 72-H ) :   0.9421 B( 40-C , 41-C ) :   1.1495 B( 40-C , 44-S ) :   1.0545
B( 41-C , 42-C ) :   1.5843 B( 41-C , 73-H ) :   0.9999 B( 42-C , 43-C ) :   1.1875
B( 42-C , 74-H ) :   0.9937 B( 43-C , 44-S ) :   1.0357 B( 43-C , 45-C ) :   1.5087
B( 45-C , 46-C ) :   1.1854 B( 45-C , 49-S ) :   1.0431 B( 46-C , 47-C ) :   1.5928
B( 46-C , 75-H ) :   0.9928 B( 47-C , 48-C ) :   1.1404 B( 47-C , 76-H ) :   1.0004
B( 48-C , 49-S ) :   1.0318 B( 48-C , 50-C ) :   1.5697 B( 50-C , 51-C ) :   1.1768
B( 50-C , 77-H ) :   0.9734 B( 51-C , 52-S ) :   1.1059 B( 51-C , 53-C ) :   0.1081
B( 51-C , 55-C ) :   1.4383 B( 52-S , 53-C ) :   1.1907 B( 53-C , 54-C ) :   1.4147
B( 53-C , 78-H ) :   0.9752 B( 54-C , 55-C ) :   1.2328 B( 54-C , 61-C ) :   1.0597
B( 55-C , 56-O ) :   1.1231 B( 56-O , 57-C ) :   1.1228 B( 57-C , 58-N ) :   0.9158
B( 57-C , 61-C ) :   1.5777 B( 58-N , 59-O ) :   1.5341 B( 58-N , 60-O ) :   1.5146
B( 59-O , 60-O ) :   0.2797 B( 61-C , 79-H ) :   1.0258

-----------------------------------------------------------------------------
         ABSORPTION SPECTRUM VIA TRANSITION ELECTRIC DIPOLE MOMENTS
-----------------------------------------------------------------------------
State   Energy  Wavelength   fosc         T2         TX        TY        TZ
        (cm-1)    (nm)                  (au**2)     (au)      (au)      (au)
-----------------------------------------------------------------------------
   0   10628.9    940.8   0.873560105  27.05701  -2.58890   2.94521  -3.41765
   1   16318.3    612.8   0.920682384  18.57427   2.90626   0.86170  -3.06356
   2   17386.6    575.2   0.257450930   4.87479  -1.92153  -0.20518   1.06790
   3   19723.7    507.0   0.203745973   3.40076  -0.36230   1.09416  -1.43956
   4   22276.7    448.9   0.062912742   0.92974   0.85475   0.08547  -0.43800
   5   23396.0    427.4   0.354512176   4.98844  -1.79671   1.24657  -0.45425
   6   23786.3    420.4   0.044572841   0.61691   0.58158   0.23912  -0.47063
   7   24499.6    408.2   0.086787533   1.16620   0.95077   0.09587  -0.50303
   8   25816.0    387.4   0.140812655   1.79568   0.62579   0.38813  -1.11956
   9   26503.7    377.3   0.444938397   5.52674  -2.09205   0.97561  -0.44526
  10   27095.0    369.1   0.048322340   0.58713  -0.26406   0.71571  -0.07183
  11   28173.0    354.9   0.025080916   0.29308  -0.47343   0.21525  -0.15036
  12   28727.8    348.1   0.168103315   1.92642  -1.19950  -0.36073   0.59789
  13   29026.0    344.5   0.051121936   0.57982  -0.53453   0.51330  -0.17500
  14   29373.1    340.4   0.052184290   0.58488   0.64937  -0.26422   0.30560
  15   29955.8    333.8   0.090958779   0.99963   0.92078   0.00374  -0.38958
  16   30552.5    327.3   0.012011511   0.12943  -0.28976  -0.02791   0.21139
  17   30807.3    324.6   0.022473436   0.24015  -0.43464   0.08567  -0.20954
  18   31377.6    318.7   0.082189771   0.86233   0.21305   0.37624  -0.82182
  19   31749.5    315.0   0.000320900   0.00333   0.03364  -0.00655   0.04640
  20   31925.2    313.2   0.192694602   1.98706  -1.37041   0.32144   0.07554
  21   32239.6    310.2   0.036924725   0.37705  -0.16253   0.31116  -0.50380
  22   33159.8    301.6   0.234361208   2.32675  -1.38472   0.24345  -0.59163
  23   33169.5    301.5   0.270957718   2.68929  -1.46531   0.48741  -0.55190
  24   34067.1    293.5   0.183532599   1.77359  -0.28422  -0.79261   1.03178
  25   35075.0    285.1   0.034118496   0.32023   0.37104  -0.10766   0.41349
  26   35323.1    283.1   0.004784905   0.04460   0.14669   0.05926  -0.13988
  27   36017.8    277.6   0.075815404   0.69297   0.64818   0.15171  -0.49982
  28   36238.9    275.9   0.053370445   0.48484   0.52991   0.03268  -0.45053
  29   36310.1    275.4   0.031386130   0.28457   0.02064  -0.28168   0.45255
  30   36532.2    273.7   0.071867641   0.64764   0.31085   0.35999  -0.64917
  31   36650.6    272.8   0.089544808   0.80433   0.06988  -0.49850   0.74226
  32   36814.7    271.6   0.011389710   0.10185  -0.26766  -0.13779   0.10595
  33   37329.5    267.9   0.086650532   0.76418   0.08032  -0.36362   0.79089
  34   37401.5    267.4   0.016234962   0.14290   0.27028  -0.21494   0.15378
  35   38098.0    262.5   0.392330314   3.39020  -0.35049  -0.75667   1.64159
  36   38252.4    261.4   0.039150734   0.33694  -0.06724   0.25318  -0.51800
  37   38801.5    257.7   0.019115767   0.16219   0.08958   0.28664  -0.26833
  38   39145.1    255.5   0.051494199   0.43307   0.60921  -0.18725   0.16393
  39   39855.9    250.9   0.117526491   0.97078  -0.03451   0.43825  -0.88177
  40   39985.2    250.1   0.022106284   0.18201   0.09297   0.17895  -0.37595

FINAL SINGLE POINT ENERGY     -7412.638889484174

DIPOLE MOMENT
-------------
                                X             Y             Z
Electronic contribution:    131.67392     -46.03981      30.38623
Nuclear contribution   :   -133.61991      45.33664     -27.88775
                        -----------------------------------------
Total Dipole Moment    :     -1.94600      -0.70317       2.49848
                        -----------------------------------------
Magnitude (a.u.)       :      3.24404
Magnitude (Debye)      :      8.24569

Rotational constants in cm-1:     0.000913     0.000356     0.000259
Rotational constants in MHz :    27.366953    10.676024     7.761318

                             ****ORCA TERMINATED NORMALLY****
TOTAL RUN TIME: 0 days 0 hours 8 minutes 39 seconds 481 msec
