                         Program Version 4.2.0 -  RELEASE  -
|  1> # ORCA input file
|  2> # SCF done       -176.949960073278          0.000825681207
|  3> ! CAM-B3LYP def2-SVP def2/J RIJCOSX Grid4 TightSCF
|  4> %maxcore 5000
|  5> %tddft
|  6>     Mode sTDDFT
|  7>     Ethresh 5.0
|  8>     maxcore 5000
|  9> end
| 10>
| 11> %pal
| 12>   nprocs 6
| 13>   end
| 14> * xyz 0 1
| 15>    C      -20.43222        -8.40080        -3.15038
| 16>    C      -19.48100        -9.07852        -2.41775
| 17>    C      -19.60820       -10.41807        -2.00433
| 18>    N      -19.64315       -11.50534        -1.63219
| 19>    C      -18.25048        -8.55738        -1.97480
| 20>    N      -17.22591        -8.22667        -1.57010
| 21>    C      -21.70085        -8.97228        -3.60325
| 22>    C      -22.40653        -7.98418        -4.33105
| 23>    C      -23.64089        -8.21092        -4.88577
| 24>    C      -24.21068        -9.47807        -4.71397
| 25>    C      -23.49842       -10.45907        -3.98779
| 26>    C      -22.24697       -10.22842        -3.42672
| 27>    S      -24.38287       -11.95313        -3.89493
| 28>    C      -25.68117       -11.24519        -4.81887
| 29>    C      -25.46528        -9.95887        -5.18083
| 30>   Br      -27.19883       -12.27314        -5.22116
| 31>    C      -21.60347        -6.74190        -4.36625
| 32>    O      -21.91852        -5.70203        -4.91434
| 33>    C      -20.37622        -7.04071        -3.60841
| 34>    C      -19.35653        -6.13145        -3.37590
| 35>    C      -19.33484        -4.82450        -3.83579
| 36>    C      -18.29965        -3.94374        -3.55374
| 37>    C      -18.18866        -2.60455        -3.97141
| 38>    C      -17.05623        -1.97294        -3.52622
| 39>    C      -16.23162        -2.79123        -2.73881
| 40>    S      -16.91864        -4.38735        -2.57827
| 41>    C      -15.02605        -2.46991        -2.11618
| 42>    C      -14.33454        -1.24767        -2.11708
| 43>    C      -13.17994        -1.27263        -1.37948
| 44>    C      -12.91617        -2.51279        -0.76925
| 45>    S      -14.17550        -3.65807        -1.16602
| 46>    C      -11.83909        -2.81733         0.04742
| 47>    C      -11.58695        -4.03254         0.66066
| 48>    S      -12.56788        -5.48307         0.51115
| 49>    C      -11.56464        -6.45806         1.59241
| 50>    C      -10.48208        -5.65423         2.04711
| 51>    C      -10.52113        -4.34451         1.51587
| 52>    O       -9.47991        -3.60940         1.92624
| 53>    C       -8.75558        -4.43460         2.72813
| 54>    N       -7.56822        -3.95045         3.30217
| 55>    O       -6.96841        -4.72347         4.03874
| 56>    O       -7.20644        -2.82644         3.02882
| 57>    C       -9.31080        -5.68896         2.83526
| 58>    C      -11.97300        -7.76317         1.77940
| 59>    C      -11.47288        -8.74316         2.63280
| 60>    C      -11.91455       -10.07771         2.70844
| 61>    C      -11.26050       -10.83696         3.64852
| 62>    C      -10.28805       -10.12057         4.35884
| 63>    S      -10.22296        -8.46887         3.80423
| 64>    C       -9.40781       -10.48878         5.37554
| 65>    C       -9.17756       -11.72127         6.01173
| 66>    C       -8.19674       -11.66528         6.96381
| 67>    C       -7.61919       -10.38211         7.13095
| 68>    S       -8.36788        -9.25456         6.02452
| 69>    C       -6.60270       -10.04253         7.99437
| 70>    C       -6.05803        -8.76080         8.19382
| 71>    S       -4.60801        -8.57161         9.17647
| 72>    C       -4.54597        -6.86703         8.99763
| 73>    C       -5.59229        -6.42593         8.22094
| 74>    C       -6.43233        -7.49121         7.77180
| 75>    O       -7.46300        -7.00269         7.05748
| 76>    C       -7.29497        -5.65504         7.03307
| 77>    N       -8.28811        -4.90239         6.36259
| 78>    O       -8.21252        -3.69360         6.44013
| 79>    O       -9.16458        -5.51232         5.78413
| 80>    C       -6.18656        -5.23479         7.71403
| 81>    H      -24.15369        -7.43585        -5.43363
| 82>    H      -21.74655       -11.01109        -2.88161
| 83>    H      -26.15991        -9.37092        -5.75287
| 84>    H      -18.50860        -6.45667        -2.78506
| 85>    H      -20.15673        -4.46272        -4.43647
| 86>    H      -18.94226        -2.14279        -4.58406
| 87>    H      -16.80842        -0.95015        -3.74652
| 88>    H      -14.69366        -0.38463        -2.64766
| 89>    H      -12.51909        -0.43268        -1.25844
| 90>    H      -11.12283        -2.02971         0.24259
| 91>    H       -8.89256        -6.47686         3.42168
| 92>    H      -12.82523        -8.06605         1.18238
| 93>    H      -12.69509       -10.44996         2.06883
| 94>    H      -11.46494       -11.87553         3.83720
| 95>    H       -9.72608       -12.61052         5.75711
| 96>    H       -7.87497       -12.50548         7.55345
| 97>    H       -6.15841       -10.84043         8.57386
| 98>    H       -3.76516        -6.30490         9.46597
| 99>    H       -5.85801        -4.22263         7.82514
|100> *
|101>
|102>                          ****END OF INPUT****

CARTESIAN COORDINATES (ANGSTROEM)
---------------------------------
  C    -20.432220   -8.400800   -3.150380
  C    -19.481000   -9.078520   -2.417750
  C    -19.608200  -10.418070   -2.004330
  N    -19.643150  -11.505340   -1.632190
  C    -18.250480   -8.557380   -1.974800
  N    -17.225910   -8.226670   -1.570100
  C    -21.700850   -8.972280   -3.603250
  C    -22.406530   -7.984180   -4.331050
  C    -23.640890   -8.210920   -4.885770
  C    -24.210680   -9.478070   -4.713970
  C    -23.498420  -10.459070   -3.987790
  C    -22.246970  -10.228420   -3.426720
  S    -24.382870  -11.953130   -3.894930
  C    -25.681170  -11.245190   -4.818870
  C    -25.465280   -9.958870   -5.180830
  Br   -27.198830  -12.273140   -5.221160
  C    -21.603470   -6.741900   -4.366250
  O    -21.918520   -5.702030   -4.914340
  C    -20.376220   -7.040710   -3.608410
  C    -19.356530   -6.131450   -3.375900
  C    -19.334840   -4.824500   -3.835790
  C    -18.299650   -3.943740   -3.553740
  C    -18.188660   -2.604550   -3.971410
  C    -17.056230   -1.972940   -3.526220
  C    -16.231620   -2.791230   -2.738810
  S    -16.918640   -4.387350   -2.578270
  C    -15.026050   -2.469910   -2.116180
  C    -14.334540   -1.247670   -2.117080
  C    -13.179940   -1.272630   -1.379480
  C    -12.916170   -2.512790   -0.769250
  S    -14.175500   -3.658070   -1.166020
  C    -11.839090   -2.817330    0.047420
  C    -11.586950   -4.032540    0.660660
  S    -12.567880   -5.483070    0.511150
  C    -11.564640   -6.458060    1.592410
  C    -10.482080   -5.654230    2.047110
  C    -10.521130   -4.344510    1.515870
  O     -9.479910   -3.609400    1.926240
  C     -8.755580   -4.434600    2.728130
  N     -7.568220   -3.950450    3.302170
  O     -6.968410   -4.723470    4.038740
  O     -7.206440   -2.826440    3.028820
  C     -9.310800   -5.688960    2.835260
  C    -11.973000   -7.763170    1.779400
  C    -11.472880   -8.743160    2.632800
  C    -11.914550  -10.077710    2.708440
  C    -11.260500  -10.836960    3.648520
  C    -10.288050  -10.120570    4.358840
  S    -10.222960   -8.468870    3.804230
  C     -9.407810  -10.488780    5.375540
  C     -9.177560  -11.721270    6.011730
  C     -8.196740  -11.665280    6.963810
  C     -7.619190  -10.382110    7.130950
  S     -8.367880   -9.254560    6.024520
  C     -6.602700  -10.042530    7.994370
  C     -6.058030   -8.760800    8.193820
  S     -4.608010   -8.571610    9.176470
  C     -4.545970   -6.867030    8.997630
  C     -5.592290   -6.425930    8.220940
  C     -6.432330   -7.491210    7.771800
  O     -7.463000   -7.002690    7.057480
  C     -7.294970   -5.655040    7.033070
  N     -8.288110   -4.902390    6.362590
  O     -8.212520   -3.693600    6.440130
  O     -9.164580   -5.512320    5.784130
  C     -6.186560   -5.234790    7.714030
  H    -24.153690   -7.435850   -5.433630
  H    -21.746550  -11.011090   -2.881610
  H    -26.159910   -9.370920   -5.752870
  H    -18.508600   -6.456670   -2.785060
  H    -20.156730   -4.462720   -4.436470
  H    -18.942260   -2.142790   -4.584060
  H    -16.808420   -0.950150   -3.746520
  H    -14.693660   -0.384630   -2.647660
  H    -12.519090   -0.432680   -1.258440
  H    -11.122830   -2.029710    0.242590
  H     -8.892560   -6.476860    3.421680
  H    -12.825230   -8.066050    1.182380
  H    -12.695090  -10.449960    2.068830
  H    -11.464940  -11.875530    3.837200
  H     -9.726080  -12.610520    5.757110
  H     -7.874970  -12.505480    7.553450
  H     -6.158410  -10.840430    8.573860
  H     -3.765160   -6.304900    9.465970
  H     -5.858010   -4.222630    7.825140

 Total Charge           Charge          ....    0
 Multiplicity           Mult            ....    1
 Number of Electrons    NEL             ....  532
 Basis Dimension        Dim             .... 1065

ORBITAL ENERGIES
----------------

  NO   OCC          E(Eh)            E(eV)
   0   2.0000    -482.870261    -13139.5678
   1   2.0000     -88.990904     -2421.5656
   2   2.0000     -88.971339     -2421.0332
   3   2.0000     -88.962863     -2420.8026
   4   2.0000     -88.959968     -2420.7238
   5   2.0000     -88.959628     -2420.7145
   6   2.0000     -88.956301     -2420.6240
   7   2.0000     -88.948259     -2420.4052
   8   2.0000     -62.547961     -1702.0165
   9   2.0000     -56.381891     -1534.2292
  10   2.0000     -56.379215     -1534.1564
  11   2.0000     -56.379174     -1534.1553
  12   2.0000     -19.321841      -525.7740
  13   2.0000     -19.316301      -525.6233
  14   2.0000     -19.252164      -523.8780
  15   2.0000     -19.250835      -523.8418
  16   2.0000     -19.241751      -523.5947
  17   2.0000     -19.237424      -523.4769
  18   2.0000     -19.186677      -522.0960
  19   2.0000     -14.663391      -399.0112
  20   2.0000     -14.652735      -398.7212
  21   2.0000     -14.389386      -391.5551
  22   2.0000     -14.386866      -391.4865
  23   2.0000     -10.397503      -282.9304
  24   2.0000     -10.379355      -282.4366
  25   2.0000     -10.365380      -282.0563
  26   2.0000     -10.360046      -281.9112
  27   2.0000     -10.340003      -281.3658
  28   2.0000     -10.336761      -281.2776
  29   2.0000     -10.336737      -281.2769
  30   2.0000     -10.335986      -281.2565
  31   2.0000     -10.331227      -281.1270
  32   2.0000     -10.330191      -281.0988
  33   2.0000     -10.327993      -281.0390
  34   2.0000     -10.327661      -281.0299
  35   2.0000     -10.326767      -281.0056
  36   2.0000     -10.323179      -280.9080
  37   2.0000     -10.321446      -280.8608
  38   2.0000     -10.321044      -280.8499
  39   2.0000     -10.317349      -280.7493
  40   2.0000     -10.314188      -280.6633
  41   2.0000     -10.313152      -280.6351
  42   2.0000     -10.312798      -280.6255
  43   2.0000     -10.310728      -280.5692
  44   2.0000     -10.310037      -280.5504
  45   2.0000     -10.309955      -280.5481
  46   2.0000     -10.308793      -280.5165
  47   2.0000     -10.307358      -280.4775
  48   2.0000     -10.307005      -280.4679
  49   2.0000     -10.304767      -280.4070
  50   2.0000     -10.304527      -280.4004
  51   2.0000     -10.303358      -280.3686
  52   2.0000     -10.302991      -280.3586
  53   2.0000     -10.298981      -280.2495
  54   2.0000     -10.297900      -280.2201
  55   2.0000     -10.295561      -280.1565
  56   2.0000     -10.294377      -280.1242
  57   2.0000     -10.292599      -280.0759
  58   2.0000     -10.292265      -280.0668
  59   2.0000     -10.290445      -280.0173
  60   2.0000     -10.285159      -279.8734
  61   2.0000     -10.282886      -279.8115
  62   2.0000     -10.282203      -279.7930
  63   2.0000     -10.281294      -279.7682
  64   2.0000     -10.278675      -279.6970
  65   2.0000     -10.278229      -279.6848
  66   2.0000     -10.277439      -279.6633
  67   2.0000     -10.266443      -279.3641
  68   2.0000     -10.260363      -279.1987
  69   2.0000     -10.258799      -279.1561
  70   2.0000      -8.777370      -238.8444
  71   2.0000      -8.085958      -220.0301
  72   2.0000      -8.066048      -219.4883
  73   2.0000      -8.059173      -219.3012
  74   2.0000      -8.056207      -219.2205
  75   2.0000      -8.056021      -219.2155
  76   2.0000      -8.052295      -219.1141
  77   2.0000      -8.044286      -218.8962
  78   2.0000      -6.613584      -179.9648
  79   2.0000      -6.599137      -179.5717
  80   2.0000      -6.598973      -179.5672
  81   2.0000      -6.055310      -164.7734
  82   2.0000      -6.050964      -164.6551
  83   2.0000      -6.048233      -164.5808
  84   2.0000      -6.035660      -164.2387
  85   2.0000      -6.031502      -164.1255
  86   2.0000      -6.028782      -164.0515
  87   2.0000      -6.027499      -164.0166
  88   2.0000      -6.025903      -163.9732
  89   2.0000      -6.025656      -163.9664
  90   2.0000      -6.024439      -163.9333
  91   2.0000      -6.021987      -163.8666
  92   2.0000      -6.021622      -163.8567
  93   2.0000      -6.021427      -163.8514
  94   2.0000      -6.020524      -163.8268
  95   2.0000      -6.017737      -163.7509
  96   2.0000      -6.017302      -163.7391
  97   2.0000      -6.017098      -163.7336
  98   2.0000      -6.013795      -163.6437
  99   2.0000      -6.013510      -163.6359
 100   2.0000      -6.009777      -163.5343
 101   2.0000      -6.005637      -163.4217
 102   2.0000      -2.729458       -74.2723
 103   2.0000      -2.725376       -74.1612
 104   2.0000      -2.725336       -74.1601
 105   2.0000      -2.713817       -73.8467
 106   2.0000      -2.713803       -73.8463
 107   2.0000      -1.335599       -36.3435
 108   2.0000      -1.321708       -35.9655
 109   2.0000      -1.245206       -33.8838
 110   2.0000      -1.237189       -33.6656
 111   2.0000      -1.150746       -31.3134
 112   2.0000      -1.137787       -30.9608
 113   2.0000      -1.099847       -29.9284
 114   2.0000      -1.017290       -27.6819
 115   2.0000      -1.010972       -27.5099
 116   2.0000      -1.007146       -27.4058
 117   2.0000      -0.999529       -27.1986
 118   2.0000      -0.998722       -27.1766
 119   2.0000      -0.989758       -26.9327
 120   2.0000      -0.988097       -26.8875
 121   2.0000      -0.978338       -26.6219
 122   2.0000      -0.967634       -26.3307
 123   2.0000      -0.963116       -26.2077
 124   2.0000      -0.946963       -25.7682
 125   2.0000      -0.938582       -25.5401
 126   2.0000      -0.920166       -25.0390
 127   2.0000      -0.917847       -24.9759
 128   2.0000      -0.909808       -24.7571
 129   2.0000      -0.902037       -24.5457
 130   2.0000      -0.893265       -24.3070
 131   2.0000      -0.891878       -24.2692
 132   2.0000      -0.884748       -24.0752
 133   2.0000      -0.876238       -23.8436
 134   2.0000      -0.868045       -23.6207
 135   2.0000      -0.863196       -23.4888
 136   2.0000      -0.858423       -23.3589
 137   2.0000      -0.852368       -23.1941
 138   2.0000      -0.845382       -23.0040
 139   2.0000      -0.839268       -22.8377
 140   2.0000      -0.831372       -22.6228
 141   2.0000      -0.826420       -22.4880
 142   2.0000      -0.817247       -22.2384
 143   2.0000      -0.807294       -21.9676
 144   2.0000      -0.805720       -21.9247
 145   2.0000      -0.793437       -21.5905
 146   2.0000      -0.788306       -21.4509
 147   2.0000      -0.772230       -21.0134
 148   2.0000      -0.758623       -20.6432
 149   2.0000      -0.743207       -20.2237
 150   2.0000      -0.732497       -19.9323
 151   2.0000      -0.723338       -19.6830
 152   2.0000      -0.719971       -19.5914
 153   2.0000      -0.717744       -19.5308
 154   2.0000      -0.698055       -18.9951
 155   2.0000      -0.689923       -18.7738
 156   2.0000      -0.684412       -18.6238
 157   2.0000      -0.679319       -18.4852
 158   2.0000      -0.671871       -18.2825
 159   2.0000      -0.670471       -18.2445
 160   2.0000      -0.664797       -18.0900
 161   2.0000      -0.658924       -17.9302
 162   2.0000      -0.655847       -17.8465
 163   2.0000      -0.647480       -17.6188
 164   2.0000      -0.644658       -17.5420
 165   2.0000      -0.641085       -17.4448
 166   2.0000      -0.637612       -17.3503
 167   2.0000      -0.634633       -17.2692
 168   2.0000      -0.634446       -17.2642
 169   2.0000      -0.632346       -17.2070
 170   2.0000      -0.630615       -17.1599
 171   2.0000      -0.625059       -17.0087
 172   2.0000      -0.621703       -16.9174
 173   2.0000      -0.608868       -16.5681
 174   2.0000      -0.606939       -16.5157
 175   2.0000      -0.602759       -16.4019
 176   2.0000      -0.599506       -16.3134
 177   2.0000      -0.597413       -16.2564
 178   2.0000      -0.596055       -16.2195
 179   2.0000      -0.588274       -16.0078
 180   2.0000      -0.580428       -15.7943
 181   2.0000      -0.578469       -15.7409
 182   2.0000      -0.575018       -15.6470
 183   2.0000      -0.570913       -15.5353
 184   2.0000      -0.570769       -15.5314
 185   2.0000      -0.566466       -15.4143
 186   2.0000      -0.558295       -15.1920
 187   2.0000      -0.554825       -15.0976
 188   2.0000      -0.547176       -14.8894
 189   2.0000      -0.539631       -14.6841
 190   2.0000      -0.536981       -14.6120
 191   2.0000      -0.529462       -14.4074
 192   2.0000      -0.526049       -14.3145
 193   2.0000      -0.521797       -14.1988
 194   2.0000      -0.518940       -14.1211
 195   2.0000      -0.516184       -14.0461
 196   2.0000      -0.513745       -13.9797
 197   2.0000      -0.513614       -13.9762
 198   2.0000      -0.508762       -13.8441
 199   2.0000      -0.507410       -13.8073
 200   2.0000      -0.505387       -13.7523
 201   2.0000      -0.504717       -13.7341
 202   2.0000      -0.499457       -13.5909
 203   2.0000      -0.497864       -13.5476
 204   2.0000      -0.494513       -13.4564
 205   2.0000      -0.491862       -13.3842
 206   2.0000      -0.486871       -13.2484
 207   2.0000      -0.485085       -13.1998
 208   2.0000      -0.482952       -13.1418
 209   2.0000      -0.482759       -13.1365
 210   2.0000      -0.477789       -13.0013
 211   2.0000      -0.475350       -12.9349
 212   2.0000      -0.471927       -12.8418
 213   2.0000      -0.470428       -12.8010
 214   2.0000      -0.467438       -12.7196
 215   2.0000      -0.466740       -12.7007
 216   2.0000      -0.465708       -12.6726
 217   2.0000      -0.463004       -12.5990
 218   2.0000      -0.461150       -12.5485
 219   2.0000      -0.450965       -12.2714
 220   2.0000      -0.448189       -12.1958
 221   2.0000      -0.447177       -12.1683
 222   2.0000      -0.443949       -12.0805
 223   2.0000      -0.439712       -11.9652
 224   2.0000      -0.438418       -11.9299
 225   2.0000      -0.436384       -11.8746
 226   2.0000      -0.430287       -11.7087
 227   2.0000      -0.426371       -11.6022
 228   2.0000      -0.425495       -11.5783
 229   2.0000      -0.419442       -11.4136
 230   2.0000      -0.419338       -11.4108
 231   2.0000      -0.417735       -11.3671
 232   2.0000      -0.416149       -11.3240
 233   2.0000      -0.405859       -11.0440
 234   2.0000      -0.402589       -10.9550
 235   2.0000      -0.401382       -10.9221
 236   2.0000      -0.399417       -10.8687
 237   2.0000      -0.398464       -10.8427
 238   2.0000      -0.396790       -10.7972
 239   2.0000      -0.394793       -10.7429
 240   2.0000      -0.390741       -10.6326
 241   2.0000      -0.385195       -10.4817
 242   2.0000      -0.382056       -10.3963
 243   2.0000      -0.381822       -10.3899
 244   2.0000      -0.380172       -10.3450
 245   2.0000      -0.377750       -10.2791
 246   2.0000      -0.369538       -10.0557
 247   2.0000      -0.367445        -9.9987
 248   2.0000      -0.365386        -9.9427
 249   2.0000      -0.360038        -9.7971
 250   2.0000      -0.358124        -9.7450
 251   2.0000      -0.352351        -9.5879
 252   2.0000      -0.343922        -9.3586
 253   2.0000      -0.342794        -9.3279
 254   2.0000      -0.336377        -9.1533
 255   2.0000      -0.333809        -9.0834
 256   2.0000      -0.330098        -8.9824
 257   2.0000      -0.321578        -8.7506
 258   2.0000      -0.315064        -8.5733
 259   2.0000      -0.307385        -8.3644
 260   2.0000      -0.298996        -8.1361
 261   2.0000      -0.293720        -7.9925
 262   2.0000      -0.275977        -7.5097
 263   2.0000      -0.269965        -7.3461
 264   2.0000      -0.235742        -6.4149
 265   2.0000      -0.198999        -5.4150
 266   0.0000      -0.122709        -3.3391
 267   0.0000      -0.085901        -2.3375
 268   0.0000      -0.072198        -1.9646
 269   0.0000      -0.053977        -1.4688
 270   0.0000      -0.047454        -1.2913

MULLIKEN ATOMIC CHARGES
-----------------------
   0 C :    0.335314
   1 C :   -0.380032
   2 C :   -0.192920
   3 N :    0.124845
   4 C :   -0.190522
   5 N :    0.120281
   6 C :    0.016069
   7 C :   -0.006074
   8 C :   -0.084865
   9 C :    0.122667
  10 C :   -0.091291
  11 C :   -0.033281
  12 S :    0.172439
  13 C :   -0.123721
  14 C :    0.033498
  15 Br:    0.007083
  16 C :    0.133293
  17 O :   -0.171569
  18 C :   -0.095140
  19 C :   -0.044667
  20 C :   -0.024791
  21 C :    0.005207
  22 C :    0.016328
  23 C :    0.039269
  24 C :   -0.053363
  25 S :    0.105340
  26 C :   -0.011718
  27 C :    0.015153
  28 C :    0.046966
  29 C :   -0.050410
  30 S :    0.094649
  31 C :    0.018039
  32 C :   -0.156563
  33 S :    0.127646
  34 C :   -0.110949
  35 C :    0.111517
  36 C :    0.176981
  37 O :   -0.168664
  38 C :    0.197075
  39 N :    0.295693
  40 O :   -0.288957
  41 O :   -0.232863
  42 C :   -0.048092
  43 C :    0.023711
  44 C :   -0.018356
  45 C :    0.024831
  46 C :    0.036721
  47 C :   -0.036252
  48 S :    0.070589
  49 C :   -0.018975
  50 C :    0.034067
  51 C :    0.041581
  52 C :   -0.039167
  53 S :    0.098543
  54 C :    0.071971
  55 C :   -0.237416
  56 S :    0.159315
  57 C :   -0.125705
  58 C :    0.117544
  59 C :    0.202654
  60 O :   -0.193201
  61 C :    0.266714
  62 N :    0.282747
  63 O :   -0.238544
  64 O :   -0.238077
  65 C :   -0.067771
  66 H :   -0.018620
  67 H :   -0.012975
  68 H :   -0.008191
  69 H :    0.010146
  70 H :    0.012349
  71 H :   -0.005243
  72 H :   -0.010246
  73 H :   -0.011070
  74 H :   -0.003309
  75 H :    0.013481
  76 H :    0.020992
  77 H :    0.002523
  78 H :    0.003684
  79 H :   -0.004412
  80 H :   -0.005799
  81 H :   -0.004433
  82 H :   -0.011216
  83 H :    0.040998
  84 H :    0.018916
Sum of atomic charges:   -0.0000000

LOEWDIN ATOMIC CHARGES
----------------------
   0 C :    0.071912
   1 C :   -0.168607
   2 C :   -0.019249
   3 N :   -0.081844
   4 C :   -0.020031
   5 N :   -0.081675
   6 C :   -0.016162
   7 C :   -0.047203
   8 C :    0.014023
   9 C :   -0.038253
  10 C :   -0.147193
  11 C :   -0.016990
  12 S :    0.422336
  13 C :   -0.277410
  14 C :   -0.071329
  15 Br:    0.124222
  16 C :    0.080067
  17 O :   -0.164606
  18 C :   -0.118023
  19 C :    0.041545
  20 C :   -0.077690
  21 C :   -0.106502
  22 C :   -0.052074
  23 C :   -0.012539
  24 C :   -0.201860
  25 S :    0.415765
  26 C :   -0.145878
  27 C :   -0.052979
  28 C :   -0.011815
  29 C :   -0.177236
  30 S :    0.405584
  31 C :   -0.028237
  32 C :   -0.211803
  33 S :    0.444890
  34 C :   -0.130833
  35 C :   -0.091231
  36 C :    0.044684
  37 O :    0.019511
  38 C :    0.007550
  39 N :    0.278756
  40 O :   -0.244023
  41 O :   -0.192504
  42 C :   -0.001929
  43 C :   -0.087025
  44 C :   -0.135909
  45 C :   -0.035699
  46 C :   -0.022069
  47 C :   -0.189102
  48 S :    0.439089
  49 C :   -0.159785
  50 C :   -0.035721
  51 C :   -0.017687
  52 C :   -0.153927
  53 S :    0.422949
  54 C :   -0.055003
  55 C :   -0.207007
  56 S :    0.480892
  57 C :   -0.174088
  58 C :   -0.078374
  59 C :    0.018431
  60 O :    0.002164
  61 C :    0.035343
  62 N :    0.277508
  63 O :   -0.197633
  64 O :   -0.194197
  65 C :   -0.002014
  66 H :    0.037425
  67 H :    0.038950
  68 H :    0.036618
  69 H :    0.029520
  70 H :    0.037098
  71 H :    0.036436
  72 H :    0.033397
  73 H :    0.033172
  74 H :    0.037338
  75 H :    0.050671
  76 H :    0.022962
  77 H :    0.042691
  78 H :    0.039401
  79 H :    0.036476
  80 H :    0.035630
  81 H :    0.036173
  82 H :    0.038246
  83 H :    0.032756
  84 H :    0.050765

  Mayer bond orders larger than 0.100000
B(  0-C ,  1-C ) :   1.5496 B(  0-C ,  6-C ) :   0.9816 B(  0-C , 18-C ) :   1.1444
B(  1-C ,  2-C ) :   1.1571 B(  1-C ,  4-C ) :   1.1604 B(  2-C ,  3-N ) :   2.9573
B(  4-C ,  5-N ) :   2.9552 B(  6-C ,  7-C ) :   1.2798 B(  6-C , 11-C ) :   1.4247
B(  7-C ,  8-C ) :   1.4339 B(  7-C , 16-C ) :   0.9313 B(  8-C ,  9-C ) :   1.2337
B(  8-C , 66-H ) :   1.0165 B(  9-C , 10-C ) :   1.3208 B(  9-C , 14-C ) :   1.1588
B( 10-C , 11-C ) :   1.3152 B( 10-C , 12-S ) :   1.0806 B( 11-C , 67-H ) :   0.9795
B( 12-S , 13-C ) :   1.0845 B( 13-C , 14-C ) :   1.6216 B( 13-C , 15-Br) :   1.0087
B( 14-C , 68-H ) :   1.0004 B( 16-C , 17-O ) :   2.1783 B( 16-C , 18-C ) :   0.9778
B( 18-C , 19-C ) :   1.4188 B( 19-C , 20-C ) :   1.3197 B( 19-C , 69-H ) :   0.9433
B( 20-C , 21-C ) :   1.3521 B( 20-C , 70-H ) :   0.9784 B( 21-C , 22-C ) :   1.2279
B( 21-C , 25-S ) :   1.0975 B( 22-C , 23-C ) :   1.4798 B( 22-C , 71-H ) :   1.0020
B( 23-C , 24-C ) :   1.2717 B( 23-C , 72-H ) :   0.9955 B( 24-C , 25-S ) :   1.0559
B( 24-C , 26-C ) :   1.3826 B( 26-C , 27-C ) :   1.2549 B( 26-C , 30-S ) :   1.0985
B( 27-C , 28-C ) :   1.5051 B( 27-C , 73-H ) :   0.9946 B( 28-C , 29-C ) :   1.2160
B( 28-C , 74-H ) :   1.0004 B( 29-C , 30-S ) :   1.0414 B( 29-C , 31-C ) :   1.4328
B( 31-C , 32-C ) :   1.3049 B( 31-C , 75-H ) :   0.9757 B( 32-C , 33-S ) :   1.0378
B( 32-C , 36-C ) :   1.3403 B( 33-S , 34-C ) :   1.1288 B( 34-C , 35-C ) :   1.1867
B( 34-C , 43-C ) :   1.3433 B( 35-C , 36-C ) :   1.2885 B( 35-C , 42-C ) :   1.1435
B( 36-C , 37-O ) :   1.1726 B( 37-O , 38-C ) :   1.1097 B( 38-C , 39-N ) :   0.9510
B( 38-C , 42-C ) :   1.5233 B( 39-N , 40-O ) :   1.4843 B( 39-N , 41-O ) :   1.5094
B( 40-O , 41-O ) :   0.2588 B( 42-C , 76-H ) :   0.9917 B( 43-C , 44-C ) :   1.4429
B( 43-C , 77-H ) :   0.9423 B( 44-C , 45-C ) :   1.2161 B( 44-C , 48-S ) :   1.0816
B( 45-C , 46-C ) :   1.5115 B( 45-C , 78-H ) :   1.0012 B( 46-C , 47-C ) :   1.2481
B( 46-C , 79-H ) :   0.9950 B( 47-C , 48-S ) :   1.0581 B( 47-C , 49-C ) :   1.4114
B( 49-C , 50-C ) :   1.2179 B( 49-C , 53-S ) :   1.0783 B( 50-C , 51-C ) :   1.5600
B( 50-C , 80-H ) :   0.9959 B( 51-C , 52-C ) :   1.1613 B( 51-C , 81-H ) :   0.9988
B( 52-C , 53-S ) :   1.0477 B( 52-C , 54-C ) :   1.5723 B( 54-C , 55-C ) :   1.1738
B( 54-C , 82-H ) :   0.9483 B( 55-C , 56-S ) :   1.1216 B( 55-C , 57-C ) :   0.1028
B( 55-C , 59-C ) :   1.4020 B( 56-S , 57-C ) :   1.1963 B( 57-C , 58-C ) :   1.4251
B( 57-C , 83-H ) :   0.9743 B( 58-C , 59-C ) :   1.2423 B( 58-C , 65-C ) :   1.0647
B( 59-C , 60-O ) :   1.1041 B( 60-O , 61-C ) :   1.1059 B( 61-C , 62-N ) :   0.9112
B( 61-C , 65-C ) :   1.5933 B( 62-N , 63-O ) :   1.5441 B( 62-N , 64-O ) :   1.4935
B( 63-O , 64-O ) :   0.2733 B( 65-C , 84-H ) :   1.0264

-----------------------------------------------------------------------------
         ABSORPTION SPECTRUM VIA TRANSITION ELECTRIC DIPOLE MOMENTS
-----------------------------------------------------------------------------
State   Energy  Wavelength   fosc         T2         TX        TY        TZ
        (cm-1)    (nm)                  (au**2)     (au)      (au)      (au)
-----------------------------------------------------------------------------
   0    5261.4   1900.6   0.779445011  48.77111  -5.24168   1.16442  -4.46543
   1   11625.8    860.2   0.063587782   1.80064  -1.14089  -0.58258  -0.39950
   2   12864.0    777.4   0.424569518  10.86542  -1.56168  -2.74256   0.95129
   3   14308.8    698.9   0.060668186   1.39583   0.81246   0.74562   0.42402
   4   17924.2    557.9   0.121424639   2.23019   0.64903  -0.90738   0.99278
   5   19302.7    518.1   0.140693050   2.39955  -0.92429   0.71062  -1.01993
   6   20738.7    482.2   0.187605963   2.97811  -0.43545  -1.66896  -0.05519
   7   21135.2    473.1   0.535803519   8.34594  -0.80230  -2.77111   0.15227
   8   22540.3    443.6   0.082426449   1.20388   0.84288  -0.35841   0.60414
   9   22990.0    435.0   0.070701734   1.01244   0.53362   0.84493   0.11741
  10   23578.3    424.1   0.621227611   8.67390   1.77649   2.30547   0.45031
  11   25231.1    396.3   0.015666531   0.20441   0.03110  -0.37615   0.24892
  12   26304.9    380.2   0.000034229   0.00043  -0.02029  -0.00224  -0.00340
  13   26339.8    379.7   0.158028105   1.97514  -0.65118  -1.23499  -0.16097
  14   27140.7    368.5   0.078058865   0.94684   0.24523  -0.83570   0.43395
  15   27365.2    365.4   0.003317718   0.03991  -0.01672  -0.18223   0.08017
  16   28083.5    356.1   0.020683673   0.24247  -0.30155  -0.31626  -0.22697
  17   28124.1    355.6   0.291243785   3.40921   1.51099   0.75803   0.74263
  18   28711.8    348.3   0.162253485   1.86041  -1.04010  -0.74083  -0.47934
  19   29036.2    344.4   0.032979562   0.37392   0.26587   0.54483   0.07996
  20   29191.8    342.6   0.119878690   1.35194  -0.93781  -0.07893  -0.68281
  21   29374.8    340.4   0.001926788   0.02159   0.04201   0.13948  -0.01938
  22   29659.0    337.2   0.024673209   0.27387   0.17820   0.47505  -0.12824
  23   30370.0    329.3   0.062109544   0.67327   0.77889   0.20804   0.15269
  24   30773.5    325.0   0.015693545   0.16789  -0.13573  -0.38011   0.07057
  25   31512.9    317.3   0.127904917   1.33621  -0.79590  -0.78914  -0.28285
  26   31984.2    312.7   0.021282295   0.21906  -0.45290  -0.11276  -0.03503
  27   32012.2    312.4   0.000191966   0.00197  -0.01006  -0.04299   0.00497
  28   32148.7    311.1   0.023858013   0.24431   0.44399  -0.08528   0.19979
  29   32611.6    306.6   0.104119498   1.05108  -0.88024  -0.32300  -0.41465
  30   32743.0    305.4   0.019732320   0.19840  -0.41338  -0.06077  -0.15433
  31   32900.6    303.9   0.089757915   0.89814  -0.84489  -0.01104  -0.42917
  32   33466.7    298.8   0.067039706   0.65947   0.69453  -0.20666   0.36658
  33   33772.3    296.1   0.097647045   0.95186   0.50493   0.83210   0.06724
  34   34263.3    291.9   0.087103775   0.83692  -0.79398  -0.27959  -0.35826
  35   34334.9    291.2   0.039020468   0.37414   0.23778  -0.45865   0.32748
  36   34730.1    287.9   0.399605376   3.78792   1.64306  -0.31134   0.99566
  37   35237.7    283.8   0.075571896   0.70604   0.45560  -0.56700   0.42069
  38   35477.3    281.9   0.100227344   0.93006  -0.53887   0.47923  -0.64032
  39   35876.9    278.7   0.000015736   0.00014   0.00812  -0.00140  -0.00874
  40   35950.5    278.2   0.002106259   0.01929   0.05565  -0.12723  -0.00180
  41   36330.6    275.3   0.081976545   0.74284   0.69066  -0.00990   0.51549
  42   36514.9    273.9   0.042280506   0.38119   0.19219  -0.48741   0.32663
  43   36654.0    272.8   0.001454644   0.01307   0.01299  -0.09892   0.05579
  44   36847.4    271.4   0.166670859   1.48912  -1.04376  -0.07211  -0.62808
  45   37245.3    268.5   0.022523474   0.19909  -0.29339   0.27457  -0.19396
  46   37359.7    267.7   0.006804203   0.05996  -0.04996   0.21365  -0.10870
  47   37584.9    266.1   0.047139012   0.41290   0.41082  -0.32998   0.36775
  48   37958.1    263.4   0.012254650   0.10629  -0.08855  -0.30854  -0.05698
  49   38227.1    261.6   0.012564200   0.10820   0.06178   0.32307   0.00376
  50   38354.5    260.7   0.010643548   0.09136   0.11474   0.27191   0.06526
  51   38471.7    259.9   0.015712247   0.13445  -0.22850   0.09182  -0.27168
  52   38735.0    258.2   0.032042364   0.27233   0.11770   0.50823  -0.01341
  53   39102.2    255.7   0.143117614   1.20494   0.96068  -0.15937   0.50660
  54   39202.1    255.1   0.341341410   2.86652   0.92874  -1.16711   0.80113
  55   39269.4    254.7   0.063874126   0.53548  -0.63428  -0.22406  -0.28805
  56   39626.7    252.4   0.056678494   0.47087   0.60560   0.07457   0.31394
  57   39641.8    252.3   0.128592517   1.06792  -0.46553   0.76219  -0.51987
  58   39887.6    250.7   0.026325804   0.21728  -0.19768   0.38744  -0.16762
  59   40061.8    249.6   0.029956953   0.24617  -0.24422  -0.43127   0.02309
  60   40326.6    248.0   0.014064626   0.11482  -0.15271  -0.30182   0.02003

FINAL SINGLE POINT ENERGY     -7904.950254001492

DIPOLE MOMENT
-------------
                                X             Y             Z
Electronic contribution:   -125.33755     -56.31917     -54.49297
Nuclear contribution   :    129.56221      56.32310      57.63612
                        -----------------------------------------
Total Dipole Moment    :      4.22466       0.00393       3.14315
                        -----------------------------------------
Magnitude (a.u.)       :      5.26566
Magnitude (Debye)      :     13.38424

Rotational constants in cm-1:     0.001441     0.000235     0.000204
Rotational constants in MHz :    43.202566     7.037684     6.116906

                             ****ORCA TERMINATED NORMALLY****
TOTAL RUN TIME: 0 days 0 hours 9 minutes 59 seconds 891 msec
