                         Program Version 4.2.0 -  RELEASE  -
|  1> # ORCA input file
|  2> # SCF done       -200.138490546311          0.000447721492
|  3> ! CAM-B3LYP def2-SVP def2/J RIJCOSX Grid4 TightSCF
|  4> %maxcore 5000
|  5> %tddft
|  6>     Mode sTDDFT
|  7>     Ethresh 5.0
|  8>     maxcore 5000
|  9> end
| 10>
| 11> %pal
| 12>   nprocs 6
| 13>   end
| 14> * xyz 0 1
| 15>    C       -9.71325         2.06495         5.64254
| 16>    C       -9.03484         1.06863         6.28284
| 17>    C       -9.56164         0.31020         7.35210
| 18>    N       -9.93815        -0.33586         8.22180
| 19>    C       -7.71497         0.67295         5.97112
| 20>    N       -6.64071         0.31871         5.78029
| 21>    C      -11.05457         2.53804         5.94322
| 22>    C      -11.38909         3.59833         5.05674
| 23>    C      -12.59318         4.25978         5.12138
| 24>    C      -13.51741         3.85124         6.08390
| 25>    C      -13.18131         2.78705         6.95897
| 26>    C      -11.96039         2.12645         6.90662
| 27>    S      -14.47211         2.45356         8.06883
| 28>    C      -15.43051         3.72471         7.34778
| 29>    C      -14.81627         4.37135         6.32806
| 30>   Br      -17.14414         4.06814         8.01635
| 31>    C      -10.28454         3.82367         4.12469
| 32>    O      -10.23895         4.58490         3.17881
| 33>    C       -9.21571         2.86418         4.52496
| 34>    C       -8.06162         2.77158         3.84777
| 35>    C       -7.77306         3.65741         2.72848
| 36>    C       -7.87930         3.37831         1.37829
| 37>    C       -8.43075         2.08519         0.92290
| 38>    O       -8.93298         1.33010         1.71837
| 39>    O       -8.36866         1.79634        -0.37293
| 40>    C       -7.47914         4.61389         0.76936
| 41>    N       -7.14717         5.47836         1.69780
| 42>    O       -7.32924         4.89735         2.89661
| 43>    C       -7.35606         4.93543        -0.64353
| 44>    C       -7.59940         6.13373        -1.22050
| 45>    O       -7.32985         6.37859        -2.55379
| 46>    C       -6.76541         5.35214        -3.25342
| 47>    C       -6.54176         4.07900        -2.66439
| 48>    C       -5.99163         3.18244        -3.51766
| 49>    S       -5.73431         3.88755        -5.06845
| 50>    C       -6.37733         5.40057        -4.55174
| 51>    O       -6.86612         3.83071        -1.35415
| 52>    C       -8.19295         7.32767        -0.64696
| 53>    C       -8.99672         7.46097         0.40749
| 54>    C       -9.58468         8.78675         0.76714
| 55>    C       -9.37784         9.05448         2.26808
| 56>    O       -8.35474         9.33953         2.80496
| 57>    O      -10.54621         8.94049         2.91852
| 58>    C      -11.60550         8.55496         2.05421
| 59>    C      -11.11533         8.92045         0.64302
| 60>    C      -11.81693         8.17305        -0.48573
| 61>    C      -11.93208         6.67053        -0.25724
| 62>    C      -12.52648         6.30987         1.09633
| 63>    C      -11.91996         7.06457         2.29002
| 64>    O      -12.91016         6.96384         3.31063
| 65>    C      -14.12074         6.69457         2.80668
| 66>    O      -15.08398         6.51874         3.49014
| 67>    C      -14.03106         6.59924         1.28098
| 68>    C      -14.89962         5.52028         0.75245
| 69>    C      -15.38944         5.30288        -0.47788
| 70>    C      -15.36001         6.01742        -1.75127
| 71>    C      -15.36367         7.36774        -1.96418
| 72>    C      -15.39053         7.96469        -3.24550
| 73>    N      -15.39106         8.51213        -4.25333
| 74>    C      -15.41261         8.35623        -0.96214
| 75>    N      -15.45745         9.21315        -0.19889
| 76>    C      -15.53735         5.02112        -2.80205
| 77>    C      -15.94138         3.79397        -2.21660
| 78>    C      -15.94832         3.93224        -0.75295
| 79>    O      -16.27034         3.11802         0.07470
| 80>    C      -16.23965         2.67880        -2.96321
| 81>    C      -16.12184         2.77336        -4.35295
| 82>    C      -15.69498         3.99638        -4.92909
| 83>    C      -15.40051         5.12468        -4.17524
| 84>    S      -15.60235         3.88872        -6.65933
| 85>    C      -16.13655         2.22982        -6.59028
| 86>    C      -16.36971         1.77660        -5.33452
| 87>   Br      -16.33164         1.25532        -8.17859
| 88>    H      -12.81470         5.08504         4.46824
| 89>    H      -11.74591         1.32734         7.59665
| 90>    H      -15.25172         5.17501         5.76022
| 91>    H       -7.31519         2.02099         4.06668
| 92>    H       -7.82883         2.44135        -0.87229
| 93>    H       -5.72786         2.16306        -3.32737
| 94>    H       -6.43242         6.23012        -5.22485
| 95>    H       -7.99852         8.19300        -1.26888
| 96>    H       -9.23118         6.63136         1.05478
| 97>    H       -9.07548         9.56417         0.19392
| 98>    H      -12.48505         9.14014         2.34473
| 99>    H      -11.31984         9.98804         0.50361
|100>    H      -11.27487         8.35236        -1.41565
|101>    H      -12.81250         8.60614        -0.60113
|102>    H      -10.94396         6.21593        -0.33130
|103>    H      -12.55101         6.23004        -1.04291
|104>    H      -12.36612         5.23879         1.27203
|105>    H      -11.02482         6.56598         2.67451
|106>    H      -14.28062         7.57990         0.87199
|107>    H      -15.10469         4.71949         1.45844
|108>    H      -16.55393         1.76314        -2.48778
|109>    H      -15.07129         6.02828        -4.66057
|110>    H      -16.70286         0.78018        -5.10880
|111> *
|112>
|113>                          ****END OF INPUT****

CARTESIAN COORDINATES (ANGSTROEM)
---------------------------------
  C     -9.713250    2.064950    5.642540
  C     -9.034840    1.068630    6.282840
  C     -9.561640    0.310200    7.352100
  N     -9.938150   -0.335860    8.221800
  C     -7.714970    0.672950    5.971120
  N     -6.640710    0.318710    5.780290
  C    -11.054570    2.538040    5.943220
  C    -11.389090    3.598330    5.056740
  C    -12.593180    4.259780    5.121380
  C    -13.517410    3.851240    6.083900
  C    -13.181310    2.787050    6.958970
  C    -11.960390    2.126450    6.906620
  S    -14.472110    2.453560    8.068830
  C    -15.430510    3.724710    7.347780
  C    -14.816270    4.371350    6.328060
  Br   -17.144140    4.068140    8.016350
  C    -10.284540    3.823670    4.124690
  O    -10.238950    4.584900    3.178810
  C     -9.215710    2.864180    4.524960
  C     -8.061620    2.771580    3.847770
  C     -7.773060    3.657410    2.728480
  C     -7.879300    3.378310    1.378290
  C     -8.430750    2.085190    0.922900
  O     -8.932980    1.330100    1.718370
  O     -8.368660    1.796340   -0.372930
  C     -7.479140    4.613890    0.769360
  N     -7.147170    5.478360    1.697800
  O     -7.329240    4.897350    2.896610
  C     -7.356060    4.935430   -0.643530
  C     -7.599400    6.133730   -1.220500
  O     -7.329850    6.378590   -2.553790
  C     -6.765410    5.352140   -3.253420
  C     -6.541760    4.079000   -2.664390
  C     -5.991630    3.182440   -3.517660
  S     -5.734310    3.887550   -5.068450
  C     -6.377330    5.400570   -4.551740
  O     -6.866120    3.830710   -1.354150
  C     -8.192950    7.327670   -0.646960
  C     -8.996720    7.460970    0.407490
  C     -9.584680    8.786750    0.767140
  C     -9.377840    9.054480    2.268080
  O     -8.354740    9.339530    2.804960
  O    -10.546210    8.940490    2.918520
  C    -11.605500    8.554960    2.054210
  C    -11.115330    8.920450    0.643020
  C    -11.816930    8.173050   -0.485730
  C    -11.932080    6.670530   -0.257240
  C    -12.526480    6.309870    1.096330
  C    -11.919960    7.064570    2.290020
  O    -12.910160    6.963840    3.310630
  C    -14.120740    6.694570    2.806680
  O    -15.083980    6.518740    3.490140
  C    -14.031060    6.599240    1.280980
  C    -14.899620    5.520280    0.752450
  C    -15.389440    5.302880   -0.477880
  C    -15.360010    6.017420   -1.751270
  C    -15.363670    7.367740   -1.964180
  C    -15.390530    7.964690   -3.245500
  N    -15.391060    8.512130   -4.253330
  C    -15.412610    8.356230   -0.962140
  N    -15.457450    9.213150   -0.198890
  C    -15.537350    5.021120   -2.802050
  C    -15.941380    3.793970   -2.216600
  C    -15.948320    3.932240   -0.752950
  O    -16.270340    3.118020    0.074700
  C    -16.239650    2.678800   -2.963210
  C    -16.121840    2.773360   -4.352950
  C    -15.694980    3.996380   -4.929090
  C    -15.400510    5.124680   -4.175240
  S    -15.602350    3.888720   -6.659330
  C    -16.136550    2.229820   -6.590280
  C    -16.369710    1.776600   -5.334520
  Br   -16.331640    1.255320   -8.178590
  H    -12.814700    5.085040    4.468240
  H    -11.745910    1.327340    7.596650
  H    -15.251720    5.175010    5.760220
  H     -7.315190    2.020990    4.066680
  H     -7.828830    2.441350   -0.872290
  H     -5.727860    2.163060   -3.327370
  H     -6.432420    6.230120   -5.224850
  H     -7.998520    8.193000   -1.268880
  H     -9.231180    6.631360    1.054780
  H     -9.075480    9.564170    0.193920
  H    -12.485050    9.140140    2.344730
  H    -11.319840    9.988040    0.503610
  H    -11.274870    8.352360   -1.415650
  H    -12.812500    8.606140   -0.601130
  H    -10.943960    6.215930   -0.331300
  H    -12.551010    6.230040   -1.042910
  H    -12.366120    5.238790    1.272030
  H    -11.024820    6.565980    2.674510
  H    -14.280620    7.579900    0.871990
  H    -15.104690    4.719490    1.458440
  H    -16.553930    1.763140   -2.487780
  H    -15.071290    6.028280   -4.660570
  H    -16.702860    0.780180   -5.108800

 Total Charge           Charge          ....    0
 Multiplicity           Mult            ....    1
 Number of Electrons    NEL             ....  576
 Basis Dimension        Dim             .... 1185

ORBITAL ENERGIES
----------------

  NO   OCC          E(Eh)            E(eV)
   0   2.0000    -482.897195    -13140.3007
   1   2.0000    -482.883615    -13139.9312
   2   2.0000     -88.990002     -2421.5411
   3   2.0000     -88.977451     -2421.1995
   4   2.0000     -88.977400     -2421.1982
   5   2.0000     -62.574939     -1702.7507
   6   2.0000     -62.561340     -1702.3806
   7   2.0000     -56.408906     -1534.9644
   8   2.0000     -56.406156     -1534.8895
   9   2.0000     -56.406132     -1534.8889
  10   2.0000     -56.395293     -1534.5939
  11   2.0000     -56.392562     -1534.5196
  12   2.0000     -56.392551     -1534.5193
  13   2.0000     -19.338188      -526.2188
  14   2.0000     -19.310654      -525.4696
  15   2.0000     -19.295240      -525.0502
  16   2.0000     -19.282005      -524.6900
  17   2.0000     -19.265131      -524.2309
  18   2.0000     -19.255478      -523.9682
  19   2.0000     -19.240622      -523.5639
  20   2.0000     -19.233184      -523.3616
  21   2.0000     -19.225651      -523.1566
  22   2.0000     -19.201725      -522.5055
  23   2.0000     -19.201592      -522.5019
  24   2.0000     -14.474388      -393.8681
  25   2.0000     -14.441188      -392.9647
  26   2.0000     -14.436677      -392.8420
  27   2.0000     -14.425798      -392.5459
  28   2.0000     -14.425668      -392.5424
  29   2.0000     -10.419846      -283.5384
  30   2.0000     -10.413634      -283.3694
  31   2.0000     -10.399351      -282.9807
  32   2.0000     -10.387499      -282.6582
  33   2.0000     -10.383349      -282.5453
  34   2.0000     -10.375629      -282.3352
  35   2.0000     -10.374251      -282.2977
  36   2.0000     -10.372952      -282.2624
  37   2.0000     -10.369278      -282.1624
  38   2.0000     -10.367963      -282.1266
  39   2.0000     -10.367157      -282.1047
  40   2.0000     -10.363002      -281.9916
  41   2.0000     -10.360153      -281.9141
  42   2.0000     -10.358729      -281.8753
  43   2.0000     -10.356975      -281.8276
  44   2.0000     -10.352584      -281.7081
  45   2.0000     -10.348679      -281.6019
  46   2.0000     -10.348230      -281.5897
  47   2.0000     -10.345351      -281.5113
  48   2.0000     -10.343550      -281.4623
  49   2.0000     -10.342072      -281.4221
  50   2.0000     -10.338627      -281.3283
  51   2.0000     -10.336145      -281.2608
  52   2.0000     -10.333782      -281.1965
  53   2.0000     -10.331170      -281.1254
  54   2.0000     -10.327650      -281.0297
  55   2.0000     -10.327161      -281.0163
  56   2.0000     -10.327088      -281.0144
  57   2.0000     -10.323810      -280.9251
  58   2.0000     -10.323696      -280.9221
  59   2.0000     -10.319727      -280.8140
  60   2.0000     -10.319527      -280.8086
  61   2.0000     -10.317832      -280.7625
  62   2.0000     -10.317564      -280.7552
  63   2.0000     -10.317241      -280.7464
  64   2.0000     -10.315795      -280.7070
  65   2.0000     -10.313571      -280.6465
  66   2.0000     -10.312586      -280.6197
  67   2.0000     -10.312550      -280.6187
  68   2.0000     -10.310505      -280.5631
  69   2.0000     -10.310403      -280.5603
  70   2.0000     -10.309914      -280.5470
  71   2.0000     -10.304878      -280.4100
  72   2.0000     -10.304334      -280.3952
  73   2.0000     -10.303408      -280.3700
  74   2.0000     -10.303154      -280.3631
  75   2.0000     -10.302934      -280.3571
  76   2.0000     -10.301716      -280.3239
  77   2.0000     -10.298229      -280.2291
  78   2.0000     -10.292895      -280.0839
  79   2.0000     -10.292182      -280.0645
  80   2.0000     -10.290264      -280.0123
  81   2.0000      -8.804400      -239.5799
  82   2.0000      -8.790787      -239.2095
  83   2.0000      -8.086023      -220.0319
  84   2.0000      -8.073455      -219.6899
  85   2.0000      -8.073151      -219.6816
  86   2.0000      -6.640785      -180.7050
  87   2.0000      -6.627107      -180.3327
  88   2.0000      -6.626111      -180.3057
  89   2.0000      -6.625857      -180.2987
  90   2.0000      -6.612561      -179.9369
  91   2.0000      -6.612262      -179.9288
  92   2.0000      -6.055693      -164.7838
  93   2.0000      -6.051430      -164.6678
  94   2.0000      -6.047251      -164.5541
  95   2.0000      -6.043135      -164.4421
  96   2.0000      -6.042625      -164.4282
  97   2.0000      -6.038850      -164.3255
  98   2.0000      -6.038445      -164.3144
  99   2.0000      -6.034895      -164.2178
 100   2.0000      -6.034671      -164.2117
 101   2.0000      -2.756616       -75.0113
 102   2.0000      -2.752558       -74.9009
 103   2.0000      -2.752340       -74.8950
 104   2.0000      -2.742996       -74.6407
 105   2.0000      -2.740685       -74.5778
 106   2.0000      -2.740670       -74.5774
 107   2.0000      -2.738898       -74.5292
 108   2.0000      -2.738701       -74.5239
 109   2.0000      -2.727117       -74.2086
 110   2.0000      -2.727108       -74.2084
 111   2.0000      -1.279477       -34.8163
 112   2.0000      -1.225365       -33.3439
 113   2.0000      -1.220189       -33.2030
 114   2.0000      -1.200784       -32.6750
 115   2.0000      -1.190277       -32.3891
 116   2.0000      -1.182214       -32.1697
 117   2.0000      -1.153538       -31.3894
 118   2.0000      -1.150201       -31.2986
 119   2.0000      -1.131355       -30.7857
 120   2.0000      -1.111125       -30.2352
 121   2.0000      -1.099509       -29.9191
 122   2.0000      -1.042974       -28.3808
 123   2.0000      -1.032742       -28.1023
 124   2.0000      -1.031023       -28.0556
 125   2.0000      -1.019274       -27.7359
 126   2.0000      -1.017782       -27.6953
 127   2.0000      -1.010523       -27.4977
 128   2.0000      -1.008527       -27.4434
 129   2.0000      -1.003946       -27.3188
 130   2.0000      -0.999528       -27.1985
 131   2.0000      -0.992205       -26.9993
 132   2.0000      -0.969585       -26.3837
 133   2.0000      -0.958194       -26.0738
 134   2.0000      -0.953280       -25.9401
 135   2.0000      -0.942733       -25.6531
 136   2.0000      -0.937480       -25.5101
 137   2.0000      -0.927350       -25.2345
 138   2.0000      -0.921372       -25.0718
 139   2.0000      -0.915517       -24.9125
 140   2.0000      -0.905005       -24.6264
 141   2.0000      -0.902613       -24.5613
 142   2.0000      -0.895074       -24.3562
 143   2.0000      -0.890539       -24.2328
 144   2.0000      -0.888152       -24.1678
 145   2.0000      -0.868658       -23.6374
 146   2.0000      -0.860507       -23.4156
 147   2.0000      -0.857238       -23.3266
 148   2.0000      -0.855952       -23.2916
 149   2.0000      -0.846135       -23.0245
 150   2.0000      -0.840114       -22.8607
 151   2.0000      -0.833385       -22.6776
 152   2.0000      -0.830081       -22.5877
 153   2.0000      -0.811323       -22.0772
 154   2.0000      -0.788784       -21.4639
 155   2.0000      -0.787090       -21.4178
 156   2.0000      -0.777548       -21.1581
 157   2.0000      -0.770367       -20.9628
 158   2.0000      -0.769876       -20.9494
 159   2.0000      -0.757994       -20.6261
 160   2.0000      -0.751761       -20.4565
 161   2.0000      -0.736981       -20.0543
 162   2.0000      -0.724517       -19.7151
 163   2.0000      -0.720290       -19.6001
 164   2.0000      -0.717164       -19.5150
 165   2.0000      -0.709510       -19.3067
 166   2.0000      -0.705713       -19.2034
 167   2.0000      -0.701035       -19.0761
 168   2.0000      -0.698175       -18.9983
 169   2.0000      -0.693704       -18.8766
 170   2.0000      -0.691451       -18.8153
 171   2.0000      -0.680418       -18.5151
 172   2.0000      -0.675556       -18.3828
 173   2.0000      -0.672763       -18.3068
 174   2.0000      -0.668428       -18.1889
 175   2.0000      -0.665618       -18.1124
 176   2.0000      -0.654279       -17.8038
 177   2.0000      -0.651349       -17.7241
 178   2.0000      -0.648741       -17.6532
 179   2.0000      -0.641306       -17.4508
 180   2.0000      -0.635233       -17.2856
 181   2.0000      -0.630410       -17.1543
 182   2.0000      -0.627095       -17.0641
 183   2.0000      -0.621026       -16.8990
 184   2.0000      -0.616908       -16.7869
 185   2.0000      -0.615359       -16.7448
 186   2.0000      -0.612025       -16.6540
 187   2.0000      -0.601698       -16.3730
 188   2.0000      -0.598103       -16.2752
 189   2.0000      -0.594782       -16.1848
 190   2.0000      -0.590053       -16.0562
 191   2.0000      -0.586449       -15.9581
 192   2.0000      -0.584862       -15.9149
 193   2.0000      -0.577872       -15.7247
 194   2.0000      -0.570252       -15.5174
 195   2.0000      -0.568596       -15.4723
 196   2.0000      -0.566614       -15.4184
 197   2.0000      -0.563667       -15.3382
 198   2.0000      -0.562768       -15.3137
 199   2.0000      -0.556760       -15.1502
 200   2.0000      -0.554432       -15.0869
 201   2.0000      -0.552047       -15.0220
 202   2.0000      -0.550618       -14.9831
 203   2.0000      -0.548117       -14.9150
 204   2.0000      -0.546385       -14.8679
 205   2.0000      -0.543489       -14.7891
 206   2.0000      -0.540918       -14.7191
 207   2.0000      -0.538769       -14.6606
 208   2.0000      -0.538198       -14.6451
 209   2.0000      -0.536217       -14.5912
 210   2.0000      -0.534216       -14.5368
 211   2.0000      -0.530535       -14.4366
 212   2.0000      -0.529949       -14.4206
 213   2.0000      -0.527375       -14.3506
 214   2.0000      -0.524648       -14.2764
 215   2.0000      -0.523251       -14.2384
 216   2.0000      -0.522365       -14.2143
 217   2.0000      -0.519361       -14.1325
 218   2.0000      -0.514511       -14.0006
 219   2.0000      -0.512608       -13.9488
 220   2.0000      -0.511590       -13.9211
 221   2.0000      -0.507947       -13.8220
 222   2.0000      -0.506076       -13.7710
 223   2.0000      -0.503943       -13.7130
 224   2.0000      -0.501125       -13.6363
 225   2.0000      -0.498548       -13.5662
 226   2.0000      -0.497262       -13.5312
 227   2.0000      -0.493332       -13.4242
 228   2.0000      -0.486085       -13.2271
 229   2.0000      -0.483171       -13.1477
 230   2.0000      -0.481003       -13.0888
 231   2.0000      -0.479071       -13.0362
 232   2.0000      -0.477569       -12.9953
 233   2.0000      -0.473237       -12.8774
 234   2.0000      -0.471786       -12.8379
 235   2.0000      -0.466740       -12.7006
 236   2.0000      -0.465147       -12.6573
 237   2.0000      -0.462929       -12.5969
 238   2.0000      -0.462152       -12.5758
 239   2.0000      -0.459968       -12.5164
 240   2.0000      -0.458780       -12.4841
 241   2.0000      -0.457055       -12.4371
 242   2.0000      -0.456301       -12.4166
 243   2.0000      -0.454698       -12.3730
 244   2.0000      -0.453628       -12.3438
 245   2.0000      -0.452606       -12.3160
 246   2.0000      -0.450564       -12.2605
 247   2.0000      -0.449339       -12.2271
 248   2.0000      -0.447907       -12.1882
 249   2.0000      -0.443325       -12.0635
 250   2.0000      -0.442500       -12.0410
 251   2.0000      -0.440262       -11.9802
 252   2.0000      -0.437906       -11.9160
 253   2.0000      -0.436444       -11.8763
 254   2.0000      -0.432382       -11.7657
 255   2.0000      -0.429964       -11.6999
 256   2.0000      -0.426470       -11.6048
 257   2.0000      -0.426306       -11.6004
 258   2.0000      -0.419487       -11.4148
 259   2.0000      -0.417252       -11.3540
 260   2.0000      -0.414523       -11.2797
 261   2.0000      -0.410956       -11.1827
 262   2.0000      -0.407219       -11.0810
 263   2.0000      -0.402728       -10.9588
 264   2.0000      -0.399411       -10.8685
 265   2.0000      -0.396590       -10.7918
 266   2.0000      -0.392074       -10.6689
 267   2.0000      -0.388667       -10.5762
 268   2.0000      -0.386360       -10.5134
 269   2.0000      -0.384971       -10.4756
 270   2.0000      -0.380265       -10.3475
 271   2.0000      -0.373666       -10.1680
 272   2.0000      -0.371165       -10.0999
 273   2.0000      -0.368240       -10.0203
 274   2.0000      -0.366867        -9.9829
 275   2.0000      -0.358464        -9.7543
 276   2.0000      -0.358218        -9.7476
 277   2.0000      -0.351219        -9.5572
 278   2.0000      -0.342295        -9.3143
 279   2.0000      -0.338929        -9.2227
 280   2.0000      -0.334583        -9.1045
 281   2.0000      -0.330934        -9.0052
 282   2.0000      -0.329076        -8.9546
 283   2.0000      -0.321173        -8.7396
 284   2.0000      -0.320299        -8.7158
 285   2.0000      -0.310091        -8.4380
 286   2.0000      -0.296237        -8.0610
 287   2.0000      -0.282652        -7.6913
 288   0.0000      -0.101814        -2.7705
 289   0.0000      -0.095937        -2.6106
 290   0.0000      -0.069991        -1.9046
 291   0.0000      -0.065855        -1.7920
 292   0.0000      -0.042523        -1.1571

MULLIKEN ATOMIC CHARGES
-----------------------
   0 C :    0.323001
   1 C :   -0.326069
   2 C :   -0.187102
   3 N :    0.163315
   4 C :   -0.190178
   5 N :    0.170627
   6 C :    0.007581
   7 C :    0.006748
   8 C :   -0.043630
   9 C :    0.112208
  10 C :   -0.085622
  11 C :   -0.021764
  12 S :    0.190867
  13 C :   -0.124533
  14 C :    0.045341
  15 Br:    0.033495
  16 C :    0.186218
  17 O :   -0.174101
  18 C :   -0.026738
  19 C :   -0.042767
  20 C :    0.144551
  21 C :   -0.108686
  22 C :    0.162904
  23 O :   -0.193777
  24 O :   -0.160710
  25 C :   -0.039839
  26 N :    0.013764
  27 O :   -0.137175
  28 C :    0.110695
  29 C :    0.175102
  30 O :   -0.251454
  31 C :    0.226311
  32 C :    0.232730
  33 C :   -0.167027
  34 S :    0.130415
  35 C :   -0.171668
  36 O :   -0.335685
  37 C :    0.002465
  38 C :    0.031480
  39 C :   -0.073596
  40 C :    0.184530
  41 O :   -0.139215
  42 O :   -0.254315
  43 C :    0.156911
  44 C :   -0.091350
  45 C :    0.103129
  46 C :    0.103451
  47 C :   -0.057920
  48 C :    0.166580
  49 O :   -0.277471
  50 C :    0.215107
  51 O :   -0.154707
  52 C :   -0.105076
  53 C :    0.001782
  54 C :   -0.084829
  55 C :    0.292466
  56 C :   -0.334001
  57 C :   -0.178363
  58 N :    0.164628
  59 C :   -0.153557
  60 N :    0.137664
  61 C :   -0.006016
  62 C :    0.004445
  63 C :    0.135682
  64 O :   -0.127132
  65 C :   -0.064967
  66 C :    0.113268
  67 C :   -0.088573
  68 C :   -0.016459
  69 S :    0.192685
  70 C :   -0.126559
  71 C :    0.046478
  72 Br:    0.036311
  73 H :   -0.051384
  74 H :   -0.004528
  75 H :    0.014260
  76 H :    0.062996
  77 H :    0.192260
  78 H :    0.035161
  79 H :    0.033909
  80 H :    0.005966
  81 H :    0.037579
  82 H :    0.030664
  83 H :    0.026641
  84 H :    0.027099
  85 H :    0.009007
  86 H :    0.010730
  87 H :    0.018145
  88 H :    0.002766
  89 H :    0.015638
  90 H :    0.047662
  91 H :    0.046028
  92 H :    0.038389
  93 H :   -0.001938
  94 H :   -0.001474
  95 H :    0.002122
Sum of atomic charges:   -0.0000000

LOEWDIN ATOMIC CHARGES
----------------------
   0 C :    0.074061
   1 C :   -0.117223
   2 C :   -0.016907
   3 N :   -0.038190
   4 C :   -0.017373
   5 N :   -0.036237
   6 C :   -0.018472
   7 C :   -0.058546
   8 C :    0.031234
   9 C :   -0.026024
  10 C :   -0.139058
  11 C :   -0.007461
  12 S :    0.435427
  13 C :   -0.268741
  14 C :   -0.060020
  15 Br:    0.144980
  16 C :    0.105783
  17 O :   -0.147602
  18 C :   -0.043976
  19 C :    0.064814
  20 C :    0.076475
  21 C :   -0.144855
  22 C :    0.079638
  23 O :   -0.172495
  24 O :   -0.027673
  25 C :   -0.038034
  26 N :   -0.021099
  27 O :    0.065409
  28 C :   -0.005161
  29 C :    0.053601
  30 O :   -0.051918
  31 C :   -0.007096
  32 C :   -0.009000
  33 C :   -0.202847
  34 S :    0.455299
  35 C :   -0.201861
  36 O :   -0.066011
  37 C :   -0.040364
  38 C :    0.021823
  39 C :   -0.053815
  40 C :    0.079671
  41 O :   -0.131747
  42 O :   -0.068266
  43 C :    0.066599
  44 C :   -0.031305
  45 C :   -0.029137
  46 C :   -0.029023
  47 C :   -0.018280
  48 C :    0.064760
  49 O :   -0.058156
  50 C :    0.087510
  51 O :   -0.145775
  52 C :   -0.071546
  53 C :    0.089883
  54 C :   -0.083214
  55 C :    0.074433
  56 C :   -0.135627
  57 C :   -0.020242
  58 N :   -0.039742
  59 C :   -0.012235
  60 N :   -0.045016
  61 C :   -0.022671
  62 C :   -0.053075
  63 C :    0.087665
  64 O :   -0.124459
  65 C :    0.028286
  66 C :   -0.028521
  67 C :   -0.141808
  68 C :   -0.009364
  69 S :    0.438135
  70 C :   -0.267789
  71 C :   -0.068364
  72 Br:    0.146594
  73 H :    0.035842
  74 H :    0.041994
  75 H :    0.044826
  76 H :    0.058233
  77 H :    0.063103
  78 H :    0.033976
  79 H :    0.033060
  80 H :    0.038624
  81 H :    0.023960
  82 H :    0.047145
  83 H :    0.032109
  84 H :    0.041533
  85 H :    0.034232
  86 H :    0.027050
  87 H :    0.030941
  88 H :    0.028642
  89 H :    0.035627
  90 H :    0.027976
  91 H :    0.046848
  92 H :    0.048338
  93 H :    0.044649
  94 H :    0.041430
  95 H :    0.041203

  Mayer bond orders larger than 0.100000
B(  0-C ,  1-C ) :   1.6839 B(  0-C ,  6-C ) :   1.0244 B(  0-C , 18-C ) :   1.0076
B(  1-C ,  2-C ) :   1.1339 B(  1-C ,  4-C ) :   1.1454 B(  2-C ,  3-N ) :   2.9759
B(  4-C ,  5-N ) :   2.9754 B(  6-C ,  7-C ) :   1.2511 B(  6-C , 11-C ) :   1.4014
B(  7-C ,  8-C ) :   1.3980 B(  7-C , 16-C ) :   0.9725 B(  8-C ,  9-C ) :   1.2742
B(  8-C , 73-H ) :   1.0161 B(  9-C , 10-C ) :   1.2786 B(  9-C , 14-C ) :   1.1742
B( 10-C , 11-C ) :   1.3351 B( 10-C , 12-S ) :   1.0953 B( 11-C , 74-H ) :   0.9828
B( 12-S , 13-C ) :   1.0785 B( 13-C , 14-C ) :   1.6040 B( 13-C , 15-Br) :   1.0270
B( 14-C , 75-H ) :   0.9940 B( 16-C , 17-O ) :   2.0859 B( 16-C , 18-C ) :   0.9410
B( 18-C , 19-C ) :   1.8182 B( 19-C , 20-C ) :   0.9707 B( 19-C , 76-H ) :   0.9212
B( 20-C , 21-C ) :   1.5279 B( 20-C , 27-O ) :   1.2035 B( 21-C , 22-C ) :   0.9098
B( 21-C , 25-C ) :   1.1586 B( 22-C , 23-O ) :   2.1185 B( 22-C , 24-O ) :   1.3044
B( 24-O , 77-H ) :   0.9156 B( 25-C , 26-N ) :   1.7109 B( 25-C , 28-C ) :   0.9990
B( 26-N , 27-O ) :   1.0047 B( 28-C , 29-C ) :   1.6310 B( 28-C , 36-O ) :   0.9908
B( 29-C , 30-O ) :   1.0547 B( 29-C , 37-C ) :   1.0837 B( 30-O , 31-C ) :   1.0507
B( 31-C , 32-C ) :   1.2184 B( 31-C , 35-C ) :   1.5739 B( 32-C , 33-C ) :   1.5728
B( 32-C , 36-O ) :   0.9749 B( 33-C , 34-S ) :   1.1505 B( 33-C , 78-H ) :   0.9734
B( 34-S , 35-C ) :   1.1528 B( 35-C , 79-H ) :   0.9711 B( 37-C , 38-C ) :   1.8518
B( 37-C , 80-H ) :   0.9431 B( 38-C , 39-C ) :   1.0200 B( 38-C , 81-H ) :   0.9323
B( 39-C , 40-C ) :   0.8859 B( 39-C , 44-C ) :   0.9880 B( 39-C , 82-H ) :   0.9120
B( 40-C , 41-O ) :   2.2603 B( 40-C , 42-O ) :   1.1210 B( 42-O , 43-C ) :   0.9757
B( 43-C , 44-C ) :   1.0185 B( 43-C , 48-C ) :   0.9743 B( 43-C , 83-H ) :   0.9154
B( 44-C , 45-C ) :   1.0699 B( 44-C , 84-H ) :   0.9070 B( 45-C , 46-C ) :   1.0598
B( 45-C , 85-H ) :   0.9185 B( 45-C , 86-H ) :   0.9304 B( 46-C , 47-C ) :   1.0752
B( 46-C , 87-H ) :   0.9255 B( 46-C , 88-H ) :   0.9197 B( 47-C , 48-C ) :   1.0150
B( 47-C , 52-C ) :   0.9808 B( 47-C , 89-H ) :   0.9041 B( 48-C , 49-O ) :   0.9135
B( 48-C , 90-H ) :   0.8951 B( 49-O , 50-C ) :   1.1157 B( 50-C , 51-O ) :   2.2128
B( 50-C , 52-C ) :   0.8734 B( 52-C , 53-C ) :   1.0099 B( 52-C , 91-H ) :   0.8512
B( 53-C , 54-C ) :   1.8336 B( 53-C , 92-H ) :   0.9255 B( 54-C , 55-C ) :   0.9723
B( 54-C , 63-C ) :   0.9187 B( 55-C , 56-C ) :   1.6671 B( 55-C , 61-C ) :   1.0244
B( 56-C , 57-C ) :   1.1155 B( 56-C , 59-C ) :   1.1739 B( 57-C , 58-N ) :   2.9923
B( 59-C , 60-N ) :   2.8775 B( 61-C , 62-C ) :   1.2717 B( 61-C , 68-C ) :   1.4011
B( 62-C , 63-C ) :   0.9248 B( 62-C , 65-C ) :   1.4216 B( 63-C , 64-O ) :   2.2720
B( 65-C , 66-C ) :   1.2557 B( 65-C , 93-H ) :   1.0163 B( 66-C , 67-C ) :   1.2936
B( 66-C , 71-C ) :   1.1685 B( 67-C , 68-C ) :   1.3418 B( 67-C , 69-S ) :   1.0879
B( 68-C , 94-H ) :   0.9812 B( 69-S , 70-C ) :   1.0882 B( 70-C , 71-C ) :   1.6140
B( 70-C , 72-Br) :   1.0267 B( 71-C , 95-H ) :   0.9998

-----------------------------------------------------------------------------
         ABSORPTION SPECTRUM VIA TRANSITION ELECTRIC DIPOLE MOMENTS
-----------------------------------------------------------------------------
State   Energy  Wavelength   fosc         T2         TX        TY        TZ
        (cm-1)    (nm)                  (au**2)     (au)      (au)      (au)
-----------------------------------------------------------------------------
   0   26749.8    373.8   0.305957202   3.76545   1.79344  -0.70367  -0.23208
   1   26857.2    372.3   0.006291393   0.07712   0.05536   0.21832  -0.16245
   2   27281.2    366.6   0.001179678   0.01424   0.07834  -0.05247   0.07311
   3   28158.9    355.1   0.404407963   4.72802   0.16660   1.48564   1.57897
   4   29045.2    344.3   0.000253338   0.00287   0.03819  -0.03013  -0.02247
   5   29573.5    338.1   0.029263002   0.32576   0.35011   0.12787  -0.43224
   6   30699.6    325.7   0.180136515   1.93172  -0.29022  -1.18610  -0.66383
   7   31322.6    319.3   0.008873518   0.09326  -0.28694   0.06780   0.07957
   8   31424.6    318.2   0.033380305   0.34970   0.47983   0.18603  -0.29131
   9   31488.5    317.6   0.118923397   1.24334   0.04503   0.77878  -0.79676
  10   31832.6    314.1   0.055881065   0.57792  -0.52045   0.54854  -0.07845
  11   32056.3    312.0   0.616831453   6.33474   2.14238  -1.32095   0.00706
  12   33261.4    300.6   0.098374040   0.97368   0.63284  -0.65390   0.38158
  13   33469.3    298.8   0.068766946   0.67641   0.13334   0.50390   0.63617
  14   33497.8    298.5   0.078185394   0.76839   0.09761   0.72773  -0.47883
  15   34550.0    289.4   0.218431480   2.08134   0.34407   1.04969   0.92796
  16   35134.3    284.6   0.199066389   1.86527  -0.16718   1.30199  -0.37701
  17   35530.5    281.4   0.008537477   0.07911   0.01281  -0.26561   0.09160
  18   35980.9    277.9   0.254115181   2.32506   1.22510  -0.05033  -0.90645
  19   36000.9    277.8   0.054302969   0.49658   0.23765  -0.65756   0.08779
  20   36441.4    274.4   0.002618301   0.02365   0.12837   0.05646  -0.06315
  21   36973.1    270.5   0.222482073   1.98100  -0.81024  -0.39704   1.08021
  22   37651.2    265.6   0.047627277   0.41644  -0.28943  -0.21680   0.53448
  23   37909.0    263.8   0.001134813   0.00986  -0.00471  -0.05552   0.08216
  24   37940.7    263.6   0.134077183   1.16339   0.21893  -0.73054   0.76274
  25   38360.6    260.7   0.000536517   0.00460  -0.02278  -0.04533   0.04506
  26   38411.0    260.3   0.000760134   0.00651  -0.02288  -0.07314  -0.02535
  27   38977.0    256.6   0.045830528   0.38710   0.13135   0.45912   0.39882
  28   39075.9    255.9   0.019233529   0.16204  -0.25471  -0.11852   0.28830
  29   39368.5    254.0   0.033929114   0.28373  -0.04463  -0.31709  -0.42566
  30   40035.8    249.8   0.366958322   3.01748  -0.77406  -0.81708   1.32314
  31   40249.6    248.4   0.000936717   0.00766   0.07082   0.04307  -0.02811

FINAL SINGLE POINT ENERGY     -9434.820436713437

DIPOLE MOMENT
-------------
                                X             Y             Z
Electronic contribution:    -99.24473     -59.71699      -9.30135
Nuclear contribution   :     98.25542      59.45414       5.12612
                        -----------------------------------------
Total Dipole Moment    :     -0.98931      -0.26285      -4.17523
                        -----------------------------------------
Magnitude (a.u.)       :      4.29888
Magnitude (Debye)      :     10.92689

Rotational constants in cm-1:     0.000748     0.000499     0.000395
Rotational constants in MHz :    22.430459    14.946591    11.831212

                             ****ORCA TERMINATED NORMALLY****
TOTAL RUN TIME: 0 days 0 hours 16 minutes 2 seconds 402 msec
