                         Program Version 4.2.0 -  RELEASE  -
|  1> # ORCA input file
|  2> # SCF done       -170.992423315401          0.000675035288
|  3> ! CAM-B3LYP def2-SVP def2/J RIJCOSX Grid4 TightSCF
|  4> %maxcore 5000
|  5> %tddft
|  6>     Mode sTDDFT
|  7>     Ethresh 5.0
|  8>     maxcore 5000
|  9> end
| 10>
| 11> %pal
| 12>   nprocs 6
| 13>   end
| 14> * xyz 0 1
| 15>    C       -8.22819        -4.73124        -9.17262
| 16>    C       -8.65369        -5.82388        -8.43607
| 17>    C       -8.47026        -7.15931        -8.82232
| 18>    N       -8.33914        -8.27956        -9.05432
| 19>    C       -9.30881        -5.77453        -7.19286
| 20>    N       -9.81585        -5.84821        -6.16242
| 21>    C       -7.46957        -4.81966       -10.42073
| 22>    C       -7.21083        -3.50781       -10.88364
| 23>    C       -6.50120        -3.25286       -12.02852
| 24>    C       -6.01691        -4.34911       -12.75423
| 25>    C       -6.27254        -5.65351       -12.27923
| 26>    C       -6.99531        -5.91122       -11.11865
| 27>    S       -5.57558        -6.86062       -13.31947
| 28>    C       -4.96360        -5.60851       -14.36775
| 29>    C       -5.26210        -4.35324       -13.96017
| 30>   Br       -3.98744        -6.07971       -15.90075
| 31>    C       -7.80317        -2.53789        -9.93219
| 32>    O       -7.76058        -1.32524       -10.02453
| 33>    C       -8.41556        -3.34989        -8.87099
| 34>    C       -9.04776        -2.82732        -7.74549
| 35>    C       -9.28797        -1.49438        -7.49121
| 36>    C       -9.91523        -1.07496        -6.31523
| 37>    C      -10.35575         0.20870        -5.96846
| 38>    C      -10.97811         0.27622        -4.73995
| 39>    C      -11.01945        -0.94879        -4.07184
| 40>    S      -10.27414        -2.19984        -5.03231
| 41>    C      -11.52304        -1.29196        -2.80923
| 42>    C      -12.25037        -0.55597        -1.86799
| 43>    C      -12.56480        -1.27681        -0.73652
| 44>    C      -12.06345        -2.58684        -0.73283
| 45>    S      -11.22282        -2.89701        -2.22911
| 46>    C      -12.25141        -3.58550         0.22647
| 47>    C      -11.55477        -4.78034         0.23529
| 48>    S      -12.12715        -6.25133         1.04111
| 49>    C      -10.86420        -7.29005         0.35359
| 50>    C       -9.91910        -6.45195        -0.30276
| 51>    C      -10.33565        -5.10752        -0.37941
| 52>    O       -9.38982        -4.33913        -0.93477
| 53>    C       -8.35837        -5.17261        -1.22183
| 54>    N       -7.23667        -4.63399        -1.87119
| 55>    O       -6.31857        -5.40202        -2.11270
| 56>    O       -7.25583        -3.45231        -2.16346
| 57>    C       -8.61520        -6.47046        -0.84251
| 58>    C      -10.98406        -8.65692         0.43083
| 59>    C      -10.35986        -9.59177        -0.40807
| 60>    C      -10.46527       -10.98633        -0.35373
| 61>    C       -9.85420       -11.64368        -1.40379
| 62>    C       -9.25542       -10.78271        -2.32305
| 63>    S       -9.47653        -9.12617        -1.83324
| 64>    C       -8.53531       -11.01433        -3.50331
| 65>    C       -8.20137       -12.20284        -4.16326
| 66>    C       -7.46998       -12.00141        -5.30904
| 67>    C       -7.19863       -10.64920        -5.59297
| 68>    S       -7.90862        -9.63491        -4.36247
| 69>    C       -6.48953       -10.13969        -6.66873
| 70>    C       -6.22428        -8.79890        -6.92692
| 71>    C       -5.55002        -8.27719        -8.04047
| 72>    C       -5.45780        -6.90148        -8.04379
| 73>    C       -6.06148        -6.30444        -6.93890
| 74>    S       -6.72732        -7.49672        -5.87182
| 75>    C       -6.15729        -4.93286        -6.60608
| 76>    C       -6.78084        -4.38710        -5.50413
| 77>    C       -6.70562        -2.99072        -5.46223
| 78>    C       -6.03303        -2.46940        -6.52874
| 79>    S       -5.47440        -3.67534        -7.60965
| 80>    H       -6.32037        -2.24143       -12.35703
| 81>    H       -7.16420        -6.92600       -10.79968
| 82>    H       -4.96422        -3.46469       -14.48640
| 83>    H       -9.39467        -3.53402        -7.00138
| 84>    H       -9.01095        -0.74787        -8.22070
| 85>    H      -10.22122         1.05053        -6.62428
| 86>    H      -11.38431         1.17800        -4.31729
| 87>    H      -12.53886         0.46684        -2.03132
| 88>    H      -13.12610        -0.88130         0.09190
| 89>    H      -13.02652        -3.43895         0.96570
| 90>    H       -7.92313        -7.27992        -0.93637
| 91>    H      -11.71347        -9.05077         1.12627
| 92>    H      -10.98246       -11.48614         0.44623
| 93>    H       -9.83747       -12.71293        -1.51573
| 94>    H       -8.49830       -13.16924        -3.79698
| 95>    H       -7.12230       -12.79295        -5.94920
| 96>    H       -6.11579       -10.85330        -7.39151
| 97>    H       -5.15932        -8.91039        -8.81655
| 98>    H       -4.98480        -6.32071        -8.81678
| 99>    H       -7.27404        -4.99426        -4.76748
|100>    H       -7.11810        -2.40058        -4.66429
|101>    H       -5.83089        -1.44041        -6.75038
|102> *
|103>
|104>                          ****END OF INPUT****

CARTESIAN COORDINATES (ANGSTROEM)
---------------------------------
  C     -8.228190   -4.731240   -9.172620
  C     -8.653690   -5.823880   -8.436070
  C     -8.470260   -7.159310   -8.822320
  N     -8.339140   -8.279560   -9.054320
  C     -9.308810   -5.774530   -7.192860
  N     -9.815850   -5.848210   -6.162420
  C     -7.469570   -4.819660  -10.420730
  C     -7.210830   -3.507810  -10.883640
  C     -6.501200   -3.252860  -12.028520
  C     -6.016910   -4.349110  -12.754230
  C     -6.272540   -5.653510  -12.279230
  C     -6.995310   -5.911220  -11.118650
  S     -5.575580   -6.860620  -13.319470
  C     -4.963600   -5.608510  -14.367750
  C     -5.262100   -4.353240  -13.960170
  Br    -3.987440   -6.079710  -15.900750
  C     -7.803170   -2.537890   -9.932190
  O     -7.760580   -1.325240  -10.024530
  C     -8.415560   -3.349890   -8.870990
  C     -9.047760   -2.827320   -7.745490
  C     -9.287970   -1.494380   -7.491210
  C     -9.915230   -1.074960   -6.315230
  C    -10.355750    0.208700   -5.968460
  C    -10.978110    0.276220   -4.739950
  C    -11.019450   -0.948790   -4.071840
  S    -10.274140   -2.199840   -5.032310
  C    -11.523040   -1.291960   -2.809230
  C    -12.250370   -0.555970   -1.867990
  C    -12.564800   -1.276810   -0.736520
  C    -12.063450   -2.586840   -0.732830
  S    -11.222820   -2.897010   -2.229110
  C    -12.251410   -3.585500    0.226470
  C    -11.554770   -4.780340    0.235290
  S    -12.127150   -6.251330    1.041110
  C    -10.864200   -7.290050    0.353590
  C     -9.919100   -6.451950   -0.302760
  C    -10.335650   -5.107520   -0.379410
  O     -9.389820   -4.339130   -0.934770
  C     -8.358370   -5.172610   -1.221830
  N     -7.236670   -4.633990   -1.871190
  O     -6.318570   -5.402020   -2.112700
  O     -7.255830   -3.452310   -2.163460
  C     -8.615200   -6.470460   -0.842510
  C    -10.984060   -8.656920    0.430830
  C    -10.359860   -9.591770   -0.408070
  C    -10.465270  -10.986330   -0.353730
  C     -9.854200  -11.643680   -1.403790
  C     -9.255420  -10.782710   -2.323050
  S     -9.476530   -9.126170   -1.833240
  C     -8.535310  -11.014330   -3.503310
  C     -8.201370  -12.202840   -4.163260
  C     -7.469980  -12.001410   -5.309040
  C     -7.198630  -10.649200   -5.592970
  S     -7.908620   -9.634910   -4.362470
  C     -6.489530  -10.139690   -6.668730
  C     -6.224280   -8.798900   -6.926920
  C     -5.550020   -8.277190   -8.040470
  C     -5.457800   -6.901480   -8.043790
  C     -6.061480   -6.304440   -6.938900
  S     -6.727320   -7.496720   -5.871820
  C     -6.157290   -4.932860   -6.606080
  C     -6.780840   -4.387100   -5.504130
  C     -6.705620   -2.990720   -5.462230
  C     -6.033030   -2.469400   -6.528740
  S     -5.474400   -3.675340   -7.609650
  H     -6.320370   -2.241430  -12.357030
  H     -7.164200   -6.926000  -10.799680
  H     -4.964220   -3.464690  -14.486400
  H     -9.394670   -3.534020   -7.001380
  H     -9.010950   -0.747870   -8.220700
  H    -10.221220    1.050530   -6.624280
  H    -11.384310    1.178000   -4.317290
  H    -12.538860    0.466840   -2.031320
  H    -13.126100   -0.881300    0.091900
  H    -13.026520   -3.438950    0.965700
  H     -7.923130   -7.279920   -0.936370
  H    -11.713470   -9.050770    1.126270
  H    -10.982460  -11.486140    0.446230
  H     -9.837470  -12.712930   -1.515730
  H     -8.498300  -13.169240   -3.796980
  H     -7.122300  -12.792950   -5.949200
  H     -6.115790  -10.853300   -7.391510
  H     -5.159320   -8.910390   -8.816550
  H     -4.984800   -6.320710   -8.816780
  H     -7.274040   -4.994260   -4.767480
  H     -7.118100   -2.400580   -4.664290
  H     -5.830890   -1.440410   -6.750380

 Total Charge           Charge          ....    0
 Multiplicity           Mult            ....    1
 Number of Electrons    NEL             ....  532
 Basis Dimension        Dim             .... 1070

ORBITAL ENERGIES
----------------

  NO   OCC          E(Eh)            E(eV)
   0   2.0000    -482.871109    -13139.5909
   1   2.0000     -88.966728     -2420.9078
   2   2.0000     -88.963970     -2420.8327
   3   2.0000     -88.961921     -2420.7769
   4   2.0000     -88.958876     -2420.6941
   5   2.0000     -88.957368     -2420.6531
   6   2.0000     -88.957238     -2420.6495
   7   2.0000     -88.947880     -2420.3949
   8   2.0000     -88.941534     -2420.2222
   9   2.0000     -62.548827     -1702.0401
  10   2.0000     -56.382751     -1534.2527
  11   2.0000     -56.380089     -1534.1802
  12   2.0000     -56.380034     -1534.1787
  13   2.0000     -19.317648      -525.6599
  14   2.0000     -19.239885      -523.5439
  15   2.0000     -19.237933      -523.4908
  16   2.0000     -19.183632      -522.0132
  17   2.0000     -14.652074      -398.7032
  18   2.0000     -14.385968      -391.4621
  19   2.0000     -14.385590      -391.4518
  20   2.0000     -10.380624      -282.4712
  21   2.0000     -10.360558      -281.9251
  22   2.0000     -10.339726      -281.3582
  23   2.0000     -10.332498      -281.1616
  24   2.0000     -10.332170      -281.1527
  25   2.0000     -10.332117      -281.1512
  26   2.0000     -10.331247      -281.1275
  27   2.0000     -10.322185      -280.8809
  28   2.0000     -10.318655      -280.7849
  29   2.0000     -10.316983      -280.7394
  30   2.0000     -10.316526      -280.7269
  31   2.0000     -10.315665      -280.7035
  32   2.0000     -10.313882      -280.6550
  33   2.0000     -10.312625      -280.6208
  34   2.0000     -10.312391      -280.6144
  35   2.0000     -10.307032      -280.4686
  36   2.0000     -10.303145      -280.3628
  37   2.0000     -10.303001      -280.3589
  38   2.0000     -10.302921      -280.3567
  39   2.0000     -10.302795      -280.3533
  40   2.0000     -10.302354      -280.3413
  41   2.0000     -10.300989      -280.3042
  42   2.0000     -10.299357      -280.2598
  43   2.0000     -10.298070      -280.2247
  44   2.0000     -10.297121      -280.1989
  45   2.0000     -10.296547      -280.1833
  46   2.0000     -10.296045      -280.1696
  47   2.0000     -10.293877      -280.1106
  48   2.0000     -10.293263      -280.0939
  49   2.0000     -10.293212      -280.0925
  50   2.0000     -10.291857      -280.0557
  51   2.0000     -10.291237      -280.0388
  52   2.0000     -10.286953      -279.9222
  53   2.0000     -10.286858      -279.9196
  54   2.0000     -10.284383      -279.8523
  55   2.0000     -10.283551      -279.8296
  56   2.0000     -10.280688      -279.7517
  57   2.0000     -10.279925      -279.7310
  58   2.0000     -10.279210      -279.7115
  59   2.0000     -10.277881      -279.6754
  60   2.0000     -10.277169      -279.6560
  61   2.0000     -10.276136      -279.6279
  62   2.0000     -10.273435      -279.5544
  63   2.0000     -10.265774      -279.3459
  64   2.0000     -10.264683      -279.3162
  65   2.0000     -10.264550      -279.3126
  66   2.0000     -10.263702      -279.2895
  67   2.0000     -10.251688      -278.9626
  68   2.0000     -10.251175      -278.9487
  69   2.0000      -8.778247      -238.8682
  70   2.0000      -8.062699      -219.3972
  71   2.0000      -8.059072      -219.2985
  72   2.0000      -8.057939      -219.2677
  73   2.0000      -8.054583      -219.1763
  74   2.0000      -8.053396      -219.1441
  75   2.0000      -8.051783      -219.1002
  76   2.0000      -8.044227      -218.8945
  77   2.0000      -8.036950      -218.6965
  78   2.0000      -6.614443      -179.9881
  79   2.0000      -6.599984      -179.5947
  80   2.0000      -6.599906      -179.5926
  81   2.0000      -6.032179      -164.1439
  82   2.0000      -6.028551      -164.0452
  83   2.0000      -6.027913      -164.0278
  84   2.0000      -6.027372      -164.0131
  85   2.0000      -6.024561      -163.9366
  86   2.0000      -6.024293      -163.9293
  87   2.0000      -6.024286      -163.9292
  88   2.0000      -6.023117      -163.8974
  89   2.0000      -6.023093      -163.8967
  90   2.0000      -6.021164      -163.8442
  91   2.0000      -6.020790      -163.8340
  92   2.0000      -6.020501      -163.8262
  93   2.0000      -6.019645      -163.8029
  94   2.0000      -6.018846      -163.7811
  95   2.0000      -6.016738      -163.7238
  96   2.0000      -6.015091      -163.6790
  97   2.0000      -6.014624      -163.6662
  98   2.0000      -6.014196      -163.6546
  99   2.0000      -6.013600      -163.6384
 100   2.0000      -6.009356      -163.5229
 101   2.0000      -6.006299      -163.4397
 102   2.0000      -6.005895      -163.4287
 103   2.0000      -6.002265      -163.3299
 104   2.0000      -5.998794      -163.2355
 105   2.0000      -2.730323       -74.2959
 106   2.0000      -2.726260       -74.1853
 107   2.0000      -2.726190       -74.1834
 108   2.0000      -2.714715       -73.8712
 109   2.0000      -2.714695       -73.8706
 110   2.0000      -1.321042       -35.9474
 111   2.0000      -1.239988       -33.7418
 112   2.0000      -1.136317       -30.9208
 113   2.0000      -1.096201       -29.8292
 114   2.0000      -1.013471       -27.5780
 115   2.0000      -1.004153       -27.3244
 116   2.0000      -0.999139       -27.1880
 117   2.0000      -0.998071       -27.1589
 118   2.0000      -0.992112       -26.9967
 119   2.0000      -0.985970       -26.8296
 120   2.0000      -0.983652       -26.7665
 121   2.0000      -0.973029       -26.4775
 122   2.0000      -0.967751       -26.3338
 123   2.0000      -0.965809       -26.2810
 124   2.0000      -0.960192       -26.1282
 125   2.0000      -0.938694       -25.5432
 126   2.0000      -0.917363       -24.9627
 127   2.0000      -0.912528       -24.8311
 128   2.0000      -0.903960       -24.5980
 129   2.0000      -0.894247       -24.3337
 130   2.0000      -0.886804       -24.1312
 131   2.0000      -0.881214       -23.9791
 132   2.0000      -0.874020       -23.7833
 133   2.0000      -0.863755       -23.5040
 134   2.0000      -0.862098       -23.4589
 135   2.0000      -0.858027       -23.3481
 136   2.0000      -0.852999       -23.2113
 137   2.0000      -0.844689       -22.9852
 138   2.0000      -0.839223       -22.8364
 139   2.0000      -0.832753       -22.6604
 140   2.0000      -0.828241       -22.5376
 141   2.0000      -0.821299       -22.3487
 142   2.0000      -0.815017       -22.1777
 143   2.0000      -0.812263       -22.1028
 144   2.0000      -0.806196       -21.9377
 145   2.0000      -0.801069       -21.7982
 146   2.0000      -0.789311       -21.4782
 147   2.0000      -0.780589       -21.2409
 148   2.0000      -0.762268       -20.7424
 149   2.0000      -0.750057       -20.4101
 150   2.0000      -0.737575       -20.0704
 151   2.0000      -0.728656       -19.8277
 152   2.0000      -0.714532       -19.4434
 153   2.0000      -0.711562       -19.3626
 154   2.0000      -0.693097       -18.8601
 155   2.0000      -0.690036       -18.7768
 156   2.0000      -0.684800       -18.6344
 157   2.0000      -0.671491       -18.2722
 158   2.0000      -0.668055       -18.1787
 159   2.0000      -0.665568       -18.1110
 160   2.0000      -0.661485       -17.9999
 161   2.0000      -0.654592       -17.8124
 162   2.0000      -0.647126       -17.6092
 163   2.0000      -0.640453       -17.4276
 164   2.0000      -0.640100       -17.4180
 165   2.0000      -0.637029       -17.3344
 166   2.0000      -0.632408       -17.2087
 167   2.0000      -0.631833       -17.1930
 168   2.0000      -0.624260       -16.9870
 169   2.0000      -0.623494       -16.9661
 170   2.0000      -0.615440       -16.7470
 171   2.0000      -0.614841       -16.7307
 172   2.0000      -0.609953       -16.5977
 173   2.0000      -0.608995       -16.5716
 174   2.0000      -0.603005       -16.4086
 175   2.0000      -0.599614       -16.3163
 176   2.0000      -0.598623       -16.2894
 177   2.0000      -0.594866       -16.1871
 178   2.0000      -0.580724       -15.8023
 179   2.0000      -0.576120       -15.6770
 180   2.0000      -0.571327       -15.5466
 181   2.0000      -0.569034       -15.4842
 182   2.0000      -0.567400       -15.4397
 183   2.0000      -0.562920       -15.3178
 184   2.0000      -0.548571       -14.9274
 185   2.0000      -0.544994       -14.8301
 186   2.0000      -0.542496       -14.7621
 187   2.0000      -0.534451       -14.5432
 188   2.0000      -0.532316       -14.4850
 189   2.0000      -0.526908       -14.3379
 190   2.0000      -0.522742       -14.2245
 191   2.0000      -0.520380       -14.1603
 192   2.0000      -0.517513       -14.0822
 193   2.0000      -0.512108       -13.9352
 194   2.0000      -0.510959       -13.9039
 195   2.0000      -0.505255       -13.7487
 196   2.0000      -0.503970       -13.7137
 197   2.0000      -0.502758       -13.6808
 198   2.0000      -0.501409       -13.6440
 199   2.0000      -0.498251       -13.5581
 200   2.0000      -0.493523       -13.4295
 201   2.0000      -0.491906       -13.3855
 202   2.0000      -0.489450       -13.3186
 203   2.0000      -0.487975       -13.2785
 204   2.0000      -0.486872       -13.2485
 205   2.0000      -0.483172       -13.1478
 206   2.0000      -0.478769       -13.0280
 207   2.0000      -0.478348       -13.0165
 208   2.0000      -0.476139       -12.9564
 209   2.0000      -0.474298       -12.9063
 210   2.0000      -0.473620       -12.8879
 211   2.0000      -0.469643       -12.7796
 212   2.0000      -0.467831       -12.7303
 213   2.0000      -0.463649       -12.6165
 214   2.0000      -0.462939       -12.5972
 215   2.0000      -0.461355       -12.5541
 216   2.0000      -0.455536       -12.3958
 217   2.0000      -0.451642       -12.2898
 218   2.0000      -0.451013       -12.2727
 219   2.0000      -0.448592       -12.2068
 220   2.0000      -0.447280       -12.1711
 221   2.0000      -0.443686       -12.0733
 222   2.0000      -0.440510       -11.9869
 223   2.0000      -0.435393       -11.8477
 224   2.0000      -0.430279       -11.7085
 225   2.0000      -0.429172       -11.6784
 226   2.0000      -0.426904       -11.6167
 227   2.0000      -0.425200       -11.5703
 228   2.0000      -0.424733       -11.5576
 229   2.0000      -0.421681       -11.4745
 230   2.0000      -0.420144       -11.4327
 231   2.0000      -0.417403       -11.3581
 232   2.0000      -0.417222       -11.3532
 233   2.0000      -0.414219       -11.2715
 234   2.0000      -0.403337       -10.9753
 235   2.0000      -0.400357       -10.8943
 236   2.0000      -0.396559       -10.7909
 237   2.0000      -0.392884       -10.6909
 238   2.0000      -0.390759       -10.6331
 239   2.0000      -0.388185       -10.5631
 240   2.0000      -0.386944       -10.5293
 241   2.0000      -0.381968       -10.3939
 242   2.0000      -0.380235       -10.3467
 243   2.0000      -0.377710       -10.2780
 244   2.0000      -0.369048       -10.0423
 245   2.0000      -0.367629       -10.0037
 246   2.0000      -0.367037        -9.9876
 247   2.0000      -0.361077        -9.8254
 248   2.0000      -0.353240        -9.6122
 249   2.0000      -0.349790        -9.5183
 250   2.0000      -0.341519        -9.2932
 251   2.0000      -0.337638        -9.1876
 252   2.0000      -0.333920        -9.0864
 253   2.0000      -0.326496        -8.8844
 254   2.0000      -0.325505        -8.8574
 255   2.0000      -0.320878        -8.7315
 256   2.0000      -0.314006        -8.5445
 257   2.0000      -0.310545        -8.4504
 258   2.0000      -0.303597        -8.2613
 259   2.0000      -0.298592        -8.1251
 260   2.0000      -0.293017        -7.9734
 261   2.0000      -0.281893        -7.6707
 262   2.0000      -0.270947        -7.3728
 263   2.0000      -0.263186        -7.1617
 264   2.0000      -0.220511        -6.0004
 265   2.0000      -0.197867        -5.3842
 266   0.0000      -0.112971        -3.0741
 267   0.0000      -0.085725        -2.3327
 268   0.0000      -0.057784        -1.5724
 269   0.0000      -0.043762        -1.1908
 270   0.0000      -0.027943        -0.7604

MULLIKEN ATOMIC CHARGES
-----------------------
   0 C :    0.339180
   1 C :   -0.375149
   2 C :   -0.188213
   3 N :    0.102369
   4 C :   -0.223837
   5 N :    0.131972
   6 C :    0.012288
   7 C :    0.001639
   8 C :   -0.095101
   9 C :    0.120714
  10 C :   -0.088945
  11 C :   -0.059567
  12 S :    0.158367
  13 C :   -0.124394
  14 C :    0.035113
  15 Br:    0.003333
  16 C :    0.124686
  17 O :   -0.171802
  18 C :   -0.099099
  19 C :   -0.059852
  20 C :   -0.011523
  21 C :   -0.006293
  22 C :    0.007777
  23 C :    0.033688
  24 C :   -0.051160
  25 S :    0.090323
  26 C :   -0.017564
  27 C :    0.006933
  28 C :    0.046953
  29 C :   -0.086243
  30 S :    0.132013
  31 C :    0.076316
  32 C :   -0.172146
  33 S :    0.111988
  34 C :   -0.110047
  35 C :    0.088108
  36 C :    0.161138
  37 O :   -0.163104
  38 C :    0.220961
  39 N :    0.278427
  40 O :   -0.258400
  41 O :   -0.242214
  42 C :   -0.078096
  43 C :    0.034941
  44 C :   -0.038176
  45 C :    0.014025
  46 C :    0.034896
  47 C :   -0.051614
  48 S :    0.085505
  49 C :    0.002154
  50 C :    0.013190
  51 C :    0.052995
  52 C :   -0.067498
  53 S :    0.099424
  54 C :    0.085503
  55 C :   -0.061870
  56 C :    0.072985
  57 C :   -0.009861
  58 C :    0.027280
  59 S :    0.121152
  60 C :   -0.118520
  61 C :    0.025295
  62 C :    0.059727
  63 C :   -0.036940
  64 S :    0.132387
  65 H :   -0.021579
  66 H :   -0.024930
  67 H :   -0.010071
  68 H :    0.011805
  69 H :    0.003260
  70 H :   -0.015347
  71 H :   -0.018421
  72 H :   -0.016797
  73 H :   -0.012897
  74 H :   -0.003277
  75 H :    0.021402
  76 H :   -0.012628
  77 H :   -0.011823
  78 H :   -0.009754
  79 H :   -0.010877
  80 H :   -0.003373
  81 H :    0.003585
  82 H :   -0.002579
  83 H :    0.006593
  84 H :   -0.002043
  85 H :    0.010063
  86 H :    0.041167
Sum of atomic charges:   -0.0000000

LOEWDIN ATOMIC CHARGES
----------------------
   0 C :    0.052700
   1 C :   -0.186746
   2 C :   -0.016107
   3 N :   -0.106506
   4 C :   -0.024489
   5 N :   -0.093053
   6 C :   -0.015541
   7 C :   -0.048323
   8 C :    0.011681
   9 C :   -0.043512
  10 C :   -0.151525
  11 C :   -0.030839
  12 S :    0.411682
  13 C :   -0.281324
  14 C :   -0.069621
  15 Br:    0.120539
  16 C :    0.074659
  17 O :   -0.167741
  18 C :   -0.127256
  19 C :    0.015774
  20 C :   -0.070493
  21 C :   -0.125524
  22 C :   -0.065180
  23 C :   -0.026422
  24 C :   -0.206386
  25 S :    0.433394
  26 C :   -0.149308
  27 C :   -0.065375
  28 C :   -0.020767
  29 C :   -0.188608
  30 S :    0.456622
  31 C :   -0.028569
  32 C :   -0.208585
  33 S :    0.392464
  34 C :   -0.128408
  35 C :   -0.098615
  36 C :    0.032418
  37 O :    0.026604
  38 C :    0.005944
  39 N :    0.274390
  40 O :   -0.220075
  41 O :   -0.204760
  42 C :   -0.012359
  43 C :   -0.098908
  44 C :   -0.139545
  45 C :   -0.058529
  46 C :   -0.026009
  47 C :   -0.203129
  48 S :    0.453093
  49 C :   -0.144597
  50 C :   -0.058249
  51 C :   -0.006361
  52 C :   -0.183412
  53 S :    0.428311
  54 C :    0.007901
  55 C :   -0.177107
  56 C :    0.011646
  57 C :   -0.064561
  58 C :   -0.120511
  59 S :    0.462860
  60 C :   -0.204538
  61 C :   -0.025572
  62 C :   -0.048353
  63 C :   -0.150072
  64 S :    0.469470
  65 H :    0.036309
  66 H :    0.034388
  67 H :    0.036283
  68 H :    0.024497
  69 H :    0.034198
  70 H :    0.031963
  71 H :    0.030727
  72 H :    0.030655
  73 H :    0.032868
  74 H :    0.039754
  75 H :    0.034637
  76 H :    0.036415
  77 H :    0.032896
  78 H :    0.033949
  79 H :    0.033734
  80 H :    0.037289
  81 H :    0.049293
  82 H :    0.037811
  83 H :    0.032766
  84 H :    0.025615
  85 H :    0.033352
  86 H :    0.029917

  Mayer bond orders larger than 0.100000
B(  0-C ,  1-C ) :   1.4711 B(  0-C ,  6-C ) :   0.9663 B(  0-C , 18-C ) :   1.2240
B(  1-C ,  2-C ) :   1.1748 B(  1-C ,  4-C ) :   1.1835 B(  2-C ,  3-N ) :   2.8707
B(  4-C ,  5-N ) :   2.9201 B(  6-C ,  7-C ) :   1.2826 B(  6-C , 11-C ) :   1.4285
B(  7-C ,  8-C ) :   1.4424 B(  7-C , 16-C ) :   0.9204 B(  8-C ,  9-C ) :   1.2162
B(  8-C , 65-H ) :   1.0176 B(  9-C , 10-C ) :   1.3387 B(  9-C , 14-C ) :   1.1575
B( 10-C , 11-C ) :   1.2914 B( 10-C , 12-S ) :   1.0768 B( 11-C , 66-H ) :   0.9840
B( 12-S , 13-C ) :   1.0806 B( 13-C , 14-C ) :   1.6237 B( 13-C , 15-Br) :   1.0064
B( 14-C , 67-H ) :   1.0006 B( 16-C , 17-O ) :   2.1875 B( 16-C , 18-C ) :   0.9779
B( 18-C , 19-C ) :   1.3220 B( 19-C , 20-C ) :   1.4396 B( 19-C , 68-H ) :   0.9387
B( 20-C , 21-C ) :   1.2352 B( 20-C , 69-H ) :   0.9832 B( 21-C , 22-C ) :   1.3298
B( 21-C , 25-S ) :   1.1145 B( 22-C , 23-C ) :   1.3711 B( 22-C , 70-H ) :   1.0004
B( 23-C , 24-C ) :   1.3837 B( 23-C , 71-H ) :   0.9964 B( 24-C , 25-S ) :   1.0837
B( 24-C , 26-C ) :   1.2428 B( 26-C , 27-C ) :   1.3496 B( 26-C , 30-S ) :   1.1584
B( 27-C , 28-C ) :   1.4111 B( 27-C , 72-H ) :   0.9958 B( 28-C , 29-C ) :   1.3143
B( 28-C , 73-H ) :   0.9962 B( 29-C , 30-S ) :   1.0846 B( 29-C , 31-C ) :   1.3216
B( 31-C , 32-C ) :   1.4283 B( 31-C , 74-H ) :   0.9561 B( 32-C , 33-S ) :   1.0134
B( 32-C , 36-C ) :   1.2486 B( 33-S , 34-C ) :   1.0703 B( 34-C , 35-C ) :   1.1288
B( 34-C , 43-C ) :   1.5019 B( 35-C , 36-C ) :   1.3442 B( 35-C , 42-C ) :   1.1595
B( 36-C , 37-O ) :   1.1612 B( 37-O , 38-C ) :   1.1110 B( 38-C , 39-N ) :   0.9434
B( 38-C , 42-C ) :   1.5154 B( 39-N , 40-O ) :   1.5039 B( 39-N , 41-O ) :   1.4798
B( 40-O , 41-O ) :   0.2630 B( 42-C , 75-H ) :   1.0031 B( 43-C , 44-C ) :   1.2791
B( 43-C , 76-H ) :   0.9499 B( 44-C , 45-C ) :   1.3443 B( 44-C , 48-S ) :   1.1105
B( 45-C , 46-C ) :   1.3831 B( 45-C , 77-H ) :   0.9976 B( 46-C , 47-C ) :   1.3782
B( 46-C , 78-H ) :   0.9954 B( 47-C , 48-S ) :   1.0830 B( 47-C , 49-C ) :   1.2575
B( 49-C , 50-C ) :   1.3364 B( 49-C , 53-S ) :   1.1326 B( 50-C , 51-C ) :   1.4322
B( 50-C , 79-H ) :   0.9967 B( 51-C , 52-C ) :   1.2759 B( 51-C , 80-H ) :   0.9984
B( 52-C , 53-S ) :   1.0578 B( 52-C , 54-C ) :   1.3719 B( 54-C , 55-C ) :   1.3658
B( 54-C , 81-H ) :   0.9697 B( 55-C , 56-C ) :   1.2764 B( 55-C , 59-S ) :   1.0568
B( 56-C , 57-C ) :   1.4017 B( 56-C , 82-H ) :   1.0009 B( 57-C , 58-C ) :   1.3524
B( 57-C , 83-H ) :   0.9942 B( 58-C , 59-S ) :   1.1706 B( 58-C , 60-C ) :   1.2170
B( 60-C , 61-C ) :   1.4562 B( 60-C , 64-S ) :   1.1144 B( 61-C , 62-C ) :   1.3044
B( 61-C , 84-H ) :   0.9851 B( 62-C , 63-C ) :   1.4992 B( 62-C , 85-H ) :   0.9925
B( 63-C , 64-S ) :   1.1929 B( 63-C , 86-H ) :   0.9724

-----------------------------------------------------------------------------
         ABSORPTION SPECTRUM VIA TRANSITION ELECTRIC DIPOLE MOMENTS
-----------------------------------------------------------------------------
State   Energy  Wavelength   fosc         T2         TX        TY        TZ
        (cm-1)    (nm)                  (au**2)     (au)      (au)      (au)
-----------------------------------------------------------------------------
   0    6022.3   1660.5   0.162417979   8.87864   1.12193  -2.60702   0.90740
   1    7325.6   1365.1   0.008041910   0.36140   0.54813   0.09260  -0.22888
   2   11620.5    860.6   0.795857915  22.54697  -1.33495  -0.64769   4.51058
   3   15464.9    646.6   0.378789861   8.06358   1.68801  -2.20517  -0.59280
   4   16252.0    615.3   0.404737535   8.19867  -1.72295   0.07896   2.28558
   5   17399.4    574.7   0.011617035   0.21980   0.20879   0.35144   0.22956
   6   18592.2    537.9   0.231724087   4.10313  -0.04515  -2.01397  -0.21218
   7   19980.6    500.5   0.605912485   9.98338   0.57746   2.86545  -1.19962
   8   20250.1    493.8   0.020585692   0.33467   0.38931   0.27634  -0.32671
   9   22118.0    452.1   0.876372522  13.04424   0.65971  -3.40410  -1.01051
  10   22702.1    440.5   0.076156070   1.10437   0.41431   0.79429  -0.54938
  11   23899.2    418.4   0.008859798   0.12204  -0.34442   0.04559  -0.03657
  12   24521.4    407.8   0.215870581   2.89817   0.99064  -0.18380  -1.37223
  13   25327.3    394.8   0.035754457   0.46475   0.29857   0.49915   0.35560
  14   25473.4    392.6   0.113440934   1.46608  -0.14170   0.65264   1.00998
  15   26353.9    379.4   0.000014180   0.00018   0.00535   0.01164   0.00359
  16   26508.4    377.2   0.054864649   0.68137   0.42425  -0.22352  -0.67188
  17   27138.0    368.5   0.011349740   0.13768  -0.11613   0.28949   0.20098
  18   27445.8    364.4   0.033611070   0.40316   0.39196   0.28882  -0.40758
  19   27493.2    363.7   0.060530117   0.72481  -0.36396  -0.06192   0.76714
  20   28151.0    355.2   0.005462330   0.06388   0.15538  -0.19928   0.00491
  21   28406.8    352.0   0.157215505   1.82200  -0.99832   0.26179   0.86996
  22   28653.4    349.0   0.021995445   0.25272   0.16994  -0.37659  -0.28639
  23   29123.7    343.4   0.011942900   0.13500   0.09771  -0.18960  -0.29918
  24   29318.2    341.1   0.072494868   0.81404  -0.07054   0.54933   0.71225
  25   30017.0    333.1   0.011557441   0.12676  -0.09505   0.05478   0.33870
  26   30144.9    331.7   0.028921220   0.31585   0.43712   0.27008  -0.22766
  27   30896.2    323.7   0.093060350   0.99160  -0.68381  -0.66964   0.27494
  28   30930.3    323.3   0.156412632   1.66480   0.67470  -0.43459  -1.01031
  29   31294.0    319.5   0.023405901   0.24623  -0.38054   0.03939   0.31602
  30   31372.4    318.8   0.000074559   0.00078   0.01873   0.01950   0.00718
  31   31505.8    317.4   0.001088658   0.01138   0.01048  -0.01223  -0.10543
  32   31723.7    315.2   0.047018893   0.48794  -0.30060  -0.52643   0.34706
  33   32315.4    309.5   0.029528646   0.30082   0.11660  -0.41835  -0.33498
  34   32450.6    308.2   0.038673964   0.39235  -0.15670  -0.59409  -0.12188
  35   32743.4    305.4   0.119561919   1.20211   0.65286  -0.41683  -0.77598
  36   33131.0    301.8   0.032704963   0.32498   0.22041   0.09304  -0.51744
  37   33396.6    299.4   0.034371139   0.33882   0.10891   0.55672  -0.13045
  38   33518.6    298.3   0.002958601   0.02906   0.10742  -0.08947  -0.09754
  39   33690.6    296.8   0.027080771   0.26462   0.27274   0.06259  -0.43165
  40   33784.1    296.0   0.259574548   2.52945  -0.97022   0.48596   1.16274
  41   33848.3    295.4   0.099035687   0.96323  -0.62691   0.07950   0.75093
  42   33932.8    294.7   0.007700478   0.07471   0.10501  -0.22010   0.12344
  43   34199.5    292.4   0.024955863   0.24023   0.41365   0.25678  -0.05644
  44   34316.5    291.4   0.110237896   1.05756   0.56562   0.19559  -0.83628
  45   34359.1    291.0   0.080452163   0.77085   0.04927  -0.63495   0.60437
  46   34546.4    289.5   0.068777611   0.65542  -0.54767  -0.14701   0.57781
  47   34838.2    287.0   0.019037042   0.17990   0.09329  -0.40809  -0.06821
  48   35417.5    282.3   0.047942510   0.44563   0.54333   0.30985  -0.23328
  49   35710.2    280.0   0.008418473   0.07761   0.15032   0.23262   0.03008
  50   35856.5    278.9   0.038864383   0.35683   0.00171  -0.46500  -0.37497
  51   36050.1    277.4   0.104272446   0.95222  -0.15470  -0.89960   0.34497
  52   36397.5    274.7   0.090170913   0.81559   0.58690   0.27250  -0.62999
  53   36496.5    274.0   0.030120542   0.27170  -0.03503  -0.47151   0.21943
  54   37018.1    270.1   0.028497907   0.25344   0.07872   0.49537   0.04306
  55   37497.0    266.7   0.015174680   0.13323   0.21820   0.05222  -0.28790
  56   37610.3    265.9   0.029367265   0.25706  -0.00356   0.50487  -0.04644
  57   37705.9    265.2   0.062569326   0.54630  -0.42976  -0.12755   0.58765
  58   37921.4    263.7   0.016689993   0.14489   0.14005  -0.00139  -0.35395
  59   38218.0    261.7   0.004192851   0.03612  -0.10360  -0.07813   0.13885
  60   38445.3    260.1   0.031727499   0.27169   0.36078  -0.17227  -0.33443
  61   38625.3    258.9   0.076146734   0.64902   0.60402  -0.30360  -0.43818
  62   38868.6    257.3   0.007257846   0.06147  -0.14797  -0.19363   0.04569
  63   38903.7    257.0   0.008191324   0.06932   0.21312   0.03235   0.15116
  64   39071.8    255.9   0.086841387   0.73171   0.60856  -0.41722  -0.43277
  65   39303.5    254.4   0.245039407   2.05248  -0.55301  -1.26465   0.38383
  66   39451.6    253.5   0.023666615   0.19749   0.44276   0.01571  -0.03475
  67   39750.5    251.6   0.013305280   0.11019  -0.26985  -0.10506   0.16228
  68   39845.6    251.0   0.003446335   0.02847  -0.15654  -0.01308   0.06164
  69   39945.2    250.3   0.030285522   0.24960  -0.08528   0.47272   0.13734
  70   40205.8    248.7   0.090235769   0.73887   0.47548   0.34674  -0.62654

FINAL SINGLE POINT ENERGY     -8100.925455670450

DIPOLE MOMENT
-------------
                                X             Y             Z
Electronic contribution:     47.85289      -9.47883    -105.48814
Nuclear contribution   :    -48.00121       7.60593     107.82627
                        -----------------------------------------
Total Dipole Moment    :     -0.14832      -1.87289       2.33813
                        -----------------------------------------
Magnitude (a.u.)       :      2.99943
Magnitude (Debye)      :      7.62394

Rotational constants in cm-1:     0.001474     0.000560     0.000435
Rotational constants in MHz :    44.195514    16.787424    13.055802

                             ****ORCA TERMINATED NORMALLY****
TOTAL RUN TIME: 0 days 0 hours 10 minutes 48 seconds 915 msec
