                         Program Version 4.2.0 -  RELEASE  -
|  1> # ORCA input file
|  2> # SCF done       -126.170929323193          0.000540638071
|  3> ! CAM-B3LYP def2-SVP def2/J RIJCOSX Grid4 TightSCF
|  4> %maxcore 5000
|  5> %tddft
|  6>     Mode sTDDFT
|  7>     Ethresh 5.0
|  8>     maxcore 5000
|  9> end
| 10>
| 11> %pal
| 12>   nprocs 6
| 13>   end
| 14> * xyz 0 1
| 15>    C        1.80520         2.78214        -0.72287
| 16>    S        2.41942         1.26671        -0.18046
| 17>    C        1.88551         0.46305        -1.63544
| 18>    C        1.26543         1.36304        -2.47728
| 19>    C        1.22443         2.67848        -1.94989
| 20>    S        0.45414         3.88378        -2.94937
| 21>    C        0.05099         2.79671        -4.26826
| 22>    S       -0.72585         3.29439        -5.60674
| 23>    S        0.54799         1.12460        -4.04103
| 24>    C        2.10248        -0.91973        -1.81852
| 25>    S        1.58587        -1.79116        -3.23393
| 26>    C        2.72897        -1.78907        -0.93663
| 27>    N        3.29257        -1.57972         0.28191
| 28>    C        3.76156        -2.66395         0.75966
| 29>    S        3.57824        -4.11394        -0.22316
| 30>    C        2.77959        -3.13094        -1.40518
| 31>    C        2.20107        -3.32735        -2.64610
| 32>    C        2.04127        -4.49051        -3.42638
| 33>    C        2.45443        -5.73066        -3.04642
| 34>    C        2.26121        -6.87709        -3.84159
| 35>    S        2.77882        -8.45036        -3.29230
| 36>    C        1.66702        -6.99699        -5.09650
| 37>    N        1.11053        -6.08329        -5.93701
| 38>    C        0.67665        -6.64023        -6.99886
| 39>    S        0.88447        -8.38353        -7.13307
| 40>    C        1.64090        -8.33347        -5.57740
| 41>    C        2.19909        -9.27452        -4.73042
| 42>    C        2.29971       -10.66355        -4.92743
| 43>    C        2.85082       -11.52815        -4.03253
| 44>    C        2.92203       -12.91842        -4.24573
| 45>    S        3.62727       -13.98235        -3.05990
| 46>    C        2.48045       -13.67108        -5.33274
| 47>    N        1.87356       -13.31538        -6.49651
| 48>    C        1.63747       -14.33382        -7.22508
| 49>    S        2.12713       -15.90042        -6.58714
| 50>    C        2.71278       -15.06694        -5.18569
| 51>    C        3.33137       -15.42906        -4.00342
| 52>    C        3.71798       -16.69312        -3.50259
| 53>    C        3.50905       -17.86657        -4.14850
| 54>    C        3.89223       -19.14276        -3.66143
| 55>    S        3.52597       -20.56503        -4.61065
| 56>    C        4.24470       -21.61787        -3.45752
| 57>    C        4.73976       -20.91999        -2.39882
| 58>    C        4.54510       -19.51826        -2.50386
| 59>    S        5.16033       -18.56656        -1.18198
| 60>    C        5.79754       -19.91049        -0.24921
| 61>    S        6.54863       -19.69680         1.17711
| 62>    S        5.56264       -21.49356        -0.97003
| 63>    H        1.90476         3.65625        -0.11351
| 64>    H        4.25096        -2.73049         1.71119
| 65>    H        1.54925        -4.37433        -4.38136
| 66>    H        2.94724        -5.87755        -2.09511
| 67>    H        0.20091        -6.10273        -7.79546
| 68>    H        1.89904       -11.04803        -5.85614
| 69>    H        3.25490       -11.15210        -3.10176
| 70>    H        1.16426       -14.28039        -8.18564
| 71>    H        4.20543       -16.68404        -2.53810
| 72>    H        3.01372       -17.86871        -5.10936
| 73>    H        4.26208       -22.67517        -3.62106
| 74> *
| 75>
| 76>                          ****END OF INPUT****

CARTESIAN COORDINATES (ANGSTROEM)
---------------------------------
  C      1.805200    2.782140   -0.722870
  S      2.419420    1.266710   -0.180460
  C      1.885510    0.463050   -1.635440
  C      1.265430    1.363040   -2.477280
  C      1.224430    2.678480   -1.949890
  S      0.454140    3.883780   -2.949370
  C      0.050990    2.796710   -4.268260
  S     -0.725850    3.294390   -5.606740
  S      0.547990    1.124600   -4.041030
  C      2.102480   -0.919730   -1.818520
  S      1.585870   -1.791160   -3.233930
  C      2.728970   -1.789070   -0.936630
  N      3.292570   -1.579720    0.281910
  C      3.761560   -2.663950    0.759660
  S      3.578240   -4.113940   -0.223160
  C      2.779590   -3.130940   -1.405180
  C      2.201070   -3.327350   -2.646100
  C      2.041270   -4.490510   -3.426380
  C      2.454430   -5.730660   -3.046420
  C      2.261210   -6.877090   -3.841590
  S      2.778820   -8.450360   -3.292300
  C      1.667020   -6.996990   -5.096500
  N      1.110530   -6.083290   -5.937010
  C      0.676650   -6.640230   -6.998860
  S      0.884470   -8.383530   -7.133070
  C      1.640900   -8.333470   -5.577400
  C      2.199090   -9.274520   -4.730420
  C      2.299710  -10.663550   -4.927430
  C      2.850820  -11.528150   -4.032530
  C      2.922030  -12.918420   -4.245730
  S      3.627270  -13.982350   -3.059900
  C      2.480450  -13.671080   -5.332740
  N      1.873560  -13.315380   -6.496510
  C      1.637470  -14.333820   -7.225080
  S      2.127130  -15.900420   -6.587140
  C      2.712780  -15.066940   -5.185690
  C      3.331370  -15.429060   -4.003420
  C      3.717980  -16.693120   -3.502590
  C      3.509050  -17.866570   -4.148500
  C      3.892230  -19.142760   -3.661430
  S      3.525970  -20.565030   -4.610650
  C      4.244700  -21.617870   -3.457520
  C      4.739760  -20.919990   -2.398820
  C      4.545100  -19.518260   -2.503860
  S      5.160330  -18.566560   -1.181980
  C      5.797540  -19.910490   -0.249210
  S      6.548630  -19.696800    1.177110
  S      5.562640  -21.493560   -0.970030
  H      1.904760    3.656250   -0.113510
  H      4.250960   -2.730490    1.711190
  H      1.549250   -4.374330   -4.381360
  H      2.947240   -5.877550   -2.095110
  H      0.200910   -6.102730   -7.795460
  H      1.899040  -11.048030   -5.856140
  H      3.254900  -11.152100   -3.101760
  H      1.164260  -14.280390   -8.185640
  H      4.205430  -16.684040   -2.538100
  H      3.013720  -17.868710   -5.109360
  H      4.262080  -22.675170   -3.621060

 Total Charge           Charge          ....    0
 Multiplicity           Mult            ....    1
 Number of Electrons    NEL             ....  442
 Basis Dimension        Dim             ....  783

ORBITAL ENERGIES
----------------

  NO   OCC          E(Eh)            E(eV)
   0   2.0000     -88.971873     -2421.0477
   1   2.0000     -88.971610     -2421.0406
   2   2.0000     -88.969379     -2420.9799
   3   2.0000     -88.969318     -2420.9782
   4   2.0000     -88.969200     -2420.9750
   5   2.0000     -88.968883     -2420.9664
   6   2.0000     -88.968595     -2420.9585
   7   2.0000     -88.966895     -2420.9123
   8   2.0000     -88.965959     -2420.8868
   9   2.0000     -88.965535     -2420.8753
  10   2.0000     -88.963707     -2420.8255
  11   2.0000     -88.963512     -2420.8202
  12   2.0000     -88.892401     -2418.8852
  13   2.0000     -88.890150     -2418.8239
  14   2.0000     -14.425103      -392.5270
  15   2.0000     -14.424150      -392.5011
  16   2.0000     -14.420459      -392.4006
  17   2.0000     -10.373990      -282.2906
  18   2.0000     -10.371866      -282.2328
  19   2.0000     -10.346358      -281.5387
  20   2.0000     -10.344597      -281.4908
  21   2.0000     -10.341873      -281.4167
  22   2.0000     -10.321396      -280.8595
  23   2.0000     -10.320917      -280.8464
  24   2.0000     -10.318781      -280.7883
  25   2.0000     -10.318535      -280.7816
  26   2.0000     -10.316179      -280.7175
  27   2.0000     -10.315678      -280.7039
  28   2.0000     -10.314955      -280.6842
  29   2.0000     -10.314745      -280.6785
  30   2.0000     -10.313839      -280.6538
  31   2.0000     -10.313676      -280.6494
  32   2.0000     -10.312929      -280.6291
  33   2.0000     -10.312390      -280.6144
  34   2.0000     -10.310062      -280.5510
  35   2.0000     -10.309699      -280.5412
  36   2.0000     -10.309312      -280.5306
  37   2.0000     -10.309225      -280.5283
  38   2.0000     -10.309210      -280.5279
  39   2.0000     -10.307726      -280.4875
  40   2.0000     -10.306623      -280.4575
  41   2.0000     -10.305080      -280.4155
  42   2.0000     -10.295290      -280.1491
  43   2.0000     -10.292217      -280.0655
  44   2.0000     -10.287191      -279.9287
  45   2.0000     -10.285617      -279.8859
  46   2.0000     -10.285050      -279.8704
  47   2.0000     -10.284834      -279.8646
  48   2.0000      -8.067053      -219.5157
  49   2.0000      -8.066483      -219.5002
  50   2.0000      -8.064985      -219.4594
  51   2.0000      -8.064966      -219.4589
  52   2.0000      -8.064854      -219.4558
  53   2.0000      -8.064796      -219.4543
  54   2.0000      -8.064556      -219.4477
  55   2.0000      -8.062093      -219.3807
  56   2.0000      -8.062081      -219.3804
  57   2.0000      -8.060273      -219.3312
  58   2.0000      -8.059753      -219.3170
  59   2.0000      -8.058625      -219.2863
  60   2.0000      -7.989692      -217.4106
  61   2.0000      -7.987466      -217.3500
  62   2.0000      -6.037042      -164.2763
  63   2.0000      -6.035924      -164.2458
  64   2.0000      -6.034936      -164.2190
  65   2.0000      -6.034714      -164.2129
  66   2.0000      -6.034426      -164.2051
  67   2.0000      -6.034409      -164.2046
  68   2.0000      -6.034096      -164.1961
  69   2.0000      -6.032588      -164.1551
  70   2.0000      -6.032003      -164.1391
  71   2.0000      -6.031767      -164.1327
  72   2.0000      -6.031373      -164.1220
  73   2.0000      -6.030514      -164.0986
  74   2.0000      -6.030453      -164.0970
  75   2.0000      -6.030253      -164.0915
  76   2.0000      -6.030132      -164.0882
  77   2.0000      -6.029963      -164.0836
  78   2.0000      -6.029873      -164.0812
  79   2.0000      -6.029200      -164.0629
  80   2.0000      -6.028437      -164.0421
  81   2.0000      -6.027914      -164.0279
  82   2.0000      -6.027821      -164.0253
  83   2.0000      -6.027743      -164.0232
  84   2.0000      -6.027375      -164.0132
  85   2.0000      -6.026929      -164.0011
  86   2.0000      -6.026350      -163.9853
  87   2.0000      -6.026089      -163.9782
  88   2.0000      -6.025692      -163.9674
  89   2.0000      -6.025372      -163.9587
  90   2.0000      -6.025319      -163.9573
  91   2.0000      -6.025185      -163.9536
  92   2.0000      -6.024141      -163.9252
  93   2.0000      -6.023991      -163.9211
  94   2.0000      -6.022672      -163.8852
  95   2.0000      -6.022156      -163.8712
  96   2.0000      -6.021199      -163.8451
  97   2.0000      -6.020654      -163.8303
  98   2.0000      -5.959234      -162.1590
  99   2.0000      -5.956987      -162.0979
 100   2.0000      -5.956539      -162.0857
 101   2.0000      -5.954301      -162.0248
 102   2.0000      -5.949613      -161.8972
 103   2.0000      -5.947429      -161.8378
 104   2.0000      -1.078291       -29.3418
 105   2.0000      -1.075870       -29.2759
 106   2.0000      -1.072705       -29.1898
 107   2.0000      -1.019630       -27.7455
 108   2.0000      -1.018906       -27.7258
 109   2.0000      -0.985721       -26.8228
 110   2.0000      -0.984288       -26.7838
 111   2.0000      -0.979336       -26.6491
 112   2.0000      -0.964470       -26.2446
 113   2.0000      -0.960174       -26.1277
 114   2.0000      -0.927230       -25.2312
 115   2.0000      -0.919706       -25.0265
 116   2.0000      -0.909122       -24.7385
 117   2.0000      -0.903003       -24.5720
 118   2.0000      -0.886492       -24.1227
 119   2.0000      -0.885264       -24.0893
 120   2.0000      -0.879210       -23.9245
 121   2.0000      -0.874071       -23.7847
 122   2.0000      -0.864607       -23.5272
 123   2.0000      -0.863038       -23.4844
 124   2.0000      -0.843792       -22.9608
 125   2.0000      -0.834073       -22.6963
 126   2.0000      -0.829547       -22.5731
 127   2.0000      -0.826932       -22.5020
 128   2.0000      -0.822913       -22.3926
 129   2.0000      -0.807571       -21.9751
 130   2.0000      -0.785263       -21.3681
 131   2.0000      -0.784861       -21.3572
 132   2.0000      -0.782020       -21.2798
 133   2.0000      -0.761536       -20.7224
 134   2.0000      -0.734199       -19.9786
 135   2.0000      -0.717592       -19.5267
 136   2.0000      -0.712020       -19.3751
 137   2.0000      -0.709113       -19.2959
 138   2.0000      -0.697928       -18.9916
 139   2.0000      -0.690316       -18.7845
 140   2.0000      -0.685935       -18.6652
 141   2.0000      -0.666642       -18.1402
 142   2.0000      -0.657580       -17.8937
 143   2.0000      -0.647837       -17.6285
 144   2.0000      -0.639942       -17.4137
 145   2.0000      -0.632241       -17.2041
 146   2.0000      -0.629417       -17.1273
 147   2.0000      -0.627751       -17.0820
 148   2.0000      -0.624879       -17.0038
 149   2.0000      -0.614561       -16.7231
 150   2.0000      -0.604741       -16.4558
 151   2.0000      -0.598297       -16.2805
 152   2.0000      -0.575011       -15.6468
 153   2.0000      -0.569282       -15.4910
 154   2.0000      -0.563175       -15.3248
 155   2.0000      -0.559172       -15.2158
 156   2.0000      -0.556317       -15.1382
 157   2.0000      -0.551909       -15.0182
 158   2.0000      -0.548896       -14.9362
 159   2.0000      -0.540396       -14.7049
 160   2.0000      -0.539137       -14.6707
 161   2.0000      -0.535579       -14.5738
 162   2.0000      -0.534377       -14.5411
 163   2.0000      -0.532051       -14.4779
 164   2.0000      -0.530770       -14.4430
 165   2.0000      -0.529878       -14.4187
 166   2.0000      -0.525778       -14.3071
 167   2.0000      -0.520310       -14.1584
 168   2.0000      -0.516777       -14.0622
 169   2.0000      -0.510729       -13.8977
 170   2.0000      -0.500556       -13.6208
 171   2.0000      -0.495433       -13.4814
 172   2.0000      -0.484857       -13.1936
 173   2.0000      -0.483601       -13.1594
 174   2.0000      -0.477478       -12.9928
 175   2.0000      -0.472901       -12.8683
 176   2.0000      -0.467071       -12.7097
 177   2.0000      -0.463378       -12.6092
 178   2.0000      -0.460506       -12.5310
 179   2.0000      -0.458959       -12.4889
 180   2.0000      -0.457627       -12.4527
 181   2.0000      -0.456073       -12.4104
 182   2.0000      -0.455362       -12.3910
 183   2.0000      -0.450815       -12.2673
 184   2.0000      -0.448196       -12.1960
 185   2.0000      -0.446946       -12.1620
 186   2.0000      -0.439551       -11.9608
 187   2.0000      -0.435024       -11.8376
 188   2.0000      -0.431975       -11.7546
 189   2.0000      -0.430474       -11.7138
 190   2.0000      -0.429222       -11.6797
 191   2.0000      -0.423064       -11.5122
 192   2.0000      -0.420389       -11.4394
 193   2.0000      -0.419822       -11.4239
 194   2.0000      -0.418686       -11.3930
 195   2.0000      -0.415984       -11.3195
 196   2.0000      -0.413637       -11.2556
 197   2.0000      -0.409829       -11.1520
 198   2.0000      -0.401840       -10.9346
 199   2.0000      -0.392972       -10.6933
 200   2.0000      -0.375438       -10.2162
 201   2.0000      -0.363819        -9.9000
 202   2.0000      -0.359480        -9.7819
 203   2.0000      -0.358474        -9.7546
 204   2.0000      -0.357930        -9.7398
 205   2.0000      -0.356718        -9.7068
 206   2.0000      -0.355146        -9.6640
 207   2.0000      -0.355046        -9.6613
 208   2.0000      -0.352966        -9.6047
 209   2.0000      -0.326545        -8.8857
 210   2.0000      -0.318289        -8.6611
 211   2.0000      -0.317628        -8.6431
 212   2.0000      -0.315211        -8.5773
 213   2.0000      -0.307484        -8.3671
 214   2.0000      -0.289989        -7.8910
 215   2.0000      -0.287708        -7.8289
 216   2.0000      -0.279938        -7.6175
 217   2.0000      -0.277380        -7.5479
 218   2.0000      -0.274482        -7.4690
 219   2.0000      -0.248599        -6.7647
 220   2.0000      -0.215619        -5.8673
 221   0.0000      -0.081309        -2.2125
 222   0.0000      -0.054544        -1.4842
 223   0.0000      -0.035788        -0.9738
 224   0.0000      -0.026025        -0.7082
 225   0.0000      -0.017176        -0.4674

MULLIKEN ATOMIC CHARGES
-----------------------
   0 C :   -0.145737
   1 S :    0.192832
   2 C :   -0.141114
   3 C :   -0.045012
   4 C :    0.017876
   5 S :    0.189378
   6 C :   -0.163884
   7 S :   -0.112844
   8 S :    0.189628
   9 C :   -0.145425
  10 S :    0.157589
  11 C :    0.044491
  12 N :   -0.061290
  13 C :    0.027334
  14 S :    0.091689
  15 C :   -0.004024
  16 C :   -0.183414
  17 C :    0.062548
  18 C :    0.013613
  19 C :   -0.146950
  20 S :    0.134058
  21 C :    0.076808
  22 N :   -0.049404
  23 C :    0.017974
  24 S :    0.099149
  25 C :   -0.001704
  26 C :   -0.158772
  27 C :    0.010014
  28 C :    0.007833
  29 C :   -0.141499
  30 S :    0.156636
  31 C :    0.072162
  32 N :   -0.049997
  33 C :    0.026795
  34 S :    0.083413
  35 C :   -0.012415
  36 C :   -0.207638
  37 C :    0.061303
  38 C :    0.037050
  39 C :   -0.163484
  40 S :    0.140686
  41 C :   -0.140410
  42 C :    0.003196
  43 C :   -0.016591
  44 S :    0.173000
  45 C :   -0.155690
  46 S :   -0.112019
  47 S :    0.189266
  48 H :    0.028262
  49 H :    0.046550
  50 H :   -0.006295
  51 H :   -0.035556
  52 H :    0.045556
  53 H :    0.002186
  54 H :   -0.021961
  55 H :    0.043892
  56 H :   -0.021486
  57 H :   -0.028117
  58 H :    0.029966
Sum of atomic charges:    0.0000000

LOEWDIN ATOMIC CHARGES
----------------------
   0 C :   -0.206259
   1 S :    0.485083
   2 C :   -0.203752
   3 C :   -0.225478
   4 C :   -0.219968
   5 S :    0.399904
   6 C :   -0.440337
   7 S :   -0.014072
   8 S :    0.400845
   9 C :   -0.194294
  10 S :    0.460205
  11 C :   -0.075516
  12 N :   -0.090889
  13 C :   -0.090109
  14 S :    0.383611
  15 C :   -0.202028
  16 C :   -0.188928
  17 C :   -0.027616
  18 C :   -0.052834
  19 C :   -0.164355
  20 S :    0.443739
  21 C :   -0.071076
  22 N :   -0.084244
  23 C :   -0.092932
  24 S :    0.380965
  25 C :   -0.197237
  26 C :   -0.194340
  27 C :   -0.022421
  28 C :   -0.059246
  29 C :   -0.166055
  30 S :    0.456510
  31 C :   -0.070887
  32 N :   -0.080511
  33 C :   -0.094918
  34 S :    0.380045
  35 C :   -0.199097
  36 C :   -0.200274
  37 C :   -0.041076
  38 C :   -0.057884
  39 C :   -0.185358
  40 S :    0.453117
  41 C :   -0.209671
  42 C :   -0.216446
  43 C :   -0.222125
  44 S :    0.408820
  45 C :   -0.441174
  46 S :   -0.013792
  47 S :    0.400831
  48 H :    0.028446
  49 H :    0.022279
  50 H :    0.033201
  51 H :    0.016266
  52 H :    0.021562
  53 H :    0.035672
  54 H :    0.022107
  55 H :    0.021197
  56 H :    0.016930
  57 H :    0.017181
  58 H :    0.028683

  Mayer bond orders larger than 0.100000
B(  0-C ,  1-S ) :   1.1442 B(  0-C ,  4-C ) :   1.5865 B(  0-C , 48-H ) :   0.9731
B(  1-S ,  2-C ) :   1.1580 B(  2-C ,  3-C ) :   1.5313 B(  2-C ,  9-C ) :   1.2121
B(  3-C ,  4-C ) :   1.2512 B(  3-C ,  8-S ) :   1.0047 B(  4-C ,  5-S ) :   0.9803
B(  5-S ,  6-C ) :   1.0766 B(  5-S ,  7-S ) :   0.1364 B(  6-C ,  7-S ) :   1.7048
B(  6-C ,  8-S ) :   1.0575 B(  7-S ,  8-S ) :   0.1272 B(  9-C , 10-S ) :   1.1308
B(  9-C , 11-C ) :   1.4236 B(  9-C , 16-C ) :   0.1098 B( 10-S , 16-C ) :   1.1119
B( 11-C , 12-N ) :   1.2889 B( 11-C , 15-C ) :   1.2622 B( 12-N , 13-C ) :   1.7876
B( 12-N , 14-S ) :   0.1054 B( 13-C , 14-S ) :   1.0862 B( 13-C , 49-H ) :   0.9625
B( 14-S , 15-C ) :   1.0563 B( 15-C , 16-C ) :   1.4850 B( 16-C , 17-C ) :   1.1650
B( 17-C , 18-C ) :   1.6306 B( 17-C , 50-H ) :   0.9430 B( 18-C , 19-C ) :   1.1898
B( 18-C , 51-H ) :   0.9471 B( 19-C , 20-S ) :   1.1267 B( 19-C , 21-C ) :   1.3968
B( 19-C , 26-C ) :   0.1067 B( 20-S , 26-C ) :   1.0918 B( 21-C , 22-N ) :   1.2877
B( 21-C , 25-C ) :   1.2596 B( 22-N , 23-C ) :   1.7796 B( 22-N , 24-S ) :   0.1067
B( 23-C , 24-S ) :   1.0879 B( 23-C , 52-H ) :   0.9633 B( 24-S , 25-C ) :   1.0470
B( 25-C , 26-C ) :   1.4784 B( 26-C , 27-C ) :   1.1946 B( 27-C , 28-C ) :   1.6194
B( 27-C , 53-H ) :   0.9570 B( 28-C , 29-C ) :   1.1754 B( 28-C , 54-H ) :   0.9553
B( 29-C , 30-S ) :   1.1305 B( 29-C , 31-C ) :   1.3959 B( 29-C , 36-C ) :   0.1066
B( 30-S , 36-C ) :   1.1102 B( 31-C , 32-N ) :   1.2895 B( 31-C , 35-C ) :   1.2651
B( 32-N , 33-C ) :   1.7838 B( 32-N , 34-S ) :   0.1047 B( 33-C , 34-S ) :   1.0791
B( 33-C , 55-H ) :   0.9631 B( 34-S , 35-C ) :   1.0569 B( 35-C , 36-C ) :   1.4938
B( 36-C , 37-C ) :   1.1817 B( 37-C , 38-C ) :   1.6547 B( 37-C , 56-H ) :   0.9420
B( 38-C , 39-C ) :   1.1607 B( 38-C , 57-H ) :   0.9485 B( 39-C , 40-S ) :   1.1409
B( 39-C , 43-C ) :   1.5459 B( 40-S , 41-C ) :   1.1534 B( 41-C , 42-C ) :   1.5899
B( 41-C , 58-H ) :   0.9737 B( 42-C , 43-C ) :   1.2479 B( 42-C , 47-S ) :   0.9822
B( 43-C , 44-S ) :   1.0029 B( 44-S , 45-C ) :   1.0623 B( 44-S , 46-S ) :   0.1279
B( 45-C , 46-S ) :   1.7034 B( 45-C , 47-S ) :   1.0759 B( 46-S , 47-S ) :   0.1364

-----------------------------------------------------------------------------
         ABSORPTION SPECTRUM VIA TRANSITION ELECTRIC DIPOLE MOMENTS
-----------------------------------------------------------------------------
State   Energy  Wavelength   fosc         T2         TX        TY        TZ
        (cm-1)    (nm)                  (au**2)     (au)      (au)      (au)
-----------------------------------------------------------------------------
   0   15390.9    649.7   2.441492453  52.22374   0.78777  -7.15104  -0.68248
   1   21954.7    455.5   0.108723554   1.63032   0.42480  -0.37008   1.14582
   2   23259.8    429.9   0.048440746   0.68561  -0.22998  -0.03880  -0.79449
   3   25926.3    385.7   0.190400734   2.41771  -0.67908   0.93626  -1.03922
   4   27618.4    362.1   0.001407173   0.01677  -0.03028  -0.08655  -0.09146
   5   27711.6    360.9   0.000026317   0.00031  -0.00415  -0.01412  -0.00981
   6   27724.6    360.7   0.000001166   0.00001   0.00142  -0.00210   0.00272
   7   28491.8    351.0   0.250899118   2.89904  -0.75109   1.03583  -1.12337
   8   29423.4    339.9   0.041398264   0.46320   0.12163   0.48962   0.45681
   9   29858.7    334.9   0.091146388   1.00495  -0.46458   0.52970  -0.71312
  10   30441.5    328.5   0.148366711   1.60453  -0.42769   1.03835  -0.58603
  11   30931.5    323.3   0.087780705   0.93427  -0.27760  -0.64440  -0.66480
  12   31648.5    316.0   0.026296517   0.27354  -0.05592   0.51710   0.05495
  13   33831.0    295.6   0.043301015   0.42136   0.34061  -0.01293   0.55243
  14   34077.0    293.5   0.000000721   0.00001  -0.00165  -0.00182   0.00096
  15   34347.5    291.1   0.012251604   0.11743  -0.01958  -0.27387  -0.20503
  16   34658.6    288.5   0.067398083   0.64019  -0.33742   0.53312  -0.49206
  17   34704.4    288.1   0.010761857   0.10209  -0.14864   0.21069  -0.18870
  18   34891.6    286.6   0.000019019   0.00018   0.01076  -0.00170  -0.00779
  19   35611.7    280.8   0.013871436   0.12823  -0.08596   0.33329  -0.09883
  20   35876.9    278.7   0.055276068   0.50722  -0.21366   0.65246  -0.18938
  21   36555.6    273.6   0.108913542   0.98085  -0.42652   0.59647  -0.66570
  22   36724.6    272.3   0.026961406   0.24169  -0.13832  -0.26387  -0.39107
  23   37015.1    270.2   0.191933540   1.70706   0.61717  -0.22785   1.12882
  24   37522.1    266.5   0.100001588   0.87740  -0.39198  -0.36012  -0.77075
  25   37914.9    263.7   0.257311994   2.23422  -0.68406   0.24189  -1.30682
  26   38010.7    263.1   0.150441935   1.30298   0.53016   0.10207   1.00573
  27   38354.8    260.7   0.025012943   0.21469   0.16961   0.10013   0.41940
  28   38791.0    257.8   0.026026300   0.22088  -0.22145   0.30024  -0.28582
  29   39300.4    254.5   0.000452171   0.00379  -0.03013  -0.00313  -0.05358
  30   39596.4    252.5   0.223595348   1.85902   0.64253  -0.28667   1.16790
  31   39761.5    251.5   0.039821846   0.32971   0.25477  -0.01309   0.51442
  32   40159.5    249.0   0.088478236   0.72531   0.32738   0.39411   0.68030

FINAL SINGLE POINT ENERGY     -6923.409515194203

DIPOLE MOMENT
-------------
                                X             Y             Z
Electronic contribution:      0.40828      10.04861       4.95272
Nuclear contribution   :     -0.48863     -11.30103      -5.45663
                        -----------------------------------------
Total Dipole Moment    :     -0.08034      -1.25242      -0.50391
                        -----------------------------------------
Magnitude (a.u.)       :      1.35238
Magnitude (Debye)      :      3.43748

Rotational constants in cm-1:     0.003110     0.000270     0.000249
Rotational constants in MHz :    93.227341     8.098572     7.456114

                             ****ORCA TERMINATED NORMALLY****
TOTAL RUN TIME: 0 days 0 hours 4 minutes 5 seconds 411 msec
