                         Program Version 4.2.0 -  RELEASE  -
|  1> # ORCA input file
|  2> # SCF done       -158.099803966703          0.000621301542
|  3> ! CAM-B3LYP def2-SVP def2/J RIJCOSX Grid4 TightSCF
|  4> %maxcore 5000
|  5> %tddft
|  6>     Mode sTDDFT
|  7>     Ethresh 5.0
|  8>     maxcore 5000
|  9> end
| 10>
| 11> %pal
| 12>   nprocs 6
| 13>   end
| 14> * xyz 0 1
| 15>    C       25.63766       -18.46388         5.02216
| 16>    C       24.63716       -17.57735         5.15116
| 17>    C       24.22804       -16.87584         6.32893
| 18>    C       23.17464       -16.04110         6.14356
| 19>    C       22.67307       -16.01819         4.82016
| 20>    S       23.59335       -17.10278         3.80173
| 21>    C       21.60851       -15.27374         4.33707
| 22>    C       20.78791       -14.37717         5.04274
| 23>    C       19.80698       -13.80518         4.27341
| 24>    C       19.80821       -14.22089         2.93501
| 25>    S       21.10274       -15.36634         2.66359
| 26>    C       18.92079       -13.82489         1.93535
| 27>    C       18.95386       -14.27123         0.63748
| 28>    C       18.04162       -13.90757        -0.35502
| 29>    C       18.02062       -14.35397        -1.67898
| 30>    C       16.97722       -13.85179        -2.42404
| 31>    C       16.14105       -12.98905        -1.71065
| 32>    S       16.70574       -12.81297        -0.07004
| 33>    C       14.98466       -12.34055        -2.15912
| 34>    C       14.38728       -12.44757        -3.41929
| 35>    C       13.22950       -11.71594        -3.53849
| 36>    C       12.88630       -11.00945        -2.37848
| 37>    S       14.06420       -11.27316        -1.12252
| 38>    C       11.76476       -10.21176        -2.17636
| 39>    C       11.54042        -9.55780        -0.98317
| 40>    S       10.05194        -8.58802        -0.69253
| 41>    C       10.66561        -8.25178         0.87755
| 42>    C       11.92505        -8.87726         1.05724
| 43>    N       12.37372        -9.57929         0.04744
| 44>    C       12.47439        -8.57414         2.41470
| 45>    C       11.38407        -7.71395         2.98558
| 46>    C       10.34017        -7.56292         2.04205
| 47>    S        9.05079        -6.60584         2.65148
| 48>    C        9.91038        -6.38836         4.18055
| 49>    C       11.14823        -7.05571         4.16572
| 50>    C        9.31444        -5.64090         5.18920
| 51>    C        9.89133        -5.32237         6.40726
| 52>    C        9.23121        -4.60483         7.38606
| 53>    C        9.78343        -4.21469         8.60265
| 54>    C        9.13983        -3.52258         9.63490
| 55>    C        9.94485        -3.24867        10.71640
| 56>    C       11.25647        -3.70775        10.57150
| 57>    S       11.45242        -4.51902         9.03916
| 58>    C       12.31988        -3.55177        11.46931
| 59>    C       12.29600        -2.93442        12.72135
| 60>    C       13.52064        -2.91454        13.35179
| 61>    C       14.54930        -3.51069        12.61896
| 62>    S       13.92900        -4.11852        11.10039
| 63>    C       15.89158        -3.61418        12.99126
| 64>    C       16.87940        -4.18306        12.22714
| 65>    C       18.22226        -4.26023        12.59560
| 66>    C       19.27026        -4.81331        11.84863
| 67>    C       20.49742        -4.74006        12.45766
| 68>    C       20.46630        -4.12244        13.71926
| 69>    S       18.83136        -3.63661        14.11337
| 70>    C       21.52479        -3.89125        14.58392
| 71>    C       22.88458        -4.23012        14.38664
| 72>    C       23.70392        -3.87757        15.40924
| 73>    C       23.04026        -3.22893        16.49792
| 74>    S       21.31296        -3.09975        16.12993
| 75>    C       23.57913        -2.76814        17.63864
| 76>    H       26.24821       -18.72758         5.86737
| 77>    H       25.85665       -18.93635         4.08266
| 78>    H       24.73748       -17.02513         7.26415
| 79>    H       22.73792       -15.43806         6.92000
| 80>    H       20.92869       -14.17284         6.08879
| 81>    H       19.08509       -13.09800         4.64281
| 82>    H       18.14902       -13.12161         2.22237
| 83>    H       19.73080       -14.96822         0.34843
| 84>    H       18.76145       -15.03487        -2.05959
| 85>    H       16.80747       -14.09284        -3.45777
| 86>    H       14.79677       -13.05447        -4.20689
| 87>    H       12.62417       -11.67710        -4.42698
| 88>    H       11.04446       -10.11067        -2.97346
| 89>    H       13.42984        -8.04987         2.35130
| 90>    H       12.63362        -9.48420         2.99613
| 91>    H       11.81494        -7.04587         5.00846
| 92>    H        8.31561        -5.27215         4.99380
| 93>    H       10.90577        -5.63736         6.61067
| 94>    H        8.20346        -4.31276         7.21092
| 95>    H        8.10424        -3.23913         9.56685
| 96>    H        9.61294        -2.72373        11.59389
| 97>    H       11.39854        -2.51714        13.14097
| 98>    H       13.69361        -2.47867        14.31994
| 99>    H       16.15694        -3.19850        13.95545
|100>    H       16.61627        -4.59959        11.26266
|101>    H       19.10218        -5.25086        10.88009
|102>    H       21.40761        -5.11323        12.02442
|103>    H       23.21540        -4.72564        13.49099
|104>    H       24.76463        -4.05341        15.43625
|105>    H       24.63433        -2.86440        17.82351
|106>    H       22.98225        -2.29155        18.39432
|107> *
|108>
|109>                          ****END OF INPUT****

CARTESIAN COORDINATES (ANGSTROEM)
---------------------------------
  C     25.637660  -18.463880    5.022160
  C     24.637160  -17.577350    5.151160
  C     24.228040  -16.875840    6.328930
  C     23.174640  -16.041100    6.143560
  C     22.673070  -16.018190    4.820160
  S     23.593350  -17.102780    3.801730
  C     21.608510  -15.273740    4.337070
  C     20.787910  -14.377170    5.042740
  C     19.806980  -13.805180    4.273410
  C     19.808210  -14.220890    2.935010
  S     21.102740  -15.366340    2.663590
  C     18.920790  -13.824890    1.935350
  C     18.953860  -14.271230    0.637480
  C     18.041620  -13.907570   -0.355020
  C     18.020620  -14.353970   -1.678980
  C     16.977220  -13.851790   -2.424040
  C     16.141050  -12.989050   -1.710650
  S     16.705740  -12.812970   -0.070040
  C     14.984660  -12.340550   -2.159120
  C     14.387280  -12.447570   -3.419290
  C     13.229500  -11.715940   -3.538490
  C     12.886300  -11.009450   -2.378480
  S     14.064200  -11.273160   -1.122520
  C     11.764760  -10.211760   -2.176360
  C     11.540420   -9.557800   -0.983170
  S     10.051940   -8.588020   -0.692530
  C     10.665610   -8.251780    0.877550
  C     11.925050   -8.877260    1.057240
  N     12.373720   -9.579290    0.047440
  C     12.474390   -8.574140    2.414700
  C     11.384070   -7.713950    2.985580
  C     10.340170   -7.562920    2.042050
  S      9.050790   -6.605840    2.651480
  C      9.910380   -6.388360    4.180550
  C     11.148230   -7.055710    4.165720
  C      9.314440   -5.640900    5.189200
  C      9.891330   -5.322370    6.407260
  C      9.231210   -4.604830    7.386060
  C      9.783430   -4.214690    8.602650
  C      9.139830   -3.522580    9.634900
  C      9.944850   -3.248670   10.716400
  C     11.256470   -3.707750   10.571500
  S     11.452420   -4.519020    9.039160
  C     12.319880   -3.551770   11.469310
  C     12.296000   -2.934420   12.721350
  C     13.520640   -2.914540   13.351790
  C     14.549300   -3.510690   12.618960
  S     13.929000   -4.118520   11.100390
  C     15.891580   -3.614180   12.991260
  C     16.879400   -4.183060   12.227140
  C     18.222260   -4.260230   12.595600
  C     19.270260   -4.813310   11.848630
  C     20.497420   -4.740060   12.457660
  C     20.466300   -4.122440   13.719260
  S     18.831360   -3.636610   14.113370
  C     21.524790   -3.891250   14.583920
  C     22.884580   -4.230120   14.386640
  C     23.703920   -3.877570   15.409240
  C     23.040260   -3.228930   16.497920
  S     21.312960   -3.099750   16.129930
  C     23.579130   -2.768140   17.638640
  H     26.248210  -18.727580    5.867370
  H     25.856650  -18.936350    4.082660
  H     24.737480  -17.025130    7.264150
  H     22.737920  -15.438060    6.920000
  H     20.928690  -14.172840    6.088790
  H     19.085090  -13.098000    4.642810
  H     18.149020  -13.121610    2.222370
  H     19.730800  -14.968220    0.348430
  H     18.761450  -15.034870   -2.059590
  H     16.807470  -14.092840   -3.457770
  H     14.796770  -13.054470   -4.206890
  H     12.624170  -11.677100   -4.426980
  H     11.044460  -10.110670   -2.973460
  H     13.429840   -8.049870    2.351300
  H     12.633620   -9.484200    2.996130
  H     11.814940   -7.045870    5.008460
  H      8.315610   -5.272150    4.993800
  H     10.905770   -5.637360    6.610670
  H      8.203460   -4.312760    7.210920
  H      8.104240   -3.239130    9.566850
  H      9.612940   -2.723730   11.593890
  H     11.398540   -2.517140   13.140970
  H     13.693610   -2.478670   14.319940
  H     16.156940   -3.198500   13.955450
  H     16.616270   -4.599590   11.262660
  H     19.102180   -5.250860   10.880090
  H     21.407610   -5.113230   12.024420
  H     23.215400   -4.725640   13.490990
  H     24.764630   -4.053410   15.436250
  H     24.634330   -2.864400   17.823510
  H     22.982250   -2.291550   18.394320

 Total Charge           Charge          ....    0
 Multiplicity           Mult            ....    1
 Number of Electrons    NEL             ....  498
 Basis Dimension        Dim             .... 1049

ORBITAL ENERGIES
----------------

  NO   OCC          E(Eh)            E(eV)
   0   2.0000     -88.954041     -2420.5625
   1   2.0000     -88.953968     -2420.5605
   2   2.0000     -88.944258     -2420.2963
   3   2.0000     -88.942426     -2420.2465
   4   2.0000     -88.940101     -2420.1832
   5   2.0000     -88.938079     -2420.1282
   6   2.0000     -88.937296     -2420.1068
   7   2.0000     -88.934632     -2420.0344
   8   2.0000     -88.934120     -2420.0204
   9   2.0000     -88.928771     -2419.8749
  10   2.0000     -14.400867      -391.8675
  11   2.0000     -10.324028      -280.9311
  12   2.0000     -10.311181      -280.5815
  13   2.0000     -10.308401      -280.5058
  14   2.0000     -10.306885      -280.4646
  15   2.0000     -10.306778      -280.4617
  16   2.0000     -10.305612      -280.4300
  17   2.0000     -10.304070      -280.3880
  18   2.0000     -10.301411      -280.3157
  19   2.0000     -10.301285      -280.3122
  20   2.0000     -10.300913      -280.3021
  21   2.0000     -10.298949      -280.2486
  22   2.0000     -10.298758      -280.2434
  23   2.0000     -10.298536      -280.2374
  24   2.0000     -10.297639      -280.2130
  25   2.0000     -10.296403      -280.1794
  26   2.0000     -10.296103      -280.1712
  27   2.0000     -10.295791      -280.1627
  28   2.0000     -10.294946      -280.1397
  29   2.0000     -10.294426      -280.1256
  30   2.0000     -10.293188      -280.0919
  31   2.0000     -10.293013      -280.0871
  32   2.0000     -10.288984      -279.9775
  33   2.0000     -10.285274      -279.8765
  34   2.0000     -10.284319      -279.8506
  35   2.0000     -10.282633      -279.8047
  36   2.0000     -10.281327      -279.7691
  37   2.0000     -10.280039      -279.7341
  38   2.0000     -10.279558      -279.7210
  39   2.0000     -10.278890      -279.7028
  40   2.0000     -10.278860      -279.7020
  41   2.0000     -10.277243      -279.6580
  42   2.0000     -10.276996      -279.6513
  43   2.0000     -10.276235      -279.6306
  44   2.0000     -10.275804      -279.6188
  45   2.0000     -10.274448      -279.5820
  46   2.0000     -10.274206      -279.5754
  47   2.0000     -10.273841      -279.5654
  48   2.0000     -10.273474      -279.5554
  49   2.0000     -10.272877      -279.5392
  50   2.0000     -10.272799      -279.5371
  51   2.0000     -10.272639      -279.5327
  52   2.0000     -10.272379      -279.5257
  53   2.0000     -10.271673      -279.5064
  54   2.0000     -10.271260      -279.4952
  55   2.0000     -10.271015      -279.4885
  56   2.0000     -10.270148      -279.4649
  57   2.0000     -10.269679      -279.4522
  58   2.0000     -10.268348      -279.4160
  59   2.0000     -10.267935      -279.4047
  60   2.0000     -10.259353      -279.1712
  61   2.0000      -8.049142      -219.0283
  62   2.0000      -8.049087      -219.0268
  63   2.0000      -8.040572      -218.7951
  64   2.0000      -8.038722      -218.7448
  65   2.0000      -8.036801      -218.6925
  66   2.0000      -8.034366      -218.6262
  67   2.0000      -8.033456      -218.6015
  68   2.0000      -8.030299      -218.5155
  69   2.0000      -8.029374      -218.4904
  70   2.0000      -8.025579      -218.3871
  71   2.0000      -6.018513      -163.7721
  72   2.0000      -6.018484      -163.7713
  73   2.0000      -6.014704      -163.6684
  74   2.0000      -6.014512      -163.6632
  75   2.0000      -6.010967      -163.5667
  76   2.0000      -6.010819      -163.5627
  77   2.0000      -6.010209      -163.5461
  78   2.0000      -6.008270      -163.4933
  79   2.0000      -6.006573      -163.4472
  80   2.0000      -6.006238      -163.4381
  81   2.0000      -6.004266      -163.3844
  82   2.0000      -6.003940      -163.3755
  83   2.0000      -6.002998      -163.3499
  84   2.0000      -6.002645      -163.3403
  85   2.0000      -6.001631      -163.3127
  86   2.0000      -5.999997      -163.2682
  87   2.0000      -5.999988      -163.2680
  88   2.0000      -5.999916      -163.2660
  89   2.0000      -5.999148      -163.2451
  90   2.0000      -5.999073      -163.2431
  91   2.0000      -5.997454      -163.1990
  92   2.0000      -5.996004      -163.1596
  93   2.0000      -5.995561      -163.1475
  94   2.0000      -5.995344      -163.1416
  95   2.0000      -5.994747      -163.1254
  96   2.0000      -5.994686      -163.1237
  97   2.0000      -5.991457      -163.0358
  98   2.0000      -5.991404      -163.0344
  99   2.0000      -5.990734      -163.0161
 100   2.0000      -5.986180      -162.8922
 101   2.0000      -1.058145       -28.7936
 102   2.0000      -0.992994       -27.0207
 103   2.0000      -0.989643       -26.9296
 104   2.0000      -0.986794       -26.8520
 105   2.0000      -0.985750       -26.8236
 106   2.0000      -0.981823       -26.7168
 107   2.0000      -0.970350       -26.4046
 108   2.0000      -0.965308       -26.2674
 109   2.0000      -0.964588       -26.2478
 110   2.0000      -0.958607       -26.0850
 111   2.0000      -0.923866       -25.1397
 112   2.0000      -0.902510       -24.5585
 113   2.0000      -0.897382       -24.4190
 114   2.0000      -0.889682       -24.2095
 115   2.0000      -0.887179       -24.1414
 116   2.0000      -0.876668       -23.8554
 117   2.0000      -0.866607       -23.5816
 118   2.0000      -0.862812       -23.4783
 119   2.0000      -0.848931       -23.1006
 120   2.0000      -0.844313       -22.9749
 121   2.0000      -0.842849       -22.9351
 122   2.0000      -0.834978       -22.7209
 123   2.0000      -0.833241       -22.6737
 124   2.0000      -0.832899       -22.6643
 125   2.0000      -0.827755       -22.5244
 126   2.0000      -0.822161       -22.3721
 127   2.0000      -0.817369       -22.2417
 128   2.0000      -0.811272       -22.0758
 129   2.0000      -0.810020       -22.0418
 130   2.0000      -0.807319       -21.9683
 131   2.0000      -0.800520       -21.7833
 132   2.0000      -0.792055       -21.5529
 133   2.0000      -0.775139       -21.0926
 134   2.0000      -0.773867       -21.0580
 135   2.0000      -0.759258       -20.6605
 136   2.0000      -0.745321       -20.2812
 137   2.0000      -0.735417       -20.0117
 138   2.0000      -0.719984       -19.5917
 139   2.0000      -0.706855       -19.2345
 140   2.0000      -0.696132       -18.9427
 141   2.0000      -0.683528       -18.5997
 142   2.0000      -0.678193       -18.4546
 143   2.0000      -0.671295       -18.2669
 144   2.0000      -0.665275       -18.1031
 145   2.0000      -0.663495       -18.0546
 146   2.0000      -0.650563       -17.7027
 147   2.0000      -0.646639       -17.5959
 148   2.0000      -0.635412       -17.2904
 149   2.0000      -0.630566       -17.1586
 150   2.0000      -0.628834       -17.1115
 151   2.0000      -0.624457       -16.9923
 152   2.0000      -0.619640       -16.8613
 153   2.0000      -0.618264       -16.8238
 154   2.0000      -0.617484       -16.8026
 155   2.0000      -0.612620       -16.6702
 156   2.0000      -0.611260       -16.6332
 157   2.0000      -0.606937       -16.5156
 158   2.0000      -0.602485       -16.3944
 159   2.0000      -0.598233       -16.2787
 160   2.0000      -0.597191       -16.2504
 161   2.0000      -0.596311       -16.2265
 162   2.0000      -0.590524       -16.0690
 163   2.0000      -0.587212       -15.9788
 164   2.0000      -0.583280       -15.8718
 165   2.0000      -0.569956       -15.5093
 166   2.0000      -0.558264       -15.1911
 167   2.0000      -0.555601       -15.1187
 168   2.0000      -0.552266       -15.0279
 169   2.0000      -0.545863       -14.8537
 170   2.0000      -0.545078       -14.8323
 171   2.0000      -0.540112       -14.6972
 172   2.0000      -0.533488       -14.5169
 173   2.0000      -0.523082       -14.2338
 174   2.0000      -0.519362       -14.1326
 175   2.0000      -0.514458       -13.9991
 176   2.0000      -0.512402       -13.9432
 177   2.0000      -0.507664       -13.8142
 178   2.0000      -0.504225       -13.7207
 179   2.0000      -0.500691       -13.6245
 180   2.0000      -0.495625       -13.4866
 181   2.0000      -0.495159       -13.4740
 182   2.0000      -0.492245       -13.3947
 183   2.0000      -0.490982       -13.3603
 184   2.0000      -0.490615       -13.3503
 185   2.0000      -0.488119       -13.2824
 186   2.0000      -0.487395       -13.2627
 187   2.0000      -0.486493       -13.2381
 188   2.0000      -0.483649       -13.1607
 189   2.0000      -0.483418       -13.1545
 190   2.0000      -0.481490       -13.1020
 191   2.0000      -0.480873       -13.0852
 192   2.0000      -0.476103       -12.9554
 193   2.0000      -0.472120       -12.8470
 194   2.0000      -0.468809       -12.7569
 195   2.0000      -0.465955       -12.6793
 196   2.0000      -0.464515       -12.6401
 197   2.0000      -0.463219       -12.6048
 198   2.0000      -0.460896       -12.5416
 199   2.0000      -0.458771       -12.4838
 200   2.0000      -0.456976       -12.4350
 201   2.0000      -0.455151       -12.3853
 202   2.0000      -0.453913       -12.3516
 203   2.0000      -0.451667       -12.2905
 204   2.0000      -0.450626       -12.2621
 205   2.0000      -0.448782       -12.2120
 206   2.0000      -0.447646       -12.1811
 207   2.0000      -0.444464       -12.0945
 208   2.0000      -0.434059       -11.8113
 209   2.0000      -0.431370       -11.7382
 210   2.0000      -0.430309       -11.7093
 211   2.0000      -0.427208       -11.6249
 212   2.0000      -0.422802       -11.5050
 213   2.0000      -0.420805       -11.4507
 214   2.0000      -0.416627       -11.3370
 215   2.0000      -0.416147       -11.3239
 216   2.0000      -0.414148       -11.2695
 217   2.0000      -0.412773       -11.2321
 218   2.0000      -0.410673       -11.1750
 219   2.0000      -0.407969       -11.1014
 220   2.0000      -0.405207       -11.0263
 221   2.0000      -0.400996       -10.9117
 222   2.0000      -0.394520       -10.7354
 223   2.0000      -0.393800       -10.7158
 224   2.0000      -0.391985       -10.6665
 225   2.0000      -0.384645       -10.4667
 226   2.0000      -0.381283       -10.3753
 227   2.0000      -0.370153       -10.0724
 228   2.0000      -0.355571        -9.6756
 229   2.0000      -0.347855        -9.4656
 230   2.0000      -0.336822        -9.1654
 231   2.0000      -0.335848        -9.1389
 232   2.0000      -0.330119        -8.9830
 233   2.0000      -0.328306        -8.9337
 234   2.0000      -0.326373        -8.8811
 235   2.0000      -0.325640        -8.8611
 236   2.0000      -0.324562        -8.8318
 237   2.0000      -0.319794        -8.7020
 238   2.0000      -0.317037        -8.6270
 239   2.0000      -0.314149        -8.5484
 240   2.0000      -0.312546        -8.5048
 241   2.0000      -0.309710        -8.4276
 242   2.0000      -0.299736        -8.1562
 243   2.0000      -0.283379        -7.7111
 244   2.0000      -0.261266        -7.1094
 245   2.0000      -0.239811        -6.5256
 246   2.0000      -0.220547        -6.0014
 247   2.0000      -0.187722        -5.1082
 248   2.0000      -0.165386        -4.5004
 249   0.0000      -0.105447        -2.8694
 250   0.0000      -0.086936        -2.3657
 251   0.0000      -0.048903        -1.3307
 252   0.0000      -0.035162        -0.9568
 253   0.0000      -0.010415        -0.2834

MULLIKEN ATOMIC CHARGES
-----------------------
   0 C :   -0.026592
   1 C :   -0.065402
   2 C :    0.049651
   3 C :    0.028050
   4 C :   -0.064371
   5 S :    0.084702
   6 C :   -0.042144
   7 C :    0.016231
   8 C :    0.027416
   9 C :   -0.025113
  10 S :    0.081061
  11 C :   -0.011948
  12 C :   -0.002890
  13 C :   -0.032456
  14 C :    0.028741
  15 C :    0.009827
  16 C :   -0.038004
  17 S :    0.090272
  18 C :   -0.042735
  19 C :    0.020034
  20 C :    0.023395
  21 C :   -0.023011
  22 S :    0.126902
  23 C :    0.005978
  24 C :   -0.057453
  25 S :    0.113376
  26 C :   -0.067498
  27 C :   -0.228069
  28 N :   -0.056978
  29 C :    0.391344
  30 C :   -0.156116
  31 C :   -0.095510
  32 S :    0.139631
  33 C :   -0.069875
  34 C :   -0.017209
  35 C :    0.025583
  36 C :   -0.003583
  37 C :    0.002748
  38 C :   -0.032877
  39 C :    0.030347
  40 C :    0.010049
  41 C :   -0.037223
  42 S :    0.076919
  43 C :   -0.045745
  44 C :    0.012373
  45 C :    0.022541
  46 C :   -0.026679
  47 S :    0.079518
  48 C :   -0.011740
  49 C :   -0.005329
  50 C :   -0.032984
  51 C :    0.029900
  52 C :    0.010701
  53 C :   -0.041400
  54 S :    0.075528
  55 C :   -0.066757
  56 C :    0.027155
  57 C :    0.044001
  58 C :   -0.064167
  59 S :    0.076413
  60 C :   -0.034084
  61 H :    0.021517
  62 H :    0.022707
  63 H :   -0.011470
  64 H :   -0.011502
  65 H :   -0.014240
  66 H :   -0.012929
  67 H :   -0.007323
  68 H :   -0.005991
  69 H :   -0.013642
  70 H :   -0.015833
  71 H :   -0.020413
  72 H :   -0.018681
  73 H :   -0.020397
  74 H :    0.037324
  75 H :    0.037634
  76 H :   -0.022937
  77 H :   -0.021570
  78 H :   -0.004279
  79 H :   -0.019673
  80 H :   -0.018264
  81 H :   -0.018979
  82 H :   -0.019169
  83 H :   -0.018025
  84 H :   -0.009388
  85 H :   -0.011727
  86 H :   -0.019143
  87 H :   -0.020721
  88 H :   -0.016268
  89 H :   -0.015897
  90 H :    0.016472
  91 H :    0.018365
Sum of atomic charges:   -0.0000000

LOEWDIN ATOMIC CHARGES
----------------------
   0 C :   -0.073103
   1 C :   -0.140316
   2 C :   -0.032664
   3 C :   -0.028097
   4 C :   -0.175334
   5 S :    0.358384
   6 C :   -0.181319
   7 C :   -0.035482
   8 C :   -0.039647
   9 C :   -0.143636
  10 S :    0.379602
  11 C :   -0.065640
  12 C :   -0.051127
  13 C :   -0.154947
  14 C :   -0.034739
  15 C :   -0.043792
  16 C :   -0.166338
  17 S :    0.390190
  18 C :   -0.196339
  19 C :   -0.035446
  20 C :   -0.048972
  21 C :   -0.132953
  22 S :    0.429008
  23 C :   -0.106504
  24 C :   -0.120237
  25 S :    0.384385
  26 C :   -0.224127
  27 C :   -0.020556
  28 N :   -0.113468
  29 C :   -0.012802
  30 C :   -0.045899
  31 C :   -0.191371
  32 S :    0.422916
  33 C :   -0.166744
  34 C :   -0.048119
  35 C :   -0.041137
  36 C :   -0.040869
  37 C :   -0.047251
  38 C :   -0.160463
  39 C :   -0.039578
  40 C :   -0.044985
  41 C :   -0.176789
  42 S :    0.379773
  43 C :   -0.186037
  44 C :   -0.039979
  45 C :   -0.045861
  46 C :   -0.149072
  47 S :    0.381757
  48 C :   -0.066399
  49 C :   -0.060565
  50 C :   -0.154196
  51 C :   -0.039053
  52 C :   -0.044875
  53 C :   -0.178184
  54 S :    0.375450
  55 C :   -0.185006
  56 C :   -0.028283
  57 C :   -0.041405
  58 C :   -0.139124
  59 S :    0.351838
  60 C :   -0.085626
  61 H :    0.029136
  62 H :    0.026467
  63 H :    0.033340
  64 H :    0.032682
  65 H :    0.030917
  66 H :    0.033628
  67 H :    0.028399
  68 H :    0.028766
  69 H :    0.033075
  70 H :    0.030792
  71 H :    0.027949
  72 H :    0.030403
  73 H :    0.032334
  74 H :    0.056600
  75 H :    0.056682
  76 H :    0.031002
  77 H :    0.027273
  78 H :    0.020568
  79 H :    0.032016
  80 H :    0.031241
  81 H :    0.029679
  82 H :    0.029562
  83 H :    0.031564
  84 H :    0.027293
  85 H :    0.026850
  86 H :    0.031379
  87 H :    0.028415
  88 H :    0.030879
  89 H :    0.031163
  90 H :    0.026741
  91 H :    0.024352

  Mayer bond orders larger than 0.100000
B(  0-C ,  1-C ) :   1.8448 B(  0-C , 61-H ) :   0.9511 B(  0-C , 62-H ) :   0.9424
B(  1-C ,  2-C ) :   1.0930 B(  1-C ,  5-S ) :   1.0087 B(  2-C ,  3-C ) :   1.6305
B(  2-C , 63-H ) :   0.9936 B(  3-C ,  4-C ) :   1.1831 B(  3-C , 64-H ) :   0.9924
B(  4-C ,  5-S ) :   1.0561 B(  4-C ,  6-C ) :   1.4823 B(  6-C ,  7-C ) :   1.2257
B(  6-C , 10-S ) :   1.0478 B(  7-C ,  8-C ) :   1.5248 B(  7-C , 65-H ) :   0.9940
B(  8-C ,  9-C ) :   1.2101 B(  8-C , 66-H ) :   1.0010 B(  9-C , 10-S ) :   1.0553
B(  9-C , 11-C ) :   1.4559 B( 11-C , 12-C ) :   1.2787 B( 11-C , 67-H ) :   0.9732
B( 12-C , 13-C ) :   1.4421 B( 12-C , 68-H ) :   0.9728 B( 13-C , 14-C ) :   1.2345
B( 13-C , 17-S ) :   1.0521 B( 14-C , 15-C ) :   1.4822 B( 14-C , 69-H ) :   1.0011
B( 15-C , 16-C ) :   1.2743 B( 15-C , 70-H ) :   0.9954 B( 16-C , 17-S ) :   1.0740
B( 16-C , 18-C ) :   1.3857 B( 18-C , 19-C ) :   1.2664 B( 18-C , 22-S ) :   1.0236
B( 19-C , 20-C ) :   1.4975 B( 19-C , 71-H ) :   0.9959 B( 20-C , 21-C ) :   1.2204
B( 20-C , 72-H ) :   0.9996 B( 21-C , 22-S ) :   1.0937 B( 21-C , 23-C ) :   1.4560
B( 23-C , 24-C ) :   1.2809 B( 23-C , 73-H ) :   0.9555 B( 24-C , 25-S ) :   1.0277
B( 24-C , 28-N ) :   1.4868 B( 25-S , 26-C ) :   1.0642 B( 26-C , 27-C ) :   1.4003
B( 26-C , 31-C ) :   1.2810 B( 27-C , 28-N ) :   1.5252 B( 27-C , 29-C ) :   1.0423
B( 29-C , 30-C ) :   0.9748 B( 29-C , 74-H ) :   0.8611 B( 29-C , 75-H ) :   0.8607
B( 30-C , 31-C ) :   1.4270 B( 30-C , 34-C ) :   1.4056 B( 31-C , 32-S ) :   1.0830
B( 32-S , 33-C ) :   1.0724 B( 33-C , 34-C ) :   1.3556 B( 33-C , 35-C ) :   1.2283
B( 34-C , 76-H ) :   0.9945 B( 35-C , 36-C ) :   1.5122 B( 35-C , 77-H ) :   0.9668
B( 36-C , 37-C ) :   1.2792 B( 36-C , 78-H ) :   0.9690 B( 37-C , 38-C ) :   1.4276
B( 37-C , 79-H ) :   0.9832 B( 38-C , 39-C ) :   1.2278 B( 38-C , 42-S ) :   1.0441
B( 39-C , 40-C ) :   1.4881 B( 39-C , 80-H ) :   0.9992 B( 40-C , 41-C ) :   1.2787
B( 40-C , 81-H ) :   0.9944 B( 41-C , 42-S ) :   1.0678 B( 41-C , 43-C ) :   1.3717
B( 43-C , 44-C ) :   1.2849 B( 43-C , 47-S ) :   1.0609 B( 44-C , 45-C ) :   1.4752
B( 44-C , 82-H ) :   0.9952 B( 45-C , 46-C ) :   1.2429 B( 45-C , 83-H ) :   1.0002
B( 46-C , 47-S ) :   1.0571 B( 46-C , 48-C ) :   1.4333 B( 48-C , 49-C ) :   1.2852
B( 48-C , 84-H ) :   0.9718 B( 49-C , 50-C ) :   1.4545 B( 49-C , 85-H ) :   0.9717
B( 50-C , 51-C ) :   1.2170 B( 50-C , 54-S ) :   1.0479 B( 51-C , 52-C ) :   1.5199
B( 51-C , 86-H ) :   0.9992 B( 52-C , 53-C ) :   1.2275 B( 52-C , 87-H ) :   0.9943
B( 53-C , 54-S ) :   1.0514 B( 53-C , 55-C ) :   1.4798 B( 55-C , 56-C ) :   1.1870
B( 55-C , 59-S ) :   1.0482 B( 56-C , 57-C ) :   1.6265 B( 56-C , 88-H ) :   0.9917
B( 57-C , 58-C ) :   1.0951 B( 57-C , 89-H ) :   0.9931 B( 58-C , 59-S ) :   1.0117
B( 58-C , 60-C ) :   1.8434 B( 60-C , 90-H ) :   0.9506 B( 60-C , 91-H ) :   0.9414

-----------------------------------------------------------------------------
         ABSORPTION SPECTRUM VIA TRANSITION ELECTRIC DIPOLE MOMENTS
-----------------------------------------------------------------------------
State   Energy  Wavelength   fosc         T2         TX        TY        TZ
        (cm-1)    (nm)                  (au**2)     (au)      (au)      (au)
-----------------------------------------------------------------------------
   0    3566.2   2804.1   0.377706440  34.86739  -0.56302   4.34848   3.95488
   1    7337.4   1362.9   0.113614079   5.09758   1.83455   0.16991   1.30504
   2    8623.2   1159.7   2.237810447  85.43348  -7.75096   1.96313  -4.63705
   3   13125.7    761.9   0.090683347   2.27448  -0.18597   0.37220   1.44961
   4   13527.9    739.2   0.123341406   3.00161  -0.81696   0.66441   1.37577
   5   16233.6    616.0   0.200283395   4.06167   0.92514  -0.53577  -1.70843
   6   16711.2    598.4   0.606616822  11.95040   1.10655  -0.77101  -3.18300
   7   19354.1    516.7   0.068025717   1.15711  -0.89563   0.38969   0.45068
   8   20356.5    491.2   0.114313448   1.84872   1.07452  -0.20207   0.80826
   9   20505.9    487.7   0.050124733   0.80473   0.65292  -0.14321   0.59826
  10   21230.1    471.0   0.019510766   0.30255  -0.47509   0.13362  -0.24288
  11   23631.9    423.2   0.008323419   0.11595   0.31041  -0.09642   0.10149
  12   24104.9    414.9   0.002198042   0.03002   0.01752   0.10279   0.13837
  13   24787.6    403.4   0.076235074   1.01250  -0.03235  -0.52745  -0.85630
  14   25188.3    397.0   0.292188119   3.81891  -0.46001   1.18071   1.48769
  15   27405.5    364.9   0.166244579   1.99703  -0.47515   0.69770   1.13335
  16   27556.7    362.9   0.003389336   0.04049   0.02173   0.11421   0.16424
  17   28175.2    354.9   0.047037912   0.54961  -0.03565   0.32164   0.66700
  18   28504.9    350.8   0.015313403   0.17686  -0.34152   0.18587  -0.16024
  19   29140.3    343.2   0.013308524   0.15035   0.31487  -0.17333   0.14548
  20   29439.8    339.7   0.014816590   0.16569   0.32805  -0.05524   0.23456
  21   30128.4    331.9   0.002286891   0.02499  -0.02690   0.01311   0.15522
  22   30326.3    329.7   0.000020167   0.00022  -0.00725  -0.01247  -0.00330
  23   30596.8    326.8   0.008869305   0.09543   0.10907  -0.22410  -0.18252
  24   30770.2    325.0   0.021491745   0.22994   0.34431  -0.30583  -0.13364
  25   30927.1    323.3   0.006211645   0.06612   0.06481   0.06498   0.24021
  26   31400.5    318.5   0.005597382   0.05868  -0.20239   0.11266   0.07093
  27   31568.0    316.8   0.000481173   0.00502   0.03113  -0.04505  -0.04494
  28   31873.5    313.7   0.003580605   0.03698  -0.09255   0.08780   0.14391
  29   31982.7    312.7   0.027505391   0.28313   0.27449  -0.36089  -0.27846
  30   32083.8    311.7   0.000033020   0.00034   0.01380  -0.00246   0.01193
  31   32610.8    306.6   0.007003642   0.07070   0.11353  -0.00842   0.24030
  32   32721.7    305.6   0.001585584   0.01595  -0.10860   0.00996  -0.06372
  33   32950.0    303.5   0.024264159   0.24243   0.03396  -0.22171  -0.43832
  34   33582.9    297.8   0.030370130   0.29772  -0.27154  -0.09098  -0.46444
  35   33703.5    296.7   0.164469777   1.60652  -0.66640   0.62164   0.88091
  36   34026.3    293.9   0.000606099   0.00586   0.02547  -0.03692  -0.06207
  37   34371.0    290.9   0.102719328   0.98387   0.20910  -0.47896  -0.84306
  38   34432.7    290.4   0.000825296   0.00789  -0.02114  -0.03700  -0.07794
  39   34803.6    287.3   0.021221779   0.20074   0.34242  -0.25565  -0.13465
  40   35037.8    285.4   0.018381260   0.17271   0.33401  -0.07982   0.23403
  41   35239.8    283.8   0.029026143   0.27116   0.44224  -0.13449   0.23979
  42   35520.7    281.5   0.007855176   0.07280  -0.18154   0.14210  -0.14019
  43   35693.9    280.2   0.000986770   0.00910   0.08735  -0.02541   0.02871
  44   36010.9    277.7   0.031014452   0.28353  -0.23289  -0.23786  -0.41560
  45   36231.1    276.0   0.034489735   0.31339  -0.23407   0.46080   0.21509
  46   36586.2    273.3   0.018019224   0.16214   0.16607  -0.34005  -0.13758
  47   36793.5    271.8   0.013786408   0.12335  -0.13525  -0.10893  -0.30528
  48   37101.4    269.5   0.018365251   0.16296  -0.34897   0.14850  -0.13831
  49   37756.8    264.9   0.024168431   0.21073  -0.37800   0.13109  -0.22508
  50   38011.6    263.1   0.102119040   0.88443   0.82918  -0.44371   0.00424
  51   38573.5    259.2   0.019368224   0.16530  -0.25641   0.04449  -0.31237
  52   38722.8    258.2   0.001343834   0.01142  -0.04767   0.09534  -0.00793
  53   38907.9    257.0   0.031150972   0.26358   0.25062   0.03558   0.44665
  54   38944.2    256.8   0.001940871   0.01641  -0.07638  -0.07054  -0.07481
  55   39151.7    255.4   0.021073682   0.17720   0.31376  -0.05769   0.27464
  56   39248.9    254.8   0.001281935   0.01075   0.02860   0.06178   0.07822
  57   39649.9    252.2   0.000644167   0.00535  -0.00627   0.04286   0.05893
  58   39788.0    251.3   0.003883262   0.03213   0.16164  -0.07449  -0.02133
  59   39986.1    250.1   0.017971693   0.14796  -0.33318   0.09483  -0.16721
  60   40145.9    249.1   0.004949597   0.04059   0.16311  -0.02768   0.11496

FINAL SINGLE POINT ENERGY     -5956.677392703067

DIPOLE MOMENT
-------------
                                X             Y             Z
Electronic contribution:    -25.52649       0.99083     -25.93395
Nuclear contribution   :     26.16730      -2.08497      25.49654
                        -----------------------------------------
Total Dipole Moment    :      0.64082      -1.09414      -0.43741
                        -----------------------------------------
Magnitude (a.u.)       :      1.34131
Magnitude (Debye)      :      3.40934

Rotational constants in cm-1:     0.000524     0.000330     0.000208
Rotational constants in MHz :    15.711746     9.884330     6.232724

                             ****ORCA TERMINATED NORMALLY****
TOTAL RUN TIME: 0 days 0 hours 8 minutes 58 seconds 870 msec
