                         Program Version 4.2.0 -  RELEASE  -
|  1> # ORCA input file
|  2> # SCF done       -176.911314137939          0.000693249104
|  3> ! CAM-B3LYP def2-SVP def2/J RIJCOSX Grid4 TightSCF
|  4> %maxcore 5000
|  5> %tddft
|  6>     Mode sTDDFT
|  7>     Ethresh 5.0
|  8>     maxcore 5000
|  9> end
| 10>
| 11> %pal
| 12>   nprocs 6
| 13>   end
| 14> * xyz 0 1
| 15>    C        1.20596         5.75368        -1.75121
| 16>    S        0.05786         6.45389        -2.84021
| 17>    C       -1.18477         5.48675        -2.17158
| 18>    C       -0.71225         4.66531        -1.15411
| 19>    C        0.66173         4.82140        -0.91576
| 20>    C       -1.85346         3.88363        -0.65581
| 21>    O       -1.89324         3.05225         0.21664
| 22>    C       -3.03068         4.35061        -1.49942
| 23>    C       -2.58576         5.29910        -2.38266
| 24>    C       -4.31128         3.79742        -1.28789
| 25>    C       -5.43891         4.13445        -1.97519
| 26>    C       -6.71314         3.57029        -1.76045
| 27>    S       -8.06439         4.11051        -2.74692
| 28>    C       -9.12309         3.03641        -1.93904
| 29>    C       -8.45609         2.29847        -0.94997
| 30>    C       -7.10973         2.59181        -0.84546
| 31>    C       -9.45881         1.40979        -0.32342
| 32>    O       -9.31565         0.61223         0.56964
| 33>    C      -10.74268         1.71409        -1.05762
| 34>    C      -10.49202         2.68708        -2.00391
| 35>    C      -11.92613         1.02688        -0.72454
| 36>    C      -13.12959         1.21112        -1.34190
| 37>    C      -14.35972         0.56395        -1.10704
| 38>    N      -14.69090        -0.38963        -0.16925
| 39>    C      -13.85342        -0.97232         0.84362
| 40>    C      -16.04052        -0.79082        -0.27425
| 41>    O      -16.55807        -1.59888         0.46519
| 42>    C      -16.55337        -0.02372        -1.38768
| 43>    C      -15.51120         0.80906        -1.86116
| 44>    C      -16.02638         1.60040        -2.94783
| 45>    O      -15.52080         2.41652        -3.69043
| 46>    N      -17.38693         1.21091        -3.04027
| 47>    C      -18.21989         1.68017        -4.11190
| 48>    C      -17.70016         0.25149        -2.11534
| 49>    C      -18.97487        -0.39115        -1.96854
| 50>    S      -18.99278        -2.11935        -1.90961
| 51>    C      -20.72144        -2.12431        -1.68354
| 52>    C      -21.22650        -0.82505        -1.62826
| 53>    C      -20.23679         0.15465        -1.78434
| 54>    C      -20.50650         1.62417        -1.62256
| 55>    C      -19.41068         2.29031        -0.83848
| 56>    C      -18.90897         3.47917        -1.11329
| 57>    C      -21.85076         1.81377        -0.90133
| 58>    C      -22.93352         0.99093        -1.58861
| 59>    C      -22.66536        -0.49851        -1.38592
| 60>    C      -21.44649        -3.32569        -1.56900
| 61>    C      -20.89779        -4.57388        -1.64698
| 62>    C      -21.68681        -5.73053        -1.55065
| 63>    C      -21.21420        -7.01685        -1.64068
| 64>    C      -22.01057        -8.22276        -1.53964
| 65>    C      -23.35501        -8.29990        -1.80571
| 66>    N      -24.18226        -9.42666        -1.54547
| 67>    O      -25.20069        -9.53044        -2.19797
| 68>    O      -23.82056       -10.21593        -0.69284
| 69>    N      -24.05892        -7.21974        -2.47937
| 70>    O      -23.57211        -6.80795        -3.50782
| 71>    O      -25.07119        -6.81107        -1.96274
| 72>    C      -21.09326        -9.31087        -1.25369
| 73>    C      -21.12804       -10.64517        -0.97418
| 74>    S      -19.54162       -11.30085        -0.87370
| 75>    C      -18.80650        -9.77511        -1.20780
| 76>    C      -19.75004        -8.81807        -1.37860
| 77>    C      -19.76882        -7.37539        -1.66200
| 78>    O      -18.82052        -6.64720        -1.84360
| 79>    H        2.22556         6.08089        -1.80013
| 80>    H        1.22070         4.28156        -0.17380
| 81>    H       -3.16656         5.82526        -3.11736
| 82>    H       -4.35639         3.04843        -0.50877
| 83>    H       -5.37676         4.88613        -2.75029
| 84>    H       -6.43615         2.12948        -0.14827
| 85>    H      -11.20464         3.11576        -2.68426
| 86>    H      -11.80710         0.31102         0.07474
| 87>    H      -13.19049         1.93522        -2.14400
| 88>    H      -13.03070        -1.53613         0.40038
| 89>    H      -14.48655        -1.65822         1.40929
| 90>    H      -13.46197        -0.20981         1.51900
| 91>    H      -17.57003         1.91945        -4.95478
| 92>    H      -18.75315         2.58857        -3.82560
| 93>    H      -18.93328         0.90851        -4.39831
| 94>    H      -20.58697         2.09399        -2.60983
| 95>    H      -19.06907         1.73887         0.02766
| 96>    H      -19.24150         4.06140        -1.95775
| 97>    H      -18.14446         3.92839        -0.50370
| 98>    H      -22.10981         2.87324        -0.90790
| 99>    H      -21.75356         1.49635         0.13897
|100>    H      -23.91401         1.24237        -1.18248
|101>    H      -22.94269         1.22323        -2.65568
|102>    H      -23.30087        -1.08871        -2.04997
|103>    H      -22.91800        -0.77848        -0.35804
|104>    H      -22.51641        -3.23237        -1.42778
|105>    H      -19.83498        -4.68547        -1.80627
|106>    H      -22.73951        -5.57008        -1.34772
|107>    H      -21.97297       -11.27706        -0.78761
|108>    H      -17.73985        -9.68657        -1.25695
|109> *
|110>
|111>                          ****END OF INPUT****

CARTESIAN COORDINATES (ANGSTROEM)
---------------------------------
  C      1.205960    5.753680   -1.751210
  S      0.057860    6.453890   -2.840210
  C     -1.184770    5.486750   -2.171580
  C     -0.712250    4.665310   -1.154110
  C      0.661730    4.821400   -0.915760
  C     -1.853460    3.883630   -0.655810
  O     -1.893240    3.052250    0.216640
  C     -3.030680    4.350610   -1.499420
  C     -2.585760    5.299100   -2.382660
  C     -4.311280    3.797420   -1.287890
  C     -5.438910    4.134450   -1.975190
  C     -6.713140    3.570290   -1.760450
  S     -8.064390    4.110510   -2.746920
  C     -9.123090    3.036410   -1.939040
  C     -8.456090    2.298470   -0.949970
  C     -7.109730    2.591810   -0.845460
  C     -9.458810    1.409790   -0.323420
  O     -9.315650    0.612230    0.569640
  C    -10.742680    1.714090   -1.057620
  C    -10.492020    2.687080   -2.003910
  C    -11.926130    1.026880   -0.724540
  C    -13.129590    1.211120   -1.341900
  C    -14.359720    0.563950   -1.107040
  N    -14.690900   -0.389630   -0.169250
  C    -13.853420   -0.972320    0.843620
  C    -16.040520   -0.790820   -0.274250
  O    -16.558070   -1.598880    0.465190
  C    -16.553370   -0.023720   -1.387680
  C    -15.511200    0.809060   -1.861160
  C    -16.026380    1.600400   -2.947830
  O    -15.520800    2.416520   -3.690430
  N    -17.386930    1.210910   -3.040270
  C    -18.219890    1.680170   -4.111900
  C    -17.700160    0.251490   -2.115340
  C    -18.974870   -0.391150   -1.968540
  S    -18.992780   -2.119350   -1.909610
  C    -20.721440   -2.124310   -1.683540
  C    -21.226500   -0.825050   -1.628260
  C    -20.236790    0.154650   -1.784340
  C    -20.506500    1.624170   -1.622560
  C    -19.410680    2.290310   -0.838480
  C    -18.908970    3.479170   -1.113290
  C    -21.850760    1.813770   -0.901330
  C    -22.933520    0.990930   -1.588610
  C    -22.665360   -0.498510   -1.385920
  C    -21.446490   -3.325690   -1.569000
  C    -20.897790   -4.573880   -1.646980
  C    -21.686810   -5.730530   -1.550650
  C    -21.214200   -7.016850   -1.640680
  C    -22.010570   -8.222760   -1.539640
  C    -23.355010   -8.299900   -1.805710
  N    -24.182260   -9.426660   -1.545470
  O    -25.200690   -9.530440   -2.197970
  O    -23.820560  -10.215930   -0.692840
  N    -24.058920   -7.219740   -2.479370
  O    -23.572110   -6.807950   -3.507820
  O    -25.071190   -6.811070   -1.962740
  C    -21.093260   -9.310870   -1.253690
  C    -21.128040  -10.645170   -0.974180
  S    -19.541620  -11.300850   -0.873700
  C    -18.806500   -9.775110   -1.207800
  C    -19.750040   -8.818070   -1.378600
  C    -19.768820   -7.375390   -1.662000
  O    -18.820520   -6.647200   -1.843600
  H      2.225560    6.080890   -1.800130
  H      1.220700    4.281560   -0.173800
  H     -3.166560    5.825260   -3.117360
  H     -4.356390    3.048430   -0.508770
  H     -5.376760    4.886130   -2.750290
  H     -6.436150    2.129480   -0.148270
  H    -11.204640    3.115760   -2.684260
  H    -11.807100    0.311020    0.074740
  H    -13.190490    1.935220   -2.144000
  H    -13.030700   -1.536130    0.400380
  H    -14.486550   -1.658220    1.409290
  H    -13.461970   -0.209810    1.519000
  H    -17.570030    1.919450   -4.954780
  H    -18.753150    2.588570   -3.825600
  H    -18.933280    0.908510   -4.398310
  H    -20.586970    2.093990   -2.609830
  H    -19.069070    1.738870    0.027660
  H    -19.241500    4.061400   -1.957750
  H    -18.144460    3.928390   -0.503700
  H    -22.109810    2.873240   -0.907900
  H    -21.753560    1.496350    0.138970
  H    -23.914010    1.242370   -1.182480
  H    -22.942690    1.223230   -2.655680
  H    -23.300870   -1.088710   -2.049970
  H    -22.918000   -0.778480   -0.358040
  H    -22.516410   -3.232370   -1.427780
  H    -19.834980   -4.685470   -1.806270
  H    -22.739510   -5.570080   -1.347720
  H    -21.972970  -11.277060   -0.787610
  H    -17.739850   -9.686570   -1.256950

 Total Charge           Charge          ....    0
 Multiplicity           Mult            ....    1
 Number of Electrons    NEL             ....  476
 Basis Dimension        Dim             .... 1062

ORBITAL ENERGIES
----------------

  NO   OCC          E(Eh)            E(eV)
   0   2.0000     -88.981675     -2421.3145
   1   2.0000     -88.975500     -2421.1464
   2   2.0000     -88.974783     -2421.1269
   3   2.0000     -88.965385     -2420.8712
   4   2.0000     -19.249174      -523.7966
   5   2.0000     -19.247797      -523.7592
   6   2.0000     -19.239882      -523.5438
   7   2.0000     -19.239398      -523.5306
   8   2.0000     -19.233110      -523.3595
   9   2.0000     -19.226167      -523.1706
  10   2.0000     -19.208806      -522.6982
  11   2.0000     -19.184750      -522.0436
  12   2.0000     -19.183999      -522.0232
  13   2.0000     -14.655016      -398.7833
  14   2.0000     -14.652133      -398.7048
  15   2.0000     -14.453570      -393.3016
  16   2.0000     -14.451004      -393.2318
  17   2.0000     -10.373786      -282.2851
  18   2.0000     -10.369977      -282.1814
  19   2.0000     -10.368590      -282.1437
  20   2.0000     -10.367297      -282.1085
  21   2.0000     -10.363881      -282.0155
  22   2.0000     -10.358401      -281.8664
  23   2.0000     -10.343689      -281.4661
  24   2.0000     -10.341385      -281.4034
  25   2.0000     -10.337149      -281.2881
  26   2.0000     -10.319138      -280.7980
  27   2.0000     -10.319075      -280.7963
  28   2.0000     -10.316737      -280.7327
  29   2.0000     -10.314041      -280.6593
  30   2.0000     -10.313875      -280.6548
  31   2.0000     -10.312955      -280.6298
  32   2.0000     -10.312441      -280.6158
  33   2.0000     -10.310642      -280.5668
  34   2.0000     -10.309948      -280.5480
  35   2.0000     -10.307935      -280.4932
  36   2.0000     -10.303802      -280.3807
  37   2.0000     -10.301600      -280.3208
  38   2.0000     -10.300974      -280.3038
  39   2.0000     -10.299400      -280.2609
  40   2.0000     -10.298843      -280.2458
  41   2.0000     -10.295128      -280.1447
  42   2.0000     -10.294849      -280.1371
  43   2.0000     -10.294819      -280.1363
  44   2.0000     -10.294062      -280.1157
  45   2.0000     -10.291591      -280.0484
  46   2.0000     -10.291589      -280.0484
  47   2.0000     -10.290622      -280.0221
  48   2.0000     -10.288762      -279.9714
  49   2.0000     -10.288313      -279.9592
  50   2.0000     -10.287656      -279.9414
  51   2.0000     -10.287427      -279.9351
  52   2.0000     -10.285491      -279.8824
  53   2.0000     -10.284698      -279.8609
  54   2.0000     -10.284130      -279.8454
  55   2.0000     -10.283004      -279.8148
  56   2.0000     -10.281545      -279.7751
  57   2.0000     -10.273961      -279.5687
  58   2.0000     -10.273180      -279.5474
  59   2.0000     -10.273082      -279.5448
  60   2.0000     -10.272415      -279.5266
  61   2.0000     -10.262671      -279.2615
  62   2.0000     -10.258692      -279.1532
  63   2.0000     -10.257068      -279.1090
  64   2.0000      -8.076632      -219.7763
  65   2.0000      -8.071517      -219.6371
  66   2.0000      -8.070116      -219.5990
  67   2.0000      -8.060317      -219.3324
  68   2.0000      -6.045658      -164.5107
  69   2.0000      -6.041722      -164.4036
  70   2.0000      -6.040681      -164.3753
  71   2.0000      -6.039236      -164.3360
  72   2.0000      -6.039216      -164.3354
  73   2.0000      -6.036023      -164.2485
  74   2.0000      -6.034968      -164.2198
  75   2.0000      -6.034305      -164.2018
  76   2.0000      -6.032802      -164.1609
  77   2.0000      -6.029440      -164.0694
  78   2.0000      -6.025391      -163.9592
  79   2.0000      -6.022632      -163.8842
  80   2.0000      -1.335796       -36.3489
  81   2.0000      -1.317068       -35.8393
  82   2.0000      -1.150471       -31.3059
  83   2.0000      -1.143269       -31.1099
  84   2.0000      -1.139613       -31.0104
  85   2.0000      -1.136598       -30.9284
  86   2.0000      -1.128283       -30.7021
  87   2.0000      -1.125436       -30.6247
  88   2.0000      -1.121243       -30.5106
  89   2.0000      -1.059886       -28.8410
  90   2.0000      -1.050475       -28.5849
  91   2.0000      -1.012999       -27.5651
  92   2.0000      -1.012873       -27.5617
  93   2.0000      -1.004573       -27.3358
  94   2.0000      -1.001825       -27.2610
  95   2.0000      -0.974435       -26.5157
  96   2.0000      -0.952863       -25.9287
  97   2.0000      -0.939461       -25.5640
  98   2.0000      -0.937551       -25.5121
  99   2.0000      -0.931602       -25.3502
 100   2.0000      -0.919707       -25.0265
 101   2.0000      -0.914025       -24.8719
 102   2.0000      -0.902968       -24.5710
 103   2.0000      -0.893774       -24.3208
 104   2.0000      -0.882311       -24.0089
 105   2.0000      -0.865760       -23.5585
 106   2.0000      -0.855607       -23.2823
 107   2.0000      -0.849572       -23.1180
 108   2.0000      -0.845409       -23.0047
 109   2.0000      -0.840442       -22.8696
 110   2.0000      -0.836967       -22.7750
 111   2.0000      -0.827707       -22.5230
 112   2.0000      -0.826190       -22.4818
 113   2.0000      -0.816647       -22.2221
 114   2.0000      -0.804511       -21.8918
 115   2.0000      -0.800320       -21.7778
 116   2.0000      -0.790002       -21.4971
 117   2.0000      -0.770217       -20.9587
 118   2.0000      -0.764734       -20.8095
 119   2.0000      -0.762157       -20.7393
 120   2.0000      -0.759710       -20.6728
 121   2.0000      -0.750670       -20.4268
 122   2.0000      -0.741301       -20.1718
 123   2.0000      -0.729010       -19.8374
 124   2.0000      -0.720591       -19.6083
 125   2.0000      -0.703087       -19.1320
 126   2.0000      -0.686567       -18.6824
 127   2.0000      -0.685192       -18.6450
 128   2.0000      -0.676697       -18.4138
 129   2.0000      -0.674053       -18.3419
 130   2.0000      -0.667841       -18.1729
 131   2.0000      -0.664432       -18.0801
 132   2.0000      -0.655355       -17.8331
 133   2.0000      -0.654644       -17.8138
 134   2.0000      -0.652330       -17.7508
 135   2.0000      -0.646279       -17.5862
 136   2.0000      -0.642999       -17.4969
 137   2.0000      -0.640431       -17.4270
 138   2.0000      -0.635084       -17.2815
 139   2.0000      -0.632847       -17.2206
 140   2.0000      -0.628269       -17.0961
 141   2.0000      -0.623185       -16.9577
 142   2.0000      -0.620788       -16.8925
 143   2.0000      -0.615907       -16.7597
 144   2.0000      -0.613279       -16.6882
 145   2.0000      -0.607108       -16.5203
 146   2.0000      -0.602124       -16.3846
 147   2.0000      -0.598615       -16.2891
 148   2.0000      -0.586739       -15.9660
 149   2.0000      -0.583845       -15.8872
 150   2.0000      -0.579216       -15.7613
 151   2.0000      -0.576452       -15.6860
 152   2.0000      -0.573437       -15.6040
 153   2.0000      -0.569241       -15.4898
 154   2.0000      -0.567838       -15.4517
 155   2.0000      -0.561562       -15.2809
 156   2.0000      -0.559327       -15.2201
 157   2.0000      -0.555998       -15.1295
 158   2.0000      -0.554901       -15.0996
 159   2.0000      -0.549812       -14.9611
 160   2.0000      -0.544832       -14.8256
 161   2.0000      -0.544602       -14.8194
 162   2.0000      -0.531377       -14.4595
 163   2.0000      -0.530291       -14.4300
 164   2.0000      -0.529724       -14.4145
 165   2.0000      -0.527893       -14.3647
 166   2.0000      -0.526146       -14.3172
 167   2.0000      -0.523683       -14.2501
 168   2.0000      -0.520875       -14.1737
 169   2.0000      -0.518129       -14.0990
 170   2.0000      -0.516989       -14.0680
 171   2.0000      -0.513877       -13.9833
 172   2.0000      -0.509454       -13.8630
 173   2.0000      -0.506548       -13.7839
 174   2.0000      -0.504453       -13.7269
 175   2.0000      -0.503818       -13.7096
 176   2.0000      -0.499305       -13.5868
 177   2.0000      -0.498915       -13.5762
 178   2.0000      -0.493938       -13.4407
 179   2.0000      -0.490916       -13.3585
 180   2.0000      -0.489728       -13.3262
 181   2.0000      -0.488782       -13.3004
 182   2.0000      -0.486997       -13.2519
 183   2.0000      -0.484900       -13.1948
 184   2.0000      -0.480582       -13.0773
 185   2.0000      -0.478350       -13.0166
 186   2.0000      -0.475576       -12.9411
 187   2.0000      -0.473653       -12.8887
 188   2.0000      -0.472302       -12.8520
 189   2.0000      -0.471621       -12.8335
 190   2.0000      -0.465192       -12.6585
 191   2.0000      -0.464065       -12.6279
 192   2.0000      -0.463321       -12.6076
 193   2.0000      -0.463035       -12.5998
 194   2.0000      -0.462227       -12.5778
 195   2.0000      -0.457691       -12.4544
 196   2.0000      -0.454326       -12.3628
 197   2.0000      -0.450692       -12.2639
 198   2.0000      -0.443468       -12.0674
 199   2.0000      -0.439254       -11.9527
 200   2.0000      -0.438182       -11.9235
 201   2.0000      -0.437625       -11.9084
 202   2.0000      -0.437345       -11.9008
 203   2.0000      -0.436224       -11.8702
 204   2.0000      -0.434418       -11.8211
 205   2.0000      -0.426052       -11.5935
 206   2.0000      -0.422603       -11.4996
 207   2.0000      -0.417277       -11.3547
 208   2.0000      -0.412305       -11.2194
 209   2.0000      -0.409569       -11.1449
 210   2.0000      -0.404527       -11.0077
 211   2.0000      -0.403916       -10.9911
 212   2.0000      -0.400259       -10.8916
 213   2.0000      -0.397871       -10.8266
 214   2.0000      -0.390705       -10.6316
 215   2.0000      -0.384287       -10.4570
 216   2.0000      -0.376599       -10.2478
 217   2.0000      -0.376160       -10.2358
 218   2.0000      -0.371195       -10.1007
 219   2.0000      -0.364570        -9.9205
 220   2.0000      -0.345196        -9.3932
 221   2.0000      -0.344780        -9.3820
 222   2.0000      -0.344560        -9.3759
 223   2.0000      -0.342684        -9.3249
 224   2.0000      -0.339369        -9.2347
 225   2.0000      -0.338465        -9.2101
 226   2.0000      -0.336557        -9.1582
 227   2.0000      -0.334863        -9.1121
 228   2.0000      -0.330266        -8.9870
 229   2.0000      -0.328455        -8.9377
 230   2.0000      -0.326535        -8.8855
 231   2.0000      -0.318199        -8.6586
 232   2.0000      -0.312153        -8.4941
 233   2.0000      -0.310703        -8.4547
 234   2.0000      -0.294463        -8.0128
 235   2.0000      -0.273497        -7.4422
 236   2.0000      -0.251769        -6.8510
 237   2.0000      -0.225254        -6.1295
 238   0.0000      -0.108161        -2.9432
 239   0.0000      -0.095237        -2.5915
 240   0.0000      -0.074881        -2.0376
 241   0.0000      -0.056553        -1.5389
 242   0.0000      -0.044193        -1.2026

MULLIKEN ATOMIC CHARGES
-----------------------
   0 C :   -0.095538
   1 S :    0.160298
   2 C :   -0.084554
   3 C :   -0.027452
   4 C :    0.042888
   5 C :    0.155010
   6 O :   -0.116579
   7 C :   -0.033363
   8 C :   -0.030200
   9 C :    0.005256
  10 C :    0.054620
  11 C :   -0.091064
  12 S :    0.175661
  13 C :   -0.055808
  14 C :    0.003693
  15 C :   -0.010793
  16 C :    0.165817
  17 O :   -0.111769
  18 C :   -0.053238
  19 C :   -0.014841
  20 C :    0.017394
  21 C :   -0.038033
  22 C :    0.135957
  23 N :   -0.285805
  24 C :    0.121322
  25 C :    0.129659
  26 O :   -0.182428
  27 C :   -0.039659
  28 C :   -0.056073
  29 C :    0.142993
  30 O :   -0.198248
  31 N :   -0.261139
  32 C :    0.140521
  33 C :    0.087445
  34 C :   -0.239662
  35 S :    0.221321
  36 C :   -0.089552
  37 C :   -0.095232
  38 C :    0.045176
  39 C :    0.028420
  40 C :   -0.012831
  41 C :   -0.024808
  42 C :    0.053010
  43 C :    0.055050
  44 C :    0.106900
  45 C :    0.015204
  46 C :   -0.009796
  47 C :   -0.022846
  48 C :   -0.081386
  49 C :    0.221134
  50 C :    0.042734
  51 N :    0.262755
  52 O :   -0.234653
  53 O :   -0.256508
  54 N :    0.196895
  55 O :   -0.210986
  56 O :   -0.211523
  57 C :    0.060693
  58 C :   -0.130236
  59 S :    0.147702
  60 C :   -0.134475
  61 C :    0.013461
  62 C :    0.166668
  63 O :   -0.146290
  64 H :    0.032188
  65 H :   -0.000438
  66 H :   -0.009658
  67 H :    0.000087
  68 H :   -0.021295
  69 H :    0.004052
  70 H :    0.011220
  71 H :   -0.014315
  72 H :   -0.001739
  73 H :    0.042931
  74 H :    0.057986
  75 H :    0.039266
  76 H :    0.047941
  77 H :    0.024024
  78 H :    0.037996
  79 H :   -0.006516
  80 H :    0.010128
  81 H :    0.016057
  82 H :    0.026525
  83 H :    0.004272
  84 H :    0.003957
  85 H :    0.006662
  86 H :    0.003511
  87 H :    0.026956
  88 H :    0.024517
  89 H :    0.006695
  90 H :    0.038428
  91 H :    0.005647
  92 H :    0.055660
  93 H :    0.038969
Sum of atomic charges:    0.0000000

LOEWDIN ATOMIC CHARGES
----------------------
   0 C :   -0.187292
   1 S :    0.463880
   2 C :   -0.173636
   3 C :   -0.115386
   4 C :   -0.028485
   5 C :    0.099411
   6 O :   -0.106245
   7 C :   -0.059927
   8 C :   -0.004164
   9 C :   -0.014107
  10 C :   -0.034644
  11 C :   -0.160972
  12 S :    0.469121
  13 C :   -0.181849
  14 C :   -0.093774
  15 C :   -0.014241
  16 C :    0.100054
  17 O :   -0.101951
  18 C :   -0.073855
  19 C :    0.024183
  20 C :    0.002265
  21 C :   -0.030224
  22 C :    0.078240
  23 N :   -0.014938
  24 C :    0.027545
  25 C :    0.077525
  26 O :   -0.191135
  27 C :   -0.125724
  28 C :   -0.120906
  29 C :    0.075822
  30 O :   -0.204082
  31 N :    0.001185
  32 C :    0.031625
  33 C :    0.045534
  34 C :   -0.170770
  35 S :    0.507086
  36 C :   -0.184928
  37 C :   -0.029148
  38 C :   -0.048599
  39 C :   -0.028113
  40 C :   -0.014027
  41 C :   -0.052416
  42 C :   -0.015286
  43 C :   -0.027333
  44 C :   -0.027947
  45 C :    0.024199
  46 C :   -0.040154
  47 C :    0.069405
  48 C :   -0.100045
  49 C :    0.059995
  50 C :   -0.074960
  51 N :    0.280226
  52 O :   -0.199670
  53 O :   -0.210043
  54 N :    0.269197
  55 O :   -0.185991
  56 O :   -0.183937
  57 C :   -0.063655
  58 C :   -0.146902
  59 S :    0.481381
  60 C :   -0.143637
  61 C :   -0.087876
  62 C :    0.083516
  63 O :   -0.140808
  64 H :    0.024003
  65 H :    0.039321
  66 H :    0.028348
  67 H :    0.033669
  68 H :    0.025936
  69 H :    0.041218
  70 H :    0.037682
  71 H :    0.033339
  72 H :    0.041740
  73 H :    0.027603
  74 H :    0.041129
  75 H :    0.027161
  76 H :    0.038395
  77 H :    0.020864
  78 H :    0.030659
  79 H :    0.030912
  80 H :    0.030463
  81 H :    0.018994
  82 H :    0.027282
  83 H :    0.027150
  84 H :    0.024283
  85 H :    0.028157
  86 H :    0.023172
  87 H :    0.036313
  88 H :    0.037499
  89 H :    0.038811
  90 H :    0.030543
  91 H :    0.032481
  92 H :    0.030025
  93 H :    0.035233

  Mayer bond orders larger than 0.100000
B(  0-C ,  1-S ) :   1.1539 B(  0-C ,  4-C ) :   1.5453 B(  0-C , 64-H ) :   0.9683
B(  1-S ,  2-C ) :   1.1487 B(  2-C ,  3-C ) :   1.4734 B(  2-C ,  8-C ) :   1.0597
B(  3-C ,  4-C ) :   1.2834 B(  3-C ,  5-C ) :   0.9432 B(  4-C , 65-H ) :   1.0056
B(  5-C ,  6-O ) :   2.2593 B(  5-C ,  7-C ) :   0.9090 B(  7-C ,  8-C ) :   1.6264
B(  7-C ,  9-C ) :   1.1606 B(  8-C , 66-H ) :   1.0134 B(  9-C , 10-C ) :   1.6243
B(  9-C , 67-H ) :   0.9684 B( 10-C , 11-C ) :   1.1488 B( 10-C , 68-H ) :   0.9627
B( 11-C , 12-S ) :   1.1184 B( 11-C , 15-C ) :   1.4099 B( 12-S , 13-C ) :   1.1262
B( 13-C , 14-C ) :   1.4206 B( 13-C , 19-C ) :   1.0918 B( 14-C , 15-C ) :   1.3444
B( 14-C , 16-C ) :   0.9173 B( 15-C , 69-H ) :   1.0018 B( 16-C , 17-O ) :   2.2628
B( 16-C , 18-C ) :   0.9180 B( 18-C , 19-C ) :   1.5747 B( 18-C , 20-C ) :   1.1570
B( 19-C , 70-H ) :   1.0126 B( 20-C , 21-C ) :   1.5103 B( 20-C , 71-H ) :   0.9734
B( 21-C , 22-C ) :   1.2083 B( 21-C , 72-H ) :   0.9539 B( 22-C , 23-N ) :   1.1683
B( 22-C , 28-C ) :   1.3238 B( 23-N , 24-C ) :   0.9641 B( 23-N , 25-C ) :   1.0275
B( 24-C , 73-H ) :   0.9694 B( 24-C , 74-H ) :   0.9437 B( 24-C , 75-H ) :   0.9698
B( 25-C , 26-O ) :   2.1697 B( 25-C , 27-C ) :   0.9630 B( 27-C , 28-C ) :   1.2150
B( 27-C , 33-C ) :   1.4285 B( 28-C , 29-C ) :   1.0011 B( 29-C , 30-O ) :   2.1328
B( 29-C , 31-N ) :   1.0161 B( 31-N , 32-C ) :   0.9698 B( 31-N , 33-C ) :   1.2194
B( 32-C , 76-H ) :   0.9535 B( 32-C , 77-H ) :   0.9641 B( 32-C , 78-H ) :   0.9693
B( 33-C , 34-C ) :   1.0359 B( 34-C , 35-S ) :   1.1925 B( 34-C , 36-C ) :   0.1187
B( 34-C , 38-C ) :   1.4802 B( 35-S , 36-C ) :   1.1079 B( 36-C , 37-C ) :   1.4380
B( 36-C , 45-C ) :   1.1735 B( 37-C , 38-C ) :   1.3558 B( 37-C , 44-C ) :   1.0490
B( 38-C , 39-C ) :   0.9625 B( 39-C , 40-C ) :   1.0287 B( 39-C , 42-C ) :   1.0693
B( 39-C , 79-H ) :   0.8769 B( 40-C , 41-C ) :   2.0106 B( 40-C , 80-H ) :   0.9538
B( 41-C , 81-H ) :   0.9535 B( 41-C , 82-H ) :   0.9499 B( 42-C , 43-C ) :   1.0691
B( 42-C , 83-H ) :   0.9340 B( 42-C , 84-H ) :   0.9373 B( 43-C , 44-C ) :   1.0989
B( 43-C , 85-H ) :   0.9316 B( 43-C , 86-H ) :   0.9384 B( 44-C , 87-H ) :   0.9116
B( 44-C , 88-H ) :   0.9091 B( 45-C , 46-C ) :   1.5239 B( 45-C , 89-H ) :   0.9779
B( 46-C , 47-C ) :   1.2182 B( 46-C , 90-H ) :   0.9714 B( 47-C , 48-C ) :   1.5028
B( 47-C , 91-H ) :   0.9752 B( 48-C , 49-C ) :   1.0965 B( 48-C , 62-C ) :   0.9559
B( 49-C , 50-C ) :   1.5717 B( 49-C , 57-C ) :   1.0180 B( 50-C , 51-N ) :   0.9627
B( 50-C , 54-N ) :   0.8776 B( 51-N , 52-O ) :   1.5241 B( 51-N , 53-O ) :   1.4880
B( 52-O , 53-O ) :   0.2563 B( 54-N , 55-O ) :   1.5416 B( 54-N , 56-O ) :   1.5171
B( 55-O , 56-O ) :   0.2858 B( 57-C , 58-C ) :   1.5462 B( 57-C , 61-C ) :   1.2203
B( 58-C , 59-S ) :   1.1849 B( 58-C , 92-H ) :   0.9482 B( 59-S , 60-C ) :   1.1769
B( 60-C , 61-C ) :   1.5578 B( 60-C , 93-H ) :   0.9715 B( 61-C , 62-C ) :   0.9540
B( 62-C , 63-O ) :   2.1963

-----------------------------------------------------------------------------
         ABSORPTION SPECTRUM VIA TRANSITION ELECTRIC DIPOLE MOMENTS
-----------------------------------------------------------------------------
State   Energy  Wavelength   fosc         T2         TX        TY        TZ
        (cm-1)    (nm)                  (au**2)     (au)      (au)      (au)
-----------------------------------------------------------------------------
   0   11082.7    902.3   1.224477874  36.37326   5.52534   2.39125   0.35473
   1   15650.7    638.9   0.165778236   3.48714  -0.22568  -1.83362  -0.27210
   2   17292.8    578.3   0.225011419   4.28365  -1.85867  -0.89553   0.16436
   3   17590.9    568.5   0.009013186   0.16868   0.21508  -0.22143   0.27091
   4   21539.9    464.3   0.676857299  10.34496  -0.80114  -3.11154   0.14642
   5   22774.1    439.1   0.260734679   3.76905  -1.82127   0.24487  -0.62615
   6   24366.0    410.4   0.077060547   1.04117   0.77779   0.55787  -0.35356
   7   25085.7    398.6   0.004033941   0.05294  -0.16802   0.04526   0.15053
   8   25972.7    385.0   0.039924309   0.50605  -0.52970   0.21406  -0.42385
   9   26243.1    381.1   0.000037444   0.00047   0.00940   0.00321   0.01926
  10   26314.4    380.0   0.012053687   0.15080   0.25099  -0.27642   0.10677
  11   26404.3    378.7   0.000103703   0.00129   0.01115  -0.03318  -0.00824
  12   26780.8    373.4   0.006734406   0.08278  -0.01973   0.28649   0.01783
  13   26950.8    371.0   0.015372925   0.18778  -0.43115  -0.03240  -0.02911
  14   27443.9    364.4   0.127467179   1.52907  -0.37371   1.15200  -0.24963
  15   28288.6    353.5   0.000308271   0.00359   0.05521  -0.02310   0.00238
  16   28793.3    347.3   0.262159183   2.99743   1.05175  -1.30480   0.43444
  17   29930.1    334.1   0.131781974   1.44952  -0.46599  -1.09384   0.18943
  18   30069.9    332.6   0.396954119   4.34594   1.86103   0.75852  -0.55421
  19   30419.0    328.7   0.093838185   1.01557  -0.32007  -0.93083   0.21604
  20   30898.2    323.6   0.048714440   0.51904   0.46230  -0.54984  -0.05475
  21   31458.1    317.9   0.006632568   0.06941  -0.03135  -0.17992   0.18988
  22   31662.2    315.8   0.032953113   0.34263   0.56078  -0.15343   0.06798
  23   31987.7    312.6   0.103304987   1.06320   1.00916   0.12662   0.16957
  24   32106.2    311.5   0.072192652   0.74025  -0.79332   0.33167  -0.02990
  25   32887.8    304.1   0.001418455   0.01420  -0.11831   0.00989  -0.01023
  26   33067.3    302.4   0.002417065   0.02406   0.08123   0.04738   0.12337
  27   33726.4    296.5   0.017798510   0.17374  -0.20147   0.28946  -0.22217
  28   33957.7    294.5   0.023486070   0.22769   0.10496   0.41718  -0.20649
  29   34113.0    293.1   0.002588275   0.02498   0.14595   0.03689  -0.04813
  30   34408.9    290.6   0.179231635   1.71482  -1.06262  -0.59107   0.48612
  31   34686.2    288.3   0.023653909   0.22450   0.37831   0.28489  -0.01488
  32   34796.5    287.4   0.053341423   0.50467   0.34524  -0.60291   0.14824
  33   35267.9    283.5   0.147585576   1.37765   0.74096   0.68277  -0.60204
  34   35508.8    281.6   0.005545288   0.05141  -0.17291  -0.14342  -0.03071
  35   35740.8    279.8   0.078365684   0.72183  -0.74105   0.41374  -0.03880
  36   36029.1    277.6   0.110598398   1.01058  -0.56889  -0.63831   0.52868
  37   36177.3    276.4   0.170343611   1.55012   1.24147  -0.09419   0.00271
  38   36404.3    274.7   0.051295298   0.46387   0.66923   0.08284  -0.09561
  39   36505.0    273.9   0.006102988   0.05504  -0.20449   0.07715   0.08527
  40   36981.2    270.4   0.003924643   0.03494   0.17339   0.06916   0.00957
  41   37083.7    269.7   0.016259500   0.14434   0.37395   0.06627  -0.01072
  42   37757.8    264.8   0.021490213   0.18737  -0.27877   0.31701   0.09574
  43   37909.0    263.8   0.020473240   0.17780  -0.35401   0.11152   0.20009
  44   38318.9    261.0   0.062370081   0.53585   0.72581  -0.08156  -0.04887
  45   38897.7    257.1   0.060039769   0.50815  -0.05949  -0.62102   0.34488
  46   39010.7    256.3   0.000037841   0.00032  -0.00193   0.01746   0.00328
  47   39266.9    254.7   0.002534714   0.02125   0.12409   0.01373   0.07526
  48   39593.2    252.6   0.001864521   0.01550   0.01384  -0.12305   0.01308
  49   39844.7    251.0   0.002743757   0.02267  -0.10323  -0.10706   0.02348
  50   39997.6    250.0   0.077142129   0.63494   0.72642   0.32572   0.03410
  51   40173.4    248.9   0.004413501   0.03617  -0.14773  -0.11217   0.04199

FINAL SINGLE POINT ENERGY     -4293.706371388803

DIPOLE MOMENT
-------------
                                X             Y             Z
Electronic contribution:     23.90694     -41.69807      -5.24429
Nuclear contribution   :    -21.15346      45.17880       4.66649
                        -----------------------------------------
Total Dipole Moment    :      2.75348       3.48074      -0.57780
                        -----------------------------------------
Magnitude (a.u.)       :      4.47560
Magnitude (Debye)      :     11.37607

Rotational constants in cm-1:     0.001942     0.000231     0.000211
Rotational constants in MHz :    58.210008     6.922411     6.316124

                             ****ORCA TERMINATED NORMALLY****
TOTAL RUN TIME: 0 days 0 hours 8 minutes 11 seconds 497 msec
