                         Program Version 4.2.0 -  RELEASE  -
|  1> # ORCA input file
|  2> # SCF done       -178.105041928011          0.000528596271
|  3> ! CAM-B3LYP def2-SVP def2/J RIJCOSX Grid4 TightSCF
|  4> %maxcore 5000
|  5> %tddft
|  6>     Mode sTDDFT
|  7>     Ethresh 5.0
|  8>     maxcore 5000
|  9> end
| 10>
| 11> %pal
| 12>   nprocs 6
| 13>   end
| 14> * xyz 0 1
| 15>    C       -1.28693         4.84693        -0.55660
| 16>    C       -0.21134         4.86488         0.28402
| 17>    C        0.30865         6.05657         0.84163
| 18>    N        0.67126         6.99909         1.38620
| 19>    C        0.42249         3.72207         0.82161
| 20>    N        0.93432         2.82801         1.32705
| 21>    C       -2.00008         6.02569        -1.03393
| 22>    C       -3.24694         5.62325        -1.57374
| 23>    C       -4.16110         6.52080        -2.07380
| 24>    C       -3.82220         7.87647        -2.05468
| 25>    C       -2.56346         8.26691        -1.53462
| 26>    C       -1.64302         7.36165        -1.02255
| 27>    S       -2.34519         9.98818        -1.61604
| 28>    C       -3.92618        10.15896        -2.33231
| 29>    C       -4.58470         8.98836        -2.50608
| 30>   Br       -4.55862        11.86488        -2.78704
| 31>    C       -3.36626         4.15707        -1.49205
| 32>    O       -4.34487         3.49033        -1.75356
| 33>    C       -2.04995         3.67664        -0.99067
| 34>    C       -1.67027         2.38082        -0.90977
| 35>    C       -2.46984         1.22905        -1.21276
| 36>    C       -3.40691         0.91553        -2.38057
| 37>    N       -4.06713        -0.19913        -2.22036
| 38>    C       -3.65188        -0.70060        -1.01938
| 39>    C       -3.78193        -1.59951        -0.01483
| 40>    S       -2.52007        -0.88249         1.04468
| 41>    C       -2.62459         0.14553        -0.43218
| 42>    C       -3.49886         1.72633        -3.55410
| 43>    C       -4.51959         1.67537        -4.42958
| 44>    C       -5.69212         0.77504        -4.26421
| 45>    C       -4.58980         2.57258        -5.64648
| 46>    N       -3.34357         3.16946        -6.04155
| 47>    C       -2.47471         2.56379        -6.87601
| 48>    C       -1.14768         2.85718        -6.91971
| 49>    C       -0.21614         2.27290        -7.79409
| 50>    C        1.13812         2.40853        -7.61391
| 51>    C        2.20721         1.86538        -8.36203
| 52>    C        3.44232         2.09072        -7.82354
| 53>    C        3.41136         2.81570        -6.61446
| 54>    S        1.77797         3.26486        -6.21445
| 55>    C        4.42677         3.12416        -5.72170
| 56>    C        5.80047         2.83234        -5.75127
| 57>    C        6.46444         3.20583        -4.61196
| 58>    C        5.64388         3.80048        -3.63324
| 59>    S        4.00745         3.92397        -4.22232
| 60>    C        5.98196         4.21336        -2.35122
| 61>    C        5.01350         4.70239        -1.49165
| 62>    C        5.05196         5.08680        -0.16356
| 63>    C        3.75988         5.16339         0.53991
| 64>    O        2.65398         5.09295         0.02950
| 65>    C        4.08555         5.29736         1.97114
| 66>    C        3.25219         5.33493         3.04993
| 67>    C        3.80876         5.44264         4.34480
| 68>    C        5.22334         5.50054         4.49393
| 69>    C        5.77193         5.60376         5.78723
| 70>    C        4.95324         5.65157         6.88090
| 71>    C        3.55465         5.59605         6.73192
| 72>    C        2.99223         5.49291         5.49039
| 73>    F        2.77434         5.64526         7.82405
| 74>    F        5.47873         5.75256         8.11222
| 75>    C        6.06199         5.46154         3.35453
| 76>    C        5.50143         5.36825         2.11053
| 77>    C        6.10516         5.34075         0.77400
| 78>    C        7.41592         5.66871         0.50722
| 79>    C        7.94479         5.90695        -0.77426
| 80>    N        8.43671         6.15940        -1.78195
| 81>    C        8.38715         5.90870         1.49747
| 82>    N        9.23409         6.09495         2.25174
| 83>    H       -5.10956         6.18647        -2.46480
| 84>    H       -0.69472         7.70311        -0.64272
| 85>    H       -5.56870         8.91150        -2.93129
| 86>    H       -0.69772         2.15172        -0.48959
| 87>    H       -4.40824        -2.44424         0.19287
| 88>    H       -2.68441         2.42454        -3.69432
| 89>    H       -5.96869         0.70906        -3.21489
| 90>    H       -5.42836        -0.23492        -4.57529
| 91>    H       -6.53818         1.11900        -4.85439
| 92>    H       -5.31305         3.37134        -5.43921
| 93>    H       -4.97121         1.98957        -6.49024
| 94>    H       -2.95079         3.83940        -5.39468
| 95>    H       -2.90285         1.82418        -7.53873
| 96>    H       -0.75602         3.55848        -6.19313
| 97>    H       -0.56974         1.65899        -8.61077
| 98>    H        2.03337         1.31296        -9.26888
| 99>    H        4.36460         1.73872        -8.24980
|100>    H        6.26524         2.34863        -6.59213
|101>    H        7.51665         3.05800        -4.44609
|102>    H        7.00878         4.09468        -2.04543
|103>    H        3.99728         4.70117        -1.88309
|104>    H        2.18211         5.28843         2.92357
|105>    H        6.84174         5.65013         5.91891
|106>    H        1.91899         5.45172         5.39036
|107>    H        7.12931         5.50232         3.50067
|108> *
|109>
|110>                          ****END OF INPUT****

CARTESIAN COORDINATES (ANGSTROEM)
---------------------------------
  C     -1.286930    4.846930   -0.556600
  C     -0.211340    4.864880    0.284020
  C      0.308650    6.056570    0.841630
  N      0.671260    6.999090    1.386200
  C      0.422490    3.722070    0.821610
  N      0.934320    2.828010    1.327050
  C     -2.000080    6.025690   -1.033930
  C     -3.246940    5.623250   -1.573740
  C     -4.161100    6.520800   -2.073800
  C     -3.822200    7.876470   -2.054680
  C     -2.563460    8.266910   -1.534620
  C     -1.643020    7.361650   -1.022550
  S     -2.345190    9.988180   -1.616040
  C     -3.926180   10.158960   -2.332310
  C     -4.584700    8.988360   -2.506080
  Br    -4.558620   11.864880   -2.787040
  C     -3.366260    4.157070   -1.492050
  O     -4.344870    3.490330   -1.753560
  C     -2.049950    3.676640   -0.990670
  C     -1.670270    2.380820   -0.909770
  C     -2.469840    1.229050   -1.212760
  C     -3.406910    0.915530   -2.380570
  N     -4.067130   -0.199130   -2.220360
  C     -3.651880   -0.700600   -1.019380
  C     -3.781930   -1.599510   -0.014830
  S     -2.520070   -0.882490    1.044680
  C     -2.624590    0.145530   -0.432180
  C     -3.498860    1.726330   -3.554100
  C     -4.519590    1.675370   -4.429580
  C     -5.692120    0.775040   -4.264210
  C     -4.589800    2.572580   -5.646480
  N     -3.343570    3.169460   -6.041550
  C     -2.474710    2.563790   -6.876010
  C     -1.147680    2.857180   -6.919710
  C     -0.216140    2.272900   -7.794090
  C      1.138120    2.408530   -7.613910
  C      2.207210    1.865380   -8.362030
  C      3.442320    2.090720   -7.823540
  C      3.411360    2.815700   -6.614460
  S      1.777970    3.264860   -6.214450
  C      4.426770    3.124160   -5.721700
  C      5.800470    2.832340   -5.751270
  C      6.464440    3.205830   -4.611960
  C      5.643880    3.800480   -3.633240
  S      4.007450    3.923970   -4.222320
  C      5.981960    4.213360   -2.351220
  C      5.013500    4.702390   -1.491650
  C      5.051960    5.086800   -0.163560
  C      3.759880    5.163390    0.539910
  O      2.653980    5.092950    0.029500
  C      4.085550    5.297360    1.971140
  C      3.252190    5.334930    3.049930
  C      3.808760    5.442640    4.344800
  C      5.223340    5.500540    4.493930
  C      5.771930    5.603760    5.787230
  C      4.953240    5.651570    6.880900
  C      3.554650    5.596050    6.731920
  C      2.992230    5.492910    5.490390
  F      2.774340    5.645260    7.824050
  F      5.478730    5.752560    8.112220
  C      6.061990    5.461540    3.354530
  C      5.501430    5.368250    2.110530
  C      6.105160    5.340750    0.774000
  C      7.415920    5.668710    0.507220
  C      7.944790    5.906950   -0.774260
  N      8.436710    6.159400   -1.781950
  C      8.387150    5.908700    1.497470
  N      9.234090    6.094950    2.251740
  H     -5.109560    6.186470   -2.464800
  H     -0.694720    7.703110   -0.642720
  H     -5.568700    8.911500   -2.931290
  H     -0.697720    2.151720   -0.489590
  H     -4.408240   -2.444240    0.192870
  H     -2.684410    2.424540   -3.694320
  H     -5.968690    0.709060   -3.214890
  H     -5.428360   -0.234920   -4.575290
  H     -6.538180    1.119000   -4.854390
  H     -5.313050    3.371340   -5.439210
  H     -4.971210    1.989570   -6.490240
  H     -2.950790    3.839400   -5.394680
  H     -2.902850    1.824180   -7.538730
  H     -0.756020    3.558480   -6.193130
  H     -0.569740    1.658990   -8.610770
  H      2.033370    1.312960   -9.268880
  H      4.364600    1.738720   -8.249800
  H      6.265240    2.348630   -6.592130
  H      7.516650    3.058000   -4.446090
  H      7.008780    4.094680   -2.045430
  H      3.997280    4.701170   -1.883090
  H      2.182110    5.288430    2.923570
  H      6.841740    5.650130    5.918910
  H      1.918990    5.451720    5.390360
  H      7.129310    5.502320    3.500670

 Total Charge           Charge          ....    0
 Multiplicity           Mult            ....    1
 Number of Electrons    NEL             ....  518
 Basis Dimension        Dim             .... 1111

ORBITAL ENERGIES
----------------

  NO   OCC          E(Eh)            E(eV)
   0   2.0000    -482.891525    -13140.1464
   1   2.0000     -88.982036     -2421.3243
   2   2.0000     -88.959766     -2420.7183
   3   2.0000     -88.953410     -2420.5454
   4   2.0000     -88.950105     -2420.4554
   5   2.0000     -62.569222     -1702.5951
   6   2.0000     -56.403179     -1534.8085
   7   2.0000     -56.400451     -1534.7343
   8   2.0000     -56.400423     -1534.7335
   9   2.0000     -24.776913      -674.2141
  10   2.0000     -24.776638      -674.2066
  11   2.0000     -19.230732      -523.2948
  12   2.0000     -19.189203      -522.1648
  13   2.0000     -14.468466      -393.7070
  14   2.0000     -14.413939      -392.2232
  15   2.0000     -14.410849      -392.1391
  16   2.0000     -14.404923      -391.9779
  17   2.0000     -14.386812      -391.4850
  18   2.0000     -14.385630      -391.4529
  19   2.0000     -10.379218      -282.4329
  20   2.0000     -10.365758      -282.0666
  21   2.0000     -10.357988      -281.8552
  22   2.0000     -10.357653      -281.8461
  23   2.0000     -10.351807      -281.6870
  24   2.0000     -10.347735      -281.5762
  25   2.0000     -10.343614      -281.4640
  26   2.0000     -10.338775      -281.3324
  27   2.0000     -10.338627      -281.3283
  28   2.0000     -10.336660      -281.2748
  29   2.0000     -10.333890      -281.1994
  30   2.0000     -10.333527      -281.1896
  31   2.0000     -10.331182      -281.1257
  32   2.0000     -10.326370      -280.9948
  33   2.0000     -10.318340      -280.7763
  34   2.0000     -10.317343      -280.7492
  35   2.0000     -10.315968      -280.7118
  36   2.0000     -10.315913      -280.7103
  37   2.0000     -10.315716      -280.7049
  38   2.0000     -10.314929      -280.6835
  39   2.0000     -10.314498      -280.6718
  40   2.0000     -10.313722      -280.6507
  41   2.0000     -10.311895      -280.6009
  42   2.0000     -10.311372      -280.5867
  43   2.0000     -10.311277      -280.5841
  44   2.0000     -10.310963      -280.5756
  45   2.0000     -10.309776      -280.5433
  46   2.0000     -10.309514      -280.5361
  47   2.0000     -10.309293      -280.5301
  48   2.0000     -10.308671      -280.5132
  49   2.0000     -10.306601      -280.4569
  50   2.0000     -10.303800      -280.3807
  51   2.0000     -10.303534      -280.3734
  52   2.0000     -10.301999      -280.3317
  53   2.0000     -10.298357      -280.2325
  54   2.0000     -10.296453      -280.1807
  55   2.0000     -10.291431      -280.0441
  56   2.0000     -10.289795      -279.9996
  57   2.0000     -10.285599      -279.8854
  58   2.0000     -10.285133      -279.8727
  59   2.0000     -10.284883      -279.8659
  60   2.0000     -10.284022      -279.8425
  61   2.0000     -10.281964      -279.7865
  62   2.0000     -10.280555      -279.7481
  63   2.0000     -10.279982      -279.7325
  64   2.0000     -10.278119      -279.6818
  65   2.0000     -10.277341      -279.6607
  66   2.0000     -10.274922      -279.5949
  67   2.0000     -10.273885      -279.5666
  68   2.0000     -10.266877      -279.3759
  69   2.0000     -10.265741      -279.3450
  70   2.0000     -10.264440      -279.3096
  71   2.0000     -10.260448      -279.2010
  72   2.0000      -8.798652      -239.4235
  73   2.0000      -8.078066      -219.8154
  74   2.0000      -8.056155      -219.2191
  75   2.0000      -8.048163      -219.0016
  76   2.0000      -8.046562      -218.9581
  77   2.0000      -6.634959      -180.5464
  78   2.0000      -6.620387      -180.1499
  79   2.0000      -6.620167      -180.1439
  80   2.0000      -6.047774      -164.5683
  81   2.0000      -6.043447      -164.4506
  82   2.0000      -6.039268      -164.3368
  83   2.0000      -6.025757      -163.9692
  84   2.0000      -6.021758      -163.8604
  85   2.0000      -6.019025      -163.7860
  86   2.0000      -6.017269      -163.7382
  87   2.0000      -6.016101      -163.7064
  88   2.0000      -6.015174      -163.6812
  89   2.0000      -6.012092      -163.5973
  90   2.0000      -6.007776      -163.4799
  91   2.0000      -6.006697      -163.4505
  92   2.0000      -2.750852       -74.8545
  93   2.0000      -2.746723       -74.7421
  94   2.0000      -2.746574       -74.7381
  95   2.0000      -2.734976       -74.4225
  96   2.0000      -2.734969       -74.4223
  97   2.0000      -1.298606       -35.3369
  98   2.0000      -1.283900       -34.9367
  99   2.0000      -1.145176       -31.1618
 100   2.0000      -1.102269       -29.9943
 101   2.0000      -1.071171       -29.1481
 102   2.0000      -1.069083       -29.0912
 103   2.0000      -1.029192       -28.0057
 104   2.0000      -1.014625       -27.6094
 105   2.0000      -1.007929       -27.4271
 106   2.0000      -0.994192       -27.0533
 107   2.0000      -0.991324       -26.9753
 108   2.0000      -0.990493       -26.9527
 109   2.0000      -0.982708       -26.7408
 110   2.0000      -0.977418       -26.5969
 111   2.0000      -0.971855       -26.4455
 112   2.0000      -0.965417       -26.2703
 113   2.0000      -0.953828       -25.9550
 114   2.0000      -0.950263       -25.8580
 115   2.0000      -0.930895       -25.3309
 116   2.0000      -0.918479       -24.9931
 117   2.0000      -0.913741       -24.8642
 118   2.0000      -0.913465       -24.8566
 119   2.0000      -0.905593       -24.6424
 120   2.0000      -0.892805       -24.2945
 121   2.0000      -0.891393       -24.2560
 122   2.0000      -0.881173       -23.9779
 123   2.0000      -0.872763       -23.7491
 124   2.0000      -0.867228       -23.5985
 125   2.0000      -0.861040       -23.4301
 126   2.0000      -0.854687       -23.2572
 127   2.0000      -0.839289       -22.8382
 128   2.0000      -0.834701       -22.7134
 129   2.0000      -0.833349       -22.6766
 130   2.0000      -0.828630       -22.5482
 131   2.0000      -0.819334       -22.2952
 132   2.0000      -0.814762       -22.1708
 133   2.0000      -0.800833       -21.7918
 134   2.0000      -0.782382       -21.2897
 135   2.0000      -0.777193       -21.1485
 136   2.0000      -0.765204       -20.8223
 137   2.0000      -0.764120       -20.7927
 138   2.0000      -0.758689       -20.6450
 139   2.0000      -0.740686       -20.1551
 140   2.0000      -0.736004       -20.0277
 141   2.0000      -0.727933       -19.8081
 142   2.0000      -0.718607       -19.5543
 143   2.0000      -0.712319       -19.3832
 144   2.0000      -0.704021       -19.1574
 145   2.0000      -0.695496       -18.9254
 146   2.0000      -0.692303       -18.8385
 147   2.0000      -0.690430       -18.7876
 148   2.0000      -0.687970       -18.7206
 149   2.0000      -0.666936       -18.1483
 150   2.0000      -0.665750       -18.1160
 151   2.0000      -0.659583       -17.9482
 152   2.0000      -0.653748       -17.7894
 153   2.0000      -0.649655       -17.6780
 154   2.0000      -0.641687       -17.4612
 155   2.0000      -0.634527       -17.2663
 156   2.0000      -0.632613       -17.2143
 157   2.0000      -0.630597       -17.1594
 158   2.0000      -0.629004       -17.1161
 159   2.0000      -0.621279       -16.9059
 160   2.0000      -0.618093       -16.8192
 161   2.0000      -0.613587       -16.6965
 162   2.0000      -0.610497       -16.6125
 163   2.0000      -0.607376       -16.5275
 164   2.0000      -0.602155       -16.3855
 165   2.0000      -0.596644       -16.2355
 166   2.0000      -0.592869       -16.1328
 167   2.0000      -0.588659       -16.0182
 168   2.0000      -0.583237       -15.8707
 169   2.0000      -0.567838       -15.4517
 170   2.0000      -0.566396       -15.4124
 171   2.0000      -0.563541       -15.3347
 172   2.0000      -0.560270       -15.2457
 173   2.0000      -0.556289       -15.1374
 174   2.0000      -0.551974       -15.0200
 175   2.0000      -0.550997       -14.9934
 176   2.0000      -0.547597       -14.9009
 177   2.0000      -0.545906       -14.8549
 178   2.0000      -0.542762       -14.7693
 179   2.0000      -0.538429       -14.6514
 180   2.0000      -0.533191       -14.5089
 181   2.0000      -0.531009       -14.4495
 182   2.0000      -0.529835       -14.4176
 183   2.0000      -0.525802       -14.3078
 184   2.0000      -0.521921       -14.2022
 185   2.0000      -0.519702       -14.1418
 186   2.0000      -0.518760       -14.1162
 187   2.0000      -0.516577       -14.0568
 188   2.0000      -0.513862       -13.9829
 189   2.0000      -0.512713       -13.9516
 190   2.0000      -0.510442       -13.8898
 191   2.0000      -0.507667       -13.8143
 192   2.0000      -0.506532       -13.7834
 193   2.0000      -0.504454       -13.7269
 194   2.0000      -0.502689       -13.6789
 195   2.0000      -0.501722       -13.6525
 196   2.0000      -0.498641       -13.5687
 197   2.0000      -0.491710       -13.3801
 198   2.0000      -0.489683       -13.3250
 199   2.0000      -0.487934       -13.2774
 200   2.0000      -0.483579       -13.1589
 201   2.0000      -0.480506       -13.0752
 202   2.0000      -0.477707       -12.9991
 203   2.0000      -0.476469       -12.9654
 204   2.0000      -0.475458       -12.9379
 205   2.0000      -0.474641       -12.9156
 206   2.0000      -0.470859       -12.8127
 207   2.0000      -0.470307       -12.7977
 208   2.0000      -0.467288       -12.7156
 209   2.0000      -0.464136       -12.6298
 210   2.0000      -0.461512       -12.5584
 211   2.0000      -0.459391       -12.5007
 212   2.0000      -0.456921       -12.4334
 213   2.0000      -0.453555       -12.3419
 214   2.0000      -0.447092       -12.1660
 215   2.0000      -0.444942       -12.1075
 216   2.0000      -0.443300       -12.0628
 217   2.0000      -0.442728       -12.0472
 218   2.0000      -0.442052       -12.0289
 219   2.0000      -0.441064       -12.0020
 220   2.0000      -0.439767       -11.9667
 221   2.0000      -0.430680       -11.7194
 222   2.0000      -0.426962       -11.6182
 223   2.0000      -0.424960       -11.5638
 224   2.0000      -0.423680       -11.5289
 225   2.0000      -0.423122       -11.5137
 226   2.0000      -0.420194       -11.4341
 227   2.0000      -0.418027       -11.3751
 228   2.0000      -0.416469       -11.3327
 229   2.0000      -0.412739       -11.2312
 230   2.0000      -0.409013       -11.1298
 231   2.0000      -0.407977       -11.1016
 232   2.0000      -0.402504       -10.9527
 233   2.0000      -0.399078       -10.8595
 234   2.0000      -0.397911       -10.8277
 235   2.0000      -0.396940       -10.8013
 236   2.0000      -0.392110       -10.6699
 237   2.0000      -0.388560       -10.5733
 238   2.0000      -0.383146       -10.4259
 239   2.0000      -0.380742       -10.3605
 240   2.0000      -0.376925       -10.2566
 241   2.0000      -0.363762        -9.8985
 242   2.0000      -0.363083        -9.8800
 243   2.0000      -0.352710        -9.5977
 244   2.0000      -0.350201        -9.5295
 245   2.0000      -0.346260        -9.4222
 246   2.0000      -0.338338        -9.2067
 247   2.0000      -0.337126        -9.1737
 248   2.0000      -0.327594        -8.9143
 249   2.0000      -0.321947        -8.7606
 250   2.0000      -0.319425        -8.6920
 251   2.0000      -0.314292        -8.5523
 252   2.0000      -0.312291        -8.4979
 253   2.0000      -0.298038        -8.1100
 254   2.0000      -0.292754        -7.9662
 255   2.0000      -0.280249        -7.6260
 256   2.0000      -0.270297        -7.3552
 257   2.0000      -0.270180        -7.3520
 258   2.0000      -0.216530        -5.8921
 259   0.0000      -0.098509        -2.6806
 260   0.0000      -0.093403        -2.5416
 261   0.0000      -0.069937        -1.9031
 262   0.0000      -0.058814        -1.6004
 263   0.0000      -0.046142        -1.2556

MULLIKEN ATOMIC CHARGES
-----------------------
   0 C :    0.268365
   1 C :   -0.283756
   2 C :   -0.159320
   3 N :    0.130659
   4 C :   -0.181411
   5 N :    0.156581
   6 C :    0.017401
   7 C :   -0.009920
   8 C :   -0.083490
   9 C :    0.114735
  10 C :   -0.089646
  11 C :   -0.015871
  12 S :    0.195592
  13 C :   -0.127058
  14 C :    0.042793
  15 Br:    0.028510
  16 C :    0.121798
  17 O :   -0.143178
  18 C :   -0.064819
  19 C :   -0.048234
  20 C :   -0.082449
  21 C :    0.012773
  22 N :   -0.095135
  23 C :    0.188485
  24 C :   -0.159618
  25 S :    0.076182
  26 C :    0.024979
  27 C :    0.041999
  28 C :   -0.226103
  29 C :    0.151167
  30 C :    0.181921
  31 N :   -0.134413
  32 C :    0.083693
  33 C :   -0.042424
  34 C :    0.031153
  35 C :   -0.055465
  36 C :    0.059939
  37 C :    0.011719
  38 C :   -0.014219
  39 S :    0.072109
  40 C :   -0.061227
  41 C :    0.047047
  42 C :    0.018499
  43 C :   -0.014233
  44 S :    0.077504
  45 C :    0.003183
  46 C :    0.002529
  47 C :   -0.120799
  48 C :    0.177417
  49 O :   -0.209646
  50 C :    0.021099
  51 C :   -0.066423
  52 C :    0.109908
  53 C :    0.114304
  54 C :   -0.113005
  55 C :    0.238261
  56 C :    0.233354
  57 C :   -0.107701
  58 F :   -0.180979
  59 F :   -0.179276
  60 C :   -0.090950
  61 C :    0.030290
  62 C :    0.316359
  63 C :   -0.363358
  64 C :   -0.215093
  65 N :    0.145844
  66 C :   -0.179756
  67 N :    0.126746
  68 H :   -0.015999
  69 H :    0.005620
  70 H :   -0.005737
  71 H :    0.041012
  72 H :    0.031096
  73 H :   -0.045888
  74 H :    0.042714
  75 H :    0.035261
  76 H :   -0.003270
  77 H :    0.044312
  78 H :    0.026941
  79 H :    0.132665
  80 H :    0.014497
  81 H :    0.000803
  82 H :   -0.004834
  83 H :   -0.005946
  84 H :   -0.008948
  85 H :   -0.007981
  86 H :    0.000429
  87 H :    0.000305
  88 H :    0.009245
  89 H :   -0.029913
  90 H :    0.003056
  91 H :   -0.004808
  92 H :   -0.010553
Sum of atomic charges:   -0.0000000

LOEWDIN ATOMIC CHARGES
----------------------
   0 C :    0.061239
   1 C :   -0.105497
   2 C :   -0.013481
   3 N :   -0.056006
   4 C :   -0.018867
   5 N :   -0.047483
   6 C :   -0.017504
   7 C :   -0.059092
   8 C :    0.015597
   9 C :   -0.034455
  10 C :   -0.141154
  11 C :   -0.005628
  12 S :    0.439390
  13 C :   -0.270278
  14 C :   -0.072575
  15 Br:    0.140455
  16 C :    0.079829
  17 O :   -0.130246
  18 C :   -0.078676
  19 C :    0.064161
  20 C :   -0.071336
  21 C :    0.067608
  22 N :   -0.106904
  23 C :   -0.063112
  24 C :   -0.067198
  25 S :    0.291865
  26 C :   -0.087405
  27 C :   -0.072250
  28 C :    0.008948
  29 C :   -0.046843
  30 C :    0.039442
  31 N :    0.019630
  32 C :    0.076718
  33 C :   -0.126879
  34 C :    0.005260
  35 C :   -0.183455
  36 C :   -0.003466
  37 C :   -0.055564
  38 C :   -0.135110
  39 S :    0.389594
  40 C :   -0.211509
  41 C :   -0.003748
  42 C :   -0.054561
  43 C :   -0.093471
  44 S :    0.401967
  45 C :   -0.082533
  46 C :    0.047516
  47 C :   -0.121816
  48 C :    0.094617
  49 O :   -0.172075
  50 C :   -0.047451
  51 C :    0.031911
  52 C :   -0.010969
  53 C :   -0.007123
  54 C :   -0.032915
  55 C :    0.062316
  56 C :    0.061536
  57 C :   -0.032525
  58 F :   -0.057852
  59 F :   -0.056573
  60 C :    0.005749
  61 C :   -0.014049
  62 C :    0.070346
  63 C :   -0.161631
  64 C :   -0.021144
  65 N :   -0.071981
  66 C :   -0.018672
  67 N :   -0.075255
  68 H :    0.037893
  69 H :    0.044240
  70 H :    0.037957
  71 H :    0.053985
  72 H :    0.024878
  73 H :    0.016482
  74 H :    0.044153
  75 H :    0.047807
  76 H :    0.020306
  77 H :    0.041645
  78 H :    0.035915
  79 H :    0.082070
  80 H :    0.033708
  81 H :    0.018808
  82 H :    0.037046
  83 H :    0.036458
  84 H :    0.033742
  85 H :    0.034735
  86 H :    0.038569
  87 H :    0.035709
  88 H :    0.024904
  89 H :    0.035034
  90 H :    0.045511
  91 H :    0.043323
  92 H :    0.037745

  Mayer bond orders larger than 0.100000
B(  0-C ,  1-C ) :   1.6883 B(  0-C ,  6-C ) :   1.0029 B(  0-C , 18-C ) :   1.0211
B(  1-C ,  2-C ) :   1.1390 B(  1-C ,  4-C ) :   1.1499 B(  2-C ,  3-N ) :   2.9399
B(  4-C ,  5-N ) :   2.9585 B(  6-C ,  7-C ) :   1.2715 B(  6-C , 11-C ) :   1.4093
B(  7-C ,  8-C ) :   1.4082 B(  7-C , 16-C ) :   0.9392 B(  8-C ,  9-C ) :   1.2570
B(  8-C , 68-H ) :   1.0168 B(  9-C , 10-C ) :   1.2967 B(  9-C , 14-C ) :   1.1630
B( 10-C , 11-C ) :   1.3355 B( 10-C , 12-S ) :   1.0879 B( 11-C , 69-H ) :   0.9821
B( 12-S , 13-C ) :   1.0880 B( 13-C , 14-C ) :   1.6196 B( 13-C , 15-Br) :   1.0224
B( 14-C , 70-H ) :   0.9991 B( 16-C , 17-O ) :   2.2101 B( 16-C , 18-C ) :   0.9313
B( 18-C , 19-C ) :   1.7246 B( 19-C , 20-C ) :   1.0296 B( 19-C , 71-H ) :   0.9404
B( 20-C , 21-C ) :   0.9723 B( 20-C , 26-C ) :   1.7911 B( 21-C , 22-N ) :   1.7271
B( 21-C , 27-C ) :   1.1232 B( 22-N , 23-C ) :   1.2136 B( 23-C , 24-C ) :   1.5763
B( 23-C , 26-C ) :   1.0502 B( 24-C , 25-S ) :   0.9711 B( 24-C , 72-H ) :   1.0146
B( 25-S , 26-C ) :   0.9274 B( 27-C , 28-C ) :   1.7885 B( 27-C , 73-H ) :   0.9314
B( 28-C , 29-C ) :   1.1255 B( 28-C , 30-C ) :   1.0037 B( 29-C , 74-H ) :   0.9201
B( 29-C , 75-H ) :   0.9256 B( 29-C , 76-H ) :   0.9459 B( 30-C , 31-N ) :   1.0384
B( 30-C , 77-H ) :   0.9243 B( 30-C , 78-H ) :   0.9334 B( 31-N , 32-C ) :   1.2634
B( 31-N , 79-H ) :   0.9328 B( 32-C , 33-C ) :   1.5556 B( 32-C , 80-H ) :   0.9692
B( 33-C , 34-C ) :   1.2077 B( 33-C , 81-H ) :   0.9579 B( 34-C , 35-C ) :   1.5430
B( 34-C , 82-H ) :   0.9820 B( 35-C , 36-C ) :   1.1759 B( 35-C , 39-S ) :   1.0147
B( 36-C , 37-C ) :   1.5503 B( 36-C , 83-H ) :   0.9976 B( 37-C , 38-C ) :   1.2230
B( 37-C , 84-H ) :   0.9964 B( 38-C , 39-S ) :   1.1039 B( 38-C , 40-C ) :   1.4158
B( 40-C , 41-C ) :   1.2594 B( 40-C , 44-S ) :   1.0396 B( 41-C , 42-C ) :   1.4982
B( 41-C , 85-H ) :   0.9952 B( 42-C , 43-C ) :   1.2187 B( 42-C , 86-H ) :   1.0009
B( 43-C , 44-S ) :   1.1039 B( 43-C , 45-C ) :   1.4237 B( 45-C , 46-C ) :   1.2910
B( 45-C , 87-H ) :   0.9694 B( 46-C , 47-C ) :   1.4582 B( 46-C , 88-H ) :   0.9178
B( 47-C , 48-C ) :   1.0229 B( 47-C , 62-C ) :   1.1000 B( 48-C , 49-O ) :   2.0566
B( 48-C , 50-C ) :   0.9315 B( 50-C , 51-C ) :   1.4821 B( 50-C , 61-C ) :   1.2142
B( 51-C , 52-C ) :   1.2017 B( 51-C , 89-H ) :   1.0110 B( 52-C , 53-C ) :   1.2569
B( 52-C , 57-C ) :   1.1957 B( 53-C , 54-C ) :   1.1971 B( 53-C , 60-C ) :   1.2006
B( 54-C , 55-C ) :   1.4338 B( 54-C , 57-C ) :   0.1096 B( 54-C , 90-H ) :   1.0070
B( 55-C , 56-C ) :   1.1988 B( 55-C , 59-F ) :   1.1277 B( 56-C , 57-C ) :   1.4382
B( 56-C , 58-F ) :   1.1248 B( 57-C , 91-H ) :   1.0070 B( 60-C , 61-C ) :   1.4738
B( 60-C , 92-H ) :   0.9901 B( 61-C , 62-C ) :   0.9826 B( 62-C , 63-C ) :   1.5801
B( 63-C , 64-C ) :   1.1797 B( 63-C , 66-C ) :   1.1392 B( 64-C , 65-N ) :   2.9884
B( 66-C , 67-N ) :   2.9621

-----------------------------------------------------------------------------
         ABSORPTION SPECTRUM VIA TRANSITION ELECTRIC DIPOLE MOMENTS
-----------------------------------------------------------------------------
State   Energy  Wavelength   fosc         T2         TX        TY        TZ
        (cm-1)    (nm)                  (au**2)     (au)      (au)      (au)
-----------------------------------------------------------------------------
   0   11731.0    852.4   1.108399239  31.10555  -3.36842  -1.47325  -4.19390
   1   13698.3    730.0   0.000054072   0.00130   0.03107   0.01770  -0.00458
   2   18081.3    553.1   0.017978333   0.32734  -0.17759  -0.15637  -0.52091
   3   19348.3    516.8   0.000437467   0.00744  -0.06599  -0.00189   0.05554
   4   22014.0    454.3   0.002131158   0.03187  -0.03740  -0.06820  -0.16069
   5   22068.6    453.1   0.003508131   0.05233   0.01564   0.08773   0.21070
   6   23444.2    426.5   0.039720359   0.55777   0.35627  -0.36863  -0.54310
   7   25019.3    399.7   0.185111939   2.43576   1.37960  -0.25227  -0.68470
   8   25604.6    390.6   0.056786614   0.73014  -0.03399   0.41556  -0.74585
   9   25684.4    389.3   0.001478386   0.01895  -0.03410  -0.07301   0.11160
  10   25706.6    389.0   0.003099778   0.03970   0.11459   0.12939  -0.09912
  11   26515.4    377.1   0.607030111   7.53681  -2.06077   0.44122   1.75936
  12   27563.0    362.8   0.004846247   0.05788  -0.18165  -0.06388  -0.14424
  13   27635.0    361.9   0.025083404   0.29882   0.31061  -0.28540   0.34769
  14   27781.9    359.9   0.099910279   1.18393  -0.79473  -0.26137  -0.69571
  15   28001.2    357.1   0.037010347   0.43513   0.44474  -0.06643  -0.48262
  16   28746.3    347.9   0.072778345   0.83348  -0.42528   0.74741  -0.30660
  17   28937.8    345.6   0.002505781   0.02851  -0.02876  -0.00897   0.16613
  18   29114.3    343.5   0.051035822   0.57709   0.10392  -0.74223   0.12404
  19   29177.3    342.7   0.161372981   1.82079  -0.21767  -1.33169  -0.00184
  20   30269.0    330.4   0.024330346   0.26462  -0.44938  -0.00678  -0.25026
  21   30296.8    330.1   0.004921076   0.05347   0.22017   0.05983   0.03769
  22   30620.3    326.6   0.006651903   0.07152  -0.08480  -0.25240  -0.02487
  23   31084.4    321.7   0.406429570   4.30446   0.15590   2.06129  -0.17673
  24   31261.5    319.9   0.089136918   0.93869  -0.08570  -0.92366   0.27965
  25   31393.4    318.5   0.051546197   0.54055  -0.34605   0.30302   0.57356
  26   31486.5    317.6   0.249886175   2.61272  -0.90621   0.23521   1.31764
  27   32084.2    311.7   0.107889543   1.10704  -0.67836  -0.08169   0.80012
  28   32830.0    304.6   0.476884586   4.78209   1.52505  -1.47484   0.53025
  29   32839.5    304.5   0.090936725   0.91163   0.54731  -0.62206   0.47447
  30   32954.1    303.5   0.221933652   2.21712  -0.41257  -0.20057   1.41657
  31   33447.4    299.0   0.278250005   2.73872  -0.78920  -0.19627   1.44131
  32   33548.9    298.1   0.009997523   0.09810   0.05167   0.02671  -0.30777
  33   33951.9    294.5   0.044565009   0.43212   0.42734   0.41083   0.28413
  34   34004.1    294.1   0.003795340   0.03674   0.16200   0.06811  -0.07656
  35   34131.5    293.0   0.373072610   3.59843   1.43468  -0.79021   0.95691
  36   34314.6    291.4   0.018309689   0.17566  -0.16484   0.33495  -0.19052
  37   34627.1    288.8   0.119572583   1.13682  -0.27123   0.97555  -0.33399
  38   34938.5    286.2   0.000742346   0.00699   0.03750   0.07471   0.00266
  39   35051.3    285.3   0.210309760   1.97529   0.94538   0.09408  -1.03571
  40   35410.8    282.4   0.022275424   0.20709  -0.20419  -0.05970  -0.40229
  41   35579.3    281.1   0.007049348   0.06523   0.03600  -0.10379   0.23056
  42   36458.8    274.3   0.029773055   0.26884  -0.22549  -0.44075  -0.15406
  43   36830.9    271.5   0.020158242   0.18018  -0.20070  -0.34204   0.15137
  44   36854.5    271.3   0.059262315   0.52938  -0.26132  -0.67332   0.08795
  45   36966.4    270.5   0.073194358   0.65185  -0.14847   0.06395   0.79102
  46   37050.9    269.9   0.194728738   1.73024  -0.64629  -1.13262   0.17243
  47   37306.6    268.0   0.012313964   0.10866  -0.13423   0.23319  -0.19045
  48   37598.8    266.0   0.001680999   0.01472  -0.08308   0.08830   0.00450
  49   37839.9    264.3   0.121503951   1.05710  -0.84095  -0.11851   0.57953
  50   37907.0    263.8   0.003065262   0.02662   0.15315   0.04953   0.02670
  51   37980.0    263.3   0.002686269   0.02328  -0.08675  -0.12527   0.00814
  52   38112.7    262.4   0.052829970   0.45634  -0.56974  -0.31054  -0.18786
  53   38190.7    261.8   0.000388909   0.00335   0.04036  -0.03915  -0.01383
  54   38673.4    258.6   0.161399417   1.37393   0.27121   0.81848   0.79402
  55   39006.0    256.4   0.111277535   0.93919  -0.89056  -0.37197   0.08788
  56   39110.8    255.7   0.159216459   1.34019  -1.13360  -0.13075  -0.19503
  57   39412.3    253.7   0.000245695   0.00205   0.04208  -0.00181   0.01669
  58   39468.9    253.4   0.000521963   0.00435  -0.05023  -0.02537   0.03445
  59   40041.9    249.7   0.001266441   0.01041   0.10111  -0.01343   0.00303

FINAL SINGLE POINT ENERGY     -6875.927770972650

DIPOLE MOMENT
-------------
                                X             Y             Z
Electronic contribution:    -28.29519     101.22468      40.18069
Nuclear contribution   :     22.25906    -103.32037     -45.77918
                        -----------------------------------------
Total Dipole Moment    :     -6.03613      -2.09569      -5.59849
                        -----------------------------------------
Magnitude (a.u.)       :      8.49528
Magnitude (Debye)      :     21.59329

Rotational constants in cm-1:     0.000781     0.000549     0.000482
Rotational constants in MHz :    23.417000    16.445559    14.436726

                             ****ORCA TERMINATED NORMALLY****
TOTAL RUN TIME: 0 days 0 hours 16 minutes 20 seconds 718 msec
