                         Program Version 4.2.0 -  RELEASE  -
|  1> # ORCA input file
|  2> # SCF done       -190.548828203036          0.000889009633
|  3> ! CAM-B3LYP def2-SVP def2/J RIJCOSX Grid4 TightSCF
|  4> %maxcore 5000
|  5> %tddft
|  6>     Mode sTDDFT
|  7>     Ethresh 5.0
|  8>     maxcore 5000
|  9> end
| 10>
| 11> %pal
| 12>   nprocs 6
| 13>   end
| 14> * xyz 0 1
| 15>    C       -5.19255         0.08988         0.25883
| 16>    C       -5.31088        -1.26092         0.44454
| 17>    C       -5.12001        -1.90217         1.68774
| 18>    N       -4.98145        -2.47331         2.67339
| 19>    C       -5.55566        -2.20897        -0.57440
| 20>    N       -5.69652        -3.04778        -1.34421
| 21>    C       -4.75960         1.04855         1.26562
| 22>    C       -4.52598         2.29302         0.63202
| 23>    C       -4.07688         3.39819         1.31473
| 24>    C       -3.85327         3.27076         2.68899
| 25>    C       -4.09935         2.02463         3.31587
| 26>    C       -4.54982         0.90687         2.62524
| 27>    S       -3.76355         2.08829         5.01855
| 28>    C       -3.29925         3.76239         4.86857
| 29>    C       -3.39253         4.25156         3.60872
| 30>   Br       -2.73496         4.70621         6.38716
| 31>    C       -4.83444         2.18955        -0.80814
| 32>    O       -4.69956         3.07643        -1.62177
| 33>    C       -5.35475         0.80566        -0.99973
| 34>    C       -6.00436         0.29952        -2.08685
| 35>    C       -6.16494         0.87590        -3.36698
| 36>    O       -5.52298         2.00316        -3.75934
| 37>    C       -6.90986         0.41596        -4.44354
| 38>    C       -7.85284        -0.62659        -4.88386
| 39>    O       -8.33232        -1.55493        -4.29310
| 40>    N       -8.11165        -0.28708        -6.20855
| 41>    C       -7.46487         0.85925        -6.67362
| 42>    O       -7.56803         1.31177        -7.78192
| 43>    C       -6.69060         1.31018        -5.51163
| 44>    C       -5.82306         2.28775        -5.04328
| 45>    C       -5.25771         3.43975        -5.65381
| 46>    C       -4.53204         4.32269        -4.92889
| 47>    C       -3.90882         5.48089        -5.48047
| 48>    C       -3.27402         6.43769        -4.77754
| 49>    C       -3.18255         6.49456        -3.28942
| 50>    C       -2.57965         7.57458        -5.48731
| 51>    N       -2.08351         7.20187        -6.78538
| 52>    C       -2.27605         7.90662        -7.89942
| 53>    C       -1.76908         7.58298        -9.12355
| 54>    C       -1.99070         8.41011       -10.23978
| 55>    O       -2.75900         9.51948       -10.12243
| 56>    C       -1.51839         8.34945       -11.54854
| 57>    C       -0.69444         7.57582       -12.47099
| 58>    O       -0.07932         6.55065       -12.32743
| 59>    N       -0.75411         8.31249       -13.65987
| 60>    C       -1.52015         9.46981       -13.60460
| 61>    O       -1.69474        10.23779       -14.51393
| 62>    C       -2.01562         9.48681       -12.21966
| 63>    C       -2.78218        10.19860       -11.31221
| 64>    C       -3.48761        11.41310       -11.39869
| 65>    C       -4.23489        11.88342       -10.35467
| 66>    C       -4.87681        13.12748       -10.38248
| 67>    C       -5.68948        13.73360        -9.45842
| 68>    C       -6.19850        13.39817        -8.14858
| 69>    C       -5.79458        12.43541        -7.25219
| 70>    C       -6.35184        12.26897        -5.96307
| 71>    N       -6.72238        12.04396        -4.89917
| 72>    C       -4.77340        11.47280        -7.33295
| 73>    N       -3.99331        10.63537        -7.20476
| 74>    C       -7.24567        14.37716        -7.83025
| 75>    C       -7.28491        15.36762        -8.84123
| 76>    C       -6.29698        15.02649        -9.87705
| 77>    O       -6.03422        15.65000       -10.88140
| 78>    C       -8.15176        16.43199        -8.81612
| 79>    C       -9.03916        16.52461        -7.73914
| 80>    C       -9.01041        15.52223        -6.74165
| 81>    C       -8.12935        14.44777        -6.76874
| 82>    S      -10.19977        15.81469        -5.50855
| 83>    C      -10.70812        17.26237        -6.33691
| 84>    C      -10.02577        17.51445        -7.47927
| 85>   Br      -12.09169        18.30312        -5.61573
| 86>    H       -3.90290         4.33263         0.80450
| 87>    H       -4.72686        -0.01846         3.14715
| 88>    H       -3.14693         5.26235         3.33880
| 89>    H       -6.48460        -0.66745        -2.00343
| 90>    H       -8.73339        -0.82909        -6.79203
| 91>    H       -5.45477         3.57192        -6.70709
| 92>    H       -4.41120         4.11953        -3.87439
| 93>    H       -3.95761         5.57560        -6.55857
| 94>    H       -3.84090         5.78066        -2.80735
| 95>    H       -3.43972         7.49618        -2.94651
| 96>    H       -2.15910         6.29206        -2.97123
| 97>    H       -1.74948         7.92745        -4.86036
| 98>    H       -3.27154         8.41440        -5.61439
| 99>    H       -1.52485         6.36090        -6.83544
|100>    H       -2.87229         8.80432        -7.79324
|101>    H       -1.15801         6.70854        -9.28160
|102>    H       -0.27428         8.02078       -14.49935
|103>    H       -3.39945        11.96064       -12.32571
|104>    H       -4.31651        11.25987        -9.48072
|105>    H       -4.74099        13.71809       -11.28484
|106>    H       -8.14669        17.16743        -9.60513
|107>    H       -8.16537        13.71160        -5.98424
|108>    H      -10.20943        18.36228        -8.11362
|109> *
|110>
|111>                          ****END OF INPUT****

CARTESIAN COORDINATES (ANGSTROEM)
---------------------------------
  C     -5.192550    0.089880    0.258830
  C     -5.310880   -1.260920    0.444540
  C     -5.120010   -1.902170    1.687740
  N     -4.981450   -2.473310    2.673390
  C     -5.555660   -2.208970   -0.574400
  N     -5.696520   -3.047780   -1.344210
  C     -4.759600    1.048550    1.265620
  C     -4.525980    2.293020    0.632020
  C     -4.076880    3.398190    1.314730
  C     -3.853270    3.270760    2.688990
  C     -4.099350    2.024630    3.315870
  C     -4.549820    0.906870    2.625240
  S     -3.763550    2.088290    5.018550
  C     -3.299250    3.762390    4.868570
  C     -3.392530    4.251560    3.608720
  Br    -2.734960    4.706210    6.387160
  C     -4.834440    2.189550   -0.808140
  O     -4.699560    3.076430   -1.621770
  C     -5.354750    0.805660   -0.999730
  C     -6.004360    0.299520   -2.086850
  C     -6.164940    0.875900   -3.366980
  O     -5.522980    2.003160   -3.759340
  C     -6.909860    0.415960   -4.443540
  C     -7.852840   -0.626590   -4.883860
  O     -8.332320   -1.554930   -4.293100
  N     -8.111650   -0.287080   -6.208550
  C     -7.464870    0.859250   -6.673620
  O     -7.568030    1.311770   -7.781920
  C     -6.690600    1.310180   -5.511630
  C     -5.823060    2.287750   -5.043280
  C     -5.257710    3.439750   -5.653810
  C     -4.532040    4.322690   -4.928890
  C     -3.908820    5.480890   -5.480470
  C     -3.274020    6.437690   -4.777540
  C     -3.182550    6.494560   -3.289420
  C     -2.579650    7.574580   -5.487310
  N     -2.083510    7.201870   -6.785380
  C     -2.276050    7.906620   -7.899420
  C     -1.769080    7.582980   -9.123550
  C     -1.990700    8.410110  -10.239780
  O     -2.759000    9.519480  -10.122430
  C     -1.518390    8.349450  -11.548540
  C     -0.694440    7.575820  -12.470990
  O     -0.079320    6.550650  -12.327430
  N     -0.754110    8.312490  -13.659870
  C     -1.520150    9.469810  -13.604600
  O     -1.694740   10.237790  -14.513930
  C     -2.015620    9.486810  -12.219660
  C     -2.782180   10.198600  -11.312210
  C     -3.487610   11.413100  -11.398690
  C     -4.234890   11.883420  -10.354670
  C     -4.876810   13.127480  -10.382480
  C     -5.689480   13.733600   -9.458420
  C     -6.198500   13.398170   -8.148580
  C     -5.794580   12.435410   -7.252190
  C     -6.351840   12.268970   -5.963070
  N     -6.722380   12.043960   -4.899170
  C     -4.773400   11.472800   -7.332950
  N     -3.993310   10.635370   -7.204760
  C     -7.245670   14.377160   -7.830250
  C     -7.284910   15.367620   -8.841230
  C     -6.296980   15.026490   -9.877050
  O     -6.034220   15.650000  -10.881400
  C     -8.151760   16.431990   -8.816120
  C     -9.039160   16.524610   -7.739140
  C     -9.010410   15.522230   -6.741650
  C     -8.129350   14.447770   -6.768740
  S    -10.199770   15.814690   -5.508550
  C    -10.708120   17.262370   -6.336910
  C    -10.025770   17.514450   -7.479270
  Br   -12.091690   18.303120   -5.615730
  H     -3.902900    4.332630    0.804500
  H     -4.726860   -0.018460    3.147150
  H     -3.146930    5.262350    3.338800
  H     -6.484600   -0.667450   -2.003430
  H     -8.733390   -0.829090   -6.792030
  H     -5.454770    3.571920   -6.707090
  H     -4.411200    4.119530   -3.874390
  H     -3.957610    5.575600   -6.558570
  H     -3.840900    5.780660   -2.807350
  H     -3.439720    7.496180   -2.946510
  H     -2.159100    6.292060   -2.971230
  H     -1.749480    7.927450   -4.860360
  H     -3.271540    8.414400   -5.614390
  H     -1.524850    6.360900   -6.835440
  H     -2.872290    8.804320   -7.793240
  H     -1.158010    6.708540   -9.281600
  H     -0.274280    8.020780  -14.499350
  H     -3.399450   11.960640  -12.325710
  H     -4.316510   11.259870   -9.480720
  H     -4.740990   13.718090  -11.284840
  H     -8.146690   17.167430   -9.605130
  H     -8.165370   13.711600   -5.984240
  H    -10.209430   18.362280   -8.113620

 Total Charge           Charge          ....    0
 Multiplicity           Mult            ....    1
 Number of Electrons    NEL             ....  550
 Basis Dimension        Dim             .... 1153

ORBITAL ENERGIES
----------------

  NO   OCC          E(Eh)            E(eV)
   0   2.0000    -482.890981    -13140.1316
   1   2.0000    -482.886310    -13140.0045
   2   2.0000     -88.981787     -2421.3175
   3   2.0000     -88.976096     -2421.1626
   4   2.0000     -62.568723     -1702.5815
   5   2.0000     -62.564038     -1702.4540
   6   2.0000     -56.402678     -1534.7949
   7   2.0000     -56.399951     -1534.7207
   8   2.0000     -56.399920     -1534.7199
   9   2.0000     -56.397989     -1534.6673
  10   2.0000     -56.395273     -1534.5934
  11   2.0000     -56.395238     -1534.5924
  12   2.0000     -19.315410      -525.5990
  13   2.0000     -19.304223      -525.2946
  14   2.0000     -19.226280      -523.1737
  15   2.0000     -19.219647      -522.9932
  16   2.0000     -19.216319      -522.9026
  17   2.0000     -19.211456      -522.7703
  18   2.0000     -19.210571      -522.7462
  19   2.0000     -19.204122      -522.5707
  20   2.0000     -14.463901      -393.5828
  21   2.0000     -14.460323      -393.4854
  22   2.0000     -14.450217      -393.2104
  23   2.0000     -14.429382      -392.6434
  24   2.0000     -14.420961      -392.4143
  25   2.0000     -14.418915      -392.3586
  26   2.0000     -14.417633      -392.3237
  27   2.0000     -10.408412      -283.2273
  28   2.0000     -10.406172      -283.1663
  29   2.0000     -10.399604      -282.9876
  30   2.0000     -10.393783      -282.8292
  31   2.0000     -10.379479      -282.4400
  32   2.0000     -10.375949      -282.3439
  33   2.0000     -10.370165      -282.1865
  34   2.0000     -10.368796      -282.1493
  35   2.0000     -10.365250      -282.0528
  36   2.0000     -10.360712      -281.9293
  37   2.0000     -10.359542      -281.8975
  38   2.0000     -10.353708      -281.7387
  39   2.0000     -10.350195      -281.6431
  40   2.0000     -10.348113      -281.5865
  41   2.0000     -10.347746      -281.5765
  42   2.0000     -10.344906      -281.4992
  43   2.0000     -10.336767      -281.2777
  44   2.0000     -10.336163      -281.2613
  45   2.0000     -10.332504      -281.1617
  46   2.0000     -10.331818      -281.1431
  47   2.0000     -10.330178      -281.0984
  48   2.0000     -10.325576      -280.9732
  49   2.0000     -10.323273      -280.9105
  50   2.0000     -10.322330      -280.8849
  51   2.0000     -10.320579      -280.8372
  52   2.0000     -10.315337      -280.6946
  53   2.0000     -10.314675      -280.6766
  54   2.0000     -10.314450      -280.6705
  55   2.0000     -10.313617      -280.6478
  56   2.0000     -10.312177      -280.6086
  57   2.0000     -10.312147      -280.6078
  58   2.0000     -10.310416      -280.5607
  59   2.0000     -10.309216      -280.5280
  60   2.0000     -10.308695      -280.5139
  61   2.0000     -10.307604      -280.4842
  62   2.0000     -10.307423      -280.4792
  63   2.0000     -10.305733      -280.4333
  64   2.0000     -10.303018      -280.3594
  65   2.0000     -10.300602      -280.2936
  66   2.0000     -10.299916      -280.2750
  67   2.0000     -10.299698      -280.2690
  68   2.0000     -10.299433      -280.2618
  69   2.0000     -10.298967      -280.2492
  70   2.0000     -10.297183      -280.2006
  71   2.0000     -10.295364      -280.1511
  72   2.0000     -10.292837      -280.0823
  73   2.0000     -10.291048      -280.0336
  74   2.0000     -10.287071      -279.9254
  75   2.0000     -10.284880      -279.8658
  76   2.0000     -10.282892      -279.8117
  77   2.0000     -10.281078      -279.7623
  78   2.0000     -10.271968      -279.5145
  79   2.0000      -8.798174      -239.4105
  80   2.0000      -8.793474      -239.2826
  81   2.0000      -8.077777      -219.8075
  82   2.0000      -8.072087      -219.6527
  83   2.0000      -6.634511      -180.5342
  84   2.0000      -6.629788      -180.4057
  85   2.0000      -6.619904      -180.1367
  86   2.0000      -6.619670      -180.1304
  87   2.0000      -6.615192      -180.0085
  88   2.0000      -6.615008      -180.0035
  89   2.0000      -6.047452      -164.5595
  90   2.0000      -6.043194      -164.4437
  91   2.0000      -6.041775      -164.4051
  92   2.0000      -6.038994      -164.3294
  93   2.0000      -6.037500      -164.2887
  94   2.0000      -6.033317      -164.1749
  95   2.0000      -2.750363       -74.8412
  96   2.0000      -2.746284       -74.7302
  97   2.0000      -2.746123       -74.7258
  98   2.0000      -2.745630       -74.7124
  99   2.0000      -2.741585       -74.6023
 100   2.0000      -2.741418       -74.5978
 101   2.0000      -2.734509       -74.4098
 102   2.0000      -2.734488       -74.4092
 103   2.0000      -2.729828       -74.2824
 104   2.0000      -2.729811       -74.2819
 105   2.0000      -1.239626       -33.7319
 106   2.0000      -1.223226       -33.2857
 107   2.0000      -1.162879       -31.6435
 108   2.0000      -1.152143       -31.3514
 109   2.0000      -1.142513       -31.0894
 110   2.0000      -1.141555       -31.0633
 111   2.0000      -1.130787       -30.7703
 112   2.0000      -1.126879       -30.6639
 113   2.0000      -1.063362       -28.9355
 114   2.0000      -1.049911       -28.5695
 115   2.0000      -1.039093       -28.2752
 116   2.0000      -1.029682       -28.0191
 117   2.0000      -1.027593       -27.9622
 118   2.0000      -1.018913       -27.7260
 119   2.0000      -1.018737       -27.7213
 120   2.0000      -1.001514       -27.2526
 121   2.0000      -0.998586       -27.1729
 122   2.0000      -0.996491       -27.1159
 123   2.0000      -0.989752       -26.9325
 124   2.0000      -0.954062       -25.9614
 125   2.0000      -0.946258       -25.7490
 126   2.0000      -0.944038       -25.6886
 127   2.0000      -0.936390       -25.4805
 128   2.0000      -0.933790       -25.4097
 129   2.0000      -0.927735       -25.2450
 130   2.0000      -0.920376       -25.0447
 131   2.0000      -0.914707       -24.8905
 132   2.0000      -0.910747       -24.7827
 133   2.0000      -0.906988       -24.6804
 134   2.0000      -0.899513       -24.4770
 135   2.0000      -0.892602       -24.2889
 136   2.0000      -0.886764       -24.1301
 137   2.0000      -0.882768       -24.0213
 138   2.0000      -0.875381       -23.8203
 139   2.0000      -0.854524       -23.2528
 140   2.0000      -0.841523       -22.8990
 141   2.0000      -0.835495       -22.7350
 142   2.0000      -0.830604       -22.6019
 143   2.0000      -0.820160       -22.3177
 144   2.0000      -0.804241       -21.8845
 145   2.0000      -0.793137       -21.5823
 146   2.0000      -0.782666       -21.2974
 147   2.0000      -0.775711       -21.1082
 148   2.0000      -0.772139       -21.0110
 149   2.0000      -0.768512       -20.9123
 150   2.0000      -0.766572       -20.8595
 151   2.0000      -0.761621       -20.7248
 152   2.0000      -0.760282       -20.6883
 153   2.0000      -0.749050       -20.3827
 154   2.0000      -0.725857       -19.7516
 155   2.0000      -0.722930       -19.6719
 156   2.0000      -0.713276       -19.4092
 157   2.0000      -0.709489       -19.3062
 158   2.0000      -0.702591       -19.1185
 159   2.0000      -0.699877       -19.0446
 160   2.0000      -0.695325       -18.9208
 161   2.0000      -0.693386       -18.8680
 162   2.0000      -0.684119       -18.6158
 163   2.0000      -0.680743       -18.5240
 164   2.0000      -0.667273       -18.1574
 165   2.0000      -0.664568       -18.0838
 166   2.0000      -0.646457       -17.5910
 167   2.0000      -0.643168       -17.5015
 168   2.0000      -0.638515       -17.3749
 169   2.0000      -0.632088       -17.2000
 170   2.0000      -0.622904       -16.9501
 171   2.0000      -0.622581       -16.9413
 172   2.0000      -0.615102       -16.7378
 173   2.0000      -0.610738       -16.6190
 174   2.0000      -0.606383       -16.5005
 175   2.0000      -0.603011       -16.4088
 176   2.0000      -0.601651       -16.3718
 177   2.0000      -0.600927       -16.3521
 178   2.0000      -0.595093       -16.1933
 179   2.0000      -0.591554       -16.0970
 180   2.0000      -0.589050       -16.0289
 181   2.0000      -0.587569       -15.9886
 182   2.0000      -0.582131       -15.8406
 183   2.0000      -0.577871       -15.7247
 184   2.0000      -0.573843       -15.6151
 185   2.0000      -0.569923       -15.5084
 186   2.0000      -0.564566       -15.3626
 187   2.0000      -0.561719       -15.2851
 188   2.0000      -0.553549       -15.0628
 189   2.0000      -0.552864       -15.0442
 190   2.0000      -0.551921       -15.0185
 191   2.0000      -0.549905       -14.9637
 192   2.0000      -0.546587       -14.8734
 193   2.0000      -0.543299       -14.7839
 194   2.0000      -0.541000       -14.7214
 195   2.0000      -0.540157       -14.6984
 196   2.0000      -0.538499       -14.6533
 197   2.0000      -0.538131       -14.6433
 198   2.0000      -0.535737       -14.5782
 199   2.0000      -0.534254       -14.5378
 200   2.0000      -0.529924       -14.4200
 201   2.0000      -0.524929       -14.2841
 202   2.0000      -0.523562       -14.2469
 203   2.0000      -0.522553       -14.2194
 204   2.0000      -0.514683       -14.0052
 205   2.0000      -0.513371       -13.9695
 206   2.0000      -0.512740       -13.9524
 207   2.0000      -0.512224       -13.9383
 208   2.0000      -0.509682       -13.8691
 209   2.0000      -0.507021       -13.7967
 210   2.0000      -0.506095       -13.7715
 211   2.0000      -0.502882       -13.6841
 212   2.0000      -0.500062       -13.6074
 213   2.0000      -0.499841       -13.6014
 214   2.0000      -0.498870       -13.5749
 215   2.0000      -0.496501       -13.5105
 216   2.0000      -0.494945       -13.4681
 217   2.0000      -0.493452       -13.4275
 218   2.0000      -0.489220       -13.3124
 219   2.0000      -0.483113       -13.1462
 220   2.0000      -0.480169       -13.0661
 221   2.0000      -0.479242       -13.0408
 222   2.0000      -0.478070       -13.0089
 223   2.0000      -0.473261       -12.8781
 224   2.0000      -0.469137       -12.7659
 225   2.0000      -0.465332       -12.6623
 226   2.0000      -0.464537       -12.6407
 227   2.0000      -0.462080       -12.5738
 228   2.0000      -0.458104       -12.4657
 229   2.0000      -0.454325       -12.3628
 230   2.0000      -0.452671       -12.3178
 231   2.0000      -0.452410       -12.3107
 232   2.0000      -0.449046       -12.2192
 233   2.0000      -0.447659       -12.1814
 234   2.0000      -0.446468       -12.1490
 235   2.0000      -0.445478       -12.1221
 236   2.0000      -0.444557       -12.0970
 237   2.0000      -0.440097       -11.9757
 238   2.0000      -0.439671       -11.9641
 239   2.0000      -0.436317       -11.8728
 240   2.0000      -0.433777       -11.8037
 241   2.0000      -0.431820       -11.7504
 242   2.0000      -0.430734       -11.7209
 243   2.0000      -0.428478       -11.6595
 244   2.0000      -0.428012       -11.6468
 245   2.0000      -0.421804       -11.4779
 246   2.0000      -0.413307       -11.2466
 247   2.0000      -0.409409       -11.1406
 248   2.0000      -0.407626       -11.0921
 249   2.0000      -0.398629       -10.8472
 250   2.0000      -0.393066       -10.6959
 251   2.0000      -0.387946       -10.5565
 252   2.0000      -0.383704       -10.4411
 253   2.0000      -0.380344       -10.3497
 254   2.0000      -0.377853       -10.2819
 255   2.0000      -0.376704       -10.2506
 256   2.0000      -0.375715       -10.2237
 257   2.0000      -0.373839       -10.1727
 258   2.0000      -0.367604       -10.0030
 259   2.0000      -0.366892        -9.9836
 260   2.0000      -0.363362        -9.8876
 261   2.0000      -0.358644        -9.7592
 262   2.0000      -0.352338        -9.5876
 263   2.0000      -0.351977        -9.5778
 264   2.0000      -0.345755        -9.4085
 265   2.0000      -0.341892        -9.3034
 266   2.0000      -0.336384        -9.1535
 267   2.0000      -0.328741        -8.9455
 268   2.0000      -0.322197        -8.7674
 269   2.0000      -0.315778        -8.5928
 270   2.0000      -0.306422        -8.3382
 271   2.0000      -0.299940        -8.1618
 272   2.0000      -0.295706        -8.0466
 273   2.0000      -0.275214        -7.4889
 274   2.0000      -0.248129        -6.7519
 275   0.0000      -0.105134        -2.8608
 276   0.0000      -0.102800        -2.7973
 277   0.0000      -0.069233        -1.8839
 278   0.0000      -0.063289        -1.7222
 279   0.0000      -0.055556        -1.5118

MULLIKEN ATOMIC CHARGES
-----------------------
   0 C :    0.292834
   1 C :   -0.332152
   2 C :   -0.184624
   3 N :    0.151593
   4 C :   -0.206261
   5 N :    0.178510
   6 C :    0.020062
   7 C :   -0.015797
   8 C :   -0.075691
   9 C :    0.122928
  10 C :   -0.091176
  11 C :   -0.019796
  12 S :    0.191730
  13 C :   -0.124623
  14 C :    0.039221
  15 Br:    0.028368
  16 C :    0.145594
  17 O :   -0.129955
  18 C :   -0.063814
  19 C :   -0.046881
  20 C :    0.072269
  21 O :   -0.172074
  22 C :   -0.019516
  23 C :    0.174432
  24 O :   -0.124105
  25 N :   -0.168361
  26 C :    0.168206
  27 O :   -0.134125
  28 C :   -0.044525
  29 C :    0.103289
  30 C :   -0.048850
  31 C :    0.038476
  32 C :    0.000559
  33 C :   -0.216275
  34 C :    0.085953
  35 C :    0.228207
  36 N :   -0.131865
  37 C :    0.094050
  38 C :   -0.088006
  39 C :    0.123558
  40 O :   -0.226402
  41 C :   -0.061610
  42 C :    0.160068
  43 O :   -0.147326
  44 N :   -0.169574
  45 C :    0.161545
  46 O :   -0.139974
  47 C :    0.002338
  48 C :    0.071583
  49 C :    0.000632
  50 C :    0.000634
  51 C :    0.021991
  52 C :   -0.113689
  53 C :    0.360747
  54 C :   -0.353130
  55 C :   -0.213113
  56 N :    0.142430
  57 C :   -0.174837
  58 N :    0.150618
  59 C :   -0.009759
  60 C :   -0.001634
  61 C :    0.129536
  62 O :   -0.147906
  63 C :   -0.069430
  64 C :    0.115188
  65 C :   -0.093563
  66 C :   -0.020264
  67 S :    0.183592
  68 C :   -0.123171
  69 C :    0.039667
  70 Br:    0.023156
  71 H :   -0.014961
  72 H :   -0.003504
  73 H :   -0.004210
  74 H :    0.038757
  75 H :    0.142615
  76 H :    0.010816
  77 H :    0.031952
  78 H :   -0.011985
  79 H :    0.034690
  80 H :    0.033200
  81 H :    0.032610
  82 H :    0.021354
  83 H :    0.064286
  84 H :    0.127182
  85 H :    0.020913
  86 H :   -0.008416
  87 H :    0.137302
  88 H :    0.023138
  89 H :    0.005348
  90 H :    0.016460
  91 H :   -0.008511
  92 H :   -0.005757
  93 H :   -0.002992
Sum of atomic charges:   -0.0000000

LOEWDIN ATOMIC CHARGES
----------------------
   0 C :    0.071189
   1 C :   -0.130882
   2 C :   -0.017387
   3 N :   -0.047642
   4 C :   -0.029929
   5 N :   -0.034699
   6 C :   -0.020453
   7 C :   -0.052314
   8 C :    0.020561
   9 C :   -0.031866
  10 C :   -0.142715
  11 C :   -0.008992
  12 S :    0.436444
  13 C :   -0.270342
  14 C :   -0.070931
  15 Br:    0.140286
  16 C :    0.083530
  17 O :   -0.141782
  18 C :   -0.080193
  19 C :    0.049024
  20 C :    0.037345
  21 O :    0.046360
  22 C :   -0.055388
  23 C :    0.084026
  24 O :   -0.140025
  25 N :   -0.005690
  26 C :    0.085781
  27 O :   -0.152492
  28 C :   -0.108106
  29 C :    0.094441
  30 C :   -0.056259
  31 C :    0.030337
  32 C :   -0.059363
  33 C :   -0.009993
  34 C :   -0.046381
  35 C :    0.047569
  36 N :    0.036113
  37 C :    0.091092
  38 C :   -0.155068
  39 C :    0.112175
  40 O :    0.007378
  41 C :   -0.133281
  42 C :    0.084392
  43 O :   -0.165935
  44 N :   -0.008943
  45 C :    0.082539
  46 O :   -0.156771
  47 C :   -0.056464
  48 C :    0.032604
  49 C :    0.030813
  50 C :   -0.049865
  51 C :    0.071727
  52 C :   -0.110334
  53 C :    0.080575
  54 C :   -0.154366
  55 C :   -0.018752
  56 N :   -0.064279
  57 C :    0.007626
  58 N :   -0.073851
  59 C :   -0.019345
  60 C :   -0.050900
  61 C :    0.080597
  62 O :   -0.147433
  63 C :    0.021955
  64 C :   -0.032994
  65 C :   -0.144526
  66 C :   -0.013111
  67 S :    0.430698
  68 C :   -0.271609
  69 C :   -0.069889
  70 Br:    0.136460
  71 H :    0.038743
  72 H :    0.041734
  73 H :    0.038545
  74 H :    0.060715
  75 H :    0.097024
  76 H :    0.043838
  77 H :    0.036932
  78 H :    0.027386
  79 H :    0.036431
  80 H :    0.040893
  81 H :    0.040682
  82 H :    0.028398
  83 H :    0.052922
  84 H :    0.084728
  85 H :    0.032295
  86 H :    0.036546
  87 H :    0.093920
  88 H :    0.051050
  89 H :    0.029828
  90 H :    0.044476
  91 H :    0.041661
  92 H :    0.040086
  93 H :    0.039069

  Mayer bond orders larger than 0.100000
B(  0-C ,  1-C ) :   1.6531 B(  0-C ,  6-C ) :   1.0090 B(  0-C , 18-C ) :   1.0475
B(  1-C ,  2-C ) :   1.1385 B(  1-C ,  4-C ) :   1.1346 B(  2-C ,  3-N ) :   2.9741
B(  4-C ,  5-N ) :   3.0025 B(  6-C ,  7-C ) :   1.2756 B(  6-C , 11-C ) :   1.4050
B(  7-C ,  8-C ) :   1.4199 B(  7-C , 16-C ) :   0.9456 B(  8-C ,  9-C ) :   1.2495
B(  8-C , 71-H ) :   1.0167 B(  9-C , 10-C ) :   1.3005 B(  9-C , 14-C ) :   1.1638
B( 10-C , 11-C ) :   1.3336 B( 10-C , 12-S ) :   1.0882 B( 11-C , 72-H ) :   0.9804
B( 12-S , 13-C ) :   1.0870 B( 13-C , 14-C ) :   1.6185 B( 13-C , 15-Br) :   1.0215
B( 14-C , 73-H ) :   0.9997 B( 16-C , 17-O ) :   2.2150 B( 16-C , 18-C ) :   0.9265
B( 18-C , 19-C ) :   1.5634 B( 19-C , 20-C ) :   1.2152 B( 19-C , 74-H ) :   0.9352
B( 20-C , 21-O ) :   1.1483 B( 20-C , 22-C ) :   1.3747 B( 21-O , 29-C ) :   1.2024
B( 22-C , 23-C ) :   0.8630 B( 22-C , 28-C ) :   1.3216 B( 23-C , 24-O ) :   2.2690
B( 23-C , 25-N ) :   1.0871 B( 25-N , 26-C ) :   1.0697 B( 25-N , 75-H ) :   0.9133
B( 26-C , 27-O ) :   2.2808 B( 26-C , 28-C ) :   0.8776 B( 28-C , 29-C ) :   1.3357
B( 29-C , 30-C ) :   1.1594 B( 30-C , 31-C ) :   1.6467 B( 30-C , 76-H ) :   0.9742
B( 31-C , 32-C ) :   1.0913 B( 31-C , 77-H ) :   0.9713 B( 32-C , 33-C ) :   1.7528
B( 32-C , 78-H ) :   0.9760 B( 33-C , 34-C ) :   1.0870 B( 33-C , 35-C ) :   1.0022
B( 34-C , 79-H ) :   0.9507 B( 34-C , 80-H ) :   0.9481 B( 34-C , 81-H ) :   0.9419
B( 35-C , 36-N ) :   0.9976 B( 35-C , 82-H ) :   0.9413 B( 35-C , 83-H ) :   0.9142
B( 36-N , 37-C ) :   1.3086 B( 36-N , 84-H ) :   0.9350 B( 37-C , 38-C ) :   1.4843
B( 37-C , 85-H ) :   0.9429 B( 38-C , 39-C ) :   1.2907 B( 38-C , 86-H ) :   0.9508
B( 39-C , 40-O ) :   1.1703 B( 39-C , 41-C ) :   1.2948 B( 40-O , 48-C ) :   1.0978
B( 41-C , 42-C ) :   0.8998 B( 41-C , 47-C ) :   1.3147 B( 42-C , 43-O ) :   2.2689
B( 42-C , 44-N ) :   1.0551 B( 44-N , 45-C ) :   1.0950 B( 44-N , 87-H ) :   0.9144
B( 45-C , 46-O ) :   2.2711 B( 45-C , 47-C ) :   0.8674 B( 47-C , 48-C ) :   1.3570
B( 48-C , 49-C ) :   1.2124 B( 49-C , 50-C ) :   1.5251 B( 49-C , 88-H ) :   0.9777
B( 50-C , 51-C ) :   1.1683 B( 50-C , 89-H ) :   0.9681 B( 51-C , 52-C ) :   1.5279
B( 51-C , 90-H ) :   0.9492 B( 52-C , 53-C ) :   1.0616 B( 52-C , 61-C ) :   0.9531
B( 53-C , 54-C ) :   1.5643 B( 53-C , 59-C ) :   1.0070 B( 54-C , 55-C ) :   1.1342
B( 54-C , 57-C ) :   1.1644 B( 55-C , 56-N ) :   2.9705 B( 57-C , 58-N ) :   2.9185
B( 58-N , 85-H ) :   0.1111 B( 59-C , 60-C ) :   1.2759 B( 59-C , 66-C ) :   1.4083
B( 60-C , 61-C ) :   0.9275 B( 60-C , 63-C ) :   1.4325 B( 61-C , 62-O ) :   2.2426
B( 63-C , 64-C ) :   1.2439 B( 63-C , 91-H ) :   1.0164 B( 64-C , 65-C ) :   1.3082
B( 64-C , 69-C ) :   1.1639 B( 65-C , 66-C ) :   1.3354 B( 65-C , 67-S ) :   1.0855
B( 66-C , 92-H ) :   0.9752 B( 67-S , 68-C ) :   1.0868 B( 68-C , 69-C ) :   1.6162
B( 68-C , 70-Br) :   1.0182 B( 69-C , 93-H ) :   1.0006

-----------------------------------------------------------------------------
         ABSORPTION SPECTRUM VIA TRANSITION ELECTRIC DIPOLE MOMENTS
-----------------------------------------------------------------------------
State   Energy  Wavelength   fosc         T2         TX        TY        TZ
        (cm-1)    (nm)                  (au**2)     (au)      (au)      (au)
-----------------------------------------------------------------------------
   0   15473.7    646.3   0.724530154  15.41482  -2.39527   2.92966   1.04623
   1   20178.3    495.6   0.695286025  11.34369  -0.03300   1.50147  -3.01466
   2   22067.4    453.2   0.101869717   1.51974  -0.27666   0.42835  -1.12237
   3   24629.9    406.0   0.098282244   1.31367  -0.33268   1.01779  -0.40877
   4   25959.8    385.2   0.099992971   1.26807   0.23386   0.76883   0.78884
   5   26764.1    373.6   0.212269179   2.61101  -0.86006   1.30876  -0.39806
   6   27143.5    368.4   0.206776752   2.50791  -1.13168   0.80622   0.75975
   7   27383.3    365.2   0.003401049   0.04089  -0.13820  -0.13186  -0.06635
   8   27496.3    363.7   0.107626675   1.28861  -0.12616  -0.79369  -0.80171
   9   28505.3    350.8   0.139200378   1.60764  -0.62746   0.52851   0.96676
  10   28883.3    346.2   0.118040938   1.34543   0.67773   0.80922  -0.48092
  11   29162.9    342.9   0.006473022   0.07307  -0.02087  -0.22893   0.14222
  12   29327.5    341.0   0.073022071   0.81970   0.60951  -0.47079  -0.47597
  13   29479.4    339.2   0.069665740   0.77799  -0.50759   0.72134   0.00287
  14   30779.5    324.9   0.083331270   0.89130   0.50397   0.50356  -0.61946
  15   31242.8    320.1   0.356387661   3.75533  -0.92173  -1.28796   1.11664
  16   31759.6    314.9   0.022673713   0.23503  -0.33083   0.34566   0.07812
  17   32027.3    312.2   0.158120971   1.62534  -0.57657  -0.26864   1.10487
  18   32406.6    308.6   0.001136427   0.01154   0.08884   0.05823   0.01616
  19   32503.7    307.7   0.363943769   3.68618  -0.36602  -1.71483  -0.78202
  20   32617.7    306.6   0.048825142   0.49279  -0.24280  -0.57210  -0.32641
  21   32760.4    305.2   0.584410818   5.87279   0.66690   1.99778   1.19871
  22   33139.6    301.8   0.335857768   3.33644   1.05920  -1.32533   0.67677
  23   33595.9    297.7   0.487391625   4.77604   1.67423   0.33820   1.36331
  24   34256.0    291.9   0.124620636   1.19765   1.09304  -0.00981  -0.05306
  25   34454.7    290.2   0.700375523   6.69204   0.62547  -1.18315  -2.21381
  26   35793.2    279.4   0.025450782   0.23409  -0.16207  -0.35774  -0.28257
  27   36072.5    277.2   0.062797727   0.57312  -0.48023   0.55107   0.19701
  28   36191.7    276.3   0.000174947   0.00159  -0.01463  -0.02127  -0.03041
  29   36919.7    270.9   0.255587922   2.27907  -0.33139   0.39536  -1.41878
  30   37350.1    267.7   0.034349433   0.30276   0.33913  -0.39635  -0.17510
  31   37988.8    263.2   0.136122073   1.17964   0.56971  -0.03442  -0.92406
  32   38203.4    261.8   0.140316932   1.20916   0.27253   1.04295  -0.21710
  33   39252.7    254.8   0.000625817   0.00525   0.04582   0.00280   0.05605
  34   39364.4    254.0   0.095948464   0.80243  -0.27389  -0.74061  -0.42298
  35   39621.1    252.4   0.056554875   0.46991  -0.18401  -0.30139   0.58756
  36   39803.9    251.2   0.000312371   0.00258   0.03696  -0.02575  -0.02355
  37   39993.3    250.0   0.022622331   0.18622   0.14131  -0.29495   0.28152
  38   40089.9    249.4   0.018421034   0.15127  -0.03571  -0.38252   0.06063
  39   40270.3    248.3   0.025262676   0.20652   0.01972   0.40112  -0.21269
  40   40312.5    248.1   0.077455981   0.63254  -0.04943  -0.62441   0.49011

FINAL SINGLE POINT ENERGY     -8920.754957125640

DIPOLE MOMENT
-------------
                                X             Y             Z
Electronic contribution:    -59.91076      76.69706     120.63018
Nuclear contribution   :     60.32317     -73.94471    -119.25914
                        -----------------------------------------
Total Dipole Moment    :      0.41240       2.75235       1.37104
                        -----------------------------------------
Magnitude (a.u.)       :      3.10246
Magnitude (Debye)      :      7.88582

Rotational constants in cm-1:     0.000631     0.000252     0.000209
Rotational constants in MHz :    18.920408     7.540511     6.261653

                             ****ORCA TERMINATED NORMALLY****
TOTAL RUN TIME: 0 days 0 hours 8 minutes 38 seconds 732 msec
