                         Program Version 4.2.0 -  RELEASE  -
|  1> # ORCA input file
|  2> # SCF done       -188.052260922824          0.000269126929
|  3> ! CAM-B3LYP def2-SVP def2/J RIJCOSX Grid4 TightSCF
|  4> %maxcore 5000
|  5> %tddft
|  6>     Mode sTDDFT
|  7>     Ethresh 5.0
|  8>     maxcore 5000
|  9> end
| 10>
| 11> %pal
| 12>   nprocs 6
| 13>   end
| 14> * xyz 0 1
| 15>    C       -4.63337        -1.35402        -0.04100
| 16>    C       -3.57943        -2.19821        -0.24204
| 17>    C       -3.66944        -3.60751        -0.19880
| 18>    N       -3.68186        -4.75441        -0.17459
| 19>    C       -2.25642        -1.78735        -0.52043
| 20>    N       -1.16036        -1.53441        -0.74576
| 21>    C       -6.00496        -1.74167         0.25118
| 22>    C       -6.80775        -0.57817         0.37355
| 23>    C       -8.15326        -0.63422         0.64982
| 24>    C       -8.73558        -1.89405         0.81811
| 25>    C       -7.92630        -3.05081         0.69499
| 26>    C       -6.56863        -2.99631         0.41277
| 27>    S       -8.84641        -4.50353         0.94113
| 28>    C      -10.28459        -3.55305         1.20271
| 29>    C      -10.08862        -2.21564         1.11067
| 30>   Br      -11.90711        -4.41474         1.57343
| 31>    C       -5.97821         0.62008         0.15491
| 32>    O       -6.33710         1.77265         0.12818
| 33>    C       -4.59142         0.10777        -0.06991
| 34>    C       -3.54725         0.92395        -0.26404
| 35>    C       -3.68032         2.39086        -0.19536
| 36>    N       -3.74633         2.92898         1.01950
| 37>    C       -3.84848         4.24577         1.07591
| 38>    C       -3.86746         5.03904        -0.05929
| 39>    C       -3.76547         4.37849        -1.28829
| 40>    N       -3.66946         3.04649        -1.33944
| 41>    C       -3.73780         5.10402        -2.53991
| 42>    C       -3.79907         4.49408        -3.73922
| 43>    C       -3.73533         5.19160        -4.97902
| 44>    O       -3.49665         6.53026        -5.00630
| 45>    C       -3.85636         4.74816        -6.28147
| 46>    C       -4.10347         3.56826        -7.12148
| 47>    O       -4.30987         2.41967        -6.83475
| 48>    N       -4.05274         4.07699        -8.41797
| 49>    C       -3.80362         5.44570        -8.51785
| 50>    O       -3.72576         6.06404        -9.54705
| 51>    C       -3.67844         5.87265        -7.12244
| 52>    C       -3.45102         6.96308        -6.29804
| 53>    C       -3.18399         8.31838        -6.59088
| 54>    C       -2.98067         9.24498        -5.60925
| 55>    C       -2.68758        10.59805        -5.82242
| 56>    C       -2.51572        11.49381        -4.79320
| 57>    C       -2.21159        12.87383        -4.88146
| 58>    C       -2.12591        13.50572        -3.67680
| 59>    C       -2.36146        12.65791        -2.57105
| 60>    S       -2.67813        11.02972        -3.10767
| 61>    C       -2.38802        12.98293        -1.22531
| 62>    C       -2.19699        14.24320        -0.62049
| 63>    C       -2.33985        14.22610         0.73626
| 64>    C       -2.64803        12.95315         1.26922
| 65>    S       -2.72782        11.76964        -0.01311
| 66>    C       -2.87456        12.64302         2.59586
| 67>    C       -3.19244        11.35784         3.02546
| 68>    C       -3.47940        10.90939         4.29444
| 69>    C       -3.37325        11.51526         5.59499
| 70>    C       -2.48680        12.48704         5.99556
| 71>    C       -2.42784        13.00499         7.30447
| 72>    N       -2.34667        13.48077         8.34664
| 73>    C       -1.45606        13.01097         5.19105
| 74>    N       -0.57103        13.44623         4.60228
| 75>    C       -4.24658        10.76198         6.49601
| 76>    C       -4.69948         9.59957         5.82301
| 77>    C       -4.18143         9.61240         4.44011
| 78>    O       -4.32924         8.76562         3.58461
| 79>    C       -5.51572         8.67104         6.42016
| 80>    C       -5.91730         8.90751         7.73972
| 81>    C       -5.47251        10.07807         8.39730
| 82>    C       -4.63624        11.01265         7.79660
| 83>    S       -6.10154        10.18155        10.01354
| 84>    C       -6.93979         8.66918         9.78801
| 85>    C       -6.75969         8.11419         8.56630
| 86>   Br       -7.97648         7.96842        11.18550
| 87>    H       -8.73737         0.26864         0.73499
| 88>    H       -5.99575        -3.90462         0.32825
| 89>    H      -10.86556        -1.48518         1.24359
| 90>    H       -2.55351         0.55369        -0.47368
| 91>    H       -3.90841         4.67146         2.06901
| 92>    H       -3.95391         6.11137         0.00229
| 93>    H       -3.66837         6.18101        -2.47414
| 94>    H       -3.89886         3.42036        -3.79709
| 95>    H       -4.18817         3.49334        -9.23131
| 96>    H       -3.14311         8.58082        -7.63724
| 97>    H       -3.04745         8.91338        -4.58033
| 98>    H       -2.59141        10.96096        -6.83650
| 99>    H       -2.06732        13.35515        -5.83246
|100>    H       -1.90475        14.55067        -3.55493
|101>    H       -1.96821        15.12316        -1.19420
|102>    H       -2.23029        15.08586         1.37270
|103>    H       -2.82890        13.46017         3.29934
|104>    H       -3.32489        10.60486         2.25269
|105>    H       -5.83900         7.79106         5.88661
|106>    H       -4.32851        11.89218         8.33727
|107>    H       -7.20255         7.18482         8.25789
|108> *
|109>
|110>                          ****END OF INPUT****

CARTESIAN COORDINATES (ANGSTROEM)
---------------------------------
  C     -4.633370   -1.354020   -0.041000
  C     -3.579430   -2.198210   -0.242040
  C     -3.669440   -3.607510   -0.198800
  N     -3.681860   -4.754410   -0.174590
  C     -2.256420   -1.787350   -0.520430
  N     -1.160360   -1.534410   -0.745760
  C     -6.004960   -1.741670    0.251180
  C     -6.807750   -0.578170    0.373550
  C     -8.153260   -0.634220    0.649820
  C     -8.735580   -1.894050    0.818110
  C     -7.926300   -3.050810    0.694990
  C     -6.568630   -2.996310    0.412770
  S     -8.846410   -4.503530    0.941130
  C    -10.284590   -3.553050    1.202710
  C    -10.088620   -2.215640    1.110670
  Br   -11.907110   -4.414740    1.573430
  C     -5.978210    0.620080    0.154910
  O     -6.337100    1.772650    0.128180
  C     -4.591420    0.107770   -0.069910
  C     -3.547250    0.923950   -0.264040
  C     -3.680320    2.390860   -0.195360
  N     -3.746330    2.928980    1.019500
  C     -3.848480    4.245770    1.075910
  C     -3.867460    5.039040   -0.059290
  C     -3.765470    4.378490   -1.288290
  N     -3.669460    3.046490   -1.339440
  C     -3.737800    5.104020   -2.539910
  C     -3.799070    4.494080   -3.739220
  C     -3.735330    5.191600   -4.979020
  O     -3.496650    6.530260   -5.006300
  C     -3.856360    4.748160   -6.281470
  C     -4.103470    3.568260   -7.121480
  O     -4.309870    2.419670   -6.834750
  N     -4.052740    4.076990   -8.417970
  C     -3.803620    5.445700   -8.517850
  O     -3.725760    6.064040   -9.547050
  C     -3.678440    5.872650   -7.122440
  C     -3.451020    6.963080   -6.298040
  C     -3.183990    8.318380   -6.590880
  C     -2.980670    9.244980   -5.609250
  C     -2.687580   10.598050   -5.822420
  C     -2.515720   11.493810   -4.793200
  C     -2.211590   12.873830   -4.881460
  C     -2.125910   13.505720   -3.676800
  C     -2.361460   12.657910   -2.571050
  S     -2.678130   11.029720   -3.107670
  C     -2.388020   12.982930   -1.225310
  C     -2.196990   14.243200   -0.620490
  C     -2.339850   14.226100    0.736260
  C     -2.648030   12.953150    1.269220
  S     -2.727820   11.769640   -0.013110
  C     -2.874560   12.643020    2.595860
  C     -3.192440   11.357840    3.025460
  C     -3.479400   10.909390    4.294440
  C     -3.373250   11.515260    5.594990
  C     -2.486800   12.487040    5.995560
  C     -2.427840   13.004990    7.304470
  N     -2.346670   13.480770    8.346640
  C     -1.456060   13.010970    5.191050
  N     -0.571030   13.446230    4.602280
  C     -4.246580   10.761980    6.496010
  C     -4.699480    9.599570    5.823010
  C     -4.181430    9.612400    4.440110
  O     -4.329240    8.765620    3.584610
  C     -5.515720    8.671040    6.420160
  C     -5.917300    8.907510    7.739720
  C     -5.472510   10.078070    8.397300
  C     -4.636240   11.012650    7.796600
  S     -6.101540   10.181550   10.013540
  C     -6.939790    8.669180    9.788010
  C     -6.759690    8.114190    8.566300
  Br    -7.976480    7.968420   11.185500
  H     -8.737370    0.268640    0.734990
  H     -5.995750   -3.904620    0.328250
  H    -10.865560   -1.485180    1.243590
  H     -2.553510    0.553690   -0.473680
  H     -3.908410    4.671460    2.069010
  H     -3.953910    6.111370    0.002290
  H     -3.668370    6.181010   -2.474140
  H     -3.898860    3.420360   -3.797090
  H     -4.188170    3.493340   -9.231310
  H     -3.143110    8.580820   -7.637240
  H     -3.047450    8.913380   -4.580330
  H     -2.591410   10.960960   -6.836500
  H     -2.067320   13.355150   -5.832460
  H     -1.904750   14.550670   -3.554930
  H     -1.968210   15.123160   -1.194200
  H     -2.230290   15.085860    1.372700
  H     -2.828900   13.460170    3.299340
  H     -3.324890   10.604860    2.252690
  H     -5.839000    7.791060    5.886610
  H     -4.328510   11.892180    8.337270
  H     -7.202550    7.184820    8.257890

 Total Charge           Charge          ....    0
 Multiplicity           Mult            ....    1
 Number of Electrons    NEL             ....  568
 Basis Dimension        Dim             .... 1165

ORBITAL ENERGIES
----------------

  NO   OCC          E(Eh)            E(eV)
   0   2.0000    -482.889278    -13140.0853
   1   2.0000    -482.881973    -13139.8865
   2   2.0000     -88.979806     -2421.2636
   3   2.0000     -88.971484     -2421.0372
   4   2.0000     -88.970763     -2421.0175
   5   2.0000     -88.968357     -2420.9521
   6   2.0000     -62.566996     -1702.5345
   7   2.0000     -62.559694     -1702.3358
   8   2.0000     -56.400952     -1534.7479
   9   2.0000     -56.398223     -1534.6737
  10   2.0000     -56.398199     -1534.6730
  11   2.0000     -56.393640     -1534.5489
  12   2.0000     -56.390933     -1534.4753
  13   2.0000     -56.390899     -1534.4744
  14   2.0000     -19.317147      -525.6463
  15   2.0000     -19.222027      -523.0579
  16   2.0000     -19.213873      -522.8361
  17   2.0000     -19.212936      -522.8106
  18   2.0000     -19.207073      -522.6510
  19   2.0000     -14.456909      -393.3925
  20   2.0000     -14.421196      -392.4207
  21   2.0000     -14.420436      -392.4000
  22   2.0000     -14.413687      -392.2164
  23   2.0000     -14.409885      -392.1129
  24   2.0000     -14.408124      -392.0650
  25   2.0000     -14.406589      -392.0232
  26   2.0000     -10.403521      -283.0942
  27   2.0000     -10.402737      -283.0729
  28   2.0000     -10.371386      -282.2197
  29   2.0000     -10.369176      -282.1596
  30   2.0000     -10.367881      -282.1244
  31   2.0000     -10.363568      -282.0070
  32   2.0000     -10.357536      -281.8429
  33   2.0000     -10.354113      -281.7497
  34   2.0000     -10.351327      -281.6739
  35   2.0000     -10.350342      -281.6471
  36   2.0000     -10.346868      -281.5526
  37   2.0000     -10.342879      -281.4440
  38   2.0000     -10.336061      -281.2585
  39   2.0000     -10.334191      -281.2076
  40   2.0000     -10.333971      -281.2017
  41   2.0000     -10.333636      -281.1925
  42   2.0000     -10.332931      -281.1733
  43   2.0000     -10.332633      -281.1652
  44   2.0000     -10.330749      -281.1140
  45   2.0000     -10.323254      -280.9100
  46   2.0000     -10.322150      -280.8800
  47   2.0000     -10.321468      -280.8614
  48   2.0000     -10.320189      -280.8266
  49   2.0000     -10.315131      -280.6890
  50   2.0000     -10.314096      -280.6608
  51   2.0000     -10.313756      -280.6516
  52   2.0000     -10.313393      -280.6417
  53   2.0000     -10.313193      -280.6362
  54   2.0000     -10.313000      -280.6310
  55   2.0000     -10.311480      -280.5896
  56   2.0000     -10.310764      -280.5701
  57   2.0000     -10.309778      -280.5433
  58   2.0000     -10.309067      -280.5240
  59   2.0000     -10.307858      -280.4911
  60   2.0000     -10.307457      -280.4802
  61   2.0000     -10.305997      -280.4404
  62   2.0000     -10.305360      -280.4231
  63   2.0000     -10.304902      -280.4106
  64   2.0000     -10.302339      -280.3409
  65   2.0000     -10.301882      -280.3285
  66   2.0000     -10.301708      -280.3237
  67   2.0000     -10.300800      -280.2990
  68   2.0000     -10.299432      -280.2618
  69   2.0000     -10.299281      -280.2577
  70   2.0000     -10.297870      -280.2193
  71   2.0000     -10.297820      -280.2179
  72   2.0000     -10.297527      -280.2100
  73   2.0000     -10.295719      -280.1608
  74   2.0000     -10.294055      -280.1155
  75   2.0000     -10.292385      -280.0700
  76   2.0000     -10.289827      -280.0004
  77   2.0000     -10.287849      -279.9466
  78   2.0000     -10.286237      -279.9027
  79   2.0000     -10.286185      -279.9013
  80   2.0000      -8.796430      -239.3630
  81   2.0000      -8.789124      -239.1642
  82   2.0000      -8.075821      -219.7543
  83   2.0000      -8.067918      -219.5392
  84   2.0000      -8.066838      -219.5098
  85   2.0000      -8.064713      -219.4520
  86   2.0000      -6.632761      -180.4866
  87   2.0000      -6.625413      -180.2867
  88   2.0000      -6.618174      -180.0897
  89   2.0000      -6.617924      -180.0829
  90   2.0000      -6.610860      -179.8906
  91   2.0000      -6.610670      -179.8855
  92   2.0000      -6.045512      -164.5068
  93   2.0000      -6.041232      -164.3903
  94   2.0000      -6.037560      -164.2904
  95   2.0000      -6.037023      -164.2757
  96   2.0000      -6.036508      -164.2617
  97   2.0000      -6.034317      -164.2021
  98   2.0000      -6.033579      -164.1820
  99   2.0000      -6.032262      -164.1462
 100   2.0000      -6.030326      -164.0935
 101   2.0000      -6.028892      -164.0545
 102   2.0000      -6.028051      -164.0316
 103   2.0000      -6.025801      -163.9704
 104   2.0000      -2.748621       -74.7938
 105   2.0000      -2.744524       -74.6823
 106   2.0000      -2.744382       -74.6784
 107   2.0000      -2.741253       -74.5933
 108   2.0000      -2.737192       -74.4828
 109   2.0000      -2.737101       -74.4803
 110   2.0000      -2.732766       -74.3623
 111   2.0000      -2.732750       -74.3619
 112   2.0000      -2.725500       -74.1646
 113   2.0000      -2.725484       -74.1642
 114   2.0000      -1.233227       -33.5578
 115   2.0000      -1.158191       -31.5160
 116   2.0000      -1.138061       -30.9682
 117   2.0000      -1.137726       -30.9591
 118   2.0000      -1.121247       -30.5107
 119   2.0000      -1.087064       -29.5805
 120   2.0000      -1.045563       -28.4512
 121   2.0000      -1.027612       -27.9628
 122   2.0000      -1.021771       -27.8038
 123   2.0000      -1.018186       -27.7062
 124   2.0000      -1.016680       -27.6653
 125   2.0000      -1.006419       -27.3861
 126   2.0000      -0.999193       -27.1894
 127   2.0000      -0.998985       -27.1838
 128   2.0000      -0.993979       -27.0475
 129   2.0000      -0.986168       -26.8350
 130   2.0000      -0.985411       -26.8144
 131   2.0000      -0.982525       -26.7359
 132   2.0000      -0.947992       -25.7962
 133   2.0000      -0.946065       -25.7437
 134   2.0000      -0.937899       -25.5215
 135   2.0000      -0.928809       -25.2742
 136   2.0000      -0.925646       -25.1881
 137   2.0000      -0.917860       -24.9763
 138   2.0000      -0.913425       -24.8556
 139   2.0000      -0.908915       -24.7328
 140   2.0000      -0.902300       -24.5528
 141   2.0000      -0.892080       -24.2747
 142   2.0000      -0.890821       -24.2405
 143   2.0000      -0.883553       -24.0427
 144   2.0000      -0.880198       -23.9514
 145   2.0000      -0.872725       -23.7481
 146   2.0000      -0.871198       -23.7065
 147   2.0000      -0.851816       -23.1791
 148   2.0000      -0.846716       -23.0403
 149   2.0000      -0.844055       -22.9679
 150   2.0000      -0.833889       -22.6913
 151   2.0000      -0.827513       -22.5178
 152   2.0000      -0.823275       -22.4025
 153   2.0000      -0.802774       -21.8446
 154   2.0000      -0.785489       -21.3743
 155   2.0000      -0.782479       -21.2923
 156   2.0000      -0.773285       -21.0422
 157   2.0000      -0.766701       -20.8630
 158   2.0000      -0.764105       -20.7924
 159   2.0000      -0.756932       -20.5972
 160   2.0000      -0.749132       -20.3849
 161   2.0000      -0.739287       -20.1170
 162   2.0000      -0.733272       -19.9534
 163   2.0000      -0.716165       -19.4878
 164   2.0000      -0.706720       -19.2308
 165   2.0000      -0.705431       -19.1957
 166   2.0000      -0.697096       -18.9689
 167   2.0000      -0.695431       -18.9236
 168   2.0000      -0.694325       -18.8935
 169   2.0000      -0.683180       -18.5903
 170   2.0000      -0.679917       -18.5015
 171   2.0000      -0.671055       -18.2603
 172   2.0000      -0.667510       -18.1639
 173   2.0000      -0.659867       -17.9559
 174   2.0000      -0.655713       -17.8429
 175   2.0000      -0.648079       -17.6351
 176   2.0000      -0.644438       -17.5361
 177   2.0000      -0.635882       -17.3032
 178   2.0000      -0.629725       -17.1357
 179   2.0000      -0.627266       -17.0688
 180   2.0000      -0.624109       -16.9829
 181   2.0000      -0.617174       -16.7942
 182   2.0000      -0.615779       -16.7562
 183   2.0000      -0.608552       -16.5595
 184   2.0000      -0.601338       -16.3632
 185   2.0000      -0.598041       -16.2735
 186   2.0000      -0.596474       -16.2309
 187   2.0000      -0.594971       -16.1900
 188   2.0000      -0.590249       -16.0615
 189   2.0000      -0.589669       -16.0457
 190   2.0000      -0.586172       -15.9505
 191   2.0000      -0.577617       -15.7178
 192   2.0000      -0.572410       -15.5761
 193   2.0000      -0.564280       -15.3548
 194   2.0000      -0.559527       -15.2255
 195   2.0000      -0.554569       -15.0906
 196   2.0000      -0.554423       -15.0866
 197   2.0000      -0.547525       -14.8989
 198   2.0000      -0.546454       -14.8698
 199   2.0000      -0.545328       -14.8391
 200   2.0000      -0.543253       -14.7827
 201   2.0000      -0.540673       -14.7125
 202   2.0000      -0.537554       -14.6276
 203   2.0000      -0.535962       -14.5843
 204   2.0000      -0.532056       -14.4780
 205   2.0000      -0.530744       -14.4423
 206   2.0000      -0.527262       -14.3475
 207   2.0000      -0.522193       -14.2096
 208   2.0000      -0.521356       -14.1868
 209   2.0000      -0.519477       -14.1357
 210   2.0000      -0.516922       -14.0662
 211   2.0000      -0.514536       -14.0012
 212   2.0000      -0.513014       -13.9598
 213   2.0000      -0.512322       -13.9410
 214   2.0000      -0.508916       -13.8483
 215   2.0000      -0.507363       -13.8061
 216   2.0000      -0.504622       -13.7315
 217   2.0000      -0.502476       -13.6731
 218   2.0000      -0.500283       -13.6134
 219   2.0000      -0.498385       -13.5617
 220   2.0000      -0.497316       -13.5327
 221   2.0000      -0.492249       -13.3948
 222   2.0000      -0.491856       -13.3841
 223   2.0000      -0.491717       -13.3803
 224   2.0000      -0.490545       -13.3484
 225   2.0000      -0.486105       -13.2276
 226   2.0000      -0.485166       -13.2020
 227   2.0000      -0.483626       -13.1601
 228   2.0000      -0.477819       -13.0021
 229   2.0000      -0.477240       -12.9864
 230   2.0000      -0.468344       -12.7443
 231   2.0000      -0.467212       -12.7135
 232   2.0000      -0.464948       -12.6519
 233   2.0000      -0.462125       -12.5751
 234   2.0000      -0.457507       -12.4494
 235   2.0000      -0.453889       -12.3510
 236   2.0000      -0.453221       -12.3328
 237   2.0000      -0.451942       -12.2980
 238   2.0000      -0.448316       -12.1993
 239   2.0000      -0.447064       -12.1652
 240   2.0000      -0.444102       -12.0846
 241   2.0000      -0.443705       -12.0738
 242   2.0000      -0.441496       -12.0137
 243   2.0000      -0.440864       -11.9965
 244   2.0000      -0.436444       -11.8763
 245   2.0000      -0.433525       -11.7968
 246   2.0000      -0.431970       -11.7545
 247   2.0000      -0.429962       -11.6999
 248   2.0000      -0.428537       -11.6611
 249   2.0000      -0.422053       -11.4846
 250   2.0000      -0.420639       -11.4462
 251   2.0000      -0.418577       -11.3901
 252   2.0000      -0.415363       -11.3026
 253   2.0000      -0.414415       -11.2768
 254   2.0000      -0.414045       -11.2667
 255   2.0000      -0.402295       -10.9470
 256   2.0000      -0.398453       -10.8425
 257   2.0000      -0.392743       -10.6871
 258   2.0000      -0.385718       -10.4959
 259   2.0000      -0.384611       -10.4658
 260   2.0000      -0.381325       -10.3764
 261   2.0000      -0.379592       -10.3292
 262   2.0000      -0.378674       -10.3042
 263   2.0000      -0.378332       -10.2949
 264   2.0000      -0.372487       -10.1359
 265   2.0000      -0.371535       -10.1100
 266   2.0000      -0.369576       -10.0567
 267   2.0000      -0.364397        -9.9158
 268   2.0000      -0.362618        -9.8673
 269   2.0000      -0.357479        -9.7275
 270   2.0000      -0.348060        -9.4712
 271   2.0000      -0.347792        -9.4639
 272   2.0000      -0.342436        -9.3182
 273   2.0000      -0.338966        -9.2237
 274   2.0000      -0.333390        -9.0720
 275   2.0000      -0.329452        -8.9649
 276   2.0000      -0.324890        -8.8407
 277   2.0000      -0.319815        -8.7026
 278   2.0000      -0.311389        -8.4733
 279   2.0000      -0.310016        -8.4360
 280   2.0000      -0.297667        -8.0999
 281   2.0000      -0.289039        -7.8652
 282   2.0000      -0.279765        -7.6128
 283   2.0000      -0.233559        -6.3555
 284   0.0000      -0.120920        -3.2904
 285   0.0000      -0.088165        -2.3991
 286   0.0000      -0.074895        -2.0380
 287   0.0000      -0.062349        -1.6966
 288   0.0000      -0.055627        -1.5137

MULLIKEN ATOMIC CHARGES
-----------------------
   0 C :    0.327938
   1 C :   -0.338847
   2 C :   -0.188246
   3 N :    0.156055
   4 C :   -0.189271
   5 N :    0.168295
   6 C :    0.010512
   7 C :   -0.015617
   8 C :   -0.063641
   9 C :    0.117617
  10 C :   -0.088628
  11 C :   -0.018400
  12 S :    0.190512
  13 C :   -0.123696
  14 C :    0.040122
  15 Br:    0.028661
  16 C :    0.156452
  17 O :   -0.131944
  18 C :   -0.058078
  19 C :    0.005132
  20 C :   -0.030287
  21 N :   -0.078949
  22 C :    0.089551
  23 C :   -0.040395
  24 C :    0.055239
  25 N :   -0.063541
  26 C :    0.006635
  27 C :    0.013930
  28 C :    0.093400
  29 O :   -0.219455
  30 C :   -0.026184
  31 C :    0.166799
  32 O :   -0.132060
  33 N :   -0.168103
  34 C :    0.164282
  35 O :   -0.142511
  36 C :   -0.030888
  37 C :    0.093351
  38 C :   -0.024396
  39 C :    0.016977
  40 C :    0.007268
  41 C :   -0.021792
  42 C :    0.049278
  43 C :    0.028773
  44 C :   -0.032279
  45 S :    0.090518
  46 C :   -0.053579
  47 C :    0.042851
  48 C :    0.037410
  49 C :   -0.021725
  50 S :    0.101259
  51 C :    0.006119
  52 C :    0.016726
  53 C :   -0.119162
  54 C :    0.286957
  55 C :   -0.343406
  56 C :   -0.180860
  57 N :    0.142014
  58 C :   -0.217028
  59 N :    0.160943
  60 C :    0.004854
  61 C :    0.000627
  62 C :    0.136223
  63 O :   -0.163181
  64 C :   -0.075757
  65 C :    0.113533
  66 C :   -0.087931
  67 C :   -0.023631
  68 S :    0.182508
  69 C :   -0.125448
  70 C :    0.040101
  71 Br:    0.018611
  72 H :   -0.008804
  73 H :   -0.005152
  74 H :   -0.001137
  75 H :    0.054374
  76 H :    0.017801
  77 H :    0.006071
  78 H :   -0.002976
  79 H :    0.034877
  80 H :    0.139900
  81 H :    0.017061
  82 H :    0.021630
  83 H :    0.000188
  84 H :    0.000356
  85 H :   -0.001555
  86 H :   -0.002707
  87 H :    0.007105
  88 H :    0.007944
  89 H :    0.012884
  90 H :   -0.014473
  91 H :   -0.006250
  92 H :   -0.006255
Sum of atomic charges:   -0.0000000

LOEWDIN ATOMIC CHARGES
----------------------
   0 C :    0.075611
   1 C :   -0.125587
   2 C :   -0.016963
   3 N :   -0.045000
   4 C :   -0.019112
   5 N :   -0.039427
   6 C :   -0.021094
   7 C :   -0.051101
   8 C :    0.024671
   9 C :   -0.029849
  10 C :   -0.142089
  11 C :   -0.007432
  12 S :    0.435711
  13 C :   -0.269584
  14 C :   -0.070121
  15 Br:    0.141006
  16 C :    0.088436
  17 O :   -0.125012
  18 C :   -0.066771
  19 C :    0.084026
  20 C :    0.026489
  21 N :   -0.083104
  22 C :    0.062767
  23 C :   -0.052335
  24 C :    0.035131
  25 N :   -0.080297
  26 C :   -0.013333
  27 C :   -0.001291
  28 C :    0.070574
  29 O :    0.013207
  30 C :   -0.089428
  31 C :    0.084642
  32 O :   -0.151225
  33 N :   -0.006183
  34 C :    0.083478
  35 O :   -0.159673
  36 C :   -0.092866
  37 C :    0.067539
  38 C :   -0.025200
  39 C :   -0.015005
  40 C :   -0.033845
  41 C :   -0.140693
  42 C :   -0.015877
  43 C :   -0.028520
  44 C :   -0.154210
  45 S :    0.392782
  46 C :   -0.185654
  47 C :   -0.007950
  48 C :   -0.032196
  49 C :   -0.102103
  50 S :    0.401177
  51 C :   -0.065252
  52 C :    0.048387
  53 C :   -0.101947
  54 C :    0.068998
  55 C :   -0.149584
  56 C :   -0.020179
  57 N :   -0.059928
  58 C :   -0.024269
  59 N :   -0.058695
  60 C :   -0.015904
  61 C :   -0.051760
  62 C :    0.080390
  63 O :   -0.161005
  64 C :    0.019223
  65 C :   -0.035906
  66 C :   -0.144233
  67 C :   -0.014746
  68 S :    0.429861
  69 C :   -0.273920
  70 C :   -0.070462
  71 Br:    0.132875
  72 H :    0.042026
  73 H :    0.041647
  74 H :    0.039648
  75 H :    0.052737
  76 H :    0.031556
  77 H :    0.038269
  78 H :    0.031833
  79 H :    0.051983
  80 H :    0.095500
  81 H :    0.047798
  82 H :    0.026000
  83 H :    0.039140
  84 H :    0.039275
  85 H :    0.036577
  86 H :    0.036758
  87 H :    0.041912
  88 H :    0.038449
  89 H :    0.032402
  90 H :    0.039365
  91 H :    0.040258
  92 H :    0.037809

  Mayer bond orders larger than 0.100000
B(  0-C ,  1-C ) :   1.6726 B(  0-C ,  6-C ) :   1.0191 B(  0-C , 18-C ) :   1.0056
B(  1-C ,  2-C ) :   1.1348 B(  1-C ,  4-C ) :   1.1452 B(  2-C ,  3-N ) :   2.9738
B(  4-C ,  5-N ) :   2.9772 B(  6-C ,  7-C ) :   1.2731 B(  6-C , 11-C ) :   1.3991
B(  7-C ,  8-C ) :   1.4173 B(  7-C , 16-C ) :   0.9444 B(  8-C ,  9-C ) :   1.2532
B(  8-C , 72-H ) :   1.0170 B(  9-C , 10-C ) :   1.2967 B(  9-C , 14-C ) :   1.1632
B( 10-C , 11-C ) :   1.3419 B( 10-C , 12-S ) :   1.0863 B( 11-C , 73-H ) :   0.9798
B( 12-S , 13-C ) :   1.0867 B( 13-C , 14-C ) :   1.6161 B( 13-C , 15-Br) :   1.0218
B( 14-C , 74-H ) :   1.0003 B( 16-C , 17-O ) :   2.2365 B( 16-C , 18-C ) :   0.9133
B( 18-C , 19-C ) :   1.8828 B( 19-C , 20-C ) :   0.9125 B( 19-C , 75-H ) :   0.9293
B( 20-C , 21-N ) :   1.4948 B( 20-C , 25-N ) :   1.5332 B( 21-N , 22-C ) :   1.5342
B( 22-C , 23-C ) :   1.3744 B( 22-C , 76-H ) :   0.9792 B( 23-C , 24-C ) :   1.3451
B( 23-C , 77-H ) :   0.9784 B( 24-C , 25-N ) :   1.5070 B( 24-C , 26-C ) :   1.0497
B( 26-C , 27-C ) :   1.6768 B( 26-C , 78-H ) :   0.9841 B( 27-C , 28-C ) :   1.1358
B( 27-C , 79-H ) :   0.9596 B( 28-C , 29-O ) :   1.1492 B( 28-C , 30-C ) :   1.4103
B( 29-O , 37-C ) :   1.1413 B( 30-C , 31-C ) :   0.8716 B( 30-C , 36-C ) :   1.2798
B( 31-C , 32-O ) :   2.2802 B( 31-C , 33-N ) :   1.0764 B( 33-N , 34-C ) :   1.0774
B( 33-N , 80-H ) :   0.9135 B( 34-C , 35-O ) :   2.2693 B( 34-C , 36-C ) :   0.8810
B( 36-C , 37-C ) :   1.3775 B( 37-C , 38-C ) :   1.1896 B( 38-C , 39-C ) :   1.5773
B( 38-C , 81-H ) :   0.9714 B( 39-C , 40-C ) :   1.1535 B( 39-C , 82-H ) :   0.9760
B( 40-C , 41-C ) :   1.5439 B( 40-C , 83-H ) :   0.9881 B( 41-C , 42-C ) :   1.1498
B( 41-C , 45-S ) :   1.0349 B( 42-C , 43-C ) :   1.5794 B( 42-C , 84-H ) :   1.0006
B( 43-C , 44-C ) :   1.1976 B( 43-C , 85-H ) :   0.9943 B( 44-C , 45-S ) :   1.0732
B( 44-C , 46-C ) :   1.4723 B( 46-C , 47-C ) :   1.2119 B( 46-C , 50-S ) :   1.0460
B( 47-C , 48-C ) :   1.5527 B( 47-C , 86-H ) :   0.9944 B( 48-C , 49-C ) :   1.1740
B( 48-C , 87-H ) :   1.0010 B( 49-C , 50-S ) :   1.0792 B( 49-C , 51-C ) :   1.5107
B( 51-C , 52-C ) :   1.2080 B( 51-C , 88-H ) :   0.9637 B( 52-C , 53-C ) :   1.5519
B( 52-C , 89-H ) :   0.9352 B( 53-C , 54-C ) :   1.0699 B( 53-C , 62-C ) :   0.9642
B( 54-C , 55-C ) :   1.6102 B( 54-C , 60-C ) :   1.0062 B( 55-C , 56-C ) :   1.1296
B( 55-C , 58-C ) :   1.1702 B( 56-C , 57-N ) :   2.9782 B( 58-C , 59-N ) :   3.0059
B( 60-C , 61-C ) :   1.2738 B( 60-C , 67-C ) :   1.4202 B( 61-C , 62-C ) :   0.9238
B( 61-C , 64-C ) :   1.4300 B( 62-C , 63-O ) :   2.2310 B( 64-C , 65-C ) :   1.2456
B( 64-C , 90-H ) :   1.0166 B( 65-C , 66-C ) :   1.3148 B( 65-C , 70-C ) :   1.1608
B( 66-C , 67-C ) :   1.3192 B( 66-C , 68-S ) :   1.0842 B( 67-C , 91-H ) :   0.9822
B( 68-S , 69-C ) :   1.0870 B( 69-C , 70-C ) :   1.6196 B( 69-C , 71-Br) :   1.0156
B( 70-C , 92-H ) :   1.0008

-----------------------------------------------------------------------------
         ABSORPTION SPECTRUM VIA TRANSITION ELECTRIC DIPOLE MOMENTS
-----------------------------------------------------------------------------
State   Energy  Wavelength   fosc         T2         TX        TY        TZ
        (cm-1)    (nm)                  (au**2)     (au)      (au)      (au)
-----------------------------------------------------------------------------
   0   11193.0    893.4   1.188316987  34.95128  -0.05263   2.19990   5.48716
   1   19678.3    508.2   0.029863139   0.49960   0.13273   0.58964  -0.36648
   2   21344.9    468.5   0.768868115  11.85860  -0.59377  -2.64988   2.11759
   3   23028.2    434.2   0.000490168   0.00701   0.00201   0.03002   0.07812
   4   23324.8    428.7   0.163023399   2.30095   0.00738   0.96006  -1.17439
   5   24442.3    409.1   0.396157970   5.33583   0.77251   0.91863  -1.97362
   6   25091.1    398.5   0.231379013   3.03585   0.73441   1.57854  -0.06852
   7   26995.4    370.4   0.021246939   0.25911   0.24572   0.43053   0.11564
   8   27964.8    357.6   0.091051434   1.07189   0.42191   0.93067   0.16653
   9   28129.4    355.5   0.014952753   0.17500   0.05136   0.36550   0.19691
  10   28680.2    348.7   0.433189331   4.97245  -2.14194  -0.40244   0.47179
  11   29270.7    341.6   0.004047149   0.04552   0.05974  -0.18428   0.08938
  12   29985.6    333.5   0.015068477   0.16544   0.16719  -0.36251   0.07789
  13   30308.3    329.9   0.214275780   2.32749   0.51801   1.09185  -0.93113
  14   30704.4    325.7   0.100515057   1.07772   0.97181   0.00657  -0.36504
  15   30843.9    324.2   0.001982272   0.02116  -0.13304   0.03571   0.04673
  16   31080.8    321.7   0.059390934   0.62908  -0.06956   0.31850  -0.72305
  17   31150.2    321.0   0.219832917   2.32331  -0.26463  -0.69919   1.32831
  18   31527.9    317.2   0.015766821   0.16464   0.02554   0.03041  -0.40381
  19   31680.2    315.7   0.004376907   0.04548  -0.15238  -0.05521   0.13862
  20   31905.0    313.4   0.019724772   0.20353  -0.19877   0.20902   0.34689
  21   32282.7    309.8   0.413880014   4.22066   1.50374   1.20359  -0.71469
  22   32662.5    306.2   0.085218867   0.85894  -0.46933  -0.79322   0.09731
  23   32902.1    303.9   0.000885722   0.00886   0.01017  -0.06686   0.06548
  24   33198.0    301.2   0.256580438   2.54441  -0.17968  -0.57869  -1.47555
  25   33489.7    298.6   0.139071429   1.36711  -0.24247  -0.41759  -1.06486
  26   34443.5    290.3   0.538107430   5.14325  -2.19241   0.35652   0.45771
  27   34612.4    288.9   0.021138789   0.20106  -0.20292  -0.10675   0.38534
  28   34622.4    288.8   0.003346240   0.03182  -0.10957  -0.05128   0.13109
  29   34880.2    286.7   0.021524715   0.20316  -0.36869  -0.05743  -0.25283
  30   35102.9    284.9   0.019682992   0.18460  -0.03881  -0.31207  -0.29275
  31   35503.9    281.7   0.055684244   0.51634   0.36809   0.57579  -0.22207
  32   35832.7    279.1   0.061984487   0.56948   0.22231  -0.71783  -0.06915
  33   35916.0    278.4   0.023044854   0.21123  -0.40417   0.12767   0.17770
  34   35954.0    278.1   0.026123999   0.23920   0.27324   0.39861  -0.07521
  35   36108.6    276.9   0.003526896   0.03216  -0.11068  -0.02347  -0.13912
  36   36175.2    276.4   0.000821256   0.00747   0.03239  -0.07999   0.00512
  37   37004.7    270.2   0.068822623   0.61228   0.12486  -0.23470  -0.73594
  38   37256.6    268.4   0.078137230   0.69045   0.39215   0.66341  -0.31072
  39   37390.3    267.4   0.187677918   1.65246   0.66170   1.10099   0.04924
  40   38082.1    262.6   0.224888772   1.94412  -0.07674  -0.26395  -1.36695
  41   38269.3    261.3   0.069747674   0.60001   0.24054   0.67039   0.30451
  42   38410.4    260.3   0.000964076   0.00826   0.00391   0.02582   0.08707
  43   38736.2    258.2   0.029114778   0.24744  -0.35645  -0.30176   0.17124
  44   39017.1    256.3   0.006546916   0.05524  -0.21553  -0.09332   0.00895
  45   39168.8    255.3   0.002522294   0.02120   0.10421   0.06185   0.08070
  46   39416.4    253.7   0.001144195   0.00956  -0.08686  -0.02124   0.03951
  47   39476.8    253.3   0.020496165   0.17093   0.21324   0.21624  -0.28052
  48   39827.3    251.1   0.038062030   0.31462  -0.36392  -0.38317   0.18806
  49   40150.3    249.1   0.103670108   0.85004  -0.07051  -0.00151  -0.91928

FINAL SINGLE POINT ENERGY     -9566.334124689534

DIPOLE MOMENT
-------------
                                X             Y             Z
Electronic contribution:   -110.47800    -105.36875     129.26551
Nuclear contribution   :    107.70454     107.64531    -131.32195
                        -----------------------------------------
Total Dipole Moment    :     -2.77346       2.27656      -2.05644
                        -----------------------------------------
Magnitude (a.u.)       :      4.13567
Magnitude (Debye)      :     10.51203

Rotational constants in cm-1:     0.000479     0.000335     0.000212
Rotational constants in MHz :    14.374012    10.050067     6.363402

                             ****ORCA TERMINATED NORMALLY****
TOTAL RUN TIME: 0 days 0 hours 9 minutes 15 seconds 954 msec
