                         Program Version 4.2.0 -  RELEASE  -
|  1> # ORCA input file
|  2> # SCF done       -210.372122740179          0.000953736444
|  3> ! CAM-B3LYP def2-SVP def2/J RIJCOSX Grid4 TightSCF
|  4> %maxcore 5000
|  5> %tddft
|  6>     Mode sTDDFT
|  7>     Ethresh 5.0
|  8>     maxcore 5000
|  9> end
| 10>
| 11> %pal
| 12>   nprocs 6
| 13>   end
| 14> * xyz 0 1
| 15>    C       -3.65515       -13.65817         5.66082
| 16>    C       -2.89776       -14.77609         5.44880
| 17>    F       -2.82886       -15.73128         6.38717
| 18>    C       -2.18326       -14.94003         4.24624
| 19>    F       -1.44938       -16.04778         4.06351
| 20>    C       -2.23500       -13.98298         3.27153
| 21>    C       -3.00706       -12.82083         3.45975
| 22>    C       -3.73059       -12.65404         4.67535
| 23>    C       -4.51589       -11.49621         4.88515
| 24>    C       -4.57699       -10.53969         3.90784
| 25>    C       -3.85427       -10.71605         2.69503
| 26>    C       -3.08496       -11.81854         2.46576
| 27>    C       -4.11088        -9.56408         1.80314
| 28>    O       -3.64323        -9.39363         0.69486
| 29>    C       -5.06357        -8.70385         2.53361
| 30>    C       -5.29593        -9.26838         3.83566
| 31>    C       -6.01255        -8.70430         4.86747
| 32>    C       -6.63145        -7.44360         4.83015
| 33>    N       -7.15112        -6.41924         4.88763
| 34>    C       -6.18709        -9.30723         6.12890
| 35>    N       -6.36609        -9.74615         7.17522
| 36>    C       -5.67834        -7.58842         1.99947
| 37>    C       -5.37763        -7.02367         0.76532
| 38>    C       -6.06816        -5.94791         0.24370
| 39>    C       -5.77956        -5.26519        -0.95956
| 40>    C       -6.62685        -4.23379        -1.23167
| 41>    C       -7.62529        -4.04869        -0.24967
| 42>    S       -7.46783        -5.24300         1.01226
| 43>    C       -8.59892        -3.06704        -0.22257
| 44>    C       -8.89331        -2.12498        -1.23318
| 45>    C       -9.89482        -1.26203        -0.91555
| 46>    C      -10.43477        -1.45879         0.38068
| 47>    S       -9.65162        -2.83656         1.15341
| 48>    C      -11.39391        -0.68533         0.96464
| 49>    N      -11.85744        -0.85600         2.22669
| 50>    C      -12.75171        -0.07163         2.88738
| 51>    S      -13.66696        -0.78500         4.18311
| 52>    C      -14.56495         0.69117         4.33984
| 53>    N      -15.56754         0.74934         5.32064
| 54>    O      -16.18583         1.79084         5.42930
| 55>    O      -15.74955        -0.26016         5.97517
| 56>    C      -14.18248         1.66187         3.45794
| 57>    C      -13.12067         1.26012         2.61876
| 58>    C      -12.44642         2.11144         1.68545
| 59>    C      -12.96708         3.23985         1.13318
| 60>    C      -12.34584         4.05189         0.15803
| 61>    C      -11.18388         3.83929        -0.54309
| 62>    C      -10.66477         4.69877        -1.54811
| 63>    C       -9.51304         4.26784        -2.13408
| 64>    C       -9.03879         3.04234        -1.61742
| 65>    S      -10.12269         2.44845        -0.38473
| 66>    C       -7.87643         2.34976        -1.89795
| 67>    C       -6.81703         2.64417        -2.78004
| 68>    C       -5.76004         1.78927        -2.66486
| 69>    C       -5.90690         0.80239        -1.65787
| 70>    S       -7.49537         0.92065        -0.95943
| 71>    C       -4.95484        -0.13813        -1.29755
| 72>    C       -4.93547        -1.03260        -0.22981
| 73>    C       -5.65829        -1.11112         0.94913
| 74>    C       -5.67733        -2.40297         1.67949
| 75>    O       -4.99980        -3.38190         1.43833
| 76>    C       -6.73371        -2.26880         2.70561
| 77>    C       -7.22752        -3.19345         3.57974
| 78>    C       -8.33477        -2.84718         4.39056
| 79>    C       -8.89977        -1.54471         4.28838
| 80>    C      -10.01823        -1.22014         5.08049
| 81>    C      -10.54689        -2.14581         5.93756
| 82>    C       -9.98486        -3.43328         6.03777
| 83>    C       -8.89853        -3.77916         5.28202
| 84>    F      -10.53287        -4.31743         6.88200
| 85>    F      -11.61495        -1.82695         6.68387
| 86>    C       -8.33751        -0.59260         3.40612
| 87>    C       -7.26719        -0.95005         2.63564
| 88>    C       -6.47884        -0.18892         1.67001
| 89>    C       -6.42619         1.18950         1.62301
| 90>    C       -5.41428         1.89687         0.94937
| 91>    N       -4.59474         2.50137         0.41844
| 92>    C       -7.33377         2.03327         2.28723
| 93>    N       -8.08661         2.76751         2.75085
| 94>    H       -4.19591       -13.54779         6.58783
| 95>    H       -1.68211       -14.12378         2.35597
| 96>    H       -5.05458       -11.40196         5.81408
| 97>    H       -2.54550       -11.92811         1.53723
| 98>    H       -6.46569        -7.11299         2.57229
| 99>    H       -4.55976        -7.43018         0.18826
|100>    H       -4.94426        -5.54914        -1.57405
|101>    H       -6.54400        -3.59002        -2.08891
|102>    H       -8.36024        -2.11482        -2.16609
|103>    H      -10.25479        -0.47746        -1.55560
|104>    H      -11.83526         0.11258         0.38882
|105>    H      -11.56039        -1.70197         2.70333
|106>    H      -14.62968         2.63880         3.45427
|107>    H      -11.43216         1.83123         1.44952
|108>    H      -13.96268         3.54679         1.42300
|109>    H      -12.87908         4.95497        -0.11176
|110>    H      -11.16336         5.61746        -1.80284
|111>    H       -8.98715         4.79904        -2.90665
|112>    H       -6.85162         3.48069        -3.45423
|113>    H       -4.85112         1.87049        -3.23347
|114>    H       -4.11305        -0.20347        -1.97670
|115>    H       -4.24160        -1.86223        -0.34140
|116>    H       -6.79933        -4.18014         3.66132
|117>    H      -10.44824        -0.23131         5.03014
|118>    H       -8.47070        -4.76655         5.36397
|119>    H       -8.77437         0.39208         3.35511
|120> *
|121>
|122>                          ****END OF INPUT****

CARTESIAN COORDINATES (ANGSTROEM)
---------------------------------
  C     -3.655150  -13.658170    5.660820
  C     -2.897760  -14.776090    5.448800
  F     -2.828860  -15.731280    6.387170
  C     -2.183260  -14.940030    4.246240
  F     -1.449380  -16.047780    4.063510
  C     -2.235000  -13.982980    3.271530
  C     -3.007060  -12.820830    3.459750
  C     -3.730590  -12.654040    4.675350
  C     -4.515890  -11.496210    4.885150
  C     -4.576990  -10.539690    3.907840
  C     -3.854270  -10.716050    2.695030
  C     -3.084960  -11.818540    2.465760
  C     -4.110880   -9.564080    1.803140
  O     -3.643230   -9.393630    0.694860
  C     -5.063570   -8.703850    2.533610
  C     -5.295930   -9.268380    3.835660
  C     -6.012550   -8.704300    4.867470
  C     -6.631450   -7.443600    4.830150
  N     -7.151120   -6.419240    4.887630
  C     -6.187090   -9.307230    6.128900
  N     -6.366090   -9.746150    7.175220
  C     -5.678340   -7.588420    1.999470
  C     -5.377630   -7.023670    0.765320
  C     -6.068160   -5.947910    0.243700
  C     -5.779560   -5.265190   -0.959560
  C     -6.626850   -4.233790   -1.231670
  C     -7.625290   -4.048690   -0.249670
  S     -7.467830   -5.243000    1.012260
  C     -8.598920   -3.067040   -0.222570
  C     -8.893310   -2.124980   -1.233180
  C     -9.894820   -1.262030   -0.915550
  C    -10.434770   -1.458790    0.380680
  S     -9.651620   -2.836560    1.153410
  C    -11.393910   -0.685330    0.964640
  N    -11.857440   -0.856000    2.226690
  C    -12.751710   -0.071630    2.887380
  S    -13.666960   -0.785000    4.183110
  C    -14.564950    0.691170    4.339840
  N    -15.567540    0.749340    5.320640
  O    -16.185830    1.790840    5.429300
  O    -15.749550   -0.260160    5.975170
  C    -14.182480    1.661870    3.457940
  C    -13.120670    1.260120    2.618760
  C    -12.446420    2.111440    1.685450
  C    -12.967080    3.239850    1.133180
  C    -12.345840    4.051890    0.158030
  C    -11.183880    3.839290   -0.543090
  C    -10.664770    4.698770   -1.548110
  C     -9.513040    4.267840   -2.134080
  C     -9.038790    3.042340   -1.617420
  S    -10.122690    2.448450   -0.384730
  C     -7.876430    2.349760   -1.897950
  C     -6.817030    2.644170   -2.780040
  C     -5.760040    1.789270   -2.664860
  C     -5.906900    0.802390   -1.657870
  S     -7.495370    0.920650   -0.959430
  C     -4.954840   -0.138130   -1.297550
  C     -4.935470   -1.032600   -0.229810
  C     -5.658290   -1.111120    0.949130
  C     -5.677330   -2.402970    1.679490
  O     -4.999800   -3.381900    1.438330
  C     -6.733710   -2.268800    2.705610
  C     -7.227520   -3.193450    3.579740
  C     -8.334770   -2.847180    4.390560
  C     -8.899770   -1.544710    4.288380
  C    -10.018230   -1.220140    5.080490
  C    -10.546890   -2.145810    5.937560
  C     -9.984860   -3.433280    6.037770
  C     -8.898530   -3.779160    5.282020
  F    -10.532870   -4.317430    6.882000
  F    -11.614950   -1.826950    6.683870
  C     -8.337510   -0.592600    3.406120
  C     -7.267190   -0.950050    2.635640
  C     -6.478840   -0.188920    1.670010
  C     -6.426190    1.189500    1.623010
  C     -5.414280    1.896870    0.949370
  N     -4.594740    2.501370    0.418440
  C     -7.333770    2.033270    2.287230
  N     -8.086610    2.767510    2.750850
  H     -4.195910  -13.547790    6.587830
  H     -1.682110  -14.123780    2.355970
  H     -5.054580  -11.401960    5.814080
  H     -2.545500  -11.928110    1.537230
  H     -6.465690   -7.112990    2.572290
  H     -4.559760   -7.430180    0.188260
  H     -4.944260   -5.549140   -1.574050
  H     -6.544000   -3.590020   -2.088910
  H     -8.360240   -2.114820   -2.166090
  H    -10.254790   -0.477460   -1.555600
  H    -11.835260    0.112580    0.388820
  H    -11.560390   -1.701970    2.703330
  H    -14.629680    2.638800    3.454270
  H    -11.432160    1.831230    1.449520
  H    -13.962680    3.546790    1.423000
  H    -12.879080    4.954970   -0.111760
  H    -11.163360    5.617460   -1.802840
  H     -8.987150    4.799040   -2.906650
  H     -6.851620    3.480690   -3.454230
  H     -4.851120    1.870490   -3.233470
  H     -4.113050   -0.203470   -1.976700
  H     -4.241600   -1.862230   -0.341400
  H     -6.799330   -4.180140    3.661320
  H    -10.448240   -0.231310    5.030140
  H     -8.470700   -4.766550    5.363970
  H     -8.774370    0.392080    3.355110

 Total Charge           Charge          ....    0
 Multiplicity           Mult            ....    1
 Number of Electrons    NEL             ....  576
 Basis Dimension        Dim             .... 1256

ORBITAL ENERGIES
----------------

  NO   OCC          E(Eh)            E(eV)
   0   2.0000     -88.999171     -2421.7906
   1   2.0000     -88.982162     -2421.3277
   2   2.0000     -88.978936     -2421.2400
   3   2.0000     -88.975488     -2421.1461
   4   2.0000     -88.961062     -2420.7536
   5   2.0000     -24.793005      -674.6520
   6   2.0000     -24.788562      -674.5311
   7   2.0000     -24.787241      -674.4951
   8   2.0000     -24.784456      -674.4193
   9   2.0000     -19.247727      -523.7573
  10   2.0000     -19.246523      -523.7245
  11   2.0000     -19.207504      -522.6628
  12   2.0000     -19.200464      -522.4712
  13   2.0000     -14.658978      -398.8911
  14   2.0000     -14.513443      -394.9309
  15   2.0000     -14.413722      -392.2173
  16   2.0000     -14.412721      -392.1901
  17   2.0000     -14.409489      -392.1021
  18   2.0000     -14.400274      -391.8514
  19   2.0000     -10.388082      -282.6741
  20   2.0000     -10.374762      -282.3116
  21   2.0000     -10.370494      -282.1955
  22   2.0000     -10.369561      -282.1701
  23   2.0000     -10.367225      -282.1065
  24   2.0000     -10.363831      -282.0142
  25   2.0000     -10.357369      -281.8383
  26   2.0000     -10.357083      -281.8306
  27   2.0000     -10.351337      -281.6742
  28   2.0000     -10.350611      -281.6545
  29   2.0000     -10.344198      -281.4799
  30   2.0000     -10.338777      -281.3324
  31   2.0000     -10.337045      -281.2853
  32   2.0000     -10.335845      -281.2526
  33   2.0000     -10.334914      -281.2273
  34   2.0000     -10.331634      -281.1380
  35   2.0000     -10.327607      -281.0285
  36   2.0000     -10.327531      -281.0264
  37   2.0000     -10.327253      -281.0188
  38   2.0000     -10.323857      -280.9264
  39   2.0000     -10.323182      -280.9081
  40   2.0000     -10.322844      -280.8989
  41   2.0000     -10.321511      -280.8626
  42   2.0000     -10.320441      -280.8335
  43   2.0000     -10.320125      -280.8249
  44   2.0000     -10.317452      -280.7521
  45   2.0000     -10.316930      -280.7379
  46   2.0000     -10.315967      -280.7117
  47   2.0000     -10.315759      -280.7061
  48   2.0000     -10.314710      -280.6775
  49   2.0000     -10.311530      -280.5910
  50   2.0000     -10.310871      -280.5731
  51   2.0000     -10.306692      -280.4593
  52   2.0000     -10.305944      -280.4390
  53   2.0000     -10.305364      -280.4232
  54   2.0000     -10.305090      -280.4158
  55   2.0000     -10.304992      -280.4131
  56   2.0000     -10.303982      -280.3856
  57   2.0000     -10.301451      -280.3167
  58   2.0000     -10.300515      -280.2913
  59   2.0000     -10.298275      -280.2303
  60   2.0000     -10.297823      -280.2180
  61   2.0000     -10.297387      -280.2061
  62   2.0000     -10.297057      -280.1972
  63   2.0000     -10.296351      -280.1780
  64   2.0000     -10.293762      -280.1075
  65   2.0000     -10.293534      -280.1013
  66   2.0000     -10.291198      -280.0377
  67   2.0000     -10.290717      -280.0246
  68   2.0000     -10.290300      -280.0133
  69   2.0000     -10.290120      -280.0084
  70   2.0000     -10.289573      -279.9935
  71   2.0000     -10.289003      -279.9780
  72   2.0000     -10.288652      -279.9684
  73   2.0000     -10.288542      -279.9655
  74   2.0000     -10.281525      -279.7745
  75   2.0000     -10.281503      -279.7739
  76   2.0000     -10.279111      -279.7088
  77   2.0000     -10.277072      -279.6533
  78   2.0000     -10.272872      -279.5391
  79   2.0000      -8.094842      -220.2719
  80   2.0000      -8.077485      -219.7995
  81   2.0000      -8.073367      -219.6875
  82   2.0000      -8.070712      -219.6152
  83   2.0000      -8.056566      -219.2303
  84   2.0000      -6.064544      -165.0246
  85   2.0000      -6.060109      -164.9039
  86   2.0000      -6.056145      -164.7961
  87   2.0000      -6.047228      -164.5534
  88   2.0000      -6.043026      -164.4391
  89   2.0000      -6.042818      -164.4334
  90   2.0000      -6.040547      -164.3716
  91   2.0000      -6.038671      -164.3206
  92   2.0000      -6.038599      -164.3186
  93   2.0000      -6.036528      -164.2623
  94   2.0000      -6.035155      -164.2249
  95   2.0000      -6.031554      -164.1269
  96   2.0000      -6.026168      -163.9804
  97   2.0000      -6.022189      -163.8721
  98   2.0000      -6.017788      -163.7523
  99   2.0000      -1.329032       -36.1648
 100   2.0000      -1.312192       -35.7066
 101   2.0000      -1.310396       -35.6577
 102   2.0000      -1.295570       -35.2542
 103   2.0000      -1.295563       -35.2541
 104   2.0000      -1.148605       -31.2551
 105   2.0000      -1.120811       -30.4988
 106   2.0000      -1.115890       -30.3649
 107   2.0000      -1.114440       -30.3254
 108   2.0000      -1.027930       -27.9714
 109   2.0000      -1.023775       -27.8583
 110   2.0000      -1.014503       -27.6060
 111   2.0000      -1.013637       -27.5825
 112   2.0000      -1.010201       -27.4890
 113   2.0000      -1.001890       -27.2628
 114   2.0000      -0.995697       -27.0943
 115   2.0000      -0.994686       -27.0668
 116   2.0000      -0.991042       -26.9676
 117   2.0000      -0.989319       -26.9207
 118   2.0000      -0.984366       -26.7860
 119   2.0000      -0.972110       -26.4524
 120   2.0000      -0.968328       -26.3496
 121   2.0000      -0.945193       -25.7200
 122   2.0000      -0.926623       -25.2147
 123   2.0000      -0.924077       -25.1454
 124   2.0000      -0.919140       -25.0111
 125   2.0000      -0.914912       -24.8960
 126   2.0000      -0.905503       -24.6400
 127   2.0000      -0.900161       -24.4946
 128   2.0000      -0.889141       -24.1948
 129   2.0000      -0.884836       -24.0776
 130   2.0000      -0.881925       -23.9984
 131   2.0000      -0.880622       -23.9629
 132   2.0000      -0.878920       -23.9166
 133   2.0000      -0.874012       -23.7831
 134   2.0000      -0.866093       -23.5676
 135   2.0000      -0.859659       -23.3925
 136   2.0000      -0.851021       -23.1575
 137   2.0000      -0.845399       -23.0045
 138   2.0000      -0.841273       -22.8922
 139   2.0000      -0.839498       -22.8439
 140   2.0000      -0.829498       -22.5718
 141   2.0000      -0.828338       -22.5402
 142   2.0000      -0.818125       -22.2623
 143   2.0000      -0.812851       -22.1188
 144   2.0000      -0.799550       -21.7569
 145   2.0000      -0.785047       -21.3622
 146   2.0000      -0.777690       -21.1620
 147   2.0000      -0.758223       -20.6323
 148   2.0000      -0.753884       -20.5142
 149   2.0000      -0.752925       -20.4881
 150   2.0000      -0.748350       -20.3636
 151   2.0000      -0.730086       -19.8667
 152   2.0000      -0.724776       -19.7222
 153   2.0000      -0.716783       -19.5047
 154   2.0000      -0.709473       -19.3058
 155   2.0000      -0.707752       -19.2589
 156   2.0000      -0.704587       -19.1728
 157   2.0000      -0.699359       -19.0305
 158   2.0000      -0.698156       -18.9978
 159   2.0000      -0.687307       -18.7026
 160   2.0000      -0.681599       -18.5473
 161   2.0000      -0.679839       -18.4994
 162   2.0000      -0.676334       -18.4040
 163   2.0000      -0.667745       -18.1703
 164   2.0000      -0.664209       -18.0740
 165   2.0000      -0.656762       -17.8714
 166   2.0000      -0.650496       -17.7009
 167   2.0000      -0.647697       -17.6247
 168   2.0000      -0.646890       -17.6028
 169   2.0000      -0.643151       -17.5010
 170   2.0000      -0.642844       -17.4927
 171   2.0000      -0.640275       -17.4228
 172   2.0000      -0.640103       -17.4181
 173   2.0000      -0.638655       -17.3787
 174   2.0000      -0.632758       -17.2182
 175   2.0000      -0.631486       -17.1836
 176   2.0000      -0.624093       -16.9824
 177   2.0000      -0.623396       -16.9635
 178   2.0000      -0.619638       -16.8612
 179   2.0000      -0.611169       -16.6308
 180   2.0000      -0.604772       -16.4567
 181   2.0000      -0.604113       -16.4387
 182   2.0000      -0.601167       -16.3586
 183   2.0000      -0.599428       -16.3113
 184   2.0000      -0.587704       -15.9922
 185   2.0000      -0.586941       -15.9715
 186   2.0000      -0.580121       -15.7859
 187   2.0000      -0.577665       -15.7191
 188   2.0000      -0.577236       -15.7074
 189   2.0000      -0.575144       -15.6505
 190   2.0000      -0.571415       -15.5490
 191   2.0000      -0.569056       -15.4848
 192   2.0000      -0.566801       -15.4234
 193   2.0000      -0.563673       -15.3383
 194   2.0000      -0.560622       -15.2553
 195   2.0000      -0.555249       -15.1091
 196   2.0000      -0.548792       -14.9334
 197   2.0000      -0.545996       -14.8573
 198   2.0000      -0.545091       -14.8327
 199   2.0000      -0.542199       -14.7540
 200   2.0000      -0.539315       -14.6755
 201   2.0000      -0.538096       -14.6423
 202   2.0000      -0.537434       -14.6243
 203   2.0000      -0.537064       -14.6142
 204   2.0000      -0.534691       -14.5497
 205   2.0000      -0.531665       -14.4673
 206   2.0000      -0.529049       -14.3962
 207   2.0000      -0.524963       -14.2850
 208   2.0000      -0.524529       -14.2732
 209   2.0000      -0.520697       -14.1689
 210   2.0000      -0.518846       -14.1185
 211   2.0000      -0.517993       -14.0953
 212   2.0000      -0.517060       -14.0699
 213   2.0000      -0.515086       -14.0162
 214   2.0000      -0.510379       -13.8881
 215   2.0000      -0.509577       -13.8663
 216   2.0000      -0.508907       -13.8481
 217   2.0000      -0.507601       -13.8125
 218   2.0000      -0.505763       -13.7625
 219   2.0000      -0.505115       -13.7449
 220   2.0000      -0.501510       -13.6468
 221   2.0000      -0.499824       -13.6009
 222   2.0000      -0.497164       -13.5285
 223   2.0000      -0.493335       -13.4243
 224   2.0000      -0.491974       -13.3873
 225   2.0000      -0.490161       -13.3380
 226   2.0000      -0.487418       -13.2633
 227   2.0000      -0.484442       -13.1823
 228   2.0000      -0.479177       -13.0391
 229   2.0000      -0.476712       -12.9720
 230   2.0000      -0.476252       -12.9595
 231   2.0000      -0.475077       -12.9275
 232   2.0000      -0.471778       -12.8377
 233   2.0000      -0.469898       -12.7866
 234   2.0000      -0.465863       -12.6768
 235   2.0000      -0.461498       -12.5580
 236   2.0000      -0.460112       -12.5203
 237   2.0000      -0.458792       -12.4844
 238   2.0000      -0.456432       -12.4202
 239   2.0000      -0.454882       -12.3780
 240   2.0000      -0.454440       -12.3659
 241   2.0000      -0.452020       -12.3001
 242   2.0000      -0.451626       -12.2894
 243   2.0000      -0.449117       -12.2211
 244   2.0000      -0.446658       -12.1542
 245   2.0000      -0.445201       -12.1145
 246   2.0000      -0.443689       -12.0734
 247   2.0000      -0.438924       -11.9437
 248   2.0000      -0.436325       -11.8730
 249   2.0000      -0.432465       -11.7680
 250   2.0000      -0.431059       -11.7297
 251   2.0000      -0.427848       -11.6423
 252   2.0000      -0.423492       -11.5238
 253   2.0000      -0.421996       -11.4831
 254   2.0000      -0.420591       -11.4449
 255   2.0000      -0.419728       -11.4214
 256   2.0000      -0.418637       -11.3917
 257   2.0000      -0.416444       -11.3320
 258   2.0000      -0.414673       -11.2838
 259   2.0000      -0.410983       -11.1834
 260   2.0000      -0.409266       -11.1367
 261   2.0000      -0.400375       -10.8948
 262   2.0000      -0.398821       -10.8525
 263   2.0000      -0.394136       -10.7250
 264   2.0000      -0.389758       -10.6058
 265   2.0000      -0.386841       -10.5265
 266   2.0000      -0.385032       -10.4772
 267   2.0000      -0.376232       -10.2378
 268   2.0000      -0.375787       -10.2257
 269   2.0000      -0.373997       -10.1770
 270   2.0000      -0.368659       -10.0317
 271   2.0000      -0.365563        -9.9475
 272   2.0000      -0.358036        -9.7427
 273   2.0000      -0.356196        -9.6926
 274   2.0000      -0.348971        -9.4960
 275   2.0000      -0.342844        -9.3293
 276   2.0000      -0.335394        -9.1265
 277   2.0000      -0.329661        -8.9705
 278   2.0000      -0.321478        -8.7479
 279   2.0000      -0.320262        -8.7148
 280   2.0000      -0.307451        -8.3662
 281   2.0000      -0.305523        -8.3137
 282   2.0000      -0.304235        -8.2787
 283   2.0000      -0.292998        -7.9729
 284   2.0000      -0.287246        -7.8164
 285   2.0000      -0.284544        -7.7428
 286   2.0000      -0.246555        -6.7091
 287   2.0000      -0.228940        -6.2298
 288   0.0000      -0.122507        -3.3336
 289   0.0000      -0.105186        -2.8622
 290   0.0000      -0.070013        -1.9052
 291   0.0000      -0.065141        -1.7726
 292   0.0000      -0.055265        -1.5038

MULLIKEN ATOMIC CHARGES
-----------------------
   0 C :   -0.108436
   1 C :    0.238645
   2 F :   -0.175693
   3 C :    0.236333
   4 F :   -0.175821
   5 C :   -0.105927
   6 C :    0.116322
   7 C :    0.112959
   8 C :   -0.086848
   9 C :    0.044358
  10 C :    0.004680
  11 C :   -0.089114
  12 C :    0.143545
  13 O :   -0.162097
  14 C :   -0.099142
  15 C :    0.334407
  16 C :   -0.374760
  17 C :   -0.173311
  18 N :    0.144635
  19 C :   -0.185662
  20 N :    0.134403
  21 C :   -0.035560
  22 C :   -0.020147
  23 C :    0.037849
  24 C :    0.037175
  25 C :    0.054790
  26 C :   -0.069584
  27 S :    0.096814
  28 C :   -0.036766
  29 C :    0.030235
  30 C :    0.062770
  31 C :   -0.055587
  32 S :    0.090871
  33 C :    0.035370
  34 N :   -0.013854
  35 C :   -0.120626
  36 S :    0.205216
  37 C :   -0.010766
  38 N :    0.280850
  39 O :   -0.244837
  40 O :   -0.253400
  41 C :    0.005306
  42 C :    0.097876
  43 C :   -0.052867
  44 C :    0.002318
  45 C :    0.016941
  46 C :   -0.023731
  47 C :    0.060054
  48 C :    0.023814
  49 C :    0.001146
  50 S :    0.047556
  51 C :   -0.057683
  52 C :    0.038350
  53 C :    0.074097
  54 C :   -0.060049
  55 S :    0.104965
  56 C :    0.001210
  57 C :    0.015497
  58 C :   -0.133399
  59 C :    0.160042
  60 O :   -0.158910
  61 C :    0.011104
  62 C :   -0.078207
  63 C :    0.101392
  64 C :    0.117241
  65 C :   -0.178596
  66 C :    0.242074
  67 C :    0.233600
  68 C :   -0.082174
  69 F :   -0.170667
  70 F :   -0.173756
  71 C :   -0.122961
  72 C :    0.069181
  73 C :    0.273537
  74 C :   -0.358383
  75 C :   -0.205104
  76 N :    0.163733
  77 C :   -0.168061
  78 N :    0.131821
  79 H :    0.003940
  80 H :   -0.004564
  81 H :   -0.009265
  82 H :   -0.016410
  83 H :    0.010813
  84 H :    0.016909
  85 H :   -0.004086
  86 H :   -0.009875
  87 H :   -0.010106
  88 H :   -0.005934
  89 H :    0.033895
  90 H :    0.158535
  91 H :    0.015520
  92 H :    0.045287
  93 H :   -0.004499
  94 H :   -0.000253
  95 H :    0.002113
  96 H :    0.000132
  97 H :   -0.005430
  98 H :   -0.001490
  99 H :    0.000288
 100 H :    0.022018
 101 H :   -0.012080
 102 H :    0.000385
 103 H :   -0.015764
 104 H :   -0.022675
Sum of atomic charges:   -0.0000000

LOEWDIN ATOMIC CHARGES
----------------------
   0 C :   -0.030161
   1 C :    0.063336
   2 F :   -0.052801
   3 C :    0.064784
   4 F :   -0.053405
   5 C :   -0.035278
   6 C :   -0.009697
   7 C :   -0.008728
   8 C :    0.013539
   9 C :   -0.020609
  10 C :   -0.047379
  11 C :    0.022670
  12 C :    0.081008
  13 O :   -0.157069
  14 C :   -0.113678
  15 C :    0.079067
  16 C :   -0.168529
  17 C :    0.012743
  18 N :   -0.079032
  19 C :   -0.020366
  20 N :   -0.069415
  21 C :    0.052733
  22 C :   -0.069995
  23 C :   -0.086869
  24 C :   -0.034454
  25 C :   -0.003918
  26 C :   -0.201544
  27 S :    0.430962
  28 C :   -0.140320
  29 C :   -0.052061
  30 C :   -0.010709
  31 C :   -0.197095
  32 S :    0.401345
  33 C :    0.024459
  34 N :    0.057599
  35 C :   -0.105370
  36 S :    0.475623
  37 C :   -0.201441
  38 N :    0.273553
  39 O :   -0.210996
  40 O :   -0.218374
  41 C :    0.005495
  42 C :   -0.098773
  43 C :   -0.013483
  44 C :   -0.040196
  45 C :   -0.023969
  46 C :   -0.151007
  47 C :    0.000059
  48 C :   -0.041829
  49 C :   -0.142566
  50 S :    0.407449
  51 C :   -0.191212
  52 C :   -0.021657
  53 C :   -0.023493
  54 C :   -0.123250
  55 S :    0.489434
  56 C :   -0.073477
  57 C :    0.028425
  58 C :   -0.103092
  59 C :    0.080647
  60 O :   -0.153938
  61 C :   -0.066432
  62 C :    0.029151
  63 C :   -0.017931
  64 C :   -0.019220
  65 C :   -0.063935
  66 C :    0.058797
  67 C :    0.054670
  68 C :   -0.017729
  69 F :   -0.050963
  70 F :   -0.052236
  71 C :   -0.014013
  72 C :   -0.016069
  73 C :    0.035875
  74 C :   -0.165797
  75 C :   -0.027111
  76 N :   -0.058489
  77 C :   -0.020750
  78 N :   -0.072418
  79 H :    0.046574
  80 H :    0.043216
  81 H :    0.039019
  82 H :    0.037849
  83 H :    0.028865
  84 H :    0.039790
  85 H :    0.038544
  86 H :    0.033374
  87 H :    0.033397
  88 H :    0.029566
  89 H :    0.037168
  90 H :    0.090533
  91 H :    0.046812
  92 H :    0.015873
  93 H :    0.033464
  94 H :    0.041769
  95 H :    0.040079
  96 H :    0.037926
  97 H :    0.036348
  98 H :    0.039208
  99 H :    0.041478
 100 H :    0.045224
 101 H :    0.033734
 102 H :    0.038584
 103 H :    0.040196
 104 H :    0.032316

  Mayer bond orders larger than 0.100000
B(  0-C ,  1-C ) :   1.4370 B(  0-C ,  5-C ) :   0.1092 B(  0-C ,  7-C ) :   1.1915
B(  0-C , 79-H ) :   1.0064 B(  1-C ,  2-F ) :   1.1295 B(  1-C ,  3-C ) :   1.1991
B(  3-C ,  4-F ) :   1.1296 B(  3-C ,  5-C ) :   1.4384 B(  5-C ,  6-C ) :   1.1957
B(  5-C , 80-H ) :   1.0065 B(  6-C ,  7-C ) :   1.2640 B(  6-C , 11-C ) :   1.1785
B(  7-C ,  8-C ) :   1.2059 B(  8-C ,  9-C ) :   1.4632 B(  8-C , 81-H ) :   0.9888
B(  9-C , 10-C ) :   1.2235 B(  9-C , 15-C ) :   0.9752 B( 10-C , 11-C ) :   1.4842
B( 10-C , 12-C ) :   0.9295 B( 11-C , 82-H ) :   1.0153 B( 12-C , 13-O ) :   2.1945
B( 12-C , 14-C ) :   0.9706 B( 14-C , 15-C ) :   1.1321 B( 14-C , 21-C ) :   1.4423
B( 15-C , 16-C ) :   1.5545 B( 16-C , 17-C ) :   1.1713 B( 16-C , 19-C ) :   1.1488
B( 17-C , 18-N ) :   2.9059 B( 18-N ,103-H ) :   0.1123 B( 19-C , 20-N ) :   2.9585
B( 21-C , 22-C ) :   1.2907 B( 21-C , 83-H ) :   0.9456 B( 22-C , 23-C ) :   1.3981
B( 22-C , 84-H ) :   0.9785 B( 23-C , 24-C ) :   1.1850 B( 23-C , 27-S ) :   1.0873
B( 24-C , 25-C ) :   1.5375 B( 24-C , 85-H ) :   1.0007 B( 25-C , 26-C ) :   1.2187
B( 25-C , 86-H ) :   0.9921 B( 26-C , 27-S ) :   1.0519 B( 26-C , 28-C ) :   1.4557
B( 28-C , 29-C ) :   1.2046 B( 28-C , 32-S ) :   1.0893 B( 29-C , 30-C ) :   1.5734
B( 29-C , 87-H ) :   0.9958 B( 30-C , 31-C ) :   1.1591 B( 30-C , 88-H ) :   0.9942
B( 31-C , 32-S ) :   1.0095 B( 31-C , 33-C ) :   1.5838 B( 33-C , 34-N ) :   1.1899
B( 33-C , 89-H ) :   0.9488 B( 34-N , 35-C ) :   1.1819 B( 34-N , 90-H ) :   0.8945
B( 35-C , 36-S ) :   1.1469 B( 35-C , 42-C ) :   1.3580 B( 36-S , 37-C ) :   1.0860
B( 37-C , 38-N ) :   0.9621 B( 37-C , 41-C ) :   1.5122 B( 38-N , 39-O ) :   1.5365
B( 38-N , 40-O ) :   1.5180 B( 39-O , 40-O ) :   0.2643 B( 41-C , 42-C ) :   1.2198
B( 41-C , 91-H ) :   0.9988 B( 42-C , 43-C ) :   1.1096 B( 43-C , 44-C ) :   1.6460
B( 43-C , 92-H ) :   0.9413 B( 44-C , 45-C ) :   1.1984 B( 44-C , 93-H ) :   0.9678
B( 45-C , 46-C ) :   1.5751 B( 45-C , 94-H ) :   0.9627 B( 46-C , 47-C ) :   1.1549
B( 46-C , 50-S ) :   1.0263 B( 47-C , 48-C ) :   1.5787 B( 47-C , 95-H ) :   0.9979
B( 48-C , 49-C ) :   1.1950 B( 48-C , 96-H ) :   0.9948 B( 49-C , 50-S ) :   1.0710
B( 49-C , 51-C ) :   1.4730 B( 51-C , 52-C ) :   1.2000 B( 51-C , 55-S ) :   1.0380
B( 52-C , 53-C ) :   1.5714 B( 52-C , 97-H ) :   0.9921 B( 53-C , 54-C ) :   1.1632
B( 53-C , 98-H ) :   0.9951 B( 54-C , 55-S ) :   1.1303 B( 54-C , 56-C ) :   1.4311
B( 56-C , 57-C ) :   1.3265 B( 56-C , 99-H ) :   0.9553 B( 57-C , 58-C ) :   1.4781
B( 57-C ,100-H ) :   0.9265 B( 58-C , 59-C ) :   0.9708 B( 58-C , 73-C ) :   1.1260
B( 59-C , 60-O ) :   2.2049 B( 59-C , 61-C ) :   0.9210 B( 61-C , 62-C ) :   1.4484
B( 61-C , 72-C ) :   1.2097 B( 62-C , 63-C ) :   1.1903 B( 62-C ,101-H ) :   1.0154
B( 63-C , 64-C ) :   1.2551 B( 63-C , 68-C ) :   1.2125 B( 64-C , 65-C ) :   1.1781
B( 64-C , 71-C ) :   1.1860 B( 65-C , 66-C ) :   1.4106 B( 65-C , 68-C ) :   0.1140
B( 65-C ,102-H ) :   1.0090 B( 66-C , 67-C ) :   1.1959 B( 66-C , 70-F ) :   1.1271
B( 67-C , 68-C ) :   1.4231 B( 67-C , 69-F ) :   1.1421 B( 68-C ,103-H ) :   0.9860
B( 71-C , 72-C ) :   1.4597 B( 71-C ,104-H ) :   0.9974 B( 72-C , 73-C ) :   0.9963
B( 73-C , 74-C ) :   1.5444 B( 74-C , 75-C ) :   1.1720 B( 74-C , 77-C ) :   1.1419
B( 75-C , 76-N ) :   3.0020 B( 77-C , 78-N ) :   2.9546

-----------------------------------------------------------------------------
         ABSORPTION SPECTRUM VIA TRANSITION ELECTRIC DIPOLE MOMENTS
-----------------------------------------------------------------------------
State   Energy  Wavelength   fosc         T2         TX        TY        TZ
        (cm-1)    (nm)                  (au**2)     (au)      (au)      (au)
-----------------------------------------------------------------------------
   0    8959.2   1116.2   0.215505340   7.91893   0.19848  -2.74227   0.59957
   1   11693.9    855.1   0.068647806   1.93261   1.20415  -0.55982   0.41137
   2   12918.9    774.1   1.484460896  37.82844   4.19303  -4.29940   1.32744
   3   16002.7    624.9   0.014785999   0.30418   0.47416  -0.22329  -0.17173
   4   19450.0    514.1   0.012886525   0.21812   0.13528   0.43476  -0.10392
   5   19824.7    504.4   0.032027761   0.53186  -0.49231   0.51416  -0.15850
   6   20708.8    482.9   0.052992943   0.84244  -0.79776   0.29710   0.34316
   7   21403.5    467.2   0.045366227   0.69779  -0.06728  -0.52078   0.64965
   8   22334.6    447.7   0.182482847   2.68980  -1.06462   0.25291   1.22164
   9   22788.8    438.8   0.072597723   1.04876   0.36815  -0.35965  -0.88537
  10   23242.8    430.2   0.001978263   0.02802  -0.10892  -0.05800   0.11310
  11   23872.7    418.9   0.040237376   0.55489   0.08220   0.35767  -0.64823
  12   24340.6    410.8   0.036808493   0.49784   0.34214  -0.60336  -0.12940
  13   24602.2    406.5   0.268306220   3.59031  -1.15873   0.89675   1.20145
  14   24964.2    400.6   0.009423977   0.12428   0.22405   0.22443  -0.15397
  15   25393.4    393.8   0.504190837   6.53657   1.52374  -0.00816  -2.05298
  16   25660.3    389.7   0.009929849   0.12740  -0.27936  -0.05748   0.21459
  17   26221.3    381.4   0.089059447   1.11815   0.36487   0.61320  -0.78039
  18   26501.8    377.3   0.275911704   3.42744   0.41829   1.01679  -1.48950
  19   26768.8    373.6   0.027137800   0.33375   0.09791   0.33577  -0.45980
  20   27330.2    365.9   0.046103548   0.55535   0.13510   0.33400  -0.65234
  21   27367.4    365.4   0.076443195   0.91956  -0.20621  -0.57046   0.74271
  22   27895.5    358.5   0.232845360   2.74795  -0.99924  -0.13597   1.31567
  23   28219.7    354.4   0.010154285   0.11846  -0.07928  -0.29432   0.15984
  24   28461.8    351.3   0.114369038   1.32288  -0.76094   0.72262   0.47083
  25   28894.9    346.1   0.039736950   0.45274   0.56927  -0.14057  -0.33001
  26   29211.8    342.3   0.027443983   0.30929  -0.12395  -0.08421   0.53557
  27   29935.1    334.1   0.056277000   0.61891  -0.43825   0.65204  -0.04114
  28   30222.6    330.9   0.007098173   0.07732   0.05214  -0.24112  -0.12830
  29   30439.8    328.5   0.211139496   2.28351  -0.38912  -0.74229   1.25742
  30   30819.0    324.5   0.084624261   0.90397  -0.45557  -0.48515   0.67900
  31   31223.8    320.3   0.009741036   0.10271  -0.17820  -0.07416   0.25583
  32   31457.3    317.9   0.327591467   3.42836  -0.91678  -1.25913   1.00124
  33   31561.7    316.8   0.090350705   0.94242  -0.63552  -0.37588   0.63029
  34   31964.8    312.8   0.042425810   0.43695   0.34495   0.21823  -0.51994
  35   32378.3    308.8   0.210909358   2.14446   0.47811  -1.07177   0.87588
  36   32430.0    308.4   0.051049742   0.51823   0.40382  -0.57017  -0.17339
  37   32448.0    308.2   0.042288193   0.42905   0.29306  -0.56773   0.14438
  38   32643.2    306.3   0.010112634   0.10199  -0.23253   0.20306  -0.08174
  39   33004.2    303.0   0.084802926   0.84590  -0.56561   0.65177   0.31807
  40   33079.3    302.3   0.130426840   1.29804   0.16783  -1.12197   0.10516
  41   33209.9    301.1   0.023133173   0.22932  -0.32867   0.20217   0.28359
  42   33516.4    298.4   0.049025002   0.48154  -0.29910  -0.48121   0.40065
  43   33821.1    295.7   0.119240110   1.16067  -0.45437   0.97561  -0.04911
  44   33860.4    295.3   0.014316982   0.13920   0.21765   0.00112  -0.30303
  45   34057.3    293.6   0.028714931   0.27757  -0.40537  -0.11740   0.31537
  46   34232.1    292.1   0.001574610   0.01514   0.02041  -0.09072   0.08060
  47   34391.2    290.8   0.380321812   3.64065  -0.98448   1.62222   0.19968
  48   34692.6    288.2   0.019177781   0.18199  -0.27196  -0.22820   0.23653
  49   34886.6    286.6   0.021094897   0.19906  -0.23475   0.37897   0.01839
  50   34910.8    286.4   0.018278502   0.17237  -0.18330   0.27777  -0.24822
  51   35107.1    284.8   0.076756103   0.71977  -0.49363  -0.20392   0.65918
  52   35269.7    283.5   0.034104106   0.31833   0.19449   0.31401  -0.42650
  53   35454.6    282.1   0.230400024   2.13937  -0.30567   1.33247  -0.52005
  54   35485.7    281.8   0.085674058   0.79482   0.06859  -0.88880  -0.01275
  55   35591.2    281.0   0.029483644   0.27272  -0.42589  -0.02634   0.30107
  56   36241.3    275.9   0.081850607   0.74352  -0.63336  -0.02508   0.58459
  57   36584.5    273.3   0.076070160   0.68453   0.49343  -0.56111  -0.35526
  58   37163.3    269.1   0.224305269   1.98702   0.00657  -1.27805   0.59462
  59   37420.8    267.2   0.134502027   1.18329  -0.53788   0.81695   0.47598
  60   37492.7    266.7   0.091498774   0.80342   0.00844  -0.82851   0.34195
  61   37723.0    265.1   0.036259161   0.31644  -0.07070   0.39411  -0.39511
  62   37749.9    264.9   0.016489078   0.14380   0.22098   0.01332  -0.30788
  63   37896.2    263.9   0.047109197   0.40925   0.23670   0.35356  -0.47772
  64   38124.4    262.3   0.078474373   0.67764  -0.55434   0.56442   0.22756
  65   38257.6    261.4   0.014356297   0.12354  -0.21206   0.27729  -0.04101
  66   38447.8    260.1   0.051908114   0.44447  -0.46604   0.05137   0.47396
  67   38623.3    258.9   0.071964260   0.61340  -0.49758   0.48204   0.36531
  68   38761.9    258.0   0.003917342   0.03327   0.10007   0.05087  -0.14377
  69   38962.4    256.7   0.081252360   0.68654   0.51482  -0.13759  -0.63448
  70   39088.9    255.8   0.075389221   0.63494   0.27018  -0.22918  -0.71374
  71   39423.0    253.7   0.004634860   0.03870   0.05384  -0.14820  -0.11766
  72   39576.0    252.7   0.013426174   0.11169   0.12758   0.30775   0.02649
  73   39788.9    251.3   0.009435362   0.07807   0.10292  -0.24223   0.09380
  74   40057.4    249.6   0.127965090   1.05168   0.68103  -0.31148  -0.70061
  75   40102.9    249.4   0.127305912   1.04508  -0.72877   0.56897   0.43617
  76   40259.2    248.4   0.028832591   0.23577  -0.32426   0.27818   0.23075

FINAL SINGLE POINT ENERGY     -5316.785300060882

DIPOLE MOMENT
-------------
                                X             Y             Z
Electronic contribution:      2.17540     -43.79148      39.99259
Nuclear contribution   :     -3.47269      47.10074     -45.95811
                        -----------------------------------------
Total Dipole Moment    :     -1.29729       3.30926      -5.96552
                        -----------------------------------------
Magnitude (a.u.)       :      6.94418
Magnitude (Debye)      :     17.65070

Rotational constants in cm-1:     0.001340     0.000375     0.000313
Rotational constants in MHz :    40.187103    11.230248     9.398003

                             ****ORCA TERMINATED NORMALLY****
TOTAL RUN TIME: 0 days 0 hours 15 minutes 23 seconds 872 msec
