                         Program Version 4.2.0 -  RELEASE  -
|  1> # ORCA input file
|  2> # SCF done       -165.979048167093          0.000847482923
|  3> ! CAM-B3LYP def2-SVP def2/J RIJCOSX Grid4 TightSCF
|  4> %maxcore 5000
|  5> %tddft
|  6>     Mode sTDDFT
|  7>     Ethresh 5.0
|  8>     maxcore 5000
|  9> end
| 10>
| 11> %pal
| 12>   nprocs 6
| 13>   end
| 14> * xyz 0 1
| 15>    C       16.41328        -5.95293        10.17688
| 16>    C       15.47737        -6.05325        11.12728
| 17>    C       15.52749        -6.81915        12.34223
| 18>    C       14.41288        -6.75012        13.10016
| 19>    C       13.38527        -5.92377        12.56172
| 20>    S       13.91422        -5.22074        11.04051
| 21>    C       12.14028        -5.66711        13.06923
| 22>    C       11.54043        -6.13607        14.27079
| 23>    C       10.28100        -5.68274        14.47504
| 24>    C        9.79004        -4.81478        13.45197
| 25>    S       11.02485        -4.62214        12.21270
| 26>    C        8.55458        -4.26270        13.35307
| 27>    C        8.14831        -3.38204        12.29684
| 28>    S        6.65327        -3.67353        11.44558
| 29>    C        6.94454        -2.35986        10.37630
| 30>    C        8.09790        -1.71093        10.66665
| 31>    C        8.78957        -2.28943        11.75629
| 32>    S       10.15220        -1.48716        12.55629
| 33>    C       11.46450        -1.61093        11.42367
| 34>    C       11.42125        -2.16872        10.21026
| 35>    N       12.56905        -2.38295         9.46985
| 36>    C       12.63675        -2.86762         8.21700
| 37>    S       14.04251        -3.77504         7.75173
| 38>    C       13.32822        -4.06326         6.19035
| 39>    N       14.08223        -4.79977         5.27589
| 40>    O       13.60323        -5.01086         4.17639
| 41>    O       15.17918        -5.17919         5.65780
| 42>    C       12.09743        -3.48970         6.04258
| 43>    C       11.68031        -2.76834         7.18294
| 44>    C       10.54462        -1.90725         7.23897
| 45>    C        9.55210        -1.86427         6.31082
| 46>    C        8.50601        -0.91911         6.33436
| 47>    S        7.26937        -0.95102         5.13337
| 48>    C        6.39901         0.40427         5.79797
| 49>    C        7.09843         0.90042         6.91288
| 50>    C        8.27807         0.15439         7.22462
| 51>    N        9.05678         0.49461         8.26151
| 52>    C        8.68809         1.55161         8.94722
| 53>    C        7.55568         2.31485         8.60726
| 54>    N        6.76960         2.00415         7.60679
| 55>    C        5.24441         0.87541         5.16275
| 56>    C        4.28644         1.73883         5.62998
| 57>    C        3.44267         2.47040         4.65214
| 58>    O        3.35808         2.26276         3.46256
| 59>    C        2.77274         3.53170         5.43536
| 60>    C        1.96687         4.54270         5.00049
| 61>    C        1.45185         5.46389         5.94153
| 62>    C        1.78697         5.31739         7.31861
| 63>    C        1.27283         6.24089         8.25050
| 64>    C        0.46248         7.26023         7.83573
| 65>    C        0.13150         7.40386         6.47419
| 66>    C        0.61510         6.52498         5.54566
| 67>    F       -0.66438         8.41422         6.09478
| 68>    F       -0.02641         8.13633         8.72508
| 69>    C        2.61962         4.25462         7.73985
| 70>    C        3.10219         3.37260         6.81154
| 71>    C        3.93794         2.18283         6.95159
| 72>    C        4.14307         1.49674         8.12478
| 73>    C        4.69012         0.20545         8.17638
| 74>    N        5.10331        -0.86404         8.25988
| 75>    C        3.76767         1.96840         9.39607
| 76>    N        3.51661         2.31850        10.46088
| 77>    H       17.34437        -6.48311        10.27110
| 78>    H       16.26732        -5.36233         9.29081
| 79>    H       16.40244        -7.39520        12.58598
| 80>    H       14.27817        -7.26624        14.03430
| 81>    H       12.06366        -6.79639        14.93937
| 82>    H        9.67183        -5.92928        15.32661
| 83>    H        7.79675        -4.56728        14.06210
| 84>    H        6.23177        -2.13112         9.60803
| 85>    H        8.45987        -0.85043        10.13572
| 86>    H       12.38095        -1.22827        11.84515
| 87>    H       10.50472        -2.54123         9.78129
| 88>    H       13.43179        -2.39832        10.00047
| 89>    H       11.54388        -3.56098         5.12457
| 90>    H       10.50494        -1.19077         8.04575
| 91>    H        9.52548        -2.57604         5.49785
| 92>    H        9.31091         1.81815         9.78989
| 93>    H        7.29173         3.20236         9.16531
| 94>    H        5.11763         0.57800         4.12576
| 95>    H        1.72314         4.64035         3.95353
| 96>    H        1.51385         6.14332         9.29752
| 97>    H        0.35214         6.64880         4.50681
| 98>    H        2.86233         4.16926         8.78703
| 99> *
|100>
|101>                          ****END OF INPUT****

CARTESIAN COORDINATES (ANGSTROEM)
---------------------------------
  C     16.413280   -5.952930   10.176880
  C     15.477370   -6.053250   11.127280
  C     15.527490   -6.819150   12.342230
  C     14.412880   -6.750120   13.100160
  C     13.385270   -5.923770   12.561720
  S     13.914220   -5.220740   11.040510
  C     12.140280   -5.667110   13.069230
  C     11.540430   -6.136070   14.270790
  C     10.281000   -5.682740   14.475040
  C      9.790040   -4.814780   13.451970
  S     11.024850   -4.622140   12.212700
  C      8.554580   -4.262700   13.353070
  C      8.148310   -3.382040   12.296840
  S      6.653270   -3.673530   11.445580
  C      6.944540   -2.359860   10.376300
  C      8.097900   -1.710930   10.666650
  C      8.789570   -2.289430   11.756290
  S     10.152200   -1.487160   12.556290
  C     11.464500   -1.610930   11.423670
  C     11.421250   -2.168720   10.210260
  N     12.569050   -2.382950    9.469850
  C     12.636750   -2.867620    8.217000
  S     14.042510   -3.775040    7.751730
  C     13.328220   -4.063260    6.190350
  N     14.082230   -4.799770    5.275890
  O     13.603230   -5.010860    4.176390
  O     15.179180   -5.179190    5.657800
  C     12.097430   -3.489700    6.042580
  C     11.680310   -2.768340    7.182940
  C     10.544620   -1.907250    7.238970
  C      9.552100   -1.864270    6.310820
  C      8.506010   -0.919110    6.334360
  S      7.269370   -0.951020    5.133370
  C      6.399010    0.404270    5.797970
  C      7.098430    0.900420    6.912880
  C      8.278070    0.154390    7.224620
  N      9.056780    0.494610    8.261510
  C      8.688090    1.551610    8.947220
  C      7.555680    2.314850    8.607260
  N      6.769600    2.004150    7.606790
  C      5.244410    0.875410    5.162750
  C      4.286440    1.738830    5.629980
  C      3.442670    2.470400    4.652140
  O      3.358080    2.262760    3.462560
  C      2.772740    3.531700    5.435360
  C      1.966870    4.542700    5.000490
  C      1.451850    5.463890    5.941530
  C      1.786970    5.317390    7.318610
  C      1.272830    6.240890    8.250500
  C      0.462480    7.260230    7.835730
  C      0.131500    7.403860    6.474190
  C      0.615100    6.524980    5.545660
  F     -0.664380    8.414220    6.094780
  F     -0.026410    8.136330    8.725080
  C      2.619620    4.254620    7.739850
  C      3.102190    3.372600    6.811540
  C      3.937940    2.182830    6.951590
  C      4.143070    1.496740    8.124780
  C      4.690120    0.205450    8.176380
  N      5.103310   -0.864040    8.259880
  C      3.767670    1.968400    9.396070
  N      3.516610    2.318500   10.460880
  H     17.344370   -6.483110   10.271100
  H     16.267320   -5.362330    9.290810
  H     16.402440   -7.395200   12.585980
  H     14.278170   -7.266240   14.034300
  H     12.063660   -6.796390   14.939370
  H      9.671830   -5.929280   15.326610
  H      7.796750   -4.567280   14.062100
  H      6.231770   -2.131120    9.608030
  H      8.459870   -0.850430   10.135720
  H     12.380950   -1.228270   11.845150
  H     10.504720   -2.541230    9.781290
  H     13.431790   -2.398320   10.000470
  H     11.543880   -3.560980    5.124570
  H     10.504940   -1.190770    8.045750
  H      9.525480   -2.576040    5.497850
  H      9.310910    1.818150    9.789890
  H      7.291730    3.202360    9.165310
  H      5.117630    0.578000    4.125760
  H      1.723140    4.640350    3.953530
  H      1.513850    6.143320    9.297520
  H      0.352140    6.648800    4.506810
  H      2.862330    4.169260    8.787030

 Total Charge           Charge          ....    0
 Multiplicity           Mult            ....    1
 Number of Electrons    NEL             ....  472
 Basis Dimension        Dim             .... 1002

ORBITAL ENERGIES
----------------

  NO   OCC          E(Eh)            E(eV)
   0   2.0000     -88.990802     -2421.5628
   1   2.0000     -88.984424     -2421.3893
   2   2.0000     -88.950223     -2420.4586
   3   2.0000     -88.946071     -2420.3456
   4   2.0000     -88.940550     -2420.1954
   5   2.0000     -88.935781     -2420.0656
   6   2.0000     -24.792078      -674.6267
   7   2.0000     -24.791779      -674.6186
   8   2.0000     -19.236202      -523.4437
   9   2.0000     -19.235508      -523.4248
  10   2.0000     -19.206342      -522.6311
  11   2.0000     -14.647429      -398.5768
  12   2.0000     -14.481814      -394.0702
  13   2.0000     -14.447877      -393.1467
  14   2.0000     -14.437998      -392.8779
  15   2.0000     -14.414052      -392.2263
  16   2.0000     -14.407352      -392.0440
  17   2.0000     -10.376079      -282.3475
  18   2.0000     -10.374399      -282.3017
  19   2.0000     -10.374068      -282.2927
  20   2.0000     -10.357470      -281.8411
  21   2.0000     -10.342441      -281.4321
  22   2.0000     -10.342421      -281.4316
  23   2.0000     -10.337063      -281.2858
  24   2.0000     -10.333744      -281.1955
  25   2.0000     -10.332145      -281.1520
  26   2.0000     -10.331080      -281.1230
  27   2.0000     -10.329508      -281.0802
  28   2.0000     -10.328385      -281.0496
  29   2.0000     -10.318704      -280.7862
  30   2.0000     -10.317854      -280.7631
  31   2.0000     -10.317680      -280.7583
  32   2.0000     -10.316381      -280.7230
  33   2.0000     -10.313123      -280.6344
  34   2.0000     -10.313120      -280.6343
  35   2.0000     -10.311387      -280.5871
  36   2.0000     -10.310846      -280.5724
  37   2.0000     -10.310368      -280.5594
  38   2.0000     -10.309862      -280.5456
  39   2.0000     -10.304526      -280.4004
  40   2.0000     -10.304436      -280.3980
  41   2.0000     -10.302890      -280.3559
  42   2.0000     -10.302477      -280.3447
  43   2.0000     -10.301486      -280.3177
  44   2.0000     -10.298636      -280.2401
  45   2.0000     -10.298400      -280.2337
  46   2.0000     -10.297064      -280.1974
  47   2.0000     -10.295530      -280.1556
  48   2.0000     -10.294603      -280.1304
  49   2.0000     -10.294563      -280.1293
  50   2.0000     -10.293770      -280.1077
  51   2.0000     -10.293665      -280.1049
  52   2.0000     -10.293186      -280.0918
  53   2.0000     -10.291658      -280.0503
  54   2.0000     -10.288484      -279.9639
  55   2.0000     -10.287499      -279.9371
  56   2.0000     -10.286341      -279.9056
  57   2.0000     -10.284899      -279.8663
  58   2.0000     -10.284550      -279.8568
  59   2.0000     -10.282404      -279.7984
  60   2.0000     -10.273089      -279.5450
  61   2.0000     -10.266670      -279.3703
  62   2.0000      -8.085913      -220.0289
  63   2.0000      -8.080114      -219.8711
  64   2.0000      -8.046369      -218.9528
  65   2.0000      -8.042314      -218.8425
  66   2.0000      -8.036281      -218.6783
  67   2.0000      -8.030702      -218.5265
  68   2.0000      -6.054745      -164.7580
  69   2.0000      -6.050799      -164.6506
  70   2.0000      -6.049915      -164.6266
  71   2.0000      -6.048810      -164.5965
  72   2.0000      -6.045510      -164.5067
  73   2.0000      -6.041251      -164.3908
  74   2.0000      -6.015653      -163.6942
  75   2.0000      -6.012177      -163.5996
  76   2.0000      -6.011264      -163.5748
  77   2.0000      -6.008679      -163.5045
  78   2.0000      -6.008248      -163.4927
  79   2.0000      -6.006164      -163.4360
  80   2.0000      -6.002931      -163.3481
  81   2.0000      -6.002048      -163.3240
  82   2.0000      -6.001228      -163.3017
  83   2.0000      -5.996972      -163.1859
  84   2.0000      -5.996879      -163.1834
  85   2.0000      -5.990561      -163.0115
  86   2.0000      -1.316060       -35.8118
  87   2.0000      -1.314423       -35.7673
  88   2.0000      -1.299638       -35.3649
  89   2.0000      -1.135345       -30.8943
  90   2.0000      -1.121385       -30.5144
  91   2.0000      -1.098770       -29.8990
  92   2.0000      -1.088081       -29.6082
  93   2.0000      -1.024015       -27.8649
  94   2.0000      -1.011704       -27.5299
  95   2.0000      -1.004308       -27.3286
  96   2.0000      -1.000767       -27.2322
  97   2.0000      -0.997973       -27.1562
  98   2.0000      -0.995925       -27.1005
  99   2.0000      -0.989210       -26.9178
 100   2.0000      -0.984094       -26.7786
 101   2.0000      -0.972921       -26.4745
 102   2.0000      -0.969129       -26.3713
 103   2.0000      -0.929768       -25.3003
 104   2.0000      -0.922058       -25.0905
 105   2.0000      -0.917331       -24.9619
 106   2.0000      -0.900363       -24.5001
 107   2.0000      -0.892700       -24.2916
 108   2.0000      -0.888482       -24.1768
 109   2.0000      -0.884426       -24.0664
 110   2.0000      -0.877189       -23.8695
 111   2.0000      -0.870895       -23.6983
 112   2.0000      -0.864169       -23.5152
 113   2.0000      -0.856232       -23.2993
 114   2.0000      -0.848725       -23.0950
 115   2.0000      -0.836443       -22.7608
 116   2.0000      -0.832887       -22.6640
 117   2.0000      -0.822868       -22.3914
 118   2.0000      -0.820749       -22.3337
 119   2.0000      -0.813145       -22.1268
 120   2.0000      -0.795554       -21.6481
 121   2.0000      -0.788033       -21.4435
 122   2.0000      -0.776015       -21.1164
 123   2.0000      -0.770693       -20.9716
 124   2.0000      -0.767094       -20.8737
 125   2.0000      -0.757390       -20.6096
 126   2.0000      -0.744525       -20.2596
 127   2.0000      -0.732693       -19.9376
 128   2.0000      -0.722859       -19.6700
 129   2.0000      -0.713065       -19.4035
 130   2.0000      -0.708631       -19.2828
 131   2.0000      -0.700035       -19.0489
 132   2.0000      -0.685032       -18.6407
 133   2.0000      -0.681123       -18.5343
 134   2.0000      -0.676267       -18.4022
 135   2.0000      -0.669806       -18.2263
 136   2.0000      -0.665867       -18.1192
 137   2.0000      -0.650120       -17.6907
 138   2.0000      -0.648732       -17.6529
 139   2.0000      -0.647615       -17.6225
 140   2.0000      -0.644282       -17.5318
 141   2.0000      -0.639519       -17.4022
 142   2.0000      -0.635271       -17.2866
 143   2.0000      -0.632572       -17.2132
 144   2.0000      -0.628752       -17.1092
 145   2.0000      -0.627874       -17.0853
 146   2.0000      -0.626465       -17.0470
 147   2.0000      -0.619333       -16.8529
 148   2.0000      -0.611374       -16.6363
 149   2.0000      -0.607759       -16.5380
 150   2.0000      -0.601148       -16.3581
 151   2.0000      -0.597191       -16.2504
 152   2.0000      -0.590641       -16.0721
 153   2.0000      -0.587666       -15.9912
 154   2.0000      -0.583005       -15.8644
 155   2.0000      -0.579160       -15.7597
 156   2.0000      -0.575725       -15.6663
 157   2.0000      -0.573144       -15.5960
 158   2.0000      -0.570736       -15.5305
 159   2.0000      -0.569627       -15.5003
 160   2.0000      -0.557961       -15.1829
 161   2.0000      -0.556274       -15.1370
 162   2.0000      -0.548378       -14.9221
 163   2.0000      -0.547174       -14.8894
 164   2.0000      -0.541051       -14.7227
 165   2.0000      -0.540003       -14.6942
 166   2.0000      -0.538036       -14.6407
 167   2.0000      -0.531733       -14.4692
 168   2.0000      -0.530108       -14.4250
 169   2.0000      -0.526707       -14.3324
 170   2.0000      -0.526355       -14.3228
 171   2.0000      -0.522627       -14.2214
 172   2.0000      -0.516831       -14.0637
 173   2.0000      -0.513873       -13.9832
 174   2.0000      -0.510993       -13.9048
 175   2.0000      -0.507981       -13.8229
 176   2.0000      -0.504013       -13.7149
 177   2.0000      -0.502079       -13.6623
 178   2.0000      -0.501076       -13.6350
 179   2.0000      -0.498838       -13.5741
 180   2.0000      -0.494345       -13.4518
 181   2.0000      -0.491977       -13.3874
 182   2.0000      -0.488603       -13.2956
 183   2.0000      -0.486459       -13.2372
 184   2.0000      -0.482865       -13.1394
 185   2.0000      -0.482223       -13.1220
 186   2.0000      -0.478287       -13.0148
 187   2.0000      -0.475389       -12.9360
 188   2.0000      -0.468251       -12.7417
 189   2.0000      -0.466864       -12.7040
 190   2.0000      -0.464764       -12.6469
 191   2.0000      -0.463452       -12.6112
 192   2.0000      -0.459904       -12.5146
 193   2.0000      -0.457889       -12.4598
 194   2.0000      -0.456197       -12.4138
 195   2.0000      -0.453241       -12.3333
 196   2.0000      -0.452511       -12.3135
 197   2.0000      -0.449648       -12.2356
 198   2.0000      -0.446624       -12.1532
 199   2.0000      -0.440060       -11.9746
 200   2.0000      -0.439570       -11.9613
 201   2.0000      -0.436568       -11.8796
 202   2.0000      -0.430418       -11.7123
 203   2.0000      -0.425715       -11.5843
 204   2.0000      -0.422692       -11.5020
 205   2.0000      -0.422206       -11.4888
 206   2.0000      -0.420206       -11.4344
 207   2.0000      -0.415608       -11.3093
 208   2.0000      -0.410097       -11.1593
 209   2.0000      -0.407400       -11.0859
 210   2.0000      -0.406337       -11.0570
 211   2.0000      -0.402297       -10.9471
 212   2.0000      -0.400403       -10.8955
 213   2.0000      -0.389809       -10.6072
 214   2.0000      -0.387737       -10.5509
 215   2.0000      -0.383981       -10.4487
 216   2.0000      -0.379464       -10.3258
 217   2.0000      -0.377820       -10.2810
 218   2.0000      -0.375209       -10.2100
 219   2.0000      -0.364545        -9.9198
 220   2.0000      -0.356686        -9.7059
 221   2.0000      -0.345042        -9.3891
 222   2.0000      -0.343017        -9.3340
 223   2.0000      -0.340387        -9.2624
 224   2.0000      -0.338042        -9.1986
 225   2.0000      -0.334957        -9.1146
 226   2.0000      -0.329499        -8.9661
 227   2.0000      -0.321868        -8.7585
 228   2.0000      -0.319629        -8.6975
 229   2.0000      -0.307916        -8.3788
 230   2.0000      -0.305769        -8.3204
 231   2.0000      -0.294689        -8.0189
 232   2.0000      -0.290404        -7.9023
 233   2.0000      -0.267585        -7.2814
 234   2.0000      -0.242623        -6.6021
 235   2.0000      -0.227518        -6.1911
 236   0.0000      -0.107181        -2.9165
 237   0.0000      -0.063889        -1.7385
 238   0.0000      -0.058832        -1.6009
 239   0.0000      -0.053517        -1.4563
 240   0.0000      -0.048618        -1.3230

MULLIKEN ATOMIC CHARGES
-----------------------
   0 C :   -0.030603
   1 C :   -0.055360
   2 C :    0.050781
   3 C :    0.033855
   4 C :   -0.061062
   5 S :    0.029242
   6 C :   -0.048638
   7 C :    0.031242
   8 C :    0.041766
   9 C :    0.004902
  10 S :    0.068375
  11 C :   -0.020860
  12 C :   -0.149344
  13 S :    0.127857
  14 C :   -0.061118
  15 C :    0.070110
  16 C :   -0.099847
  17 S :    0.075882
  18 C :   -0.134878
  19 C :    0.112539
  20 N :   -0.022280
  21 C :   -0.084832
  22 S :    0.160723
  23 C :   -0.009283
  24 N :    0.282057
  25 O :   -0.253026
  26 O :   -0.272531
  27 C :    0.006658
  28 C :    0.084113
  29 C :   -0.024643
  30 C :    0.013011
  31 C :   -0.106034
  32 S :    0.212963
  33 C :   -0.173555
  34 C :    0.030685
  35 C :    0.028727
  36 N :   -0.041581
  37 C :    0.049966
  38 C :    0.049338
  39 N :   -0.012477
  40 C :    0.058769
  41 C :   -0.145554
  42 C :    0.131301
  43 O :   -0.149202
  44 C :    0.015959
  45 C :   -0.087918
  46 C :    0.113293
  47 C :    0.116153
  48 C :   -0.110067
  49 C :    0.239598
  50 C :    0.238244
  51 C :   -0.107257
  52 F :   -0.175228
  53 F :   -0.174401
  54 C :   -0.093232
  55 C :    0.039233
  56 C :    0.332922
  57 C :   -0.348798
  58 C :   -0.171594
  59 N :    0.145867
  60 C :   -0.190240
  61 N :    0.141203
  62 H :    0.023436
  63 H :    0.025868
  64 H :   -0.009218
  65 H :   -0.010370
  66 H :   -0.012557
  67 H :   -0.010369
  68 H :    0.001223
  69 H :    0.030828
  70 H :   -0.039149
  71 H :    0.032935
  72 H :    0.049626
  73 H :    0.134823
  74 H :    0.011173
  75 H :    0.032746
  76 H :   -0.023960
  77 H :    0.023003
  78 H :    0.023691
  79 H :    0.015330
  80 H :   -0.012172
  81 H :    0.002932
  82 H :   -0.002365
  83 H :   -0.009339
Sum of atomic charges:   -0.0000000

LOEWDIN ATOMIC CHARGES
----------------------
   0 C :   -0.071483
   1 C :   -0.139757
   2 C :   -0.031020
   3 C :   -0.025630
   4 C :   -0.179469
   5 S :    0.328297
   6 C :   -0.180300
   7 C :   -0.028614
   8 C :   -0.029506
   9 C :   -0.131634
  10 S :    0.391513
  11 C :   -0.085706
  12 C :   -0.190521
  13 S :    0.440933
  14 C :   -0.166969
  15 C :   -0.084813
  16 C :   -0.224829
  17 S :    0.350761
  18 C :   -0.209957
  19 C :   -0.031164
  20 N :    0.044470
  21 C :   -0.078589
  22 S :    0.446554
  23 C :   -0.209887
  24 N :    0.274129
  25 O :   -0.218731
  26 O :   -0.237650
  27 C :    0.012548
  28 C :   -0.120087
  29 C :    0.031934
  30 C :   -0.072697
  31 C :   -0.126266
  32 S :    0.522370
  33 C :   -0.209855
  34 C :   -0.023599
  35 C :   -0.050046
  36 N :   -0.024931
  37 C :    0.002294
  38 C :    0.029528
  39 N :   -0.034042
  40 C :    0.042953
  41 C :   -0.101917
  42 C :    0.081532
  43 O :   -0.150787
  44 C :   -0.051973
  45 C :    0.026842
  46 C :   -0.011207
  47 C :   -0.006655
  48 C :   -0.031997
  49 C :    0.064769
  50 C :    0.064401
  51 C :   -0.033790
  52 F :   -0.052629
  53 F :   -0.052093
  54 C :    0.008737
  55 C :   -0.015314
  56 C :    0.079014
  57 C :   -0.151783
  58 C :    0.006948
  59 N :   -0.070877
  60 C :   -0.020820
  61 N :   -0.068780
  62 H :    0.030875
  63 H :    0.022850
  64 H :    0.034507
  65 H :    0.033549
  66 H :    0.031770
  67 H :    0.034090
  68 H :    0.034671
  69 H :    0.018526
  70 H :    0.023733
  71 H :    0.024489
  72 H :    0.032115
  73 H :    0.083628
  74 H :    0.044805
  75 H :    0.035635
  76 H :    0.027368
  77 H :    0.030774
  78 H :    0.032925
  79 H :    0.044395
  80 H :    0.039221
  81 H :    0.045980
  82 H :    0.043860
  83 H :    0.038084

  Mayer bond orders larger than 0.100000
B(  0-C ,  1-C ) :   1.8738 B(  0-C , 62-H ) :   0.9499 B(  0-C , 63-H ) :   0.9425
B(  1-C ,  2-C ) :   1.0786 B(  1-C ,  5-S ) :   0.9933 B(  2-C ,  3-C ) :   1.6688
B(  2-C , 64-H ) :   0.9924 B(  3-C ,  4-C ) :   1.1464 B(  3-C , 65-H ) :   0.9912
B(  4-C ,  5-S ) :   1.0314 B(  4-C ,  6-C ) :   1.5788 B(  6-C ,  7-C ) :   1.1476
B(  6-C , 10-S ) :   1.0422 B(  7-C ,  8-C ) :   1.6471 B(  7-C , 66-H ) :   0.9924
B(  8-C ,  9-C ) :   1.1083 B(  8-C , 67-H ) :   0.9957 B(  9-C , 10-S ) :   1.0325
B(  9-C , 11-C ) :   1.6996 B( 11-C , 12-C ) :   1.0542 B( 11-C , 68-H ) :   0.9561
B( 12-C , 13-S ) :   1.1541 B( 12-C , 16-C ) :   1.5452 B( 13-S , 14-C ) :   1.1571
B( 14-C , 15-C ) :   1.5911 B( 14-C , 69-H ) :   0.9443 B( 15-C , 16-C ) :   1.2216
B( 15-C , 70-H ) :   0.9911 B( 16-C , 17-S ) :   1.0137 B( 17-S , 18-C ) :   1.0396
B( 18-C , 19-C ) :   1.7902 B( 18-C , 71-H ) :   0.9513 B( 19-C , 20-N ) :   1.0575
B( 19-C , 72-H ) :   0.9384 B( 20-N , 21-C ) :   1.2833 B( 20-N , 73-H ) :   0.9099
B( 21-C , 22-S ) :   1.1383 B( 21-C , 28-C ) :   1.3073 B( 22-S , 23-C ) :   1.0612
B( 23-C , 24-N ) :   0.9794 B( 23-C , 27-C ) :   1.5104 B( 24-N , 25-O ) :   1.5285
B( 24-N , 26-O ) :   1.4984 B( 25-O , 26-O ) :   0.2548 B( 27-C , 28-C ) :   1.2132
B( 27-C , 74-H ) :   0.9988 B( 28-C , 29-C ) :   1.1107 B( 29-C , 30-C ) :   1.6121
B( 29-C , 75-H ) :   0.9538 B( 30-C , 31-C ) :   1.1925 B( 30-C , 76-H ) :   0.9503
B( 31-C , 32-S ) :   1.2283 B( 31-C , 33-C ) :   0.1047 B( 31-C , 35-C ) :   1.2458
B( 32-S , 33-C ) :   1.1003 B( 33-C , 34-C ) :   1.2970 B( 33-C , 40-C ) :   1.2303
B( 34-C , 35-C ) :   1.2249 B( 34-C , 39-N ) :   1.4383 B( 35-C , 36-N ) :   1.4282
B( 36-N , 37-C ) :   1.6065 B( 37-C , 38-C ) :   1.2189 B( 37-C , 77-H ) :   0.9728
B( 38-C , 39-N ) :   1.6273 B( 38-C , 78-H ) :   0.9749 B( 40-C , 41-C ) :   1.5660
B( 40-C , 79-H ) :   0.9269 B( 41-C , 42-C ) :   0.9568 B( 41-C , 56-C ) :   1.0973
B( 42-C , 43-O ) :   2.2651 B( 42-C , 44-C ) :   0.9130 B( 44-C , 45-C ) :   1.4819
B( 44-C , 55-C ) :   1.2185 B( 45-C , 46-C ) :   1.1858 B( 45-C , 80-H ) :   1.0161
B( 46-C , 47-C ) :   1.2619 B( 46-C , 51-C ) :   1.1956 B( 47-C , 48-C ) :   1.1901
B( 47-C , 54-C ) :   1.2064 B( 48-C , 49-C ) :   1.4391 B( 48-C , 51-C ) :   0.1093
B( 48-C , 81-H ) :   1.0073 B( 49-C , 50-C ) :   1.1954 B( 49-C , 53-F ) :   1.1318
B( 50-C , 51-C ) :   1.4405 B( 50-C , 52-F ) :   1.1298 B( 51-C , 82-H ) :   1.0070
B( 54-C , 55-C ) :   1.4607 B( 54-C , 83-H ) :   0.9938 B( 55-C , 56-C ) :   1.0006
B( 56-C , 57-C ) :   1.5865 B( 57-C , 58-C ) :   1.1904 B( 57-C , 60-C ) :   1.1497
B( 58-C , 59-N ) :   2.9049 B( 59-N , 69-H ) :   0.1127 B( 60-C , 61-N ) :   2.9746

-----------------------------------------------------------------------------
         ABSORPTION SPECTRUM VIA TRANSITION ELECTRIC DIPOLE MOMENTS
-----------------------------------------------------------------------------
State   Energy  Wavelength   fosc         T2         TX        TY        TZ
        (cm-1)    (nm)                  (au**2)     (au)      (au)      (au)
-----------------------------------------------------------------------------
   0   12801.2    781.2   0.509387633  13.10006  -2.98993   1.94865  -0.60261
   1   14258.4    701.3   0.109264357   2.52280   1.32110  -0.86642   0.16374
   2   18725.2    534.0   0.106435962   1.87127   1.04345  -0.59808  -0.65176
   3   20865.8    479.3   0.716519004  11.30496  -3.14309   1.19310   0.04986
   4   22467.0    445.1   0.199459933   2.92272   1.36536  -1.02844   0.02856
   5   22770.9    439.2   0.047499364   0.68673   0.60933  -0.34576  -0.44260
   6   23338.7    428.5   0.277176582   3.90981   1.83225  -0.40744  -0.62182
   7   24197.9    413.3   0.021476946   0.29219   0.38035   0.23610  -0.30295
   8   25036.1    399.4   0.554761607   7.29482  -1.63311   1.30587   1.70953
   9   26033.7    384.1   0.024868304   0.31447  -0.04319   0.21748  -0.51509
  10   26369.5    379.2   0.089434900   1.11656   0.83730  -0.18019   0.61889
  11   26530.9    376.9   0.003298138   0.04093   0.08793   0.01710  -0.18138
  12   26972.9    370.7   0.288949256   3.52671  -1.26233   1.03780  -0.92531
  13   27681.2    361.3   0.005772466   0.06865   0.20986  -0.15429  -0.02842
  14   28311.4    353.2   0.018329601   0.21314  -0.21658   0.30626  -0.26914
  15   28989.2    345.0   0.035271863   0.40056   0.30426  -0.51555   0.20541
  16   29747.1    336.2   0.021443982   0.23732   0.12525  -0.01994   0.47036
  17   30030.3    333.0   0.018685210   0.20484  -0.44256   0.05550  -0.07684
  18   30412.1    328.8   0.016904020   0.18299   0.08541   0.26517  -0.32462
  19   30598.8    326.8   0.035445679   0.38136  -0.25828   0.44837  -0.33707
  20   30626.8    326.5   0.032190441   0.34602  -0.03084   0.08340   0.58148
  21   31261.1    319.9   0.043222480   0.45518   0.61654  -0.27195  -0.03323
  22   31489.3    317.6   0.046710807   0.48835   0.47755  -0.50942   0.02802
  23   31887.1    313.6   0.113325190   1.17000  -0.82705   0.63386  -0.29020
  24   32357.2    309.1   0.138399971   1.40812  -0.72174   0.65970  -0.67232
  25   32566.7    307.1   0.075377195   0.76198  -0.08422  -0.72550  -0.47805
  26   33111.1    302.0   0.337980597   3.36042  -0.71343   1.60282  -0.53143
  27   33329.6    300.0   0.003311052   0.03270   0.02391   0.08390  -0.15841
  28   33518.2    298.3   0.047538115   0.46691  -0.32029   0.53313   0.28301
  29   33657.9    297.1   0.107443724   1.05092   0.63105  -0.48707   0.64456
  30   33944.9    294.6   0.100417786   0.97389   0.46095   0.26134  -0.83254
  31   34363.4    291.0   0.208759644   1.99998   1.07575  -0.91697  -0.04379
  32   34470.9    290.1   0.075753508   0.72348  -0.32422  -0.26419   0.74065
  33   34864.6    286.8   0.025836009   0.24396  -0.32111   0.27020   0.26046
  34   35000.9    285.7   0.142855543   1.34367  -0.11046  -0.58815   0.99275
  35   35624.6    280.7   0.085721771   0.79217   0.88104  -0.08401  -0.09418
  36   36218.7    276.1   0.071017406   0.64552  -0.24210   0.68995  -0.33298
  37   36411.8    274.6   0.017204876   0.15556  -0.28170  -0.06539  -0.26818
  38   36685.4    272.6   0.109960850   0.98678  -0.45568   0.71580   0.51649
  39   37374.0    267.6   0.103303569   0.90996   0.17437  -0.04936   0.93655
  40   37578.6    266.1   0.022619104   0.19816   0.02158   0.24265  -0.37258
  41   37752.5    264.9   0.046256818   0.40337   0.00374   0.14946   0.61727
  42   37932.6    263.6   0.060671921   0.52656  -0.13753  -0.17942   0.68953
  43   38351.9    260.7   0.016173549   0.13883  -0.31165  -0.16414  -0.12152
  44   38450.1    260.1   0.000804635   0.00689   0.05419   0.05800  -0.02425
  45   38505.6    259.7   0.024743873   0.21155   0.15802  -0.00842   0.43187
  46   38659.0    258.7   0.007962306   0.06781   0.05104  -0.01482  -0.25491
  47   38821.0    257.6   0.011390278   0.09659  -0.15877   0.25175  -0.08946
  48   39226.4    254.9   0.012786052   0.10731   0.05660  -0.19634   0.25604
  49   39728.7    251.7   0.074882071   0.62051   0.49640  -0.56315  -0.23866
  50   39908.5    250.6   0.056379889   0.46509   0.27861  -0.62239   0.00984
  51   40038.5    249.8   0.032139555   0.26426   0.12421  -0.29371   0.40320
  52   40185.5    248.8   0.010086201   0.08263   0.10739   0.02172   0.26575

FINAL SINGLE POINT ENERGY     -4866.999534457858

DIPOLE MOMENT
-------------
                                X             Y             Z
Electronic contribution:    -36.51177      30.58660     -17.58987
Nuclear contribution   :     38.31673     -30.67240      19.35006
                        -----------------------------------------
Total Dipole Moment    :      1.80495      -0.08580       1.76019
                        -----------------------------------------
Magnitude (a.u.)       :      2.52260
Magnitude (Debye)      :      6.41193

Rotational constants in cm-1:     0.002315     0.000452     0.000401
Rotational constants in MHz :    69.410065    13.547091    12.007215

                             ****ORCA TERMINATED NORMALLY****
TOTAL RUN TIME: 0 days 0 hours 16 minutes 40 seconds 956 msec
