                         Program Version 4.2.0 -  RELEASE  -
|  1> # ORCA input file
|  2> # SCF done       -152.308413064438          0.000564380118
|  3> ! CAM-B3LYP def2-SVP def2/J RIJCOSX Grid4 TightSCF
|  4> %maxcore 5000
|  5> %tddft
|  6>     Mode sTDDFT
|  7>     Ethresh 5.0
|  8>     maxcore 5000
|  9> end
| 10>
| 11> %pal
| 12>   nprocs 6
| 13>   end
| 14> * xyz 0 1
| 15>    C       -2.55645        -0.25621         1.95369
| 16>    C       -1.32501        -0.45459         2.44081
| 17>    C       -0.63760         0.31668         3.43768
| 18>    C        0.60271        -0.12735         3.73335
| 19>    C        1.00173        -1.28363         3.00368
| 20>    S       -0.27793        -1.78118         1.91131
| 21>    C        2.19012        -1.96104         3.10197
| 22>    C        3.29726        -1.67734         3.94227
| 23>    C        4.32839        -2.55201         3.82879
| 24>    C        4.10777        -3.59341         2.88783
| 25>    S        2.51997        -3.39164         2.13794
| 26>    C        4.94458        -4.62343         2.58690
| 27>    N        4.63606        -5.57962         1.67031
| 28>    C        5.35389        -6.68418         1.38172
| 29>    S        6.82332        -7.04677         2.23226
| 30>    C        6.95967        -8.52650         1.32627
| 31>    N        8.04708        -9.34595         1.58181
| 32>    O        8.13354       -10.39411         0.95418
| 33>    O        8.85138        -8.96848         2.42556
| 34>    C        5.93850        -8.71233         0.43045
| 35>    C        4.99973        -7.66489         0.43225
| 36>    C        3.85036        -7.58056        -0.41307
| 37>    C        3.40656        -8.59791        -1.19878
| 38>    C        2.29810        -8.52084        -2.05915
| 39>    C        1.84031        -9.58945        -2.78795
| 40>    C        0.75045        -9.62350        -3.69257
| 41>    C        0.51999       -10.84409        -4.25101
| 42>    C        1.40938       -11.85119        -3.81429
| 43>    S        2.56913       -11.18501        -2.68313
| 44>    C        1.42196       -13.19028        -4.14272
| 45>    C        0.56102       -13.89725        -5.01293
| 46>    C        0.81170       -15.23245        -5.08710
| 47>    C        1.89004       -15.66559        -4.27429
| 48>    S        2.58895       -14.28284        -3.42580
| 49>    C        2.34963       -16.93825        -4.10794
| 50>    N        3.38891       -17.24257        -3.29039
| 51>    C        3.85767       -18.47771        -3.00189
| 52>    S        3.10278       -19.89626        -3.65857
| 53>    C        4.24224       -20.88040        -2.79078
| 54>    N        4.12715       -22.25826        -2.93548
| 55>    O        4.91804       -22.96812        -2.33530
| 56>    O        3.22782       -22.66037        -3.66299
| 57>    C        5.13827       -20.15334        -2.05054
| 58>    C        4.94316       -18.76479        -2.15546
| 59>    C        5.73600       -17.75557        -1.51196
| 60>    C        6.72190       -17.99523        -0.62366
| 61>    C        7.51462       -16.98700        -0.01330
| 62>    S        7.35360       -15.28318        -0.35270
| 63>    C        8.65821       -14.86643         0.72173
| 64>    C        9.14827       -15.99810         1.33206
| 65>    C        8.51472       -17.19478         0.91836
| 66>    O        8.82868       -18.42491         1.37584
| 67>    S       10.39932       -16.06557         2.58585
| 68>    C        9.02947       -13.48136         0.85064
| 69>    C       10.23226       -13.01568         1.18216
| 70>    H       -3.16045         0.56112         2.30586
| 71>    H       -2.97968        -0.90008         1.20472
| 72>    H       -1.10930         1.17163         3.88856
| 73>    H        1.25510         0.32998         4.45594
| 74>    H        3.29235        -0.83395         4.60869
| 75>    H        5.24391        -2.49576         4.38974
| 76>    H        5.89760        -4.72057         3.08443
| 77>    H        3.75198        -5.46632         1.18521
| 78>    H        5.89829        -9.57632        -0.20641
| 79>    H        3.30447        -6.64577        -0.42849
| 80>    H        3.91883        -9.54984        -1.16988
| 81>    H        1.77315        -7.58001        -2.15618
| 82>    H        0.17096        -8.74105        -3.89984
| 83>    H       -0.26590       -11.04921        -4.95588
| 84>    H       -0.22143       -13.39822        -5.55559
| 85>    H        0.25625       -15.92629        -5.69205
| 86>    H        1.88349       -17.76219        -4.62701
| 87>    H        3.84124       -16.46154        -2.82581
| 88>    H        5.90569       -20.62601        -1.46648
| 89>    H        5.53176       -16.72295        -1.76704
| 90>    H        6.97006       -19.00022        -0.31554
| 91>    H        9.51954       -18.34734         2.04849
| 92>    H       10.19875       -14.82926         3.03178
| 93>    H        8.24801       -12.77175         0.61432
| 94>    H       11.08875       -13.64669         1.35058
| 95>    H       10.39408       -11.95471         1.24273
| 96> *
| 97>
| 98>                          ****END OF INPUT****

CARTESIAN COORDINATES (ANGSTROEM)
---------------------------------
  C     -2.556450   -0.256210    1.953690
  C     -1.325010   -0.454590    2.440810
  C     -0.637600    0.316680    3.437680
  C      0.602710   -0.127350    3.733350
  C      1.001730   -1.283630    3.003680
  S     -0.277930   -1.781180    1.911310
  C      2.190120   -1.961040    3.101970
  C      3.297260   -1.677340    3.942270
  C      4.328390   -2.552010    3.828790
  C      4.107770   -3.593410    2.887830
  S      2.519970   -3.391640    2.137940
  C      4.944580   -4.623430    2.586900
  N      4.636060   -5.579620    1.670310
  C      5.353890   -6.684180    1.381720
  S      6.823320   -7.046770    2.232260
  C      6.959670   -8.526500    1.326270
  N      8.047080   -9.345950    1.581810
  O      8.133540  -10.394110    0.954180
  O      8.851380   -8.968480    2.425560
  C      5.938500   -8.712330    0.430450
  C      4.999730   -7.664890    0.432250
  C      3.850360   -7.580560   -0.413070
  C      3.406560   -8.597910   -1.198780
  C      2.298100   -8.520840   -2.059150
  C      1.840310   -9.589450   -2.787950
  C      0.750450   -9.623500   -3.692570
  C      0.519990  -10.844090   -4.251010
  C      1.409380  -11.851190   -3.814290
  S      2.569130  -11.185010   -2.683130
  C      1.421960  -13.190280   -4.142720
  C      0.561020  -13.897250   -5.012930
  C      0.811700  -15.232450   -5.087100
  C      1.890040  -15.665590   -4.274290
  S      2.588950  -14.282840   -3.425800
  C      2.349630  -16.938250   -4.107940
  N      3.388910  -17.242570   -3.290390
  C      3.857670  -18.477710   -3.001890
  S      3.102780  -19.896260   -3.658570
  C      4.242240  -20.880400   -2.790780
  N      4.127150  -22.258260   -2.935480
  O      4.918040  -22.968120   -2.335300
  O      3.227820  -22.660370   -3.662990
  C      5.138270  -20.153340   -2.050540
  C      4.943160  -18.764790   -2.155460
  C      5.736000  -17.755570   -1.511960
  C      6.721900  -17.995230   -0.623660
  C      7.514620  -16.987000   -0.013300
  S      7.353600  -15.283180   -0.352700
  C      8.658210  -14.866430    0.721730
  C      9.148270  -15.998100    1.332060
  C      8.514720  -17.194780    0.918360
  O      8.828680  -18.424910    1.375840
  S     10.399320  -16.065570    2.585850
  C      9.029470  -13.481360    0.850640
  C     10.232260  -13.015680    1.182160
  H     -3.160450    0.561120    2.305860
  H     -2.979680   -0.900080    1.204720
  H     -1.109300    1.171630    3.888560
  H      1.255100    0.329980    4.455940
  H      3.292350   -0.833950    4.608690
  H      5.243910   -2.495760    4.389740
  H      5.897600   -4.720570    3.084430
  H      3.751980   -5.466320    1.185210
  H      5.898290   -9.576320   -0.206410
  H      3.304470   -6.645770   -0.428490
  H      3.918830   -9.549840   -1.169880
  H      1.773150   -7.580010   -2.156180
  H      0.170960   -8.741050   -3.899840
  H     -0.265900  -11.049210   -4.955880
  H     -0.221430  -13.398220   -5.555590
  H      0.256250  -15.926290   -5.692050
  H      1.883490  -17.762190   -4.627010
  H      3.841240  -16.461540   -2.825810
  H      5.905690  -20.626010   -1.466480
  H      5.531760  -16.722950   -1.767040
  H      6.970060  -19.000220   -0.315540
  H      9.519540  -18.347340    2.048490
  H     10.198750  -14.829260    3.031780
  H      8.248010  -12.771750    0.614320
  H     11.088750  -13.646690    1.350580
  H     10.394080  -11.954710    1.242730

 Total Charge           Charge          ....    0
 Multiplicity           Mult            ....    1
 Number of Electrons    NEL             ....  450
 Basis Dimension        Dim             ....  932

ORBITAL ENERGIES
----------------

  NO   OCC          E(Eh)            E(eV)
   0   2.0000     -88.981899     -2421.3206
   1   2.0000     -88.973471     -2421.0912
   2   2.0000     -88.952986     -2420.5338
   3   2.0000     -88.950991     -2420.4795
   4   2.0000     -88.945448     -2420.3287
   5   2.0000     -88.942221     -2420.2409
   6   2.0000     -88.940634     -2420.1977
   7   2.0000     -88.934010     -2420.0174
   8   2.0000     -19.248630      -523.7819
   9   2.0000     -19.232964      -523.3555
  10   2.0000     -19.232756      -523.3499
  11   2.0000     -19.220923      -523.0279
  12   2.0000     -19.220832      -523.0254
  13   2.0000     -14.643891      -398.4805
  14   2.0000     -14.632798      -398.1787
  15   2.0000     -14.489820      -394.2880
  16   2.0000     -14.484085      -394.1320
  17   2.0000     -10.368478      -282.1406
  18   2.0000     -10.358170      -281.8601
  19   2.0000     -10.336539      -281.2715
  20   2.0000     -10.336316      -281.2655
  21   2.0000     -10.336279      -281.2644
  22   2.0000     -10.332853      -281.1712
  23   2.0000     -10.327901      -281.0365
  24   2.0000     -10.315868      -280.7090
  25   2.0000     -10.315556      -280.7006
  26   2.0000     -10.314616      -280.6750
  27   2.0000     -10.311673      -280.5949
  28   2.0000     -10.309902      -280.5467
  29   2.0000     -10.308692      -280.5138
  30   2.0000     -10.306973      -280.4670
  31   2.0000     -10.306863      -280.4640
  32   2.0000     -10.305409      -280.4244
  33   2.0000     -10.299326      -280.2589
  34   2.0000     -10.297500      -280.2092
  35   2.0000     -10.296371      -280.1785
  36   2.0000     -10.295668      -280.1594
  37   2.0000     -10.293808      -280.1088
  38   2.0000     -10.292517      -280.0736
  39   2.0000     -10.292131      -280.0631
  40   2.0000     -10.291957      -280.0584
  41   2.0000     -10.288858      -279.9741
  42   2.0000     -10.288317      -279.9593
  43   2.0000     -10.287896      -279.9479
  44   2.0000     -10.286533      -279.9108
  45   2.0000     -10.286452      -279.9086
  46   2.0000     -10.285247      -279.8758
  47   2.0000     -10.282553      -279.8025
  48   2.0000     -10.280827      -279.7555
  49   2.0000     -10.278145      -279.6826
  50   2.0000     -10.276487      -279.6374
  51   2.0000     -10.275874      -279.6207
  52   2.0000     -10.271434      -279.4999
  53   2.0000     -10.269970      -279.4601
  54   2.0000     -10.256139      -279.0837
  55   2.0000      -8.077280      -219.7940
  56   2.0000      -8.068786      -219.5628
  57   2.0000      -8.049311      -219.0329
  58   2.0000      -8.047355      -218.9797
  59   2.0000      -8.040920      -218.8046
  60   2.0000      -8.038618      -218.7419
  61   2.0000      -8.037413      -218.7091
  62   2.0000      -8.029329      -218.4891
  63   2.0000      -6.047030      -164.5481
  64   2.0000      -6.042715      -164.4306
  65   2.0000      -6.038558      -164.3175
  66   2.0000      -6.038500      -164.3159
  67   2.0000      -6.034141      -164.1973
  68   2.0000      -6.030105      -164.0875
  69   2.0000      -6.019213      -163.7911
  70   2.0000      -6.017206      -163.7365
  71   2.0000      -6.015311      -163.6849
  72   2.0000      -6.013271      -163.6294
  73   2.0000      -6.010258      -163.5474
  74   2.0000      -6.009838      -163.5360
  75   2.0000      -6.008370      -163.4961
  76   2.0000      -6.007992      -163.4858
  77   2.0000      -6.007262      -163.4659
  78   2.0000      -6.006516      -163.4456
  79   2.0000      -6.004464      -163.3898
  80   2.0000      -6.003393      -163.3606
  81   2.0000      -6.002575      -163.3384
  82   2.0000      -5.999643      -163.2586
  83   2.0000      -5.999378      -163.2514
  84   2.0000      -5.997847      -163.2097
  85   2.0000      -5.995657      -163.1501
  86   2.0000      -5.989418      -162.9804
  87   2.0000      -1.310003       -35.6470
  88   2.0000      -1.299952       -35.3735
  89   2.0000      -1.145462       -31.1696
  90   2.0000      -1.128324       -30.7033
  91   2.0000      -1.118787       -30.4437
  92   2.0000      -1.096538       -29.8383
  93   2.0000      -1.090591       -29.6765
  94   2.0000      -1.003874       -27.3168
  95   2.0000      -0.998755       -27.1775
  96   2.0000      -0.993820       -27.0432
  97   2.0000      -0.990668       -26.9574
  98   2.0000      -0.978169       -26.6173
  99   2.0000      -0.971958       -26.4483
 100   2.0000      -0.971525       -26.4365
 101   2.0000      -0.921311       -25.0702
 102   2.0000      -0.912603       -24.8332
 103   2.0000      -0.901982       -24.5442
 104   2.0000      -0.893754       -24.3203
 105   2.0000      -0.884188       -24.0600
 106   2.0000      -0.877255       -23.8713
 107   2.0000      -0.869130       -23.6502
 108   2.0000      -0.863155       -23.4876
 109   2.0000      -0.859044       -23.3758
 110   2.0000      -0.853065       -23.2131
 111   2.0000      -0.849222       -23.1085
 112   2.0000      -0.847221       -23.0540
 113   2.0000      -0.835063       -22.7232
 114   2.0000      -0.829048       -22.5595
 115   2.0000      -0.825215       -22.4552
 116   2.0000      -0.822465       -22.3804
 117   2.0000      -0.802136       -21.8272
 118   2.0000      -0.799131       -21.7455
 119   2.0000      -0.793305       -21.5869
 120   2.0000      -0.774791       -21.0831
 121   2.0000      -0.765393       -20.8274
 122   2.0000      -0.751858       -20.4591
 123   2.0000      -0.733677       -19.9644
 124   2.0000      -0.726341       -19.7648
 125   2.0000      -0.719884       -19.5891
 126   2.0000      -0.714019       -19.4294
 127   2.0000      -0.698814       -19.0157
 128   2.0000      -0.691063       -18.8048
 129   2.0000      -0.685837       -18.6626
 130   2.0000      -0.675635       -18.3850
 131   2.0000      -0.663144       -18.0451
 132   2.0000      -0.654358       -17.8060
 133   2.0000      -0.653611       -17.7857
 134   2.0000      -0.641490       -17.4558
 135   2.0000      -0.636284       -17.3142
 136   2.0000      -0.631661       -17.1884
 137   2.0000      -0.630368       -17.1532
 138   2.0000      -0.626009       -17.0346
 139   2.0000      -0.624432       -16.9916
 140   2.0000      -0.623976       -16.9792
 141   2.0000      -0.620580       -16.8868
 142   2.0000      -0.618060       -16.8183
 143   2.0000      -0.615064       -16.7368
 144   2.0000      -0.613928       -16.7058
 145   2.0000      -0.612189       -16.6585
 146   2.0000      -0.604239       -16.4422
 147   2.0000      -0.602452       -16.3935
 148   2.0000      -0.589895       -16.0519
 149   2.0000      -0.586710       -15.9652
 150   2.0000      -0.584333       -15.9005
 151   2.0000      -0.579907       -15.7801
 152   2.0000      -0.573288       -15.6000
 153   2.0000      -0.564802       -15.3690
 154   2.0000      -0.554634       -15.0924
 155   2.0000      -0.550374       -14.9764
 156   2.0000      -0.545119       -14.8335
 157   2.0000      -0.544113       -14.8061
 158   2.0000      -0.543185       -14.7808
 159   2.0000      -0.539414       -14.6782
 160   2.0000      -0.536304       -14.5936
 161   2.0000      -0.533391       -14.5143
 162   2.0000      -0.522246       -14.2110
 163   2.0000      -0.520999       -14.1771
 164   2.0000      -0.517649       -14.0860
 165   2.0000      -0.515193       -14.0191
 166   2.0000      -0.511034       -13.9059
 167   2.0000      -0.508720       -13.8430
 168   2.0000      -0.499378       -13.5888
 169   2.0000      -0.498847       -13.5743
 170   2.0000      -0.497141       -13.5279
 171   2.0000      -0.496996       -13.5239
 172   2.0000      -0.494565       -13.4578
 173   2.0000      -0.492665       -13.4061
 174   2.0000      -0.487529       -13.2663
 175   2.0000      -0.478374       -13.0172
 176   2.0000      -0.476092       -12.9551
 177   2.0000      -0.475252       -12.9323
 178   2.0000      -0.474042       -12.8993
 179   2.0000      -0.470496       -12.8028
 180   2.0000      -0.469021       -12.7627
 181   2.0000      -0.467363       -12.7176
 182   2.0000      -0.465657       -12.6712
 183   2.0000      -0.458885       -12.4869
 184   2.0000      -0.448939       -12.2163
 185   2.0000      -0.448770       -12.2117
 186   2.0000      -0.445854       -12.1323
 187   2.0000      -0.444903       -12.1064
 188   2.0000      -0.438851       -11.9417
 189   2.0000      -0.435337       -11.8461
 190   2.0000      -0.434104       -11.8126
 191   2.0000      -0.429754       -11.6942
 192   2.0000      -0.428048       -11.6478
 193   2.0000      -0.427405       -11.6303
 194   2.0000      -0.425952       -11.5907
 195   2.0000      -0.422243       -11.4898
 196   2.0000      -0.413346       -11.2477
 197   2.0000      -0.405088       -11.0230
 198   2.0000      -0.404146       -10.9974
 199   2.0000      -0.399660       -10.8753
 200   2.0000      -0.399246       -10.8640
 201   2.0000      -0.386984       -10.5304
 202   2.0000      -0.383079       -10.4241
 203   2.0000      -0.379549       -10.3281
 204   2.0000      -0.372550       -10.1376
 205   2.0000      -0.370152       -10.0723
 206   2.0000      -0.363981        -9.9044
 207   2.0000      -0.361571        -9.8388
 208   2.0000      -0.357375        -9.7247
 209   2.0000      -0.353488        -9.6189
 210   2.0000      -0.349782        -9.5181
 211   2.0000      -0.345306        -9.3963
 212   2.0000      -0.344373        -9.3709
 213   2.0000      -0.341268        -9.2864
 214   2.0000      -0.339258        -9.2317
 215   2.0000      -0.326755        -8.8915
 216   2.0000      -0.323840        -8.8121
 217   2.0000      -0.320105        -8.7105
 218   2.0000      -0.309007        -8.4085
 219   2.0000      -0.290522        -7.9055
 220   2.0000      -0.276616        -7.5271
 221   2.0000      -0.270304        -7.3554
 222   2.0000      -0.238430        -6.4880
 223   2.0000      -0.223197        -6.0735
 224   2.0000      -0.202940        -5.5223
 225   0.0000      -0.077605        -2.1117
 226   0.0000      -0.068529        -1.8648
 227   0.0000      -0.042734        -1.1629
 228   0.0000      -0.036975        -1.0062
 229   0.0000      -0.027321        -0.7434

MULLIKEN ATOMIC CHARGES
-----------------------
   0 C :   -0.032359
   1 C :   -0.061610
   2 C :    0.052870
   3 C :    0.027027
   4 C :   -0.065640
   5 S :    0.069662
   6 C :   -0.047401
   7 C :    0.026547
   8 C :    0.039722
   9 C :   -0.040069
  10 S :    0.030193
  11 C :    0.020285
  12 N :   -0.024698
  13 C :   -0.115784
  14 S :    0.144630
  15 C :   -0.016813
  16 N :    0.293801
  17 O :   -0.270306
  18 O :   -0.273869
  19 C :    0.007258
  20 C :    0.140081
  21 C :   -0.056229
  22 C :    0.008527
  23 C :   -0.017617
  24 C :   -0.012430
  25 C :    0.030242
  26 C :    0.028921
  27 C :   -0.049869
  28 S :    0.050027
  29 C :   -0.039249
  30 C :    0.020834
  31 C :    0.045207
  32 C :   -0.047926
  33 S :    0.035168
  34 C :    0.032117
  35 N :   -0.028675
  36 C :   -0.121823
  37 S :    0.139778
  38 C :   -0.006827
  39 N :    0.280803
  40 O :   -0.259523
  41 O :   -0.279898
  42 C :    0.002627
  43 C :    0.144949
  44 C :   -0.065526
  45 C :    0.032400
  46 C :   -0.153395
  47 S :    0.106221
  48 C :   -0.131706
  49 C :   -0.048250
  50 C :    0.124134
  51 O :   -0.176840
  52 S :   -0.012326
  53 C :   -0.006153
  54 C :   -0.041929
  55 H :    0.020399
  56 H :    0.021260
  57 H :   -0.011239
  58 H :   -0.010946
  59 H :   -0.011706
  60 H :   -0.009764
  61 H :    0.023865
  62 H :    0.149798
  63 H :    0.010489
  64 H :   -0.033739
  65 H :   -0.000407
  66 H :   -0.021491
  67 H :   -0.014960
  68 H :   -0.013349
  69 H :   -0.013269
  70 H :   -0.008713
  71 H :    0.026827
  72 H :    0.152420
  73 H :    0.010424
  74 H :   -0.034220
  75 H :   -0.002553
  76 H :    0.184522
  77 H :    0.085465
  78 H :    0.013095
  79 H :    0.021552
  80 H :    0.036947
Sum of atomic charges:   -0.0000000

LOEWDIN ATOMIC CHARGES
----------------------
   0 C :   -0.078516
   1 C :   -0.138528
   2 C :   -0.031855
   3 C :   -0.026507
   4 C :   -0.181964
   5 S :    0.342743
   6 C :   -0.175620
   7 C :   -0.037891
   8 C :   -0.030858
   9 C :   -0.180503
  10 S :    0.332031
  11 C :   -0.017910
  12 N :    0.052149
  13 C :   -0.098459
  14 S :    0.444430
  15 C :   -0.218232
  16 N :    0.279359
  17 O :   -0.233580
  18 O :   -0.241873
  19 C :    0.009404
  20 C :   -0.103348
  21 C :   -0.045190
  22 C :   -0.023863
  23 C :   -0.070390
  24 C :   -0.137430
  25 C :   -0.042268
  26 C :   -0.026943
  27 C :   -0.190350
  28 S :    0.357986
  29 C :   -0.167417
  30 C :   -0.045125
  31 C :   -0.024826
  32 C :   -0.189264
  33 S :    0.341405
  34 C :   -0.003924
  35 N :    0.051061
  36 C :   -0.106986
  37 S :    0.443706
  38 C :   -0.213827
  39 N :    0.274333
  40 O :   -0.226355
  41 O :   -0.245697
  42 C :    0.006998
  43 C :   -0.097785
  44 C :   -0.059733
  45 C :   -0.017115
  46 C :   -0.219334
  47 S :    0.421929
  48 C :   -0.179558
  49 C :   -0.226536
  50 C :    0.006502
  51 O :   -0.047806
  52 S :    0.209606
  53 C :   -0.047261
  54 C :   -0.036231
  55 H :    0.028906
  56 H :    0.026075
  57 H :    0.033619
  58 H :    0.032352
  59 H :    0.032794
  60 H :    0.034488
  61 H :    0.030045
  62 H :    0.087654
  63 H :    0.044064
  64 H :    0.020603
  65 H :    0.020267
  66 H :    0.030459
  67 H :    0.032568
  68 H :    0.031886
  69 H :    0.032506
  70 H :    0.034787
  71 H :    0.031389
  72 H :    0.087556
  73 H :    0.044825
  74 H :    0.012483
  75 H :    0.036799
  76 H :    0.081558
  77 H :   -0.008058
  78 H :    0.030986
  79 H :    0.014347
  80 H :    0.028260

  Mayer bond orders larger than 0.100000
B(  0-C ,  1-C ) :   1.8675 B(  0-C , 55-H ) :   0.9504 B(  0-C , 56-H ) :   0.9423
B(  1-C ,  2-C ) :   1.0785 B(  1-C ,  5-S ) :   1.0067 B(  2-C ,  3-C ) :   1.6660
B(  2-C , 57-H ) :   0.9934 B(  3-C ,  4-C ) :   1.1483 B(  3-C , 58-H ) :   0.9919
B(  4-C ,  5-S ) :   1.0371 B(  4-C ,  6-C ) :   1.5775 B(  6-C ,  7-C ) :   1.1639
B(  6-C , 10-S ) :   1.0315 B(  7-C ,  8-C ) :   1.6342 B(  7-C , 59-H ) :   0.9915
B(  8-C ,  9-C ) :   1.1404 B(  8-C , 60-H ) :   0.9943 B(  9-C , 10-S ) :   1.0071
B(  9-C , 11-C ) :   1.6286 B( 11-C , 12-N ) :   1.1277 B( 11-C , 61-H ) :   0.9580
B( 12-N , 13-C ) :   1.2579 B( 12-N , 62-H ) :   0.9027 B( 13-C , 14-S ) :   1.1293
B( 13-C , 20-C ) :   1.3136 B( 14-S , 15-C ) :   1.0526 B( 15-C , 16-N ) :   1.0074
B( 15-C , 19-C ) :   1.4619 B( 16-N , 17-O ) :   1.4690 B( 16-N , 18-O ) :   1.4974
B( 17-O , 18-O ) :   0.2376 B( 19-C , 20-C ) :   1.2503 B( 19-C , 63-H ) :   0.9981
B( 20-C , 21-C ) :   1.0645 B( 21-C , 22-C ) :   1.6769 B( 21-C , 64-H ) :   0.9764
B( 22-C , 23-C ) :   1.1489 B( 22-C , 65-H ) :   0.9674 B( 23-C , 24-C ) :   1.5631
B( 23-C , 66-H ) :   0.9854 B( 24-C , 25-C ) :   1.1412 B( 24-C , 28-S ) :   1.0346
B( 25-C , 26-C ) :   1.5893 B( 25-C , 67-H ) :   0.9990 B( 26-C , 27-C ) :   1.1902
B( 26-C , 68-H ) :   0.9941 B( 27-C , 28-S ) :   1.0327 B( 27-C , 29-C ) :   1.5212
B( 29-C , 30-C ) :   1.1845 B( 29-C , 33-S ) :   1.0473 B( 30-C , 31-C ) :   1.6106
B( 30-C , 69-H ) :   0.9925 B( 31-C , 32-C ) :   1.1534 B( 31-C , 70-H ) :   0.9949
B( 32-C , 33-S ) :   1.0062 B( 32-C , 34-C ) :   1.6042 B( 34-C , 35-N ) :   1.1512
B( 34-C , 71-H ) :   0.9591 B( 35-N , 36-C ) :   1.2312 B( 35-N , 72-H ) :   0.9029
B( 36-C , 37-S ) :   1.1233 B( 36-C , 43-C ) :   1.3454 B( 37-S , 38-C ) :   1.0619
B( 38-C , 39-N ) :   0.9908 B( 38-C , 42-C ) :   1.4757 B( 39-N , 40-O ) :   1.5208
B( 39-N , 41-O ) :   1.4947 B( 40-O , 41-O ) :   0.2496 B( 42-C , 43-C ) :   1.2413
B( 42-C , 73-H ) :   1.0010 B( 43-C , 44-C ) :   1.0673 B( 44-C , 45-C ) :   1.6953
B( 44-C , 74-H ) :   0.9685 B( 45-C , 46-C ) :   1.1538 B( 45-C , 75-H ) :   0.9765
B( 46-C , 47-S ) :   1.0719 B( 46-C , 48-C ) :   0.1072 B( 46-C , 50-C ) :   1.4948
B( 47-S , 48-C ) :   1.1324 B( 48-C , 49-C ) :   1.5682 B( 48-C , 53-C ) :   1.0613
B( 49-C , 50-C ) :   1.2176 B( 49-C , 52-S ) :   1.0044 B( 50-C , 51-O ) :   1.2700
B( 51-O , 76-H ) :   0.9423 B( 52-S , 77-H ) :   0.9387 B( 53-C , 54-C ) :   1.9405
B( 53-C , 78-H ) :   0.9489 B( 54-C , 79-H ) :   0.9600 B( 54-C , 80-H ) :   0.9381

-----------------------------------------------------------------------------
         ABSORPTION SPECTRUM VIA TRANSITION ELECTRIC DIPOLE MOMENTS
-----------------------------------------------------------------------------
State   Energy  Wavelength   fosc         T2         TX        TY        TZ
        (cm-1)    (nm)                  (au**2)     (au)      (au)      (au)
-----------------------------------------------------------------------------
   0   13876.5    720.6   1.672795628  39.68606  -0.90723   6.04796   1.51166
   1   16778.6    596.0   0.334822086   6.56952   1.95086  -1.58437  -0.50341
   2   19682.8    508.1   0.157360860   2.63200   0.75515  -0.93588  -1.08898
   3   21066.4    474.7   0.469921451   7.34363   2.28985  -1.39356   0.39777
   4   21988.6    454.8   0.320445982   4.79770   1.38464  -1.36883   1.00338
   5   22819.3    438.2   0.102501307   1.47878   0.27816   1.05145   0.54392
   6   23658.6    422.7   0.205135423   2.85448   1.11813   0.83225   0.95480
   7   25100.0    398.4   0.470779573   6.17475  -1.91381  -0.90575  -1.30066
   8   25560.0    391.2   0.121005011   1.55854  -1.08150  -0.24117  -0.57510
   9   27417.7    364.7   0.077562470   0.93131   0.67197  -0.68265  -0.11733
  10   27870.6    358.8   0.101348636   1.19715   0.56592   0.87168   0.34212
  11   28191.5    354.7   0.622245945   7.26640   2.20435   0.12685   1.54633
  12   29654.8    337.2   0.021978994   0.24400  -0.39412   0.05710  -0.29224
  13   30278.0    330.3   0.194361163   2.11329   0.47208  -1.36243   0.18497
  14   30625.9    326.5   0.471805810   5.07165  -1.39595  -1.31190  -1.18402
  15   30875.7    323.9   0.035286484   0.37624   0.30756  -0.41173   0.33486
  16   31045.2    322.1   0.112466637   1.19263   0.37539  -0.94031   0.40930
  17   31904.6    313.4   0.003480349   0.03591   0.02742   0.13679   0.12825
  18   32096.9    311.6   0.070916977   0.72738   0.31595   0.74103   0.28006
  19   32790.3    305.0   0.052904648   0.53116  -0.56468  -0.18174  -0.42340
  20   33222.6    301.0   0.049348370   0.48901  -0.65484   0.04555  -0.24107
  21   33839.1    295.5   0.041298685   0.40178   0.45162   0.32875   0.29957
  22   34000.8    294.1   0.060914046   0.58980   0.27506   0.68246   0.21998
  23   34479.9    290.0   0.005601846   0.05349  -0.05532  -0.22439   0.00856
  24   34549.6    289.4   0.004844637   0.04616   0.06650   0.11542   0.16857
  25   35083.1    285.0   0.090908133   0.85306  -0.59313   0.24359  -0.66477
  26   35521.0    281.5   0.070849068   0.65664  -0.41742   0.69397  -0.02838
  27   36896.5    271.0   0.111276626   0.99287  -0.79294  -0.37163  -0.47540
  28   37158.9    269.1   0.001339156   0.01186  -0.09686   0.04063   0.02882
  29   37223.6    268.6   0.003912757   0.03461   0.05971  -0.12191   0.12719
  30   37430.4    267.2   0.008144421   0.07163   0.23176  -0.02787   0.13093
  31   37494.0    266.7   0.025115959   0.22053  -0.23171   0.34588  -0.21728
  32   37955.4    263.5   0.016634052   0.14428  -0.13488  -0.19299  -0.29806
  33   38201.5    261.8   0.094005643   0.81012  -0.70004  -0.02251  -0.56529
  34   38709.0    258.3   0.062833848   0.53439   0.08024   0.72652  -0.01080
  35   38980.5    256.5   0.023026769   0.19447   0.12710  -0.41392   0.08362
  36   39152.3    255.4   0.008380480   0.07047  -0.04135   0.25887   0.04176
  37   39398.4    253.8   0.021986315   0.18372   0.35672  -0.19188   0.14017
  38   39517.6    253.1   0.104607510   0.87146  -0.68715  -0.32195  -0.54372
  39   39711.2    251.8   0.003034440   0.02516   0.01639   0.07712   0.13762
  40   39887.3    250.7   0.019821952   0.16360  -0.36436  -0.09789  -0.14580
  41   40116.2    249.3   0.039494694   0.32411   0.27280  -0.42119   0.26886

FINAL SINGLE POINT ENERGY     -5240.487664674068

DIPOLE MOMENT
-------------
                                X             Y             Z
Electronic contribution:      9.06027     -30.63387      -5.23756
Nuclear contribution   :    -10.85843      35.78600       5.80730
                        -----------------------------------------
Total Dipole Moment    :     -1.79816       5.15213       0.56974
                        -----------------------------------------
Magnitude (a.u.)       :      5.48657
Magnitude (Debye)      :     13.94575

Rotational constants in cm-1:     0.001565     0.000396     0.000326
Rotational constants in MHz :    46.928503    11.861879     9.772446

                             ****ORCA TERMINATED NORMALLY****
TOTAL RUN TIME: 0 days 0 hours 5 minutes 42 seconds 250 msec
