                         Program Version 4.2.0 -  RELEASE  -
|  1> # ORCA input file
|  2> # SCF done       -169.552547140499          0.000761795213
|  3> ! CAM-B3LYP def2-SVP def2/J RIJCOSX Grid4 TightSCF
|  4> %maxcore 5000
|  5> %tddft
|  6>     Mode sTDDFT
|  7>     Ethresh 5.0
|  8>     maxcore 5000
|  9> end
| 10>
| 11> %pal
| 12>   nprocs 6
| 13>   end
| 14> * xyz 0 1
| 15>    C      -10.90214        -1.31062         1.61852
| 16>    C      -11.36221        -1.46200         0.33816
| 17>    C      -11.39796        -2.69806        -0.33963
| 18>    N      -11.44853        -3.67943        -0.93283
| 19>    C      -11.90752        -0.41829        -0.43710
| 20>    N      -12.36727         0.39538        -1.10462
| 21>    C      -10.39028        -2.37449         2.47477
| 22>    C      -10.28844        -1.88289         3.79942
| 23>    C       -9.82686        -2.65483         4.83794
| 24>    C       -9.36555        -3.94021         4.53816
| 25>    C       -9.43800        -4.40986         3.20461
| 26>    C       -9.96807        -3.65415         2.16650
| 27>    S       -8.76326        -6.00353         3.05236
| 28>    C       -8.37997        -6.00730         4.75273
| 29>    C       -8.75308        -4.88275         5.40807
| 30>   Br       -7.50396        -7.48516         5.49783
| 31>    C      -10.63722        -0.44704         3.81306
| 32>    O      -10.79316         0.25659         4.78745
| 33>    C      -10.81976        -0.07893         2.38675
| 34>    C      -10.76907         1.17811         1.87467
| 35>    C      -10.31661         2.35597         2.54436
| 36>    C      -10.86608         3.61476         2.33708
| 37>    C      -12.01808         4.01869         1.49524
| 38>    N      -10.22297         4.48730         3.15296
| 39>    C       -9.24751         3.85401         3.86581
| 40>    C       -8.35369         4.59127         4.79402
| 41>    C       -9.25508         2.51682         3.50927
| 42>    C       -8.32976         1.53508         3.99227
| 43>    C       -8.00589         0.40322         3.32596
| 44>    C       -7.28922        -0.73371         3.79823
| 45>    C       -7.12320        -1.11630         5.11351
| 46>    O       -6.35988        -2.22377         5.46636
| 47>    C       -6.00937        -3.04253         4.43940
| 48>    C       -6.27650        -2.70256         3.08209
| 49>    C       -5.88504        -3.66480         2.20988
| 50>    S       -5.16697        -4.99797         3.03333
| 51>    C       -5.41424        -4.25400         4.57019
| 52>    O       -6.85682        -1.51926         2.74138
| 53>    C       -7.79142        -0.51602         6.20558
| 54>    C       -7.52398        -0.80818         7.51689
| 55>    C       -8.29126        -0.30701         8.57209
| 56>    C       -8.04186        -0.53890         9.90556
| 57>    C       -8.80047        -0.07192        11.00274
| 58>    C       -8.31264        -0.44170        12.22087
| 59>    C       -7.13532        -1.21767        12.15309
| 60>    S       -6.67551        -1.47877        10.48590
| 61>    C       -6.39018        -1.71581        13.20585
| 62>    C       -6.64699        -1.58144        14.58775
| 63>    C       -5.71033        -2.16687        15.38278
| 64>    C       -4.65510        -2.79634        14.67406
| 65>    S       -4.91292        -2.62495        12.94772
| 66>    C       -3.58213        -3.43454        15.23760
| 67>    C       -2.51017        -4.05338        14.57271
| 68>    S       -2.31811        -4.16458        12.83022
| 69>    C       -0.82653        -5.01511        12.92189
| 70>    C       -0.46520        -5.22017        14.23294
| 71>    C       -1.41626        -4.67804        15.14898
| 72>    O       -1.03460        -4.89068        16.42601
| 73>    C        0.14647        -5.56061        16.33638
| 74>    N        0.79042        -5.91930        17.54224
| 75>    O        1.84795        -6.51382        17.43606
| 76>    O        0.25587        -5.61534        18.58749
| 77>    C        0.54904        -5.79312        15.04786
| 78>    H       -9.77944        -2.26827         5.84368
| 79>    H      -10.00993        -4.05392         1.16685
| 80>    H       -8.58754        -4.71217         6.45613
| 81>    H      -11.06103         1.32368         0.84091
| 82>    H      -12.95834         3.86078         2.02533
| 83>    H      -12.05055         3.42510         0.58423
| 84>    H      -11.94782         5.07203         1.23087
| 85>    H      -10.44415         5.46769         3.23057
| 86>    H       -8.79486         5.54702         5.06958
| 87>    H       -7.38353         4.78050         4.33291
| 88>    H       -8.18520         4.00998         5.69785
| 89>    H       -7.87162         1.75207         4.94637
| 90>    H       -8.29172         0.31344         2.28619
| 91>    H       -5.96703        -3.66178         1.14333
| 92>    H       -5.10230        -4.74333         5.46903
| 93>    H       -8.61206         0.14464         5.97177
| 94>    H       -6.68224        -1.44403         7.75642
| 95>    H       -9.15143         0.30426         8.32936
| 96>    H       -9.68460         0.52352        10.85703
| 97>    H       -8.76299        -0.17315        13.15938
| 98>    H       -7.51085        -1.05888        14.95727
| 99>    H       -5.73550        -2.16685        16.45796
|100>    H       -3.53260        -3.47042        16.31800
|101>    H       -0.32015        -5.30468        12.02524
|102>    H        1.44266        -6.30099        14.75024
|103> *
|104>
|105>                          ****END OF INPUT****

CARTESIAN COORDINATES (ANGSTROEM)
---------------------------------
  C    -10.902140   -1.310620    1.618520
  C    -11.362210   -1.462000    0.338160
  C    -11.397960   -2.698060   -0.339630
  N    -11.448530   -3.679430   -0.932830
  C    -11.907520   -0.418290   -0.437100
  N    -12.367270    0.395380   -1.104620
  C    -10.390280   -2.374490    2.474770
  C    -10.288440   -1.882890    3.799420
  C     -9.826860   -2.654830    4.837940
  C     -9.365550   -3.940210    4.538160
  C     -9.438000   -4.409860    3.204610
  C     -9.968070   -3.654150    2.166500
  S     -8.763260   -6.003530    3.052360
  C     -8.379970   -6.007300    4.752730
  C     -8.753080   -4.882750    5.408070
  Br    -7.503960   -7.485160    5.497830
  C    -10.637220   -0.447040    3.813060
  O    -10.793160    0.256590    4.787450
  C    -10.819760   -0.078930    2.386750
  C    -10.769070    1.178110    1.874670
  C    -10.316610    2.355970    2.544360
  C    -10.866080    3.614760    2.337080
  C    -12.018080    4.018690    1.495240
  N    -10.222970    4.487300    3.152960
  C     -9.247510    3.854010    3.865810
  C     -8.353690    4.591270    4.794020
  C     -9.255080    2.516820    3.509270
  C     -8.329760    1.535080    3.992270
  C     -8.005890    0.403220    3.325960
  C     -7.289220   -0.733710    3.798230
  C     -7.123200   -1.116300    5.113510
  O     -6.359880   -2.223770    5.466360
  C     -6.009370   -3.042530    4.439400
  C     -6.276500   -2.702560    3.082090
  C     -5.885040   -3.664800    2.209880
  S     -5.166970   -4.997970    3.033330
  C     -5.414240   -4.254000    4.570190
  O     -6.856820   -1.519260    2.741380
  C     -7.791420   -0.516020    6.205580
  C     -7.523980   -0.808180    7.516890
  C     -8.291260   -0.307010    8.572090
  C     -8.041860   -0.538900    9.905560
  C     -8.800470   -0.071920   11.002740
  C     -8.312640   -0.441700   12.220870
  C     -7.135320   -1.217670   12.153090
  S     -6.675510   -1.478770   10.485900
  C     -6.390180   -1.715810   13.205850
  C     -6.646990   -1.581440   14.587750
  C     -5.710330   -2.166870   15.382780
  C     -4.655100   -2.796340   14.674060
  S     -4.912920   -2.624950   12.947720
  C     -3.582130   -3.434540   15.237600
  C     -2.510170   -4.053380   14.572710
  S     -2.318110   -4.164580   12.830220
  C     -0.826530   -5.015110   12.921890
  C     -0.465200   -5.220170   14.232940
  C     -1.416260   -4.678040   15.148980
  O     -1.034600   -4.890680   16.426010
  C      0.146470   -5.560610   16.336380
  N      0.790420   -5.919300   17.542240
  O      1.847950   -6.513820   17.436060
  O      0.255870   -5.615340   18.587490
  C      0.549040   -5.793120   15.047860
  H     -9.779440   -2.268270    5.843680
  H    -10.009930   -4.053920    1.166850
  H     -8.587540   -4.712170    6.456130
  H    -11.061030    1.323680    0.840910
  H    -12.958340    3.860780    2.025330
  H    -12.050550    3.425100    0.584230
  H    -11.947820    5.072030    1.230870
  H    -10.444150    5.467690    3.230570
  H     -8.794860    5.547020    5.069580
  H     -7.383530    4.780500    4.332910
  H     -8.185200    4.009980    5.697850
  H     -7.871620    1.752070    4.946370
  H     -8.291720    0.313440    2.286190
  H     -5.967030   -3.661780    1.143330
  H     -5.102300   -4.743330    5.469030
  H     -8.612060    0.144640    5.971770
  H     -6.682240   -1.444030    7.756420
  H     -9.151430    0.304260    8.329360
  H     -9.684600    0.523520   10.857030
  H     -8.762990   -0.173150   13.159380
  H     -7.510850   -1.058880   14.957270
  H     -5.735500   -2.166850   16.457960
  H     -3.532600   -3.470420   16.318000
  H     -0.320150   -5.304680   12.025240
  H      1.442660   -6.300990   14.750240

 Total Charge           Charge          ....    0
 Multiplicity           Mult            ....    1
 Number of Electrons    NEL             ....  498
 Basis Dimension        Dim             .... 1045

ORBITAL ENERGIES
----------------

  NO   OCC          E(Eh)            E(eV)
   0   2.0000    -482.882161    -13139.8916
   1   2.0000     -88.970881     -2421.0208
   2   2.0000     -88.969572     -2420.9851
   3   2.0000     -88.953501     -2420.5478
   4   2.0000     -88.945312     -2420.3250
   5   2.0000     -88.943008     -2420.2623
   6   2.0000     -62.559826     -1702.3394
   7   2.0000     -56.393735     -1534.5515
   8   2.0000     -56.391078     -1534.4792
   9   2.0000     -56.391060     -1534.4788
  10   2.0000     -19.304429      -525.3002
  11   2.0000     -19.271525      -524.4048
  12   2.0000     -19.268029      -524.3097
  13   2.0000     -19.239645      -523.5374
  14   2.0000     -19.237323      -523.4742
  15   2.0000     -19.208960      -522.7024
  16   2.0000     -14.651143      -398.6779
  17   2.0000     -14.478054      -393.9679
  18   2.0000     -14.413607      -392.2142
  19   2.0000     -14.409988      -392.1157
  20   2.0000     -10.382426      -282.5202
  21   2.0000     -10.361814      -281.9593
  22   2.0000     -10.352721      -281.7119
  23   2.0000     -10.343324      -281.4562
  24   2.0000     -10.340217      -281.3716
  25   2.0000     -10.337924      -281.3092
  26   2.0000     -10.336763      -281.2776
  27   2.0000     -10.336077      -281.2590
  28   2.0000     -10.335995      -281.2567
  29   2.0000     -10.335551      -281.2446
  30   2.0000     -10.322197      -280.8813
  31   2.0000     -10.320135      -280.8251
  32   2.0000     -10.316818      -280.7349
  33   2.0000     -10.315061      -280.6871
  34   2.0000     -10.313307      -280.6393
  35   2.0000     -10.312904      -280.6284
  36   2.0000     -10.312546      -280.6186
  37   2.0000     -10.310873      -280.5731
  38   2.0000     -10.308059      -280.4965
  39   2.0000     -10.307255      -280.4747
  40   2.0000     -10.306995      -280.4676
  41   2.0000     -10.305973      -280.4398
  42   2.0000     -10.303569      -280.3744
  43   2.0000     -10.303163      -280.3633
  44   2.0000     -10.301191      -280.3096
  45   2.0000     -10.300269      -280.2846
  46   2.0000     -10.294030      -280.1148
  47   2.0000     -10.293009      -280.0870
  48   2.0000     -10.290036      -280.0061
  49   2.0000     -10.289949      -280.0038
  50   2.0000     -10.289466      -279.9906
  51   2.0000     -10.289339      -279.9871
  52   2.0000     -10.289225      -279.9840
  53   2.0000     -10.288542      -279.9655
  54   2.0000     -10.286371      -279.9064
  55   2.0000     -10.285736      -279.8891
  56   2.0000     -10.285634      -279.8863
  57   2.0000     -10.285221      -279.8751
  58   2.0000     -10.284530      -279.8563
  59   2.0000     -10.284328      -279.8508
  60   2.0000     -10.281853      -279.7834
  61   2.0000     -10.278473      -279.6915
  62   2.0000     -10.276808      -279.6462
  63   2.0000     -10.274835      -279.5925
  64   2.0000     -10.273778      -279.5637
  65   2.0000     -10.272922      -279.5404
  66   2.0000     -10.271495      -279.5016
  67   2.0000      -8.789252      -239.1677
  68   2.0000      -8.065390      -219.4704
  69   2.0000      -8.065330      -219.4688
  70   2.0000      -8.048983      -219.0240
  71   2.0000      -8.041462      -218.8193
  72   2.0000      -8.039304      -218.7606
  73   2.0000      -6.625433      -180.2872
  74   2.0000      -6.611084      -179.8967
  75   2.0000      -6.610817      -179.8895
  76   2.0000      -6.035020      -164.2212
  77   2.0000      -6.034720      -164.2131
  78   2.0000      -6.030790      -164.1061
  79   2.0000      -6.030322      -164.0934
  80   2.0000      -6.027818      -164.0253
  81   2.0000      -6.026536      -163.9904
  82   2.0000      -6.018523      -163.7723
  83   2.0000      -6.014374      -163.6594
  84   2.0000      -6.011236      -163.5740
  85   2.0000      -6.010620      -163.5573
  86   2.0000      -6.009000      -163.5132
  87   2.0000      -6.007155      -163.4630
  88   2.0000      -6.005068      -163.4062
  89   2.0000      -6.002338      -163.3319
  90   2.0000      -6.000197      -163.2737
  91   2.0000      -2.741335       -74.5955
  92   2.0000      -2.737322       -74.4863
  93   2.0000      -2.737121       -74.4809
  94   2.0000      -2.725714       -74.1704
  95   2.0000      -2.725701       -74.1701
  96   2.0000      -1.322191       -35.9786
  97   2.0000      -1.224194       -33.3120
  98   2.0000      -1.194843       -32.5133
  99   2.0000      -1.157718       -31.5031
 100   2.0000      -1.138319       -30.9752
 101   2.0000      -1.124389       -30.5962
 102   2.0000      -1.095595       -29.8127
 103   2.0000      -1.017846       -27.6970
 104   2.0000      -1.008675       -27.4474
 105   2.0000      -0.996287       -27.1103
 106   2.0000      -0.990777       -26.9604
 107   2.0000      -0.989070       -26.9140
 108   2.0000      -0.985386       -26.8137
 109   2.0000      -0.981236       -26.7008
 110   2.0000      -0.970725       -26.4148
 111   2.0000      -0.939977       -25.5781
 112   2.0000      -0.931021       -25.3344
 113   2.0000      -0.928120       -25.2554
 114   2.0000      -0.915167       -24.9029
 115   2.0000      -0.904378       -24.6094
 116   2.0000      -0.903825       -24.5943
 117   2.0000      -0.896524       -24.3957
 118   2.0000      -0.888383       -24.1741
 119   2.0000      -0.880393       -23.9567
 120   2.0000      -0.878571       -23.9071
 121   2.0000      -0.874376       -23.7930
 122   2.0000      -0.859424       -23.3861
 123   2.0000      -0.846918       -23.0458
 124   2.0000      -0.840760       -22.8783
 125   2.0000      -0.832744       -22.6601
 126   2.0000      -0.831151       -22.6168
 127   2.0000      -0.825893       -22.4737
 128   2.0000      -0.822841       -22.3907
 129   2.0000      -0.822458       -22.3802
 130   2.0000      -0.811038       -22.0695
 131   2.0000      -0.800354       -21.7788
 132   2.0000      -0.783051       -21.3079
 133   2.0000      -0.776424       -21.1276
 134   2.0000      -0.770637       -20.9701
 135   2.0000      -0.753676       -20.5086
 136   2.0000      -0.752488       -20.4762
 137   2.0000      -0.736985       -20.0544
 138   2.0000      -0.724039       -19.7021
 139   2.0000      -0.709067       -19.2947
 140   2.0000      -0.702686       -19.1210
 141   2.0000      -0.699812       -19.0429
 142   2.0000      -0.687454       -18.7066
 143   2.0000      -0.686796       -18.6887
 144   2.0000      -0.680611       -18.5204
 145   2.0000      -0.678489       -18.4626
 146   2.0000      -0.672926       -18.3113
 147   2.0000      -0.669102       -18.2072
 148   2.0000      -0.657082       -17.8801
 149   2.0000      -0.648820       -17.6553
 150   2.0000      -0.648344       -17.6423
 151   2.0000      -0.640865       -17.4388
 152   2.0000      -0.636136       -17.3101
 153   2.0000      -0.631235       -17.1768
 154   2.0000      -0.629414       -17.1272
 155   2.0000      -0.622696       -16.9444
 156   2.0000      -0.617364       -16.7993
 157   2.0000      -0.616500       -16.7758
 158   2.0000      -0.611785       -16.6475
 159   2.0000      -0.604425       -16.4472
 160   2.0000      -0.595739       -16.2109
 161   2.0000      -0.593825       -16.1588
 162   2.0000      -0.584602       -15.9078
 163   2.0000      -0.583634       -15.8815
 164   2.0000      -0.580507       -15.7964
 165   2.0000      -0.577280       -15.7086
 166   2.0000      -0.570212       -15.5163
 167   2.0000      -0.567500       -15.4425
 168   2.0000      -0.565925       -15.3996
 169   2.0000      -0.561177       -15.2704
 170   2.0000      -0.552289       -15.0285
 171   2.0000      -0.549267       -14.9463
 172   2.0000      -0.547597       -14.9009
 173   2.0000      -0.545279       -14.8378
 174   2.0000      -0.542913       -14.7734
 175   2.0000      -0.536115       -14.5884
 176   2.0000      -0.533610       -14.5203
 177   2.0000      -0.530772       -14.4431
 178   2.0000      -0.523217       -14.2375
 179   2.0000      -0.520428       -14.1616
 180   2.0000      -0.515854       -14.0371
 181   2.0000      -0.514177       -13.9915
 182   2.0000      -0.513012       -13.9598
 183   2.0000      -0.511246       -13.9117
 184   2.0000      -0.508599       -13.8397
 185   2.0000      -0.504857       -13.7379
 186   2.0000      -0.504131       -13.7181
 187   2.0000      -0.500975       -13.6322
 188   2.0000      -0.499472       -13.5913
 189   2.0000      -0.496622       -13.5138
 190   2.0000      -0.493861       -13.4386
 191   2.0000      -0.491081       -13.3630
 192   2.0000      -0.489138       -13.3101
 193   2.0000      -0.488522       -13.2934
 194   2.0000      -0.486659       -13.2427
 195   2.0000      -0.484694       -13.1892
 196   2.0000      -0.478412       -13.0183
 197   2.0000      -0.475664       -12.9435
 198   2.0000      -0.474052       -12.8996
 199   2.0000      -0.472600       -12.8601
 200   2.0000      -0.470939       -12.8149
 201   2.0000      -0.470497       -12.8029
 202   2.0000      -0.467579       -12.7235
 203   2.0000      -0.461685       -12.5631
 204   2.0000      -0.459214       -12.4959
 205   2.0000      -0.455544       -12.3960
 206   2.0000      -0.453968       -12.3531
 207   2.0000      -0.451384       -12.2828
 208   2.0000      -0.449009       -12.2182
 209   2.0000      -0.446562       -12.1516
 210   2.0000      -0.442591       -12.0435
 211   2.0000      -0.440298       -11.9811
 212   2.0000      -0.439658       -11.9637
 213   2.0000      -0.438126       -11.9220
 214   2.0000      -0.433876       -11.8064
 215   2.0000      -0.428247       -11.6532
 216   2.0000      -0.427263       -11.6264
 217   2.0000      -0.423766       -11.5313
 218   2.0000      -0.419719       -11.4211
 219   2.0000      -0.415063       -11.2944
 220   2.0000      -0.413884       -11.2623
 221   2.0000      -0.412358       -11.2208
 222   2.0000      -0.407391       -11.0857
 223   2.0000      -0.404539       -11.0081
 224   2.0000      -0.396920       -10.8008
 225   2.0000      -0.392570       -10.6824
 226   2.0000      -0.388530       -10.5724
 227   2.0000      -0.385427       -10.4880
 228   2.0000      -0.383102       -10.4247
 229   2.0000      -0.376912       -10.2563
 230   2.0000      -0.374137       -10.1808
 231   2.0000      -0.371216       -10.1013
 232   2.0000      -0.368286       -10.0216
 233   2.0000      -0.367079        -9.9887
 234   2.0000      -0.353108        -9.6086
 235   2.0000      -0.340846        -9.2749
 236   2.0000      -0.337135        -9.1739
 237   2.0000      -0.328953        -8.9513
 238   2.0000      -0.327666        -8.9162
 239   2.0000      -0.323735        -8.8093
 240   2.0000      -0.310696        -8.4545
 241   2.0000      -0.306511        -8.3406
 242   2.0000      -0.301277        -8.1982
 243   2.0000      -0.285207        -7.7609
 244   2.0000      -0.283240        -7.7073
 245   2.0000      -0.278343        -7.5741
 246   2.0000      -0.277080        -7.5397
 247   2.0000      -0.244422        -6.6511
 248   2.0000      -0.201172        -5.4742
 249   0.0000      -0.085783        -2.3343
 250   0.0000      -0.077591        -2.1114
 251   0.0000      -0.059528        -1.6198
 252   0.0000      -0.052263        -1.4222
 253   0.0000      -0.022411        -0.6098

MULLIKEN ATOMIC CHARGES
-----------------------
   0 C :    0.302906
   1 C :   -0.348837
   2 C :   -0.186355
   3 N :    0.148334
   4 C :   -0.189517
   5 N :    0.144119
   6 C :    0.025119
   7 C :   -0.017422
   8 C :   -0.053285
   9 C :    0.083680
  10 C :   -0.068860
  11 C :   -0.035972
  12 S :    0.182485
  13 C :   -0.123732
  14 C :    0.059814
  15 Br:    0.015655
  16 C :    0.159245
  17 O :   -0.151353
  18 C :   -0.119349
  19 C :   -0.074150
  20 C :    0.049225
  21 C :   -0.137709
  22 C :    0.128517
  23 N :   -0.028719
  24 C :   -0.158164
  25 C :    0.123449
  26 C :    0.085455
  27 C :   -0.043654
  28 C :   -0.024558
  29 C :    0.173082
  30 C :    0.157318
  31 O :   -0.271140
  32 C :    0.232351
  33 C :    0.226052
  34 C :   -0.184997
  35 S :    0.104874
  36 C :   -0.180330
  37 O :   -0.254360
  38 C :   -0.111066
  39 C :    0.006422
  40 C :   -0.018972
  41 C :   -0.019193
  42 C :    0.038671
  43 C :    0.017946
  44 C :   -0.043045
  45 S :    0.075960
  46 C :   -0.040946
  47 C :    0.026850
  48 C :    0.032680
  49 C :   -0.024702
  50 S :    0.059710
  51 C :   -0.018805
  52 C :   -0.189093
  53 S :    0.139229
  54 C :   -0.134586
  55 C :    0.126885
  56 C :    0.190099
  57 O :   -0.184965
  58 C :    0.234177
  59 N :    0.274190
  60 O :   -0.252480
  61 O :   -0.232663
  62 C :   -0.072906
  63 H :   -0.007747
  64 H :   -0.008117
  65 H :   -0.002675
  66 H :    0.020520
  67 H :    0.049890
  68 H :    0.041891
  69 H :    0.010228
  70 H :    0.120615
  71 H :    0.004340
  72 H :    0.045290
  73 H :    0.039880
  74 H :   -0.009913
  75 H :    0.009757
  76 H :    0.024386
  77 H :    0.021137
  78 H :    0.023971
  79 H :    0.007565
  80 H :   -0.009353
  81 H :   -0.013421
  82 H :   -0.014909
  83 H :   -0.015260
  84 H :   -0.010201
  85 H :    0.003240
  86 H :    0.029188
  87 H :    0.011084
Sum of atomic charges:   -0.0000000

LOEWDIN ATOMIC CHARGES
----------------------
   0 C :    0.083237
   1 C :   -0.149189
   2 C :   -0.020006
   3 N :   -0.057719
   4 C :   -0.017541
   5 N :   -0.062123
   6 C :   -0.019286
   7 C :   -0.051457
   8 C :    0.024897
   9 C :   -0.034812
  10 C :   -0.140855
  11 C :   -0.010562
  12 S :    0.434025
  13 C :   -0.271379
  14 C :   -0.064780
  15 Br:    0.133776
  16 C :    0.085622
  17 O :   -0.147835
  18 C :   -0.097506
  19 C :    0.075780
  20 C :   -0.084804
  21 C :    0.019138
  22 C :   -0.050453
  23 N :    0.097052
  24 C :    0.000865
  25 C :   -0.051276
  26 C :   -0.065797
  27 C :    0.005417
  28 C :   -0.055725
  29 C :    0.030469
  30 C :    0.013729
  31 O :   -0.059987
  32 C :   -0.009589
  33 C :   -0.010381
  34 C :   -0.214684
  35 S :    0.433250
  36 C :   -0.212266
  37 O :   -0.053672
  38 C :   -0.036524
  39 C :   -0.040553
  40 C :   -0.050127
  41 C :   -0.152754
  42 C :   -0.030202
  43 C :   -0.038250
  44 C :   -0.172261
  45 S :    0.369245
  46 C :   -0.185256
  47 C :   -0.034166
  48 C :   -0.036104
  49 C :   -0.149924
  50 S :    0.360798
  51 C :   -0.077273
  52 C :   -0.201907
  53 S :    0.470525
  54 C :   -0.195483
  55 C :   -0.084553
  56 C :    0.016941
  57 O :    0.000569
  58 C :    0.023835
  59 N :    0.272489
  60 O :   -0.213299
  61 O :   -0.194136
  62 C :   -0.009439
  63 H :    0.040860
  64 H :    0.040064
  65 H :    0.039263
  66 H :    0.041373
  67 H :    0.046624
  68 H :    0.048534
  69 H :    0.033811
  70 H :    0.090428
  71 H :    0.032128
  72 H :    0.043727
  73 H :    0.043755
  74 H :    0.029588
  75 H :    0.036297
  76 H :    0.028393
  77 H :    0.026303
  78 H :    0.035154
  79 H :    0.024058
  80 H :    0.034890
  81 H :    0.033408
  82 H :    0.031034
  83 H :    0.031558
  84 H :    0.034108
  85 H :    0.045315
  86 H :    0.027381
  87 H :    0.046183

  Mayer bond orders larger than 0.100000
B(  0-C ,  1-C ) :   1.6404 B(  0-C ,  6-C ) :   1.0038 B(  0-C , 18-C ) :   1.0479
B(  1-C ,  2-C ) :   1.1318 B(  1-C ,  4-C ) :   1.1469 B(  2-C ,  3-N ) :   2.9852
B(  4-C ,  5-N ) :   2.9906 B(  6-C ,  7-C ) :   1.2772 B(  6-C , 11-C ) :   1.4007
B(  7-C ,  8-C ) :   1.4195 B(  7-C , 16-C ) :   0.9374 B(  8-C ,  9-C ) :   1.2684
B(  8-C , 63-H ) :   1.0029 B(  9-C , 10-C ) :   1.3058 B(  9-C , 14-C ) :   1.1654
B( 10-C , 11-C ) :   1.3269 B( 10-C , 12-S ) :   1.0853 B( 11-C , 64-H ) :   0.9841
B( 12-S , 13-C ) :   1.0877 B( 13-C , 14-C ) :   1.6109 B( 13-C , 15-Br) :   1.0157
B( 14-C , 65-H ) :   1.0030 B( 16-C , 17-O ) :   2.1990 B( 16-C , 18-C ) :   0.9308
B( 18-C , 19-C ) :   1.6658 B( 19-C , 20-C ) :   1.1033 B( 19-C , 66-H ) :   0.9348
B( 20-C , 21-C ) :   1.4253 B( 20-C , 26-C ) :   1.1954 B( 21-C , 22-C ) :   1.1197
B( 21-C , 23-N ) :   1.2439 B( 22-C , 67-H ) :   0.9417 B( 22-C , 68-H ) :   0.9340
B( 22-C , 69-H ) :   0.9364 B( 23-N , 24-C ) :   1.2007 B( 23-N , 70-H ) :   0.9334
B( 24-C , 25-C ) :   1.1091 B( 24-C , 26-C ) :   1.4679 B( 25-C , 71-H ) :   0.9386
B( 25-C , 72-H ) :   0.9438 B( 25-C , 73-H ) :   0.9403 B( 26-C , 27-C ) :   1.1134
B( 27-C , 28-C ) :   1.6679 B( 27-C , 74-H ) :   0.9567 B( 28-C , 29-C ) :   1.1803
B( 28-C , 75-H ) :   0.9380 B( 29-C , 30-C ) :   1.4682 B( 29-C , 37-O ) :   1.0490
B( 30-C , 31-O ) :   1.0471 B( 30-C , 38-C ) :   1.1771 B( 31-O , 32-C ) :   1.0534
B( 32-C , 33-C ) :   1.2020 B( 32-C , 36-C ) :   1.5650 B( 33-C , 34-C ) :   1.5641
B( 33-C , 37-O ) :   1.0527 B( 34-C , 35-S ) :   1.1380 B( 34-C , 76-H ) :   0.9736
B( 35-S , 36-C ) :   1.1381 B( 36-C , 77-H ) :   0.9734 B( 38-C , 39-C ) :   1.5779
B( 38-C , 78-H ) :   0.9572 B( 39-C , 40-C ) :   1.1536 B( 39-C , 79-H ) :   0.9823
B( 40-C , 41-C ) :   1.5372 B( 40-C , 80-H ) :   0.9866 B( 41-C , 42-C ) :   1.1553
B( 41-C , 45-S ) :   1.0271 B( 42-C , 43-C ) :   1.5747 B( 42-C , 81-H ) :   1.0003
B( 43-C , 44-C ) :   1.1952 B( 43-C , 82-H ) :   0.9946 B( 44-C , 45-S ) :   1.0491
B( 44-C , 46-C ) :   1.5041 B( 46-C , 47-C ) :   1.1908 B( 46-C , 50-S ) :   1.0344
B( 47-C , 48-C ) :   1.5888 B( 47-C , 83-H ) :   0.9924 B( 48-C , 49-C ) :   1.1422
B( 48-C , 84-H ) :   1.0008 B( 49-C , 50-S ) :   1.0366 B( 49-C , 51-C ) :   1.5650
B( 51-C , 52-C ) :   1.1761 B( 51-C , 85-H ) :   0.9734 B( 52-C , 53-S ) :   1.1086
B( 52-C , 54-C ) :   0.1084 B( 52-C , 56-C ) :   1.4404 B( 53-S , 54-C ) :   1.1827
B( 54-C , 55-C ) :   1.4150 B( 54-C , 86-H ) :   0.9758 B( 55-C , 56-C ) :   1.2305
B( 55-C , 62-C ) :   1.0621 B( 56-C , 57-O ) :   1.1207 B( 57-O , 58-C ) :   1.1236
B( 58-C , 59-N ) :   0.9186 B( 58-C , 62-C ) :   1.5729 B( 59-N , 60-O ) :   1.5303
B( 59-N , 61-O ) :   1.5137 B( 60-O , 61-O ) :   0.2788 B( 62-C , 87-H ) :   1.0254

-----------------------------------------------------------------------------
         ABSORPTION SPECTRUM VIA TRANSITION ELECTRIC DIPOLE MOMENTS
-----------------------------------------------------------------------------
State   Energy  Wavelength   fosc         T2         TX        TY        TZ
        (cm-1)    (nm)                  (au**2)     (au)      (au)      (au)
-----------------------------------------------------------------------------
   0   11834.2    845.0   0.786134670  21.86929  -2.16012   1.49855  -3.86750
   1   13837.1    722.7   0.546122300  12.99331   1.76550  -1.24351   2.88618
   2   16614.4    601.9   0.047722114   0.94561  -0.75501   0.47312  -0.38951
   3   18569.5    538.5   0.247449185   4.38693  -0.26775   0.31121  -2.05387
   4   19750.1    506.3   0.034258823   0.57106  -0.60600   0.20533   0.40207
   5   22401.7    446.4   0.038858379   0.57106   0.61695  -0.41229  -0.14300
   6   24300.8    411.5   0.215711013   2.92232  -0.57300   1.57493   0.33702
   7   24866.1    402.2   0.132784960   1.75799  -1.11447  -0.69580   0.17836
   8   25373.4    394.1   0.152185032   1.97456  -0.14524  -1.35880  -0.32732
   9   25803.5    387.5   0.125045314   1.59538   0.93151  -0.26758  -0.80999
  10   27016.1    370.2   0.033976122   0.41403  -0.07969  -0.37049   0.52001
  11   27754.6    360.3   0.148353288   1.75970   0.10214   0.51507  -1.21818
  12   28026.0    356.8   0.112726214   1.32416  -0.74505   0.83361   0.27233
  13   28096.7    355.9   0.062975759   0.73789  -0.38115  -0.76979  -0.00687
  14   29110.9    343.5   0.012242478   0.13845  -0.12862   0.34914   0.00283
  15   29364.3    340.5   0.049666389   0.55683   0.50289  -0.37917   0.40020
  16   29671.1    337.0   0.013117757   0.14555  -0.07709  -0.27638   0.25143
  17   29880.3    334.7   0.002033963   0.02241  -0.05872   0.10697  -0.08671
  18   30470.8    328.2   0.301509433   3.25756   1.05321  -1.26963   0.73237
  19   30954.8    323.1   0.000561072   0.00597  -0.07681   0.00809  -0.00145
  20   31251.6    320.0   0.078195777   0.82373   0.26100  -0.13645  -0.85849
  21   31429.3    318.2   0.028931695   0.30305   0.28246   0.38764   0.27018
  22   31726.4    315.2   0.199504752   2.07018   0.33992  -0.03137  -1.39773
  23   32242.0    310.2   0.188885902   1.92865  -0.69959   1.19298  -0.12660
  24   32473.6    307.9   0.043863492   0.44468  -0.13847   0.47864   0.44319
  25   32791.4    305.0   0.133514415   1.34043  -0.16444  -0.13820  -1.13767
  26   32916.8    303.8   0.133037048   1.33055   0.45546  -0.98198  -0.39851
  27   33246.5    300.8   0.089524111   0.88648  -0.72205   0.58344  -0.15725
  28   33597.7    297.6   0.022936720   0.22475   0.40266  -0.15833   0.19376
  29   34180.6    292.6   0.487541857   4.69578  -0.85918   1.21434  -1.57574
  30   34525.2    289.6   0.196147958   1.87035  -0.14005   1.30548   0.38272
  31   34845.0    287.0   0.058458198   0.55231  -0.40847   0.60979   0.11667
  32   35097.6    284.9   0.050086331   0.46980  -0.10321   0.16082   0.65825
  33   35598.1    280.9   0.145476073   1.34536  -0.85111   0.21517  -0.75808
  34   36127.8    276.8   0.050605336   0.46114   0.54927  -0.38466  -0.10713
  35   36308.0    275.4   0.066853256   0.60617   0.39522  -0.33151   0.58316
  36   37131.5    269.3   0.105556280   0.93587  -0.45279   0.48776  -0.70210
  37   37230.0    268.6   0.156989125   1.38820  -0.72952   0.56130  -0.73549
  38   37982.9    263.3   0.022131070   0.19182  -0.12712   0.41585   0.05222
  39   38211.2    261.7   0.018332265   0.15794   0.34294  -0.03058   0.19850
  40   38551.0    259.4   0.011574093   0.09884   0.30324  -0.08011  -0.02160
  41   38769.9    257.9   0.076352108   0.64834   0.15973  -0.72145   0.31989
  42   39051.1    256.1   0.208196053   1.75515   0.33315   0.19303   1.26764
  43   39232.4    254.9   0.093027113   0.78062  -0.05219   0.82219   0.31921
  44   39513.2    253.1   0.038083568   0.31730  -0.16603   0.37180   0.38922
  45   40079.1    249.5   0.006848765   0.05626   0.09488   0.21534  -0.02968

FINAL SINGLE POINT ENERGY     -7037.363002751857

DIPOLE MOMENT
-------------
                                X             Y             Z
Electronic contribution:     16.04374     -99.61370      -7.22854
Nuclear contribution   :    -16.97088     103.01036       6.89507
                        -----------------------------------------
Total Dipole Moment    :     -0.92714       3.39666      -0.33348
                        -----------------------------------------
Magnitude (a.u.)       :      3.53668
Magnitude (Debye)      :      8.98953

Rotational constants in cm-1:     0.001632     0.000403     0.000350
Rotational constants in MHz :    48.927432    12.075563    10.484305

                             ****ORCA TERMINATED NORMALLY****
TOTAL RUN TIME: 0 days 0 hours 9 minutes 32 seconds 0 msec
