                         Program Version 4.2.0 -  RELEASE  -
|  1> # ORCA input file
|  2> # SCF done       -155.722586366463          0.000679118394
|  3> ! CAM-B3LYP def2-SVP def2/J RIJCOSX Grid4 TightSCF
|  4> %maxcore 5000
|  5> %tddft
|  6>     Mode sTDDFT
|  7>     Ethresh 5.0
|  8>     maxcore 5000
|  9> end
| 10>
| 11> %pal
| 12>   nprocs 6
| 13>   end
| 14> * xyz 0 1
| 15>    C       -6.06471        -7.44895        -1.63976
| 16>    C       -5.91100        -7.71386        -0.29561
| 17>    C       -5.67745        -8.99879         0.23167
| 18>    N       -5.48430       -10.01512         0.73244
| 19>    C       -5.96472        -6.77572         0.75182
| 20>    N       -6.00258        -6.08947         1.67583
| 21>    C       -6.02740        -8.44951        -2.69987
| 22>    C       -6.23755        -7.80233        -3.94286
| 23>    C       -6.26061        -8.47586        -5.13815
| 24>    C       -6.06770        -9.86182        -5.10935
| 25>    C       -5.86117       -10.50138        -3.86508
| 26>    C       -5.83709        -9.81865        -2.65517
| 27>    S       -5.64770       -12.21629        -4.05674
| 28>    C       -5.83548       -12.05012        -5.78269
| 29>    C       -6.04760       -10.77852        -6.19595
| 30>   Br       -5.73527       -13.57189        -6.87574
| 31>    C       -6.41681        -6.35614        -3.70869
| 32>    O       -6.61937        -5.51041        -4.56172
| 33>    C       -6.30044        -6.16427        -2.26081
| 34>    C       -6.39344        -4.97327        -1.58059
| 35>    C       -6.62669        -3.66782        -2.02313
| 36>    S       -6.79643        -3.17632        -3.68877
| 37>    C       -6.93709        -1.54482        -3.20494
| 38>    C       -6.85411        -1.33649        -1.85538
| 39>    C       -7.00018         0.01811        -1.24336
| 40>    C       -6.68132        -2.55348        -1.15097
| 41>    C       -6.61547        -2.70653         0.27494
| 42>    C       -6.12737        -1.82490         1.17346
| 43>    C       -6.07991        -2.13186         2.56721
| 44>    C       -5.56399        -1.29656         3.49157
| 45>    C       -5.44849        -1.53717         4.90601
| 46>    C       -5.27436        -2.70557         5.54200
| 47>    C       -5.13093        -4.04141         4.88819
| 48>    C       -5.15125        -2.72062         7.05017
| 49>    N       -5.99231        -3.71910         7.66691
| 50>    C       -7.33354        -3.73065         7.54237
| 51>    C       -8.13625        -4.69667         8.06562
| 52>    C       -9.53632        -4.69060         7.95401
| 53>    C      -10.36551        -5.61825         8.53065
| 54>    C      -11.77588        -5.68163         8.45428
| 55>    C      -12.33437        -6.70812         9.15598
| 56>    C      -11.39683        -7.51640         9.83387
| 57>    S       -9.77296        -6.93843         9.53805
| 58>    C      -11.64570        -8.60963        10.64290
| 59>    C      -12.88154        -9.19388        10.97923
| 60>    C      -12.78070       -10.26369        11.81970
| 61>    C      -11.45983       -10.59446        12.20482
| 62>    S      -10.34431        -9.47794        11.43638
| 63>    C      -11.13543       -11.63019        13.05027
| 64>    C       -9.90490       -12.08184        13.53649
| 65>    S       -9.94445       -13.47231        14.61840
| 66>    C       -8.22157       -13.53087        14.85717
| 67>    C       -7.63305       -12.50361        14.12247
| 68>    C       -8.56589       -11.70545        13.39363
| 69>    N       -7.82792       -10.76887        12.74983
| 70>    N       -6.52085       -10.90824        13.00930
| 71>    C       -6.37361       -11.92605        13.81842
| 72>    C       -7.66312       -14.53317        15.70079
| 73>    C       -6.36034       -14.69490        15.95414
| 74>    H       -6.42292        -7.95187        -6.06701
| 75>    H       -5.67563       -10.35418        -1.73480
| 76>    H       -6.18453       -10.49611        -7.22386
| 77>    H       -6.25455        -5.04857        -0.51141
| 78>    H       -7.08736        -0.78745        -3.95109
| 79>    H       -7.50795         0.68488        -1.93657
| 80>    H       -6.02360         0.44737        -1.01957
| 81>    H       -7.57276        -0.03906        -0.31997
| 82>    H       -6.96780        -3.65092         0.67059
| 83>    H       -5.69770        -0.88521         0.86085
| 84>    H       -6.50202        -3.08031         2.86187
| 85>    H       -5.22573        -0.31862         3.16704
| 86>    H       -5.45310        -0.63620         5.51086
| 87>    H       -4.72741        -3.94455         3.88381
| 88>    H       -6.09346        -4.54821         4.81458
| 89>    H       -4.46981        -4.67771         5.47449
| 90>    H       -5.40847        -1.73382         7.45337
| 91>    H       -4.11617        -2.93861         7.32986
| 92>    H       -5.56022        -4.53185         8.07658
| 93>    H       -7.75432        -2.88891         7.00903
| 94>    H       -7.68530        -5.51684         8.60929
| 95>    H      -10.00052        -3.90009         7.37864
| 96>    H      -12.33574        -4.96330         7.88099
| 97>    H      -13.39080        -6.90208         9.20769
| 98>    H      -13.81133        -8.81361        10.59577
| 99>    H      -13.62128       -10.82991        12.18080
|100>    H      -11.98659       -12.19875        13.40698
|101>    H       -8.13707       -10.03303        12.13757
|102>    H       -5.39665       -12.20879        14.15276
|103>    H       -8.38488       -15.20044        16.15480
|104>    H       -5.61252       -14.05569        15.52149
|105>    H       -6.01399       -15.47852        16.60384
|106> *
|107>
|108>                          ****END OF INPUT****

CARTESIAN COORDINATES (ANGSTROEM)
---------------------------------
  C     -6.064710   -7.448950   -1.639760
  C     -5.911000   -7.713860   -0.295610
  C     -5.677450   -8.998790    0.231670
  N     -5.484300  -10.015120    0.732440
  C     -5.964720   -6.775720    0.751820
  N     -6.002580   -6.089470    1.675830
  C     -6.027400   -8.449510   -2.699870
  C     -6.237550   -7.802330   -3.942860
  C     -6.260610   -8.475860   -5.138150
  C     -6.067700   -9.861820   -5.109350
  C     -5.861170  -10.501380   -3.865080
  C     -5.837090   -9.818650   -2.655170
  S     -5.647700  -12.216290   -4.056740
  C     -5.835480  -12.050120   -5.782690
  C     -6.047600  -10.778520   -6.195950
  Br    -5.735270  -13.571890   -6.875740
  C     -6.416810   -6.356140   -3.708690
  O     -6.619370   -5.510410   -4.561720
  C     -6.300440   -6.164270   -2.260810
  C     -6.393440   -4.973270   -1.580590
  C     -6.626690   -3.667820   -2.023130
  S     -6.796430   -3.176320   -3.688770
  C     -6.937090   -1.544820   -3.204940
  C     -6.854110   -1.336490   -1.855380
  C     -7.000180    0.018110   -1.243360
  C     -6.681320   -2.553480   -1.150970
  C     -6.615470   -2.706530    0.274940
  C     -6.127370   -1.824900    1.173460
  C     -6.079910   -2.131860    2.567210
  C     -5.563990   -1.296560    3.491570
  C     -5.448490   -1.537170    4.906010
  C     -5.274360   -2.705570    5.542000
  C     -5.130930   -4.041410    4.888190
  C     -5.151250   -2.720620    7.050170
  N     -5.992310   -3.719100    7.666910
  C     -7.333540   -3.730650    7.542370
  C     -8.136250   -4.696670    8.065620
  C     -9.536320   -4.690600    7.954010
  C    -10.365510   -5.618250    8.530650
  C    -11.775880   -5.681630    8.454280
  C    -12.334370   -6.708120    9.155980
  C    -11.396830   -7.516400    9.833870
  S     -9.772960   -6.938430    9.538050
  C    -11.645700   -8.609630   10.642900
  C    -12.881540   -9.193880   10.979230
  C    -12.780700  -10.263690   11.819700
  C    -11.459830  -10.594460   12.204820
  S    -10.344310   -9.477940   11.436380
  C    -11.135430  -11.630190   13.050270
  C     -9.904900  -12.081840   13.536490
  S     -9.944450  -13.472310   14.618400
  C     -8.221570  -13.530870   14.857170
  C     -7.633050  -12.503610   14.122470
  C     -8.565890  -11.705450   13.393630
  N     -7.827920  -10.768870   12.749830
  N     -6.520850  -10.908240   13.009300
  C     -6.373610  -11.926050   13.818420
  C     -7.663120  -14.533170   15.700790
  C     -6.360340  -14.694900   15.954140
  H     -6.422920   -7.951870   -6.067010
  H     -5.675630  -10.354180   -1.734800
  H     -6.184530  -10.496110   -7.223860
  H     -6.254550   -5.048570   -0.511410
  H     -7.087360   -0.787450   -3.951090
  H     -7.507950    0.684880   -1.936570
  H     -6.023600    0.447370   -1.019570
  H     -7.572760   -0.039060   -0.319970
  H     -6.967800   -3.650920    0.670590
  H     -5.697700   -0.885210    0.860850
  H     -6.502020   -3.080310    2.861870
  H     -5.225730   -0.318620    3.167040
  H     -5.453100   -0.636200    5.510860
  H     -4.727410   -3.944550    3.883810
  H     -6.093460   -4.548210    4.814580
  H     -4.469810   -4.677710    5.474490
  H     -5.408470   -1.733820    7.453370
  H     -4.116170   -2.938610    7.329860
  H     -5.560220   -4.531850    8.076580
  H     -7.754320   -2.888910    7.009030
  H     -7.685300   -5.516840    8.609290
  H    -10.000520   -3.900090    7.378640
  H    -12.335740   -4.963300    7.880990
  H    -13.390800   -6.902080    9.207690
  H    -13.811330   -8.813610   10.595770
  H    -13.621280  -10.829910   12.180800
  H    -11.986590  -12.198750   13.406980
  H     -8.137070  -10.033030   12.137570
  H     -5.396650  -12.208790   14.152760
  H     -8.384880  -15.200440   16.154800
  H     -5.612520  -14.055690   15.521490
  H     -6.013990  -15.478520   16.603840

 Total Charge           Charge          ....    0
 Multiplicity           Mult            ....    1
 Number of Electrons    NEL             ....  472
 Basis Dimension        Dim             .... 1024

ORBITAL ENERGIES
----------------

  NO   OCC          E(Eh)            E(eV)
   0   2.0000    -482.884862    -13139.9651
   1   2.0000     -88.974361     -2421.1155
   2   2.0000     -88.959837     -2420.7202
   3   2.0000     -88.942291     -2420.2428
   4   2.0000     -88.929465     -2419.8938
   5   2.0000     -88.923080     -2419.7200
   6   2.0000     -62.562558     -1702.4138
   7   2.0000     -56.396510     -1534.6270
   8   2.0000     -56.393793     -1534.5531
   9   2.0000     -56.393760     -1534.5522
  10   2.0000     -19.217094      -522.9237
  11   2.0000     -14.456999      -393.3949
  12   2.0000     -14.434241      -392.7757
  13   2.0000     -14.420835      -392.4109
  14   2.0000     -14.416207      -392.2849
  15   2.0000     -14.411431      -392.1550
  16   2.0000     -10.365869      -282.0696
  17   2.0000     -10.358050      -281.8569
  18   2.0000     -10.340828      -281.3882
  19   2.0000     -10.338044      -281.3125
  20   2.0000     -10.324743      -280.9506
  21   2.0000     -10.323910      -280.9279
  22   2.0000     -10.319512      -280.8082
  23   2.0000     -10.315191      -280.6906
  24   2.0000     -10.313734      -280.6510
  25   2.0000     -10.312282      -280.6115
  26   2.0000     -10.309801      -280.5439
  27   2.0000     -10.306273      -280.4479
  28   2.0000     -10.306042      -280.4417
  29   2.0000     -10.304125      -280.3895
  30   2.0000     -10.300094      -280.2798
  31   2.0000     -10.299693      -280.2689
  32   2.0000     -10.299557      -280.2652
  33   2.0000     -10.295716      -280.1607
  34   2.0000     -10.295712      -280.1606
  35   2.0000     -10.292766      -280.0804
  36   2.0000     -10.290901      -280.0296
  37   2.0000     -10.290555      -280.0202
  38   2.0000     -10.290423      -280.0167
  39   2.0000     -10.288828      -279.9733
  40   2.0000     -10.287506      -279.9373
  41   2.0000     -10.287119      -279.9267
  42   2.0000     -10.286098      -279.8989
  43   2.0000     -10.284895      -279.8662
  44   2.0000     -10.282627      -279.8045
  45   2.0000     -10.280798      -279.7547
  46   2.0000     -10.278891      -279.7029
  47   2.0000     -10.278793      -279.7002
  48   2.0000     -10.274905      -279.5944
  49   2.0000     -10.273428      -279.5542
  50   2.0000     -10.273390      -279.5532
  51   2.0000     -10.269598      -279.4500
  52   2.0000     -10.269205      -279.4393
  53   2.0000     -10.268212      -279.4122
  54   2.0000     -10.267651      -279.3970
  55   2.0000     -10.266959      -279.3782
  56   2.0000     -10.266267      -279.3593
  57   2.0000     -10.263546      -279.2853
  58   2.0000     -10.262248      -279.2500
  59   2.0000     -10.259632      -279.1788
  60   2.0000     -10.258118      -279.1376
  61   2.0000     -10.251253      -278.9508
  62   2.0000     -10.250848      -278.9397
  63   2.0000      -8.791972      -239.2417
  64   2.0000      -8.070318      -219.6045
  65   2.0000      -8.054044      -219.1617
  66   2.0000      -8.037265      -218.7051
  67   2.0000      -8.025655      -218.3892
  68   2.0000      -8.019386      -218.2186
  69   2.0000      -6.628270      -180.3644
  70   2.0000      -6.613715      -179.9683
  71   2.0000      -6.613498      -179.9624
  72   2.0000      -6.040014      -164.3571
  73   2.0000      -6.035731      -164.2406
  74   2.0000      -6.031538      -164.1265
  75   2.0000      -6.023335      -163.9033
  76   2.0000      -6.018729      -163.7779
  77   2.0000      -6.016490      -163.7170
  78   2.0000      -6.006529      -163.4460
  79   2.0000      -6.002504      -163.3364
  80   2.0000      -5.999496      -163.2546
  81   2.0000      -5.995445      -163.1444
  82   2.0000      -5.991563      -163.0387
  83   2.0000      -5.989122      -162.9723
  84   2.0000      -5.986466      -162.9000
  85   2.0000      -5.985220      -162.8661
  86   2.0000      -5.980227      -162.7302
  87   2.0000      -2.744155       -74.6723
  88   2.0000      -2.740034       -74.5601
  89   2.0000      -2.739913       -74.5568
  90   2.0000      -2.728333       -74.2417
  91   2.0000      -2.728310       -74.2411
  92   2.0000      -1.131895       -30.8004
  93   2.0000      -1.121506       -30.5177
  94   2.0000      -1.036102       -28.1938
  95   2.0000      -1.022037       -27.8111
  96   2.0000      -1.013647       -27.5827
  97   2.0000      -0.994926       -27.0733
  98   2.0000      -0.994141       -27.0519
  99   2.0000      -0.987174       -26.8624
 100   2.0000      -0.974570       -26.5194
 101   2.0000      -0.963078       -26.2067
 102   2.0000      -0.951001       -25.8781
 103   2.0000      -0.941401       -25.6168
 104   2.0000      -0.924542       -25.1581
 105   2.0000      -0.907259       -24.6878
 106   2.0000      -0.904407       -24.6102
 107   2.0000      -0.903483       -24.5850
 108   2.0000      -0.900180       -24.4951
 109   2.0000      -0.884569       -24.0703
 110   2.0000      -0.884333       -24.0639
 111   2.0000      -0.873568       -23.7710
 112   2.0000      -0.870681       -23.6924
 113   2.0000      -0.864605       -23.5271
 114   2.0000      -0.851934       -23.1823
 115   2.0000      -0.840563       -22.8729
 116   2.0000      -0.832861       -22.6633
 117   2.0000      -0.828328       -22.5399
 118   2.0000      -0.823582       -22.4108
 119   2.0000      -0.821497       -22.3541
 120   2.0000      -0.810526       -22.0555
 121   2.0000      -0.802836       -21.8463
 122   2.0000      -0.790008       -21.4972
 123   2.0000      -0.785138       -21.3647
 124   2.0000      -0.774450       -21.0739
 125   2.0000      -0.762014       -20.7355
 126   2.0000      -0.760698       -20.6996
 127   2.0000      -0.750202       -20.4140
 128   2.0000      -0.739025       -20.1099
 129   2.0000      -0.714273       -19.4364
 130   2.0000      -0.709162       -19.2973
 131   2.0000      -0.695080       -18.9141
 132   2.0000      -0.690054       -18.7773
 133   2.0000      -0.687311       -18.7027
 134   2.0000      -0.686288       -18.6749
 135   2.0000      -0.682677       -18.5766
 136   2.0000      -0.678635       -18.4666
 137   2.0000      -0.670854       -18.2549
 138   2.0000      -0.661583       -18.0026
 139   2.0000      -0.655404       -17.8345
 140   2.0000      -0.653744       -17.7893
 141   2.0000      -0.640068       -17.4171
 142   2.0000      -0.635163       -17.2837
 143   2.0000      -0.626665       -17.0524
 144   2.0000      -0.621326       -16.9071
 145   2.0000      -0.608704       -16.5637
 146   2.0000      -0.606761       -16.5108
 147   2.0000      -0.605288       -16.4707
 148   2.0000      -0.597062       -16.2469
 149   2.0000      -0.595965       -16.2170
 150   2.0000      -0.588969       -16.0267
 151   2.0000      -0.588624       -16.0173
 152   2.0000      -0.584812       -15.9136
 153   2.0000      -0.577708       -15.7202
 154   2.0000      -0.568742       -15.4763
 155   2.0000      -0.563756       -15.3406
 156   2.0000      -0.560139       -15.2422
 157   2.0000      -0.555006       -15.1025
 158   2.0000      -0.547010       -14.8849
 159   2.0000      -0.542797       -14.7703
 160   2.0000      -0.540390       -14.7048
 161   2.0000      -0.534102       -14.5337
 162   2.0000      -0.532471       -14.4893
 163   2.0000      -0.530537       -14.4366
 164   2.0000      -0.524221       -14.2648
 165   2.0000      -0.523042       -14.2327
 166   2.0000      -0.522465       -14.2170
 167   2.0000      -0.515908       -14.0386
 168   2.0000      -0.514205       -13.9922
 169   2.0000      -0.511346       -13.9144
 170   2.0000      -0.510127       -13.8813
 171   2.0000      -0.509015       -13.8510
 172   2.0000      -0.507900       -13.8207
 173   2.0000      -0.500587       -13.6217
 174   2.0000      -0.497070       -13.5260
 175   2.0000      -0.494965       -13.4687
 176   2.0000      -0.493574       -13.4308
 177   2.0000      -0.491801       -13.3826
 178   2.0000      -0.488617       -13.2959
 179   2.0000      -0.484662       -13.1883
 180   2.0000      -0.477104       -12.9827
 181   2.0000      -0.474637       -12.9155
 182   2.0000      -0.473593       -12.8871
 183   2.0000      -0.469694       -12.7810
 184   2.0000      -0.467862       -12.7312
 185   2.0000      -0.465763       -12.6740
 186   2.0000      -0.463184       -12.6039
 187   2.0000      -0.458816       -12.4850
 188   2.0000      -0.456637       -12.4257
 189   2.0000      -0.456227       -12.4146
 190   2.0000      -0.454023       -12.3546
 191   2.0000      -0.451007       -12.2725
 192   2.0000      -0.450758       -12.2657
 193   2.0000      -0.446492       -12.1497
 194   2.0000      -0.443593       -12.0708
 195   2.0000      -0.441158       -12.0045
 196   2.0000      -0.440106       -11.9759
 197   2.0000      -0.438101       -11.9213
 198   2.0000      -0.437861       -11.9148
 199   2.0000      -0.436220       -11.8701
 200   2.0000      -0.434752       -11.8302
 201   2.0000      -0.428985       -11.6733
 202   2.0000      -0.427254       -11.6262
 203   2.0000      -0.424363       -11.5475
 204   2.0000      -0.420774       -11.4498
 205   2.0000      -0.418628       -11.3915
 206   2.0000      -0.416040       -11.3210
 207   2.0000      -0.415965       -11.3190
 208   2.0000      -0.411294       -11.1919
 209   2.0000      -0.409753       -11.1499
 210   2.0000      -0.407307       -11.0834
 211   2.0000      -0.406000       -11.0478
 212   2.0000      -0.403248       -10.9729
 213   2.0000      -0.392990       -10.6938
 214   2.0000      -0.388123       -10.5614
 215   2.0000      -0.380886       -10.3644
 216   2.0000      -0.380720       -10.3599
 217   2.0000      -0.374157       -10.1813
 218   2.0000      -0.366184        -9.9644
 219   2.0000      -0.364002        -9.9050
 220   2.0000      -0.348062        -9.4712
 221   2.0000      -0.343194        -9.3388
 222   2.0000      -0.332185        -9.0392
 223   2.0000      -0.327442        -8.9101
 224   2.0000      -0.325803        -8.8655
 225   2.0000      -0.321707        -8.7541
 226   2.0000      -0.317513        -8.6400
 227   2.0000      -0.314214        -8.5502
 228   2.0000      -0.304399        -8.2831
 229   2.0000      -0.295275        -8.0348
 230   2.0000      -0.294695        -8.0191
 231   2.0000      -0.287477        -7.8227
 232   2.0000      -0.278094        -7.5673
 233   2.0000      -0.259292        -7.0557
 234   2.0000      -0.233904        -6.3648
 235   2.0000      -0.176166        -4.7937
 236   0.0000      -0.092572        -2.5190
 237   0.0000      -0.060462        -1.6453
 238   0.0000      -0.055834        -1.5193
 239   0.0000      -0.026077        -0.7096
 240   0.0000      -0.008668        -0.2359

MULLIKEN ATOMIC CHARGES
-----------------------
   0 C :    0.323791
   1 C :   -0.360920
   2 C :   -0.191534
   3 N :    0.147082
   4 C :   -0.175789
   5 N :    0.134428
   6 C :    0.008267
   7 C :   -0.010355
   8 C :   -0.072649
   9 C :    0.118050
  10 C :   -0.091419
  11 C :   -0.017981
  12 S :    0.186245
  13 C :   -0.123515
  14 C :    0.037330
  15 Br:    0.023040
  16 C :    0.149622
  17 O :   -0.174186
  18 C :   -0.097901
  19 C :   -0.017935
  20 C :   -0.113136
  21 S :    0.200516
  22 C :   -0.087678
  23 C :   -0.097760
  24 C :    0.111031
  25 C :    0.138826
  26 C :   -0.066191
  27 C :    0.015296
  28 C :    0.004177
  29 C :    0.006434
  30 C :    0.005231
  31 C :   -0.206363
  32 C :    0.101595
  33 C :    0.196077
  34 N :   -0.157123
  35 C :    0.061866
  36 C :   -0.022849
  37 C :   -0.006548
  38 C :   -0.038235
  39 C :    0.040979
  40 C :    0.007109
  41 C :   -0.037492
  42 S :    0.045498
  43 C :   -0.042423
  44 C :    0.027247
  45 C :    0.017643
  46 C :   -0.026429
  47 S :    0.006969
  48 C :    0.026459
  49 C :   -0.210638
  50 S :    0.121552
  51 C :   -0.131974
  52 C :    0.009618
  53 C :    0.152557
  54 N :   -0.046322
  55 N :   -0.062426
  56 C :   -0.025615
  57 C :    0.046304
  58 C :   -0.030579
  59 H :   -0.011488
  60 H :   -0.007253
  61 H :   -0.003012
  62 H :   -0.018979
  63 H :    0.020332
  64 H :    0.011722
  65 H :    0.037825
  66 H :    0.031886
  67 H :    0.017437
  68 H :   -0.015189
  69 H :    0.006109
  70 H :   -0.012110
  71 H :   -0.019939
  72 H :    0.038395
  73 H :    0.052582
  74 H :   -0.000397
  75 H :    0.008345
  76 H :    0.027194
  77 H :    0.123201
  78 H :    0.005207
  79 H :   -0.014346
  80 H :   -0.024275
  81 H :   -0.022396
  82 H :   -0.022844
  83 H :   -0.021463
  84 H :   -0.021825
  85 H :   -0.029114
  86 H :    0.136794
  87 H :   -0.007926
  88 H :   -0.019982
  89 H :    0.007075
  90 H :    0.021562
Sum of atomic charges:   -0.0000000

LOEWDIN ATOMIC CHARGES
----------------------
   0 C :    0.082232
   1 C :   -0.154226
   2 C :   -0.019353
   3 N :   -0.058933
   4 C :   -0.012405
   5 N :   -0.070233
   6 C :   -0.022061
   7 C :   -0.048719
   8 C :    0.020633
   9 C :   -0.032671
  10 C :   -0.144859
  11 C :   -0.008232
  12 S :    0.432472
  13 C :   -0.271201
  14 C :   -0.070961
  15 Br:    0.136042
  16 C :    0.081440
  17 O :   -0.164989
  18 C :   -0.115963
  19 C :    0.060331
  20 C :   -0.192940
  21 S :    0.510308
  22 C :   -0.165387
  23 C :   -0.065532
  24 C :   -0.046363
  25 C :   -0.014388
  26 C :   -0.035941
  27 C :    0.000778
  28 C :   -0.023648
  29 C :   -0.020490
  30 C :   -0.062170
  31 C :   -0.024793
  32 C :   -0.050503
  33 C :    0.042278
  34 N :   -0.001464
  35 C :    0.050336
  36 C :   -0.121602
  37 C :   -0.033777
  38 C :   -0.177770
  39 C :   -0.029765
  40 C :   -0.054660
  41 C :   -0.172963
  42 S :    0.348188
  43 C :   -0.196114
  44 C :   -0.039723
  45 C :   -0.046950
  46 C :   -0.156705
  47 S :    0.357629
  48 C :   -0.090569
  49 C :   -0.203507
  50 S :    0.445834
  51 C :   -0.181391
  52 C :   -0.089410
  53 C :   -0.024991
  54 N :    0.087705
  55 N :   -0.054929
  56 C :   -0.049288
  57 C :   -0.042599
  58 C :   -0.053306
  59 H :    0.040511
  60 H :    0.041055
  61 H :    0.038762
  62 H :    0.045890
  63 H :    0.024555
  64 H :    0.033491
  65 H :    0.035443
  66 H :    0.036260
  67 H :    0.033437
  68 H :    0.027407
  69 H :    0.034440
  70 H :    0.026417
  71 H :    0.025038
  72 H :    0.039083
  73 H :    0.044340
  74 H :    0.026785
  75 H :    0.023492
  76 H :    0.035580
  77 H :    0.080656
  78 H :    0.029658
  79 H :    0.017788
  80 H :    0.029658
  81 H :    0.029562
  82 H :    0.027667
  83 H :    0.029503
  84 H :    0.029397
  85 H :    0.031541
  86 H :    0.054701
  87 H :    0.017757
  88 H :    0.027500
  89 H :    0.020470
  90 H :    0.024389

  Mayer bond orders larger than 0.100000
B(  0-C ,  1-C ) :   1.5915 B(  0-C ,  6-C ) :   0.9993 B(  0-C , 18-C ) :   1.0988
B(  1-C ,  2-C ) :   1.1524 B(  1-C ,  4-C ) :   1.1540 B(  2-C ,  3-N ) :   2.9638
B(  4-C ,  5-N ) :   2.9520 B(  6-C ,  7-C ) :   1.2738 B(  6-C , 11-C ) :   1.4128
B(  7-C ,  8-C ) :   1.4282 B(  7-C , 16-C ) :   0.9523 B(  8-C ,  9-C ) :   1.2402
B(  8-C , 59-H ) :   1.0175 B(  9-C , 10-C ) :   1.3101 B(  9-C , 14-C ) :   1.1618
B( 10-C , 11-C ) :   1.3272 B( 10-C , 12-S ) :   1.0848 B( 11-C , 60-H ) :   0.9800
B( 12-S , 13-C ) :   1.0877 B( 13-C , 14-C ) :   1.6177 B( 13-C , 15-Br) :   1.0188
B( 14-C , 61-H ) :   1.0007 B( 16-C , 17-O ) :   2.1595 B( 16-C , 18-C ) :   0.9663
B( 18-C , 19-C ) :   1.5075 B( 19-C , 20-C ) :   1.3005 B( 19-C , 62-H ) :   0.9243
B( 20-C , 21-S ) :   1.1034 B( 20-C , 25-C ) :   1.3077 B( 21-S , 22-C ) :   1.1808
B( 22-C , 23-C ) :   1.5127 B( 22-C , 63-H ) :   0.9648 B( 23-C , 24-C ) :   1.0917
B( 23-C , 25-C ) :   1.3045 B( 24-C , 64-H ) :   0.9469 B( 24-C , 65-H ) :   0.9415
B( 24-C , 66-H ) :   0.9444 B( 25-C , 26-C ) :   1.0774 B( 26-C , 27-C ) :   1.6877
B( 26-C , 67-H ) :   0.9478 B( 27-C , 28-C ) :   1.1130 B( 27-C , 68-H ) :   0.9891
B( 28-C , 29-C ) :   1.7032 B( 28-C , 69-H ) :   0.9865 B( 29-C , 30-C ) :   1.0833
B( 29-C , 70-H ) :   0.9590 B( 30-C , 31-C ) :   1.8242 B( 30-C , 71-H ) :   0.9476
B( 31-C , 32-C ) :   1.0706 B( 31-C , 33-C ) :   1.0310 B( 32-C , 72-H ) :   0.9450
B( 32-C , 73-H ) :   0.9375 B( 32-C , 74-H ) :   0.9459 B( 33-C , 34-N ) :   1.0151
B( 33-C , 75-H ) :   0.9444 B( 33-C , 76-H ) :   0.9348 B( 34-N , 35-C ) :   1.2277
B( 34-N , 77-H ) :   0.9384 B( 35-C , 36-C ) :   1.5902 B( 35-C , 78-H ) :   0.9704
B( 36-C , 37-C ) :   1.1800 B( 36-C , 79-H ) :   0.9621 B( 37-C , 38-C ) :   1.5778
B( 37-C , 80-H ) :   0.9783 B( 38-C , 39-C ) :   1.1534 B( 38-C , 42-S ) :   1.0087
B( 39-C , 40-C ) :   1.5795 B( 39-C , 81-H ) :   0.9973 B( 40-C , 41-C ) :   1.1964
B( 40-C , 82-H ) :   0.9938 B( 41-C , 42-S ) :   1.0506 B( 41-C , 43-C ) :   1.4935
B( 43-C , 44-C ) :   1.2068 B( 43-C , 47-S ) :   1.0316 B( 44-C , 45-C ) :   1.5694
B( 44-C , 83-H ) :   0.9914 B( 45-C , 46-C ) :   1.1625 B( 45-C , 84-H ) :   0.9986
B( 46-C , 47-S ) :   1.0142 B( 46-C , 48-C ) :   1.5920 B( 48-C , 49-C ) :   1.2015
B( 48-C , 85-H ) :   0.9281 B( 49-C , 50-S ) :   1.1093 B( 49-C , 51-C ) :   0.1121
B( 49-C , 53-C ) :   1.3328 B( 50-S , 51-C ) :   1.1346 B( 51-C , 52-C ) :   1.3381
B( 51-C , 57-C ) :   1.1430 B( 52-C , 53-C ) :   1.2665 B( 52-C , 56-C ) :   1.1567
B( 53-C , 54-N ) :   1.1529 B( 54-N , 55-N ) :   1.1417 B( 54-N , 86-H ) :   0.9328
B( 55-N , 56-C ) :   1.7329 B( 56-C , 87-H ) :   0.9980 B( 57-C , 58-C ) :   1.9019
B( 57-C , 88-H ) :   0.9500 B( 58-C , 89-H ) :   0.9550 B( 58-C , 90-H ) :   0.9482

-----------------------------------------------------------------------------
         ABSORPTION SPECTRUM VIA TRANSITION ELECTRIC DIPOLE MOMENTS
-----------------------------------------------------------------------------
State   Energy  Wavelength   fosc         T2         TX        TY        TZ
        (cm-1)    (nm)                  (au**2)     (au)      (au)      (au)
-----------------------------------------------------------------------------
   0    9751.0   1025.5   0.008329343   0.28121  -0.09348  -0.17520   0.49171
   1   13560.0    737.5   1.295260056  31.44666   0.24351  -4.23043   3.67299
   2   17361.6    576.0   0.003076816   0.05834  -0.10193   0.13716   0.17071
   3   19619.6    509.7   0.559039390   9.38053  -0.23688   2.69198   1.44141
   4   21339.7    468.6   0.035374404   0.54573  -0.37130  -0.56654   0.29478
   5   22300.7    448.4   0.021582393   0.31861  -0.19342  -0.53025   0.00600
   6   23304.1    429.1   0.005835879   0.08244   0.19306  -0.17567  -0.11963
   7   25583.3    390.9   0.675254546   8.68935   2.77110   0.85812  -0.52344
   8   25826.1    387.2   0.457634362   5.83359  -1.21566   1.71131  -1.19464
   9   26414.1    378.6   0.047141696   0.58755  -0.43832  -0.30179  -0.55167
  10   28182.3    354.8   0.720794767   8.41998   0.03529   2.06924   2.03396
  11   28984.9    345.0   0.000761970   0.00865  -0.08969  -0.02469  -0.00004
  12   29220.3    342.2   0.108334440   1.22056  -1.04277  -0.36484  -0.00863
  13   29380.3    340.4   0.006835348   0.07659  -0.25318   0.11130  -0.01022
  14   29911.4    334.3   0.031645289   0.34830   0.10907  -0.50824   0.27945
  15   29999.7    333.3   0.000419936   0.00461   0.03858   0.03352  -0.04468
  16   30169.6    331.5   0.011673961   0.12739   0.05722   0.21128   0.28191
  17   31706.4    315.4   0.018584615   0.19297   0.03181  -0.27564  -0.34055
  18   31793.6    314.5   0.000836735   0.00866  -0.03275  -0.00335   0.08707
  19   32214.2    310.4   0.140157882   1.43234  -0.08312   1.03131   0.60152
  20   33122.0    301.9   0.417021480   4.14493   0.14856   0.20269   2.02034
  21   33425.9    299.2   0.000340773   0.00336  -0.02382  -0.03574  -0.03888
  22   33706.8    296.7   0.037435509   0.36563   0.43986   0.26356  -0.32045
  23   34113.0    293.1   0.156488208   1.51021  -0.10256   0.99959   0.70748
  24   34618.8    288.9   0.055675889   0.52946  -0.34373  -0.21837   0.60301
  25   34806.9    287.3   0.005908377   0.05588   0.20329  -0.02033   0.11893
  26   35149.5    284.5   0.044989883   0.42138  -0.09654  -0.11010   0.63240
  27   35285.5    283.4   0.128489897   1.19880  -0.60067   0.07087  -0.91268
  28   35673.7    280.3   0.231745634   2.13865   0.38081  -0.09276   1.40891
  29   36179.0    276.4   0.092710445   0.84362   0.18499   0.34481  -0.83097
  30   36203.0    276.2   0.158263385   1.43917   0.94025   0.66059   0.34456
  31   36837.3    271.5   0.000037693   0.00034  -0.00714   0.00318  -0.01661
  32   37607.3    265.9   0.000145586   0.00127   0.02094  -0.02695   0.01048
  33   37839.5    264.3   0.000625421   0.00544   0.03914   0.05578  -0.02825
  34   38243.3    261.5   0.150063002   1.29179  -0.10171   1.11817  -0.17651
  35   38547.1    259.4   0.099355824   0.84855   0.21826  -0.72853   0.51976
  36   38849.1    257.4   0.020026866   0.16971  -0.34849  -0.21191   0.05798
  37   39133.0    255.5   0.007523787   0.06329   0.16251   0.16164  -0.10371
  38   39495.3    253.2   0.000711197   0.00593  -0.01758  -0.07496   0.00009

FINAL SINGLE POINT ENERGY     -6720.618239521826

DIPOLE MOMENT
-------------
                                X             Y             Z
Electronic contribution:     14.47021    -113.66359    -159.32756
Nuclear contribution   :    -14.26754     116.72959     156.38079
                        -----------------------------------------
Total Dipole Moment    :      0.20266       3.06600      -2.94677
                        -----------------------------------------
Magnitude (a.u.)       :      4.25733
Magnitude (Debye)      :     10.82127

Rotational constants in cm-1:     0.000959     0.000299     0.000244
Rotational constants in MHz :    28.758136     8.953070     7.302443

                             ****ORCA TERMINATED NORMALLY****
TOTAL RUN TIME: 0 days 0 hours 7 minutes 19 seconds 214 msec
