                         Program Version 4.2.0 -  RELEASE  -
|  1> # ORCA input file
|  2> # SCF done       -189.159391416333          0.000809851233
|  3> ! CAM-B3LYP def2-SVP def2/J RIJCOSX Grid4 TightSCF
|  4> %maxcore 5000
|  5> %tddft
|  6>     Mode sTDDFT
|  7>     Ethresh 5.0
|  8>     maxcore 5000
|  9> end
| 10>
| 11> %pal
| 12>   nprocs 6
| 13>   end
| 14> * xyz 0 1
| 15>    C       -3.00293        -1.80968        -8.82830
| 16>    C       -3.25208        -3.13556        -8.54106
| 17>    C       -2.45393        -4.20322        -8.99216
| 18>    N       -1.84361        -5.11816        -9.32629
| 19>    C       -4.32555        -3.62391        -7.77402
| 20>    N       -5.16517        -4.11757        -7.16276
| 21>    C       -1.89277        -1.32840        -9.65230
| 22>    C       -1.98873         0.07953        -9.75768
| 23>    C       -1.08966         0.83452       -10.46745
| 24>    C       -0.03893         0.16689       -11.10767
| 25>    C        0.04935        -1.23862       -10.99761
| 26>    C       -0.86315        -2.00300       -10.27802
| 27>    S        1.42356        -1.86184       -11.86201
| 28>    C        1.85129        -0.24477       -12.35322
| 29>    C        1.01268         0.71313       -11.89448
| 30>   Br        3.36966         0.02750       -13.42246
| 31>    C       -3.16964         0.54301        -8.99573
| 32>    O       -3.53831         1.69850        -8.88806
| 33>    C       -3.76757        -0.66875        -8.41234
| 34>    C       -4.87875        -0.67143        -7.58030
| 35>    C       -5.60866         0.45522        -7.24448
| 36>    C       -6.71148         0.43623        -6.40055
| 37>    C       -7.53245         1.53113        -6.07875
| 38>    C       -8.57346         1.22114        -5.24209
| 39>    C       -8.60263        -0.12832        -4.86161
| 40>    S       -7.28003        -1.00394        -5.59103
| 41>    C       -9.54117        -0.76177        -4.04470
| 42>    C      -10.71818        -0.22028        -3.51024
| 43>    C      -11.46995        -1.12762        -2.80450
| 44>    C      -10.91178        -2.41074        -2.75094
| 45>    S       -9.38126        -2.43883        -3.59743
| 46>    C      -11.48204        -3.54322        -2.17679
| 47>    C      -10.93655        -4.80460        -2.21220
| 48>    C      -11.58148        -5.94629        -1.74504
| 49>    C      -11.14678        -7.27429        -1.86663
| 50>    C      -12.05043        -8.20435        -1.42032
| 51>    C      -13.23348        -7.64180        -0.91613
| 52>    S      -13.15989        -5.89358        -0.99585
| 53>    C      -14.38034        -8.29395        -0.48733
| 54>    C      -14.66495        -9.67528        -0.56251
| 55>    C      -15.94484        -9.98710        -0.22554
| 56>    C      -16.75335        -8.87119         0.13140
| 57>    S      -15.76545        -7.41256         0.10756
| 58>    C      -18.07693        -8.95465         0.45140
| 59>    C      -19.03685        -7.95846         0.79760
| 60>    C      -20.06328        -8.24267         1.69512
| 61>    C      -20.38893        -9.50473         2.40628
| 62>    N      -20.76169        -7.09853         1.91554
| 63>    C      -20.25930        -6.07594         1.18118
| 64>    C      -20.87184        -4.72351         1.19943
| 65>    C      -19.18773        -6.56524         0.43768
| 66>    C      -18.54783        -5.78742        -0.56666
| 67>    C      -17.80363        -6.26128        -1.59944
| 68>    C      -17.14414        -5.37545        -2.47644
| 69>    C      -16.09561        -5.56574        -3.33237
| 70>    C      -15.24754        -6.68964        -3.66567
| 71>    C      -15.50695        -8.03469        -3.56237
| 72>    C      -14.54995        -9.04478        -3.79170
| 73>    N      -13.82211        -9.92645        -3.90631
| 74>    C      -16.73789        -8.64557        -3.26310
| 75>    N      -17.69696        -9.24884        -3.06869
| 76>    C      -14.01850        -6.14525        -4.24509
| 77>    C      -14.17459        -4.75052        -4.43976
| 78>    C      -15.47898        -4.33756        -3.89993
| 79>    O      -15.94610        -3.21865        -3.87156
| 80>    C      -13.20736        -3.96475        -5.01655
| 81>    C      -12.00873        -4.57630        -5.39551
| 82>    C      -11.84276        -5.96139        -5.15959
| 83>    C      -12.83512        -6.76170        -4.60828
| 84>    S      -10.25976        -6.49888        -5.63267
| 85>    C       -9.85156        -4.88444        -6.15518
| 86>    C      -10.85579        -3.99010        -5.98157
| 87>   Br       -8.13717        -4.52865        -6.82865
| 88>    H       -1.19150         1.90671       -10.52838
| 89>    H       -0.74868        -3.07245       -10.22458
| 90>    H        1.12853         1.76169       -12.09984
| 91>    H       -5.20712        -1.61635        -7.16478
| 92>    H       -5.32321         1.40858        -7.66536
| 93>    H       -7.34259         2.51195        -6.47656
| 94>    H       -9.30161         1.93256        -4.89624
| 95>    H      -11.00127         0.80469        -3.66633
| 96>    H      -12.41413        -0.90260        -2.34100
| 97>    H      -12.44895        -3.41161        -1.70643
| 98>    H       -9.96453        -4.94314        -2.66831
| 99>    H      -10.19332        -7.51746        -2.30094
|100>    H      -11.89414        -9.26665        -1.46113
|101>    H      -13.93450       -10.38817        -0.89843
|102>    H      -16.35495       -10.98045        -0.25825
|103>    H      -18.45253        -9.96929         0.52322
|104>    H      -19.61398        -9.75585         3.13086
|105>    H      -20.46648       -10.33181         1.70220
|106>    H      -21.33548        -9.40942         2.93352
|107>    H      -21.55220        -7.02358         2.53741
|108>    H      -21.59534        -4.64589         2.00798
|109>    H      -21.38336        -4.51633         0.25920
|110>    H      -20.11022        -3.95866         1.34049
|111>    H      -18.69749        -4.71704        -0.49039
|112>    H      -17.70873        -7.32254        -1.73182
|113>    H      -17.43693        -4.33078        -2.39713
|114>    H      -13.36710        -2.90781        -5.16189
|115>    H      -12.65745        -7.81401        -4.46606
|116>    H      -10.78238        -2.95394        -6.25615
|117> *
|118>
|119>                          ****END OF INPUT****

CARTESIAN COORDINATES (ANGSTROEM)
---------------------------------
  C     -3.002930   -1.809680   -8.828300
  C     -3.252080   -3.135560   -8.541060
  C     -2.453930   -4.203220   -8.992160
  N     -1.843610   -5.118160   -9.326290
  C     -4.325550   -3.623910   -7.774020
  N     -5.165170   -4.117570   -7.162760
  C     -1.892770   -1.328400   -9.652300
  C     -1.988730    0.079530   -9.757680
  C     -1.089660    0.834520  -10.467450
  C     -0.038930    0.166890  -11.107670
  C      0.049350   -1.238620  -10.997610
  C     -0.863150   -2.003000  -10.278020
  S      1.423560   -1.861840  -11.862010
  C      1.851290   -0.244770  -12.353220
  C      1.012680    0.713130  -11.894480
  Br     3.369660    0.027500  -13.422460
  C     -3.169640    0.543010   -8.995730
  O     -3.538310    1.698500   -8.888060
  C     -3.767570   -0.668750   -8.412340
  C     -4.878750   -0.671430   -7.580300
  C     -5.608660    0.455220   -7.244480
  C     -6.711480    0.436230   -6.400550
  C     -7.532450    1.531130   -6.078750
  C     -8.573460    1.221140   -5.242090
  C     -8.602630   -0.128320   -4.861610
  S     -7.280030   -1.003940   -5.591030
  C     -9.541170   -0.761770   -4.044700
  C    -10.718180   -0.220280   -3.510240
  C    -11.469950   -1.127620   -2.804500
  C    -10.911780   -2.410740   -2.750940
  S     -9.381260   -2.438830   -3.597430
  C    -11.482040   -3.543220   -2.176790
  C    -10.936550   -4.804600   -2.212200
  C    -11.581480   -5.946290   -1.745040
  C    -11.146780   -7.274290   -1.866630
  C    -12.050430   -8.204350   -1.420320
  C    -13.233480   -7.641800   -0.916130
  S    -13.159890   -5.893580   -0.995850
  C    -14.380340   -8.293950   -0.487330
  C    -14.664950   -9.675280   -0.562510
  C    -15.944840   -9.987100   -0.225540
  C    -16.753350   -8.871190    0.131400
  S    -15.765450   -7.412560    0.107560
  C    -18.076930   -8.954650    0.451400
  C    -19.036850   -7.958460    0.797600
  C    -20.063280   -8.242670    1.695120
  C    -20.388930   -9.504730    2.406280
  N    -20.761690   -7.098530    1.915540
  C    -20.259300   -6.075940    1.181180
  C    -20.871840   -4.723510    1.199430
  C    -19.187730   -6.565240    0.437680
  C    -18.547830   -5.787420   -0.566660
  C    -17.803630   -6.261280   -1.599440
  C    -17.144140   -5.375450   -2.476440
  C    -16.095610   -5.565740   -3.332370
  C    -15.247540   -6.689640   -3.665670
  C    -15.506950   -8.034690   -3.562370
  C    -14.549950   -9.044780   -3.791700
  N    -13.822110   -9.926450   -3.906310
  C    -16.737890   -8.645570   -3.263100
  N    -17.696960   -9.248840   -3.068690
  C    -14.018500   -6.145250   -4.245090
  C    -14.174590   -4.750520   -4.439760
  C    -15.478980   -4.337560   -3.899930
  O    -15.946100   -3.218650   -3.871560
  C    -13.207360   -3.964750   -5.016550
  C    -12.008730   -4.576300   -5.395510
  C    -11.842760   -5.961390   -5.159590
  C    -12.835120   -6.761700   -4.608280
  S    -10.259760   -6.498880   -5.632670
  C     -9.851560   -4.884440   -6.155180
  C    -10.855790   -3.990100   -5.981570
  Br    -8.137170   -4.528650   -6.828650
  H     -1.191500    1.906710  -10.528380
  H     -0.748680   -3.072450  -10.224580
  H      1.128530    1.761690  -12.099840
  H     -5.207120   -1.616350   -7.164780
  H     -5.323210    1.408580   -7.665360
  H     -7.342590    2.511950   -6.476560
  H     -9.301610    1.932560   -4.896240
  H    -11.001270    0.804690   -3.666330
  H    -12.414130   -0.902600   -2.341000
  H    -12.448950   -3.411610   -1.706430
  H     -9.964530   -4.943140   -2.668310
  H    -10.193320   -7.517460   -2.300940
  H    -11.894140   -9.266650   -1.461130
  H    -13.934500  -10.388170   -0.898430
  H    -16.354950  -10.980450   -0.258250
  H    -18.452530   -9.969290    0.523220
  H    -19.613980   -9.755850    3.130860
  H    -20.466480  -10.331810    1.702200
  H    -21.335480   -9.409420    2.933520
  H    -21.552200   -7.023580    2.537410
  H    -21.595340   -4.645890    2.007980
  H    -21.383360   -4.516330    0.259200
  H    -20.110220   -3.958660    1.340490
  H    -18.697490   -4.717040   -0.490390
  H    -17.708730   -7.322540   -1.731820
  H    -17.436930   -4.330780   -2.397130
  H    -13.367100   -2.907810   -5.161890
  H    -12.657450   -7.814010   -4.466060
  H    -10.782380   -2.953940   -6.256150

 Total Charge           Charge          ....    0
 Multiplicity           Mult            ....    1
 Number of Electrons    NEL             ....  594
 Basis Dimension        Dim             .... 1227

ORBITAL ENERGIES
----------------

  NO   OCC          E(Eh)            E(eV)
   0   2.0000    -482.866815    -13139.4740
   1   2.0000    -482.861854    -13139.3390
   2   2.0000     -88.965986     -2420.8875
   3   2.0000     -88.964834     -2420.8562
   4   2.0000     -88.964079     -2420.8357
   5   2.0000     -88.957675     -2420.6614
   6   2.0000     -88.952433     -2420.5187
   7   2.0000     -88.946233     -2420.3500
   8   2.0000     -62.544519     -1701.9229
   9   2.0000     -62.538851     -1701.7687
  10   2.0000     -56.378444     -1534.1355
  11   2.0000     -56.375779     -1534.0629
  12   2.0000     -56.375732     -1534.0617
  13   2.0000     -56.373055     -1533.9888
  14   2.0000     -56.369995     -1533.9055
  15   2.0000     -56.369942     -1533.9041
  16   2.0000     -19.208446      -522.6884
  17   2.0000     -19.181288      -521.9494
  18   2.0000     -14.494695      -394.4207
  19   2.0000     -14.415941      -392.2777
  20   2.0000     -14.414538      -392.2395
  21   2.0000     -14.389972      -391.5710
  22   2.0000     -14.381334      -391.3360
  23   2.0000     -10.357706      -281.8475
  24   2.0000     -10.340546      -281.3806
  25   2.0000     -10.340518      -281.3798
  26   2.0000     -10.337624      -281.3011
  27   2.0000     -10.336556      -281.2720
  28   2.0000     -10.336174      -281.2616
  29   2.0000     -10.331580      -281.1366
  30   2.0000     -10.331432      -281.1325
  31   2.0000     -10.330309      -281.1020
  32   2.0000     -10.327567      -281.0274
  33   2.0000     -10.325561      -280.9728
  34   2.0000     -10.321937      -280.8742
  35   2.0000     -10.321690      -280.8675
  36   2.0000     -10.320567      -280.8369
  37   2.0000     -10.318654      -280.7849
  38   2.0000     -10.315354      -280.6950
  39   2.0000     -10.311144      -280.5805
  40   2.0000     -10.310198      -280.5548
  41   2.0000     -10.309222      -280.5282
  42   2.0000     -10.308037      -280.4960
  43   2.0000     -10.306411      -280.4517
  44   2.0000     -10.306322      -280.4493
  45   2.0000     -10.304197      -280.3915
  46   2.0000     -10.304179      -280.3910
  47   2.0000     -10.303832      -280.3815
  48   2.0000     -10.302736      -280.3517
  49   2.0000     -10.302315      -280.3402
  50   2.0000     -10.302042      -280.3328
  51   2.0000     -10.301746      -280.3248
  52   2.0000     -10.300728      -280.2971
  53   2.0000     -10.298921      -280.2479
  54   2.0000     -10.297245      -280.2023
  55   2.0000     -10.296975      -280.1949
  56   2.0000     -10.296764      -280.1892
  57   2.0000     -10.296565      -280.1838
  58   2.0000     -10.295354      -280.1508
  59   2.0000     -10.292298      -280.0677
  60   2.0000     -10.292064      -280.0613
  61   2.0000     -10.291184      -280.0374
  62   2.0000     -10.289686      -279.9966
  63   2.0000     -10.288433      -279.9625
  64   2.0000     -10.288003      -279.9508
  65   2.0000     -10.287273      -279.9309
  66   2.0000     -10.287115      -279.9266
  67   2.0000     -10.286513      -279.9103
  68   2.0000     -10.283872      -279.8384
  69   2.0000     -10.281470      -279.7730
  70   2.0000     -10.281422      -279.7717
  71   2.0000     -10.280880      -279.7570
  72   2.0000     -10.278289      -279.6865
  73   2.0000     -10.276936      -279.6496
  74   2.0000     -10.276780      -279.6454
  75   2.0000     -10.274925      -279.5949
  76   2.0000     -10.272831      -279.5379
  77   2.0000     -10.272276      -279.5228
  78   2.0000     -10.261730      -279.2359
  79   2.0000     -10.253864      -279.0218
  80   2.0000     -10.252113      -278.9742
  81   2.0000      -8.773932      -238.7508
  82   2.0000      -8.767971      -238.5886
  83   2.0000      -8.061375      -219.3612
  84   2.0000      -8.060410      -219.3349
  85   2.0000      -8.059500      -219.3102
  86   2.0000      -8.053052      -219.1347
  87   2.0000      -8.048356      -219.0069
  88   2.0000      -8.042012      -218.8343
  89   2.0000      -6.610125      -179.8707
  90   2.0000      -6.604650      -179.7217
  91   2.0000      -6.595688      -179.4778
  92   2.0000      -6.595571      -179.4746
  93   2.0000      -6.589548      -179.3107
  94   2.0000      -6.589103      -179.2986
  95   2.0000      -6.031071      -164.1138
  96   2.0000      -6.030051      -164.0860
  97   2.0000      -6.029102      -164.0602
  98   2.0000      -6.026918      -164.0008
  99   2.0000      -6.025804      -163.9705
 100   2.0000      -6.025141      -163.9524
 101   2.0000      -6.022583      -163.8828
 102   2.0000      -6.022528      -163.8813
 103   2.0000      -6.021843      -163.8627
 104   2.0000      -6.020784      -163.8338
 105   2.0000      -6.018522      -163.7723
 106   2.0000      -6.018067      -163.7599
 107   2.0000      -6.014509      -163.6631
 108   2.0000      -6.013791      -163.6436
 109   2.0000      -6.011457      -163.5801
 110   2.0000      -6.009591      -163.5293
 111   2.0000      -6.007487      -163.4720
 112   2.0000      -6.003489      -163.3632
 113   2.0000      -2.726006       -74.1784
 114   2.0000      -2.721975       -74.0687
 115   2.0000      -2.721849       -74.0653
 116   2.0000      -2.720428       -74.0266
 117   2.0000      -2.716243       -73.9127
 118   2.0000      -2.715898       -73.9033
 119   2.0000      -2.710389       -73.7534
 120   2.0000      -2.710376       -73.7531
 121   2.0000      -2.703919       -73.5774
 122   2.0000      -2.703917       -73.5773
 123   2.0000      -1.123062       -30.5601
 124   2.0000      -1.111081       -30.2341
 125   2.0000      -1.094421       -29.7807
 126   2.0000      -1.019857       -27.7517
 127   2.0000      -1.011023       -27.5113
 128   2.0000      -1.007407       -27.4129
 129   2.0000      -1.000621       -27.2283
 130   2.0000      -0.995455       -27.0877
 131   2.0000      -0.994837       -27.0709
 132   2.0000      -0.989571       -26.9276
 133   2.0000      -0.985794       -26.8248
 134   2.0000      -0.982079       -26.7237
 135   2.0000      -0.975366       -26.5411
 136   2.0000      -0.965790       -26.2805
 137   2.0000      -0.958387       -26.0790
 138   2.0000      -0.940941       -25.6043
 139   2.0000      -0.931592       -25.3499
 140   2.0000      -0.920880       -25.0584
 141   2.0000      -0.916404       -24.9366
 142   2.0000      -0.913915       -24.8689
 143   2.0000      -0.903538       -24.5865
 144   2.0000      -0.894992       -24.3540
 145   2.0000      -0.890854       -24.2414
 146   2.0000      -0.883124       -24.0310
 147   2.0000      -0.879793       -23.9404
 148   2.0000      -0.876141       -23.8410
 149   2.0000      -0.867934       -23.6177
 150   2.0000      -0.861773       -23.4500
 151   2.0000      -0.859402       -23.3855
 152   2.0000      -0.858694       -23.3663
 153   2.0000      -0.847985       -23.0748
 154   2.0000      -0.847430       -23.0597
 155   2.0000      -0.845301       -23.0018
 156   2.0000      -0.836774       -22.7698
 157   2.0000      -0.829481       -22.5713
 158   2.0000      -0.823382       -22.4054
 159   2.0000      -0.822107       -22.3707
 160   2.0000      -0.817392       -22.2424
 161   2.0000      -0.803455       -21.8631
 162   2.0000      -0.800690       -21.7879
 163   2.0000      -0.782074       -21.2813
 164   2.0000      -0.771658       -20.9979
 165   2.0000      -0.760981       -20.7073
 166   2.0000      -0.755494       -20.5580
 167   2.0000      -0.745728       -20.2923
 168   2.0000      -0.732718       -19.9383
 169   2.0000      -0.727009       -19.7829
 170   2.0000      -0.719780       -19.5862
 171   2.0000      -0.713649       -19.4194
 172   2.0000      -0.696208       -18.9448
 173   2.0000      -0.695096       -18.9145
 174   2.0000      -0.684840       -18.6354
 175   2.0000      -0.680702       -18.5228
 176   2.0000      -0.680038       -18.5048
 177   2.0000      -0.668048       -18.1785
 178   2.0000      -0.662530       -18.0284
 179   2.0000      -0.660976       -17.9861
 180   2.0000      -0.659787       -17.9537
 181   2.0000      -0.647223       -17.6118
 182   2.0000      -0.643453       -17.5093
 183   2.0000      -0.640578       -17.4310
 184   2.0000      -0.636195       -17.3118
 185   2.0000      -0.633394       -17.2355
 186   2.0000      -0.630220       -17.1492
 187   2.0000      -0.623943       -16.9783
 188   2.0000      -0.618603       -16.8330
 189   2.0000      -0.615054       -16.7365
 190   2.0000      -0.612190       -16.6585
 191   2.0000      -0.603265       -16.4157
 192   2.0000      -0.602900       -16.4057
 193   2.0000      -0.600587       -16.3428
 194   2.0000      -0.596268       -16.2253
 195   2.0000      -0.594699       -16.1826
 196   2.0000      -0.587557       -15.9882
 197   2.0000      -0.571338       -15.5469
 198   2.0000      -0.570865       -15.5340
 199   2.0000      -0.568140       -15.4599
 200   2.0000      -0.566596       -15.4179
 201   2.0000      -0.565663       -15.3925
 202   2.0000      -0.558867       -15.2076
 203   2.0000      -0.549351       -14.9486
 204   2.0000      -0.547119       -14.8879
 205   2.0000      -0.544022       -14.8036
 206   2.0000      -0.542820       -14.7709
 207   2.0000      -0.536265       -14.5925
 208   2.0000      -0.533179       -14.5085
 209   2.0000      -0.529117       -14.3980
 210   2.0000      -0.527956       -14.3664
 211   2.0000      -0.525963       -14.3122
 212   2.0000      -0.519124       -14.1261
 213   2.0000      -0.516697       -14.0600
 214   2.0000      -0.515058       -14.0154
 215   2.0000      -0.513277       -13.9670
 216   2.0000      -0.511750       -13.9254
 217   2.0000      -0.509083       -13.8528
 218   2.0000      -0.507766       -13.8170
 219   2.0000      -0.507263       -13.8033
 220   2.0000      -0.505637       -13.7591
 221   2.0000      -0.502067       -13.6619
 222   2.0000      -0.501452       -13.6452
 223   2.0000      -0.498872       -13.5750
 224   2.0000      -0.496474       -13.5097
 225   2.0000      -0.495862       -13.4931
 226   2.0000      -0.495504       -13.4833
 227   2.0000      -0.489860       -13.3298
 228   2.0000      -0.487698       -13.2709
 229   2.0000      -0.486437       -13.2366
 230   2.0000      -0.484964       -13.1965
 231   2.0000      -0.482783       -13.1372
 232   2.0000      -0.481569       -13.1042
 233   2.0000      -0.479675       -13.0526
 234   2.0000      -0.479222       -13.0403
 235   2.0000      -0.476772       -12.9736
 236   2.0000      -0.474730       -12.9181
 237   2.0000      -0.469603       -12.7785
 238   2.0000      -0.467543       -12.7225
 239   2.0000      -0.466683       -12.6991
 240   2.0000      -0.465404       -12.6643
 241   2.0000      -0.463623       -12.6158
 242   2.0000      -0.461933       -12.5698
 243   2.0000      -0.457673       -12.4539
 244   2.0000      -0.456879       -12.4323
 245   2.0000      -0.452708       -12.3188
 246   2.0000      -0.451353       -12.2819
 247   2.0000      -0.449509       -12.2318
 248   2.0000      -0.443665       -12.0727
 249   2.0000      -0.442913       -12.0523
 250   2.0000      -0.442194       -12.0327
 251   2.0000      -0.438914       -11.9435
 252   2.0000      -0.436087       -11.8665
 253   2.0000      -0.432316       -11.7639
 254   2.0000      -0.431816       -11.7503
 255   2.0000      -0.430086       -11.7032
 256   2.0000      -0.427279       -11.6269
 257   2.0000      -0.423264       -11.5176
 258   2.0000      -0.422508       -11.4970
 259   2.0000      -0.420855       -11.4521
 260   2.0000      -0.418630       -11.3915
 261   2.0000      -0.417226       -11.3533
 262   2.0000      -0.414608       -11.2821
 263   2.0000      -0.413484       -11.2515
 264   2.0000      -0.412152       -11.2152
 265   2.0000      -0.405480       -11.0337
 266   2.0000      -0.403060       -10.9678
 267   2.0000      -0.400882       -10.9085
 268   2.0000      -0.399572       -10.8729
 269   2.0000      -0.398039       -10.8312
 270   2.0000      -0.395314       -10.7570
 271   2.0000      -0.386784       -10.5249
 272   2.0000      -0.379470       -10.3259
 273   2.0000      -0.375568       -10.2197
 274   2.0000      -0.372750       -10.1430
 275   2.0000      -0.366229        -9.9656
 276   2.0000      -0.360881        -9.8201
 277   2.0000      -0.356598        -9.7035
 278   2.0000      -0.351035        -9.5522
 279   2.0000      -0.348281        -9.4772
 280   2.0000      -0.347482        -9.4555
 281   2.0000      -0.338450        -9.2097
 282   2.0000      -0.338191        -9.2027
 283   2.0000      -0.334575        -9.1042
 284   2.0000      -0.330205        -8.9853
 285   2.0000      -0.328440        -8.9373
 286   2.0000      -0.321241        -8.7414
 287   2.0000      -0.309648        -8.4260
 288   2.0000      -0.305689        -8.3182
 289   2.0000      -0.302073        -8.2198
 290   2.0000      -0.289772        -7.8851
 291   2.0000      -0.284299        -7.7362
 292   2.0000      -0.277928        -7.5628
 293   2.0000      -0.271135        -7.3780
 294   2.0000      -0.268485        -7.3059
 295   2.0000      -0.244468        -6.6523
 296   2.0000      -0.198014        -5.3882
 297   0.0000      -0.116056        -3.1580
 298   0.0000      -0.087244        -2.3740
 299   0.0000      -0.066401        -1.8069
 300   0.0000      -0.051564        -1.4031
 301   0.0000      -0.039722        -1.0809

MULLIKEN ATOMIC CHARGES
-----------------------
   0 C :    0.332534
   1 C :   -0.382461
   2 C :   -0.190923
   3 N :    0.123693
   4 C :   -0.175444
   5 N :    0.103976
   6 C :    0.012168
   7 C :   -0.003403
   8 C :   -0.084359
   9 C :    0.116639
  10 C :   -0.092864
  11 C :   -0.030091
  12 S :    0.171857
  13 C :   -0.124304
  14 C :    0.036870
  15 Br:    0.004988
  16 C :    0.132378
  17 O :   -0.175775
  18 C :   -0.103539
  19 C :   -0.036483
  20 C :   -0.029040
  21 C :    0.003845
  22 C :    0.015179
  23 C :    0.036640
  24 C :   -0.061501
  25 S :    0.114086
  26 C :   -0.031032
  27 C :   -0.000402
  28 C :    0.047977
  29 C :   -0.068970
  30 S :    0.113625
  31 C :    0.040657
  32 C :   -0.005204
  33 C :   -0.016752
  34 C :    0.013147
  35 C :    0.048405
  36 C :   -0.076741
  37 S :    0.081416
  38 C :   -0.039169
  39 C :    0.023881
  40 C :    0.072714
  41 C :   -0.065563
  42 S :    0.111778
  43 C :   -0.046010
  44 C :    0.055135
  45 C :   -0.145984
  46 C :    0.121729
  47 N :   -0.017501
  48 C :   -0.149868
  49 C :    0.122960
  50 C :    0.063637
  51 C :   -0.043838
  52 C :    0.030287
  53 C :   -0.003335
  54 C :   -0.088643
  55 C :    0.323579
  56 C :   -0.350614
  57 C :   -0.185076
  58 N :    0.133443
  59 C :   -0.191347
  60 N :    0.139856
  61 C :    0.006374
  62 C :   -0.005357
  63 C :    0.125098
  64 O :   -0.159629
  65 C :   -0.074641
  66 C :    0.117892
  67 C :   -0.101473
  68 C :   -0.013535
  69 S :    0.164351
  70 C :   -0.138562
  71 C :    0.060963
  72 Br:    0.062450
  73 H :   -0.019044
  74 H :   -0.011693
  75 H :   -0.009573
  76 H :    0.001476
  77 H :    0.010768
  78 H :   -0.008402
  79 H :   -0.012879
  80 H :   -0.013623
  81 H :   -0.005610
  82 H :    0.000708
  83 H :    0.002365
  84 H :   -0.002855
  85 H :    0.004805
  86 H :    0.003156
  87 H :    0.001047
  88 H :   -0.006226
  89 H :    0.047687
  90 H :    0.047015
  91 H :    0.006121
  92 H :    0.125074
  93 H :    0.007680
  94 H :    0.049462
  95 H :    0.045716
  96 H :   -0.016488
  97 H :    0.006661
  98 H :    0.010150
  99 H :   -0.017280
 100 H :   -0.013850
 101 H :   -0.009145
Sum of atomic charges:   -0.0000000

LOEWDIN ATOMIC CHARGES
----------------------
   0 C :    0.074193
   1 C :   -0.176552
   2 C :   -0.020314
   3 N :   -0.082710
   4 C :   -0.004522
   5 N :   -0.099995
   6 C :   -0.016263
   7 C :   -0.046089
   8 C :    0.012492
   9 C :   -0.038915
  10 C :   -0.147897
  11 C :   -0.017124
  12 S :    0.421909
  13 C :   -0.278220
  14 C :   -0.071473
  15 Br:    0.122519
  16 C :    0.079719
  17 O :   -0.167406
  18 C :   -0.124133
  19 C :    0.039224
  20 C :   -0.082391
  21 C :   -0.108286
  22 C :   -0.057246
  23 C :   -0.014711
  24 C :   -0.211159
  25 S :    0.416493
  26 C :   -0.145956
  27 C :   -0.059656
  28 C :   -0.015294
  29 C :   -0.178184
  30 S :    0.433007
  31 C :   -0.011753
  32 C :   -0.081254
  33 C :   -0.115375
  34 C :   -0.049586
  35 C :   -0.003359
  36 C :   -0.200015
  37 S :    0.398915
  38 C :   -0.146336
  39 C :   -0.043830
  40 C :    0.004016
  41 C :   -0.165581
  42 S :    0.426434
  43 C :   -0.004298
  44 C :   -0.077816
  45 C :    0.002627
  46 C :   -0.052036
  47 N :    0.108308
  48 C :    0.005074
  49 C :   -0.052228
  50 C :   -0.083810
  51 C :    0.027069
  52 C :   -0.061969
  53 C :    0.071848
  54 C :   -0.105207
  55 C :    0.077942
  56 C :   -0.153111
  57 C :   -0.010039
  58 N :   -0.073899
  59 C :   -0.017011
  60 N :   -0.065836
  61 C :   -0.026948
  62 C :   -0.058323
  63 C :    0.081151
  64 O :   -0.157937
  65 C :    0.020565
  66 C :   -0.032261
  67 C :   -0.145800
  68 C :   -0.012735
  69 S :    0.421303
  70 C :   -0.279035
  71 C :   -0.081587
  72 Br:    0.174003
  73 H :    0.037021
  74 H :    0.039110
  75 H :    0.036123
  76 H :    0.028182
  77 H :    0.036420
  78 H :    0.035357
  79 H :    0.032232
  80 H :    0.032003
  81 H :    0.036962
  82 H :    0.030756
  83 H :    0.030114
  84 H :    0.035813
  85 H :    0.039653
  86 H :    0.038500
  87 H :    0.039544
  88 H :    0.040806
  89 H :    0.044768
  90 H :    0.044794
  91 H :    0.033871
  92 H :    0.092838
  93 H :    0.034428
  94 H :    0.046070
  95 H :    0.044665
  96 H :    0.030761
  97 H :    0.024670
  98 H :    0.040604
  99 H :    0.038366
 100 H :    0.036358
 101 H :    0.033869

  Mayer bond orders larger than 0.100000
B(  0-C ,  1-C ) :   1.5325 B(  0-C ,  6-C ) :   0.9822 B(  0-C , 18-C ) :   1.1595
B(  1-C ,  2-C ) :   1.1533 B(  1-C ,  4-C ) :   1.1678 B(  2-C ,  3-N ) :   2.9573
B(  4-C ,  5-N ) :   2.9374 B(  6-C ,  7-C ) :   1.2808 B(  6-C , 11-C ) :   1.4274
B(  7-C ,  8-C ) :   1.4385 B(  7-C , 16-C ) :   0.9313 B(  8-C ,  9-C ) :   1.2306
B(  8-C , 73-H ) :   1.0161 B(  9-C , 10-C ) :   1.3259 B(  9-C , 14-C ) :   1.1601
B( 10-C , 11-C ) :   1.3119 B( 10-C , 12-S ) :   1.0790 B( 11-C , 74-H ) :   0.9793
B( 12-S , 13-C ) :   1.0854 B( 13-C , 14-C ) :   1.6207 B( 13-C , 15-Br) :   1.0073
B( 14-C , 75-H ) :   1.0000 B( 16-C , 17-O ) :   2.1701 B( 16-C , 18-C ) :   0.9832
B( 18-C , 19-C ) :   1.3900 B( 19-C , 20-C ) :   1.3486 B( 19-C , 76-H ) :   0.9462
B( 20-C , 21-C ) :   1.3264 B( 20-C , 77-H ) :   0.9767 B( 21-C , 22-C ) :   1.2453
B( 21-C , 25-S ) :   1.1013 B( 22-C , 23-C ) :   1.4598 B( 22-C , 78-H ) :   1.0024
B( 23-C , 24-C ) :   1.2906 B( 23-C , 79-H ) :   0.9951 B( 24-C , 25-S ) :   1.0591
B( 24-C , 26-C ) :   1.3478 B( 26-C , 27-C ) :   1.2774 B( 26-C , 30-S ) :   1.1117
B( 27-C , 28-C ) :   1.4690 B( 27-C , 80-H ) :   0.9967 B( 28-C , 29-C ) :   1.2427
B( 28-C , 81-H ) :   1.0014 B( 29-C , 30-S ) :   1.0499 B( 29-C , 31-C ) :   1.4274
B( 31-C , 32-C ) :   1.3092 B( 31-C , 82-H ) :   0.9678 B( 32-C , 33-C ) :   1.4284
B( 32-C , 83-H ) :   0.9722 B( 33-C , 34-C ) :   1.2085 B( 33-C , 37-S ) :   1.0851
B( 34-C , 35-C ) :   1.4915 B( 34-C , 84-H ) :   1.0061 B( 35-C , 36-C ) :   1.2473
B( 35-C , 85-H ) :   0.9980 B( 36-C , 37-S ) :   1.0455 B( 36-C , 38-C ) :   1.4350
B( 38-C , 39-C ) :   1.1945 B( 38-C , 42-S ) :   1.0839 B( 39-C , 40-C ) :   1.5814
B( 39-C , 86-H ) :   0.9932 B( 40-C , 41-C ) :   1.1182 B( 40-C , 87-H ) :   1.0017
B( 41-C , 42-S ) :   1.0252 B( 41-C , 43-C ) :   1.6421 B( 43-C , 44-C ) :   1.1178
B( 43-C , 88-H ) :   0.9463 B( 44-C , 45-C ) :   1.4332 B( 44-C , 50-C ) :   1.1640
B( 45-C , 46-C ) :   1.1105 B( 45-C , 47-N ) :   1.2312 B( 46-C , 89-H ) :   0.9423
B( 46-C , 90-H ) :   0.9373 B( 46-C , 91-H ) :   0.9387 B( 47-N , 48-C ) :   1.2466
B( 47-N , 92-H ) :   0.9292 B( 48-C , 49-C ) :   1.1088 B( 48-C , 50-C ) :   1.4151
B( 49-C , 93-H ) :   0.9387 B( 49-C , 94-H ) :   0.9415 B( 49-C , 95-H ) :   0.9400
B( 50-C , 51-C ) :   1.1233 B( 51-C , 52-C ) :   1.6278 B( 51-C , 96-H ) :   0.9688
B( 52-C , 53-C ) :   1.1545 B( 52-C , 97-H ) :   0.9490 B( 53-C , 54-C ) :   1.5909
B( 53-C , 98-H ) :   0.9468 B( 54-C , 55-C ) :   1.0350 B( 54-C , 63-C ) :   0.9481
B( 55-C , 56-C ) :   1.6029 B( 55-C , 61-C ) :   1.0221 B( 56-C , 57-C ) :   1.1335
B( 56-C , 59-C ) :   1.1790 B( 57-C , 58-N ) :   2.9294 B( 59-C , 60-N ) :   2.9213
B( 61-C , 62-C ) :   1.2707 B( 61-C , 68-C ) :   1.4097 B( 62-C , 63-C ) :   0.9335
B( 62-C , 65-C ) :   1.4157 B( 63-C , 64-O ) :   2.2328 B( 65-C , 66-C ) :   1.2343
B( 65-C , 99-H ) :   1.0213 B( 66-C , 67-C ) :   1.3028 B( 66-C , 71-C ) :   1.1742
B( 67-C , 68-C ) :   1.3342 B( 67-C , 69-S ) :   1.0818 B( 68-C ,100-H ) :   0.9768
B( 69-S , 70-C ) :   1.0799 B( 70-C , 71-C ) :   1.6007 B( 70-C , 72-Br) :   1.0287
B( 71-C ,101-H ) :   0.9965

-----------------------------------------------------------------------------
         ABSORPTION SPECTRUM VIA TRANSITION ELECTRIC DIPOLE MOMENTS
-----------------------------------------------------------------------------
State   Energy  Wavelength   fosc         T2         TX        TY        TZ
        (cm-1)    (nm)                  (au**2)     (au)      (au)      (au)
-----------------------------------------------------------------------------
   0    6425.0   1556.4   1.134514792  58.13139   5.70963   3.31779  -3.81101
   1   10553.9    947.5   0.003548093   0.11068   0.08855  -0.18666   0.26076
   2   14452.0    691.9   0.021565110   0.49124   0.52929   0.38509  -0.25061
   3   16395.6    609.9   0.258397393   5.18843   0.54535  -1.74318  -1.36101
   4   18014.0    555.1   0.031599304   0.57749   0.28840  -0.68562   0.15570
   5   18484.5    541.0   0.010023002   0.17851  -0.24465   0.04094   0.34203
   6   19553.1    511.4   0.021868227   0.36819  -0.13706  -0.51663  -0.28723
   7   19741.9    506.5   0.023504792   0.39196   0.59764  -0.01592  -0.18584
   8   20570.5    486.1   0.066050824   1.05708  -0.11470  -0.84861   0.56902
   9   22169.0    451.1   0.245713660   3.64888  -0.79832  -1.07875   1.35936
  10   22917.5    436.3   0.154026062   2.21260  -0.97294   0.56111   0.97527
  11   24012.1    416.5   0.046277564   0.63448   0.42422   0.55158  -0.38765
  12   25033.7    399.5   0.254656407   3.34893  -1.46238   0.54918   0.95329
  13   25429.0    393.3   0.431022587   5.58015   1.90671   1.00636  -0.96532
  14   26212.8    381.5   0.477881598   6.00181  -1.60641   1.79171   0.45936
  15   26519.2    377.1   0.268074244   3.32791   1.55278  -0.70246  -0.65065
  16   26586.4    376.1   0.000849718   0.01052   0.07231  -0.06975  -0.02068
  17   27200.1    367.6   0.029778389   0.36042   0.50421  -0.32426  -0.03237
  18   27644.4    361.7   0.001956857   0.02330  -0.07886   0.01398   0.12996
  19   27769.4    360.1   0.005405204   0.06408  -0.15047   0.20318   0.01258
  20   28237.7    354.1   0.010972265   0.12792   0.26946   0.01739   0.23454
  21   28599.6    349.7   0.022622450   0.26041   0.46291  -0.16307  -0.13976
  22   29022.5    344.6   0.037383609   0.42405   0.58339   0.11462  -0.26565
  23   29469.7    339.3   0.066319762   0.74087  -0.56158   0.14033   0.63703
  24   29731.7    336.3   0.046994964   0.52036   0.46420  -0.49837  -0.23771
  25   30236.6    330.7   0.133909983   1.45800   0.75674   0.73140  -0.59194
  26   30407.6    328.9   0.057366934   0.62109  -0.65950  -0.22631   0.36733
  27   30655.1    326.2   0.005673838   0.06093  -0.20340  -0.08983   0.10719
  28   30745.6    325.2   0.522384548   5.59349   1.76398   0.73466  -1.39361
  29   31253.2    320.0   0.001060002   0.01117  -0.04639  -0.09303  -0.01897
  30   31281.3    319.7   0.141968361   1.49411   0.92449   0.33209  -0.72742
  31   31298.4    319.5   0.017704887   0.18623   0.14718   0.39873  -0.07469
  32   31708.0    315.4   0.755361260   7.84262   2.20041   1.03638  -1.38807
  33   31873.9    313.7   0.027879098   0.28795  -0.42380   0.01114   0.32897
  34   32190.3    310.7   0.071515125   0.73139  -0.21672   0.79949   0.21268
  35   32362.6    309.0   0.004270796   0.04345   0.17899   0.01803  -0.10527
  36   32571.6    307.0   0.047576864   0.48087   0.50475   0.30633  -0.36368
  37   32612.3    306.6   0.016035719   0.16188  -0.32646   0.15184   0.17957
  38   32827.4    304.6   0.003239788   0.03249   0.09235  -0.12509  -0.09118
  39   33307.3    300.2   0.023705255   0.23430  -0.18868  -0.39981   0.19711
  40   33430.4    299.1   0.007774500   0.07656   0.17063   0.11201  -0.18681
  41   33623.9    297.4   0.021074869   0.20634  -0.20855   0.39431  -0.08587
  42   33661.2    297.1   0.101913130   0.99673   0.53903   0.76982  -0.33698
  43   33946.0    294.6   0.063328836   0.61417  -0.58991  -0.35613   0.37329
  44   34521.9    289.7   0.048612197   0.46358   0.35769   0.57381  -0.07985
  45   34808.6    287.3   0.021197094   0.20048   0.23246   0.30404  -0.23237
  46   35010.9    285.6   0.019854203   0.18669   0.35867  -0.09706  -0.22051
  47   35166.5    284.4   0.081468069   0.76267  -0.12013  -0.86486  -0.01570
  48   35557.7    281.2   0.079849262   0.73929   0.72079   0.44641  -0.14304
  49   35633.3    280.6   0.011854219   0.10952  -0.31258   0.10525  -0.02712
  50   36009.2    277.7   0.082650620   0.75563   0.79465  -0.31263  -0.16256
  51   36436.3    274.5   0.031865438   0.28791  -0.05407   0.53335  -0.02290
  52   36581.8    273.4   0.249581391   2.24607  -0.59465  -1.31841   0.39277
  53   36896.5    271.0   0.008665457   0.07732  -0.16706   0.01085   0.22202
  54   36926.1    270.8   0.018149765   0.16181  -0.14168   0.25945   0.27281
  55   37149.2    269.2   0.021613086   0.19153   0.29617   0.12574  -0.29665
  56   37444.3    267.1   0.013594638   0.11952  -0.11272   0.32419  -0.04150
  57   37849.4    264.2   0.040860729   0.35540  -0.21539  -0.44915   0.32753
  58   37988.1    263.2   0.018134012   0.15715  -0.20785  -0.26987   0.20279
  59   37993.7    263.2   0.006056954   0.05248  -0.04976   0.19906  -0.10190
  60   38134.8    262.2   0.068901207   0.59481   0.69773  -0.12011  -0.30588
  61   38321.1    261.0   0.063383265   0.54452   0.32469   0.63573  -0.18693
  62   38751.3    258.1   0.019185233   0.16299  -0.11941   0.38563  -0.00412
  63   39440.3    253.5   0.056430306   0.47103   0.27580  -0.62766  -0.03174
  64   39512.9    253.1   0.035757133   0.29792   0.52938   0.03367  -0.12860
  65   39683.4    252.0   0.001658100   0.01376  -0.06509  -0.04040   0.08881
  66   39741.8    251.6   0.024493480   0.20290   0.39977  -0.05068  -0.20127
  67   39850.0    250.9   0.051288002   0.42370  -0.10466   0.64147   0.03559
  68   40014.0    249.9   0.006892486   0.05671   0.07792  -0.21458   0.06776
  69   40249.6    248.4   0.042361650   0.34649   0.13530  -0.57271  -0.01353
  70   40314.6    248.0   0.019634714   0.16034  -0.13780   0.36403  -0.09395

FINAL SINGLE POINT ENERGY    -10184.663866870782

DIPOLE MOMENT
-------------
                                X             Y             Z
Electronic contribution:    223.92766      46.38328    -151.36896
Nuclear contribution   :   -232.10883     -46.65323     157.83881
                        -----------------------------------------
Total Dipole Moment    :     -8.18117      -0.26995       6.46985
                        -----------------------------------------
Magnitude (a.u.)       :     10.43376
Magnitude (Debye)      :     26.52052

Rotational constants in cm-1:     0.002708     0.000202     0.000194
Rotational constants in MHz :    81.194562     6.041582     5.802882

                             ****ORCA TERMINATED NORMALLY****
TOTAL RUN TIME: 0 days 0 hours 25 minutes 10 seconds 730 msec
