                         Program Version 4.2.0 -  RELEASE  -
|  1> # ORCA input file
|  2> # SCF done       -186.718196400395          0.000931072123
|  3> ! CAM-B3LYP def2-SVP def2/J RIJCOSX Grid4 TightSCF
|  4> %maxcore 5000
|  5> %tddft
|  6>     Mode sTDDFT
|  7>     Ethresh 5.0
|  8>     maxcore 5000
|  9> end
| 10>
| 11> %pal
| 12>   nprocs 6
| 13>   end
| 14> * xyz 0 1
| 15>    C       -2.67238         1.87688        -2.65317
| 16>    C       -1.72088         1.45060        -1.75686
| 17>    C       -0.70698         0.51920        -2.06224
| 18>    N        0.14533        -0.23037        -2.23673
| 19>    C       -1.61566         1.83612        -0.40652
| 20>    N       -1.47200         2.09171         0.70595
| 21>    C       -2.77030         1.41561        -4.03572
| 22>    C       -3.90939         2.00951        -4.62823
| 23>    C       -4.29114         1.75947        -5.92280
| 24>    C       -3.50389         0.88227        -6.67654
| 25>    C       -2.36399         0.29564        -6.07910
| 26>    C       -1.98143         0.54699        -4.76700
| 27>    S       -1.53835        -0.76389        -7.18242
| 28>    C       -2.71977        -0.40772        -8.41376
| 29>    C       -3.68374         0.45904        -8.02187
| 30>   Br       -2.57461        -1.21980       -10.09804
| 31>    C       -4.58980         2.86233        -3.63275
| 32>    O       -5.67569         3.39419        -3.78836
| 33>    C       -3.75041         2.82031        -2.42952
| 34>    C       -3.91792         3.48360        -1.23491
| 35>    N       -4.73895         4.45433        -0.87445
| 36>    C       -5.60776         5.31409        -1.70011
| 37>    N       -6.36648         6.13985        -0.79147
| 38>    C       -5.45629         6.29798         0.32417
| 39>    N       -6.03967         6.75835         1.56738
| 40>    C       -5.21130         6.25085         2.65396
| 41>    C       -3.73805         6.06893         2.21446
| 42>    N       -3.59670         5.00347         1.23806
| 43>    C       -4.84009         4.89232         0.50716
| 44>    N       -3.11677         5.87320         3.49920
| 45>    C       -3.67992         6.95829         4.29011
| 46>    N       -5.06590         7.04972         3.84323
| 47>    C       -6.07908         7.23266         4.72786
| 48>    C       -7.38964         7.06156         4.44129
| 49>    C       -8.48564         7.25026         5.34152
| 50>    C       -8.51389         8.07721         6.44852
| 51>    O       -9.55023         8.04423         7.37435
| 52>    C      -10.61145         7.26743         7.03063
| 53>    C      -10.62822         6.50139         5.82824
| 54>    C      -11.78328         5.81038         5.65770
| 55>    S      -12.87046         6.08079         6.96606
| 56>    C      -11.75434         7.13838         7.74879
| 57>    O       -9.56114         6.46949         4.98129
| 58>    C       -7.51573         9.04267         6.69982
| 59>    C       -7.35783         9.72913         7.87538
| 60>    C       -6.34115        10.65338         8.15324
| 61>    C       -5.28228        11.05794         7.36542
| 62>    C       -4.26109        11.94935         7.76856
| 63>    C       -3.29843        12.18807         6.82964
| 64>    C       -3.51195        11.50863         5.61435
| 65>    S       -4.96290        10.53920         5.71564
| 66>    C       -2.77807        11.54684         4.44312
| 67>    C       -1.57431        12.22350         4.16776
| 68>    C       -1.14078        12.08258         2.88259
| 69>    C       -1.99080        11.30188         2.06081
| 70>    S       -3.34157        10.70263         3.00679
| 71>    C       -1.83231        11.06414         0.71994
| 72>    C       -2.72380        10.39392        -0.13287
| 73>    S       -4.27312         9.71247         0.34697
| 74>    C       -4.69338         9.20153        -1.25002
| 75>    C       -3.69040         9.52777        -2.13036
| 76>    C       -2.59618        10.19239        -1.49723
| 77>    O       -1.63556        10.50616        -2.39303
| 78>    C       -2.10094        10.04955        -3.58663
| 79>    N       -1.28950        10.24668        -4.72689
| 80>    O       -1.72037         9.81102        -5.77972
| 81>    O       -0.23519        10.82876        -4.58452
| 82>    C       -3.32965         9.44952        -3.50407
| 83>    H       -5.17025         2.22450        -6.34057
| 84>    H       -1.10579         0.07030        -4.36008
| 85>    H       -4.48954         0.78647        -8.65314
| 86>    H       -3.26296         3.19090        -0.42501
| 87>    H       -6.23582         4.72719        -2.37123
| 88>    H       -4.95747         5.95969        -2.30645
| 89>    H       -7.21662         5.67747        -0.48173
| 90>    H       -4.64563         6.94876        -0.04471
| 91>    H       -6.09234         7.77205         1.58882
| 92>    H       -5.62223         5.26655         2.94299
| 93>    H       -3.39803         7.01365         1.74202
| 94>    H       -3.32129         4.13788         1.69121
| 95>    H       -5.57781         4.23063         1.00225
| 96>    H       -2.10415         5.90062         3.46504
| 97>    H       -3.18701         7.92945         4.10144
| 98>    H       -3.61415         6.72229         5.35560
| 99>    H       -5.75134         7.54416         5.70747
|100>    H       -7.66783         6.65181         3.48131
|101>    H      -12.05230         5.16544         4.84782
|102>    H      -12.00334         7.59757         8.68208
|103>    H       -6.87169         9.25078         5.86477
|104>    H       -8.04908         9.51666         8.67893
|105>    H       -6.35737        11.09682         9.14146
|106>    H       -4.26540        12.39146         8.74976
|107>    H       -2.45791        12.84205         6.97697
|108>    H       -1.06199        12.79613         4.92005
|109>    H       -0.24742        12.53277         2.48791
|110>    H       -0.94797        11.46117         0.23988
|111>    H       -5.62921         8.71292        -1.42681
|112>    H       -3.87876         9.02422        -4.31809
|113> *
|114>
|115>                          ****END OF INPUT****

CARTESIAN COORDINATES (ANGSTROEM)
---------------------------------
  C     -2.672380    1.876880   -2.653170
  C     -1.720880    1.450600   -1.756860
  C     -0.706980    0.519200   -2.062240
  N      0.145330   -0.230370   -2.236730
  C     -1.615660    1.836120   -0.406520
  N     -1.472000    2.091710    0.705950
  C     -2.770300    1.415610   -4.035720
  C     -3.909390    2.009510   -4.628230
  C     -4.291140    1.759470   -5.922800
  C     -3.503890    0.882270   -6.676540
  C     -2.363990    0.295640   -6.079100
  C     -1.981430    0.546990   -4.767000
  S     -1.538350   -0.763890   -7.182420
  C     -2.719770   -0.407720   -8.413760
  C     -3.683740    0.459040   -8.021870
  Br    -2.574610   -1.219800  -10.098040
  C     -4.589800    2.862330   -3.632750
  O     -5.675690    3.394190   -3.788360
  C     -3.750410    2.820310   -2.429520
  C     -3.917920    3.483600   -1.234910
  N     -4.738950    4.454330   -0.874450
  C     -5.607760    5.314090   -1.700110
  N     -6.366480    6.139850   -0.791470
  C     -5.456290    6.297980    0.324170
  N     -6.039670    6.758350    1.567380
  C     -5.211300    6.250850    2.653960
  C     -3.738050    6.068930    2.214460
  N     -3.596700    5.003470    1.238060
  C     -4.840090    4.892320    0.507160
  N     -3.116770    5.873200    3.499200
  C     -3.679920    6.958290    4.290110
  N     -5.065900    7.049720    3.843230
  C     -6.079080    7.232660    4.727860
  C     -7.389640    7.061560    4.441290
  C     -8.485640    7.250260    5.341520
  C     -8.513890    8.077210    6.448520
  O     -9.550230    8.044230    7.374350
  C    -10.611450    7.267430    7.030630
  C    -10.628220    6.501390    5.828240
  C    -11.783280    5.810380    5.657700
  S    -12.870460    6.080790    6.966060
  C    -11.754340    7.138380    7.748790
  O     -9.561140    6.469490    4.981290
  C     -7.515730    9.042670    6.699820
  C     -7.357830    9.729130    7.875380
  C     -6.341150   10.653380    8.153240
  C     -5.282280   11.057940    7.365420
  C     -4.261090   11.949350    7.768560
  C     -3.298430   12.188070    6.829640
  C     -3.511950   11.508630    5.614350
  S     -4.962900   10.539200    5.715640
  C     -2.778070   11.546840    4.443120
  C     -1.574310   12.223500    4.167760
  C     -1.140780   12.082580    2.882590
  C     -1.990800   11.301880    2.060810
  S     -3.341570   10.702630    3.006790
  C     -1.832310   11.064140    0.719940
  C     -2.723800   10.393920   -0.132870
  S     -4.273120    9.712470    0.346970
  C     -4.693380    9.201530   -1.250020
  C     -3.690400    9.527770   -2.130360
  C     -2.596180   10.192390   -1.497230
  O     -1.635560   10.506160   -2.393030
  C     -2.100940   10.049550   -3.586630
  N     -1.289500   10.246680   -4.726890
  O     -1.720370    9.811020   -5.779720
  O     -0.235190   10.828760   -4.584520
  C     -3.329650    9.449520   -3.504070
  H     -5.170250    2.224500   -6.340570
  H     -1.105790    0.070300   -4.360080
  H     -4.489540    0.786470   -8.653140
  H     -3.262960    3.190900   -0.425010
  H     -6.235820    4.727190   -2.371230
  H     -4.957470    5.959690   -2.306450
  H     -7.216620    5.677470   -0.481730
  H     -4.645630    6.948760   -0.044710
  H     -6.092340    7.772050    1.588820
  H     -5.622230    5.266550    2.942990
  H     -3.398030    7.013650    1.742020
  H     -3.321290    4.137880    1.691210
  H     -5.577810    4.230630    1.002250
  H     -2.104150    5.900620    3.465040
  H     -3.187010    7.929450    4.101440
  H     -3.614150    6.722290    5.355600
  H     -5.751340    7.544160    5.707470
  H     -7.667830    6.651810    3.481310
  H    -12.052300    5.165440    4.847820
  H    -12.003340    7.597570    8.682080
  H     -6.871690    9.250780    5.864770
  H     -8.049080    9.516660    8.678930
  H     -6.357370   11.096820    9.141460
  H     -4.265400   12.391460    8.749760
  H     -2.457910   12.842050    6.976970
  H     -1.061990   12.796130    4.920050
  H     -0.247420   12.532770    2.487910
  H     -0.947970   11.461170    0.239880
  H     -5.629210    8.712920   -1.426810
  H     -3.878760    9.024220   -4.318090

 Total Charge           Charge          ....    0
 Multiplicity           Mult            ....    1
 Number of Electrons    NEL             ....  538
 Basis Dimension        Dim             .... 1140

ORBITAL ENERGIES
----------------

  NO   OCC          E(Eh)            E(eV)
   0   2.0000    -482.880318    -13139.8415
   1   2.0000     -88.981536     -2421.3107
   2   2.0000     -88.969105     -2420.9724
   3   2.0000     -88.954620     -2420.5783
   4   2.0000     -88.954455     -2420.5738
   5   2.0000     -88.953854     -2420.5574
   6   2.0000     -62.558057     -1702.2913
   7   2.0000     -56.392001     -1534.5044
   8   2.0000     -56.389297     -1534.4308
   9   2.0000     -56.389259     -1534.4297
  10   2.0000     -19.310166      -525.4563
  11   2.0000     -19.274458      -524.4847
  12   2.0000     -19.264815      -524.2223
  13   2.0000     -19.244397      -523.6667
  14   2.0000     -19.242170      -523.6061
  15   2.0000     -19.207076      -522.6511
  16   2.0000     -14.655827      -398.8053
  17   2.0000     -14.476221      -393.9180
  18   2.0000     -14.452147      -393.2629
  19   2.0000     -14.424030      -392.4978
  20   2.0000     -14.421138      -392.4191
  21   2.0000     -14.420777      -392.4093
  22   2.0000     -14.420060      -392.3898
  23   2.0000     -14.412882      -392.1945
  24   2.0000     -14.402959      -391.9244
  25   2.0000     -10.388601      -282.6882
  26   2.0000     -10.361315      -281.9457
  27   2.0000     -10.355892      -281.7981
  28   2.0000     -10.352679      -281.7107
  29   2.0000     -10.352395      -281.7030
  30   2.0000     -10.351047      -281.6663
  31   2.0000     -10.346542      -281.5437
  32   2.0000     -10.345905      -281.5264
  33   2.0000     -10.345156      -281.5060
  34   2.0000     -10.343885      -281.4714
  35   2.0000     -10.341022      -281.3935
  36   2.0000     -10.338894      -281.3356
  37   2.0000     -10.337160      -281.2884
  38   2.0000     -10.336535      -281.2714
  39   2.0000     -10.335581      -281.2455
  40   2.0000     -10.332248      -281.1548
  41   2.0000     -10.327459      -281.0244
  42   2.0000     -10.325717      -280.9770
  43   2.0000     -10.321833      -280.8714
  44   2.0000     -10.317782      -280.7611
  45   2.0000     -10.317724      -280.7595
  46   2.0000     -10.317661      -280.7578
  47   2.0000     -10.314459      -280.6707
  48   2.0000     -10.313138      -280.6348
  49   2.0000     -10.310909      -280.5741
  50   2.0000     -10.310779      -280.5706
  51   2.0000     -10.307888      -280.4919
  52   2.0000     -10.305486      -280.4265
  53   2.0000     -10.300385      -280.2877
  54   2.0000     -10.300251      -280.2841
  55   2.0000     -10.299282      -280.2577
  56   2.0000     -10.297811      -280.2177
  57   2.0000     -10.293372      -280.0969
  58   2.0000     -10.291865      -280.0559
  59   2.0000     -10.291420      -280.0438
  60   2.0000     -10.290805      -280.0270
  61   2.0000     -10.290548      -280.0200
  62   2.0000     -10.289995      -280.0050
  63   2.0000     -10.289243      -279.9845
  64   2.0000     -10.286396      -279.9071
  65   2.0000     -10.286177      -279.9011
  66   2.0000     -10.286062      -279.8980
  67   2.0000     -10.283748      -279.8350
  68   2.0000     -10.281754      -279.7808
  69   2.0000     -10.281295      -279.7683
  70   2.0000     -10.269941      -279.4593
  71   2.0000     -10.268137      -279.4102
  72   2.0000      -8.787502      -239.1201
  73   2.0000      -8.074866      -219.7283
  74   2.0000      -8.065071      -219.4618
  75   2.0000      -8.050200      -219.0571
  76   2.0000      -8.050150      -219.0557
  77   2.0000      -8.049220      -219.0304
  78   2.0000      -6.623793      -180.2426
  79   2.0000      -6.609228      -179.8462
  80   2.0000      -6.609062      -179.8417
  81   2.0000      -6.044293      -164.4736
  82   2.0000      -6.039964      -164.3558
  83   2.0000      -6.037320      -164.2838
  84   2.0000      -6.034754      -164.2140
  85   2.0000      -6.030497      -164.0982
  86   2.0000      -6.026308      -163.9842
  87   2.0000      -6.019927      -163.8105
  88   2.0000      -6.019703      -163.8045
  89   2.0000      -6.018933      -163.7835
  90   2.0000      -6.015843      -163.6994
  91   2.0000      -6.015545      -163.6913
  92   2.0000      -6.014843      -163.6722
  93   2.0000      -6.011907      -163.5923
  94   2.0000      -6.011149      -163.5717
  95   2.0000      -6.010428      -163.5521
  96   2.0000      -2.739638       -74.5493
  97   2.0000      -2.735603       -74.4396
  98   2.0000      -2.735439       -74.4351
  99   2.0000      -2.723887       -74.1207
 100   2.0000      -2.723866       -74.1202
 101   2.0000      -1.326778       -36.1035
 102   2.0000      -1.229955       -33.4688
 103   2.0000      -1.196441       -32.5568
 104   2.0000      -1.158182       -31.5157
 105   2.0000      -1.142928       -31.1006
 106   2.0000      -1.125287       -30.6206
 107   2.0000      -1.119878       -30.4734
 108   2.0000      -1.102087       -29.9893
 109   2.0000      -1.036562       -28.2063
 110   2.0000      -1.029843       -28.0235
 111   2.0000      -1.015417       -27.6309
 112   2.0000      -1.007421       -27.4133
 113   2.0000      -1.002901       -27.2903
 114   2.0000      -0.998986       -27.1838
 115   2.0000      -0.995380       -27.0857
 116   2.0000      -0.987712       -26.8770
 117   2.0000      -0.982738       -26.7417
 118   2.0000      -0.980507       -26.6809
 119   2.0000      -0.976067       -26.5601
 120   2.0000      -0.965928       -26.2842
 121   2.0000      -0.936574       -25.4855
 122   2.0000      -0.933366       -25.3982
 123   2.0000      -0.920949       -25.0603
 124   2.0000      -0.903927       -24.5971
 125   2.0000      -0.901096       -24.5201
 126   2.0000      -0.893923       -24.3249
 127   2.0000      -0.881945       -23.9989
 128   2.0000      -0.879467       -23.9315
 129   2.0000      -0.878318       -23.9002
 130   2.0000      -0.862562       -23.4715
 131   2.0000      -0.854691       -23.2573
 132   2.0000      -0.850594       -23.1458
 133   2.0000      -0.841005       -22.8849
 134   2.0000      -0.836829       -22.7713
 135   2.0000      -0.829947       -22.5840
 136   2.0000      -0.826840       -22.4995
 137   2.0000      -0.822085       -22.3701
 138   2.0000      -0.814694       -22.1690
 139   2.0000      -0.804052       -21.8794
 140   2.0000      -0.796229       -21.6665
 141   2.0000      -0.787760       -21.4361
 142   2.0000      -0.785392       -21.3716
 143   2.0000      -0.778121       -21.1737
 144   2.0000      -0.758474       -20.6391
 145   2.0000      -0.755121       -20.5479
 146   2.0000      -0.750018       -20.4090
 147   2.0000      -0.737490       -20.0681
 148   2.0000      -0.730567       -19.8797
 149   2.0000      -0.714437       -19.4408
 150   2.0000      -0.708787       -19.2871
 151   2.0000      -0.698145       -18.9975
 152   2.0000      -0.692975       -18.8568
 153   2.0000      -0.689383       -18.7591
 154   2.0000      -0.686683       -18.6856
 155   2.0000      -0.680837       -18.5265
 156   2.0000      -0.676264       -18.4021
 157   2.0000      -0.675014       -18.3681
 158   2.0000      -0.671857       -18.2822
 159   2.0000      -0.659637       -17.9496
 160   2.0000      -0.658506       -17.9189
 161   2.0000      -0.652076       -17.7439
 162   2.0000      -0.645912       -17.5762
 163   2.0000      -0.644792       -17.5457
 164   2.0000      -0.640875       -17.4391
 165   2.0000      -0.636757       -17.3271
 166   2.0000      -0.633048       -17.2261
 167   2.0000      -0.629752       -17.1364
 168   2.0000      -0.626728       -17.0541
 169   2.0000      -0.626472       -17.0472
 170   2.0000      -0.615243       -16.7416
 171   2.0000      -0.606193       -16.4954
 172   2.0000      -0.603736       -16.4285
 173   2.0000      -0.599977       -16.3262
 174   2.0000      -0.591873       -16.1057
 175   2.0000      -0.590463       -16.0673
 176   2.0000      -0.588963       -16.0265
 177   2.0000      -0.588065       -16.0021
 178   2.0000      -0.585095       -15.9213
 179   2.0000      -0.578069       -15.7300
 180   2.0000      -0.572152       -15.5690
 181   2.0000      -0.567434       -15.4407
 182   2.0000      -0.565320       -15.3831
 183   2.0000      -0.561347       -15.2750
 184   2.0000      -0.559600       -15.2275
 185   2.0000      -0.555541       -15.1170
 186   2.0000      -0.553630       -15.0650
 187   2.0000      -0.549524       -14.9533
 188   2.0000      -0.548710       -14.9312
 189   2.0000      -0.543863       -14.7993
 190   2.0000      -0.540853       -14.7173
 191   2.0000      -0.536900       -14.6098
 192   2.0000      -0.532030       -14.4773
 193   2.0000      -0.531524       -14.4635
 194   2.0000      -0.528597       -14.3838
 195   2.0000      -0.525483       -14.2991
 196   2.0000      -0.523589       -14.2476
 197   2.0000      -0.516385       -14.0516
 198   2.0000      -0.514812       -14.0088
 199   2.0000      -0.511271       -13.9124
 200   2.0000      -0.508751       -13.8438
 201   2.0000      -0.506475       -13.7819
 202   2.0000      -0.503841       -13.7102
 203   2.0000      -0.501864       -13.6564
 204   2.0000      -0.501412       -13.6441
 205   2.0000      -0.500978       -13.6323
 206   2.0000      -0.500636       -13.6230
 207   2.0000      -0.497004       -13.5242
 208   2.0000      -0.494730       -13.4623
 209   2.0000      -0.491787       -13.3822
 210   2.0000      -0.489075       -13.3084
 211   2.0000      -0.488045       -13.2804
 212   2.0000      -0.486309       -13.2332
 213   2.0000      -0.484986       -13.1971
 214   2.0000      -0.480827       -13.0840
 215   2.0000      -0.477050       -12.9812
 216   2.0000      -0.475448       -12.9376
 217   2.0000      -0.469867       -12.7857
 218   2.0000      -0.468449       -12.7471
 219   2.0000      -0.467714       -12.7271
 220   2.0000      -0.460423       -12.5287
 221   2.0000      -0.458657       -12.4807
 222   2.0000      -0.455956       -12.4072
 223   2.0000      -0.454526       -12.3683
 224   2.0000      -0.451891       -12.2966
 225   2.0000      -0.448902       -12.2153
 226   2.0000      -0.444885       -12.1059
 227   2.0000      -0.441625       -12.0172
 228   2.0000      -0.440596       -11.9892
 229   2.0000      -0.435483       -11.8501
 230   2.0000      -0.432667       -11.7735
 231   2.0000      -0.431695       -11.7470
 232   2.0000      -0.429745       -11.6940
 233   2.0000      -0.424444       -11.5497
 234   2.0000      -0.420767       -11.4497
 235   2.0000      -0.420002       -11.4288
 236   2.0000      -0.418601       -11.3907
 237   2.0000      -0.417891       -11.3714
 238   2.0000      -0.413184       -11.2433
 239   2.0000      -0.410664       -11.1747
 240   2.0000      -0.400985       -10.9114
 241   2.0000      -0.400389       -10.8951
 242   2.0000      -0.396411       -10.7869
 243   2.0000      -0.394714       -10.7407
 244   2.0000      -0.390127       -10.6159
 245   2.0000      -0.381006       -10.3677
 246   2.0000      -0.379753       -10.3336
 247   2.0000      -0.375733       -10.2242
 248   2.0000      -0.371646       -10.1130
 249   2.0000      -0.369907       -10.0657
 250   2.0000      -0.354644        -9.6503
 251   2.0000      -0.353947        -9.6314
 252   2.0000      -0.349798        -9.5185
 253   2.0000      -0.345313        -9.3964
 254   2.0000      -0.342989        -9.3332
 255   2.0000      -0.337278        -9.1778
 256   2.0000      -0.331623        -9.0239
 257   2.0000      -0.330277        -8.9873
 258   2.0000      -0.326369        -8.8810
 259   2.0000      -0.317937        -8.6515
 260   2.0000      -0.315454        -8.5839
 261   2.0000      -0.308957        -8.4072
 262   2.0000      -0.303525        -8.2593
 263   2.0000      -0.290449        -7.9035
 264   2.0000      -0.287079        -7.8118
 265   2.0000      -0.283489        -7.7141
 266   2.0000      -0.279836        -7.6147
 267   2.0000      -0.247062        -6.7229
 268   2.0000      -0.205341        -5.5876
 269   0.0000      -0.087128        -2.3709
 270   0.0000      -0.067630        -1.8403
 271   0.0000      -0.062108        -1.6900
 272   0.0000      -0.038816        -1.0562
 273   0.0000      -0.026008        -0.7077

MULLIKEN ATOMIC CHARGES
-----------------------
   0 C :    0.320524
   1 C :   -0.378259
   2 C :   -0.185903
   3 N :    0.137119
   4 C :   -0.171605
   5 N :    0.116078
   6 C :    0.009163
   7 C :   -0.003339
   8 C :   -0.078020
   9 C :    0.118958
  10 C :   -0.092935
  11 C :   -0.020116
  12 S :    0.183282
  13 C :   -0.123118
  14 C :    0.037204
  15 Br:    0.018614
  16 C :    0.146119
  17 O :   -0.186089
  18 C :   -0.122218
  19 C :    0.071978
  20 N :   -0.243389
  21 C :    0.262312
  22 N :   -0.197975
  23 C :   -0.014281
  24 N :   -0.140286
  25 C :    0.139052
  26 C :    0.082024
  27 N :   -0.168029
  28 C :    0.142501
  29 N :   -0.233773
  30 C :    0.294980
  31 N :   -0.283924
  32 C :    0.073212
  33 C :   -0.066437
  34 C :    0.180609
  35 C :    0.142267
  36 O :   -0.262780
  37 C :    0.228741
  38 C :    0.208781
  39 C :   -0.173968
  40 S :    0.106114
  41 C :   -0.178930
  42 O :   -0.240152
  43 C :   -0.094699
  44 C :    0.002258
  45 C :    0.018346
  46 C :   -0.033312
  47 C :    0.046829
  48 C :    0.011691
  49 C :   -0.015919
  50 S :    0.018619
  51 C :   -0.046607
  52 C :    0.031651
  53 C :    0.030256
  54 C :   -0.024396
  55 S :    0.043526
  56 C :   -0.014967
  57 C :   -0.170763
  58 S :    0.091078
  59 C :   -0.168338
  60 C :    0.148113
  61 C :    0.185159
  62 O :   -0.183869
  63 C :    0.235520
  64 N :    0.273483
  65 O :   -0.249238
  66 O :   -0.229908
  67 C :   -0.074997
  68 H :   -0.014638
  69 H :   -0.008049
  70 H :   -0.005642
  71 H :   -0.004465
  72 H :    0.069703
  73 H :    0.019495
  74 H :    0.113403
  75 H :    0.030222
  76 H :    0.119813
  77 H :   -0.000862
  78 H :   -0.007072
  79 H :    0.133273
  80 H :    0.014884
  81 H :    0.123435
  82 H :    0.013184
  83 H :    0.022238
  84 H :    0.022250
  85 H :    0.011340
  86 H :    0.023014
  87 H :    0.021723
  88 H :    0.032337
  89 H :   -0.006128
  90 H :   -0.013440
  91 H :   -0.011505
  92 H :   -0.015209
  93 H :   -0.011675
  94 H :   -0.011197
  95 H :    0.002141
  96 H :    0.041702
  97 H :    0.012102
Sum of atomic charges:   -0.0000000

LOEWDIN ATOMIC CHARGES
----------------------
   0 C :    0.089482
   1 C :   -0.170015
   2 C :   -0.019711
   3 N :   -0.067913
   4 C :   -0.015983
   5 N :   -0.078879
   6 C :   -0.022459
   7 C :   -0.048352
   8 C :    0.018139
   9 C :   -0.034367
  10 C :   -0.146521
  11 C :   -0.009145
  12 S :    0.430224
  13 C :   -0.273403
  14 C :   -0.070939
  15 Br:    0.133105
  16 C :    0.083628
  17 O :   -0.171928
  18 C :   -0.173371
  19 C :    0.115414
  20 N :    0.010404
  21 C :    0.094916
  22 N :   -0.089835
  23 C :    0.043331
  24 N :   -0.093216
  25 C :    0.063073
  26 C :    0.048987
  27 N :   -0.096418
  28 C :    0.063290
  29 N :   -0.102828
  30 C :    0.110468
  31 N :   -0.041540
  32 C :    0.056130
  33 C :   -0.123579
  34 C :    0.053959
  35 C :   -0.005825
  36 O :   -0.064239
  37 C :   -0.005081
  38 C :   -0.010701
  39 C :   -0.211359
  40 S :    0.432832
  41 C :   -0.215077
  42 O :   -0.047395
  43 C :   -0.027290
  44 C :   -0.059898
  45 C :   -0.033783
  46 C :   -0.164940
  47 C :   -0.017942
  48 C :   -0.055999
  49 C :   -0.165889
  50 S :    0.382693
  51 C :   -0.195148
  52 C :   -0.030128
  53 C :   -0.042224
  54 C :   -0.147513
  55 S :    0.357584
  56 C :   -0.085476
  57 C :   -0.195708
  58 S :    0.454749
  59 C :   -0.197507
  60 C :   -0.082434
  61 C :    0.014838
  62 O :    0.001383
  63 C :    0.026657
  64 N :    0.272480
  65 O :   -0.210767
  66 O :   -0.191540
  67 C :   -0.011113
  68 H :    0.038990
  69 H :    0.040700
  70 H :    0.037921
  71 H :    0.038861
  72 H :    0.029772
  73 H :    0.023130
  74 H :    0.062470
  75 H :    0.005379
  76 H :    0.059871
  77 H :    0.012386
  78 H :    0.000654
  79 H :    0.067095
  80 H :    0.011304
  81 H :    0.071009
  82 H :   -0.003316
  83 H :    0.020979
  84 H :    0.026812
  85 H :    0.033545
  86 H :    0.028353
  87 H :    0.027793
  88 H :    0.013700
  89 H :    0.031715
  90 H :    0.036508
  91 H :    0.034409
  92 H :    0.031131
  93 H :    0.033434
  94 H :    0.034180
  95 H :    0.045580
  96 H :    0.026451
  97 H :    0.046796

  Mayer bond orders larger than 0.100000
B(  0-C ,  1-C ) :   1.5757 B(  0-C ,  6-C ) :   0.9949 B(  0-C , 18-C ) :   1.1588
B(  1-C ,  2-C ) :   1.1511 B(  1-C ,  4-C ) :   1.1519 B(  2-C ,  3-N ) :   2.9639
B(  4-C ,  5-N ) :   2.9469 B(  6-C ,  7-C ) :   1.2838 B(  6-C , 11-C ) :   1.4140
B(  7-C ,  8-C ) :   1.4277 B(  7-C , 16-C ) :   0.9463 B(  8-C ,  9-C ) :   1.2375
B(  8-C , 68-H ) :   1.0184 B(  9-C , 10-C ) :   1.3144 B(  9-C , 14-C ) :   1.1622
B( 10-C , 11-C ) :   1.3242 B( 10-C , 12-S ) :   1.0842 B( 11-C , 69-H ) :   0.9804
B( 12-S , 13-C ) :   1.0876 B( 13-C , 14-C ) :   1.6188 B( 13-C , 15-Br) :   1.0150
B( 14-C , 70-H ) :   1.0002 B( 16-C , 17-O ) :   2.1479 B( 16-C , 18-C ) :   0.9570
B( 18-C , 19-C ) :   1.4107 B( 19-C , 20-N ) :   1.4183 B( 19-C , 71-H ) :   0.9153
B( 20-N , 21-C ) :   0.8741 B( 20-N , 28-C ) :   0.9212 B( 21-C , 22-N ) :   1.0732
B( 21-C , 72-H ) :   0.9254 B( 21-C , 73-H ) :   0.9488 B( 22-N , 23-C ) :   1.0625
B( 22-N , 74-H ) :   0.9303 B( 23-C , 24-N ) :   1.1405 B( 23-C , 28-C ) :   1.0390
B( 23-C , 75-H ) :   0.8616 B( 24-N , 25-C ) :   1.0607 B( 24-N , 76-H ) :   0.9138
B( 25-C , 26-C ) :   0.9916 B( 25-C , 31-N ) :   1.0061 B( 25-C , 77-H ) :   0.8862
B( 26-C , 27-N ) :   1.1068 B( 26-C , 29-N ) :   1.0691 B( 26-C , 78-H ) :   0.8773
B( 27-N , 28-C ) :   1.1500 B( 27-N , 79-H ) :   0.8921 B( 28-C , 80-H ) :   0.8990
B( 29-N , 30-C ) :   1.0389 B( 29-N , 81-H ) :   0.9288 B( 30-C , 31-N ) :   0.9546
B( 30-C , 82-H ) :   0.9444 B( 30-C , 83-H ) :   0.9478 B( 31-N , 32-C ) :   1.1808
B( 32-C , 33-C ) :   1.6285 B( 32-C , 84-H ) :   0.9636 B( 33-C , 34-C ) :   1.1414
B( 33-C , 85-H ) :   0.9345 B( 34-C , 35-C ) :   1.4473 B( 34-C , 42-O ) :   1.0694
B( 35-C , 36-O ) :   1.0419 B( 35-C , 43-C ) :   1.2476 B( 36-O , 37-C ) :   1.0675
B( 37-C , 38-C ) :   1.1983 B( 37-C , 41-C ) :   1.5696 B( 38-C , 39-C ) :   1.5707
B( 38-C , 42-O ) :   1.0546 B( 39-C , 40-S ) :   1.1451 B( 39-C , 86-H ) :   0.9720
B( 40-S , 41-C ) :   1.1364 B( 41-C , 87-H ) :   0.9725 B( 43-C , 44-C ) :   1.5476
B( 43-C , 88-H ) :   0.9335 B( 44-C , 45-C ) :   1.2196 B( 44-C , 89-H ) :   0.9741
B( 45-C , 46-C ) :   1.5337 B( 45-C , 90-H ) :   0.9644 B( 46-C , 47-C ) :   1.1784
B( 46-C , 50-S ) :   1.0165 B( 47-C , 48-C ) :   1.5602 B( 47-C , 91-H ) :   0.9975
B( 48-C , 49-C ) :   1.2053 B( 48-C , 92-H ) :   0.9936 B( 49-C , 50-S ) :   1.0490
B( 49-C , 51-C ) :   1.4882 B( 51-C , 52-C ) :   1.2023 B( 51-C , 55-S ) :   1.0230
B( 52-C , 53-C ) :   1.5757 B( 52-C , 93-H ) :   0.9928 B( 53-C , 54-C ) :   1.1506
B( 53-C , 94-H ) :   1.0004 B( 54-C , 55-S ) :   1.0380 B( 54-C , 56-C ) :   1.5534
B( 56-C , 57-C ) :   1.1810 B( 56-C , 95-H ) :   0.9723 B( 57-C , 58-S ) :   1.0942
B( 57-C , 59-C ) :   0.1050 B( 57-C , 61-C ) :   1.4410 B( 58-S , 59-C ) :   1.1517
B( 59-C , 60-C ) :   1.4096 B( 59-C , 96-H ) :   0.9620 B( 60-C , 61-C ) :   1.2258
B( 60-C , 67-C ) :   1.0548 B( 61-C , 62-O ) :   1.1172 B( 62-O , 63-C ) :   1.1282
B( 63-C , 64-N ) :   0.9158 B( 63-C , 67-C ) :   1.5733 B( 64-N , 65-O ) :   1.5324
B( 64-N , 66-O ) :   1.5137 B( 65-O , 66-O ) :   0.2812 B( 67-C , 97-H ) :   1.0283

-----------------------------------------------------------------------------
         ABSORPTION SPECTRUM VIA TRANSITION ELECTRIC DIPOLE MOMENTS
-----------------------------------------------------------------------------
State   Energy  Wavelength   fosc         T2         TX        TY        TZ
        (cm-1)    (nm)                  (au**2)     (au)      (au)      (au)
-----------------------------------------------------------------------------
   0   11315.3    883.8   0.509471228  14.82272  -2.31533  -1.33993   2.76885
   1   17470.6    572.4   0.141972258   2.67530   1.09756   1.11921   0.46693
   2   19608.9    510.0   0.259681500   4.35978   0.00330  -0.83442  -1.91403
   3   20484.1    488.2   0.004390583   0.07056   0.03838  -0.16171  -0.20722
   4   23952.6    417.5   0.866758328  11.91299   0.34715  -1.45386  -3.11107
   5   26235.5    381.2   0.000275428   0.00346  -0.03233  -0.04041   0.02789
   6   27043.6    369.8   0.024484313   0.29806  -0.27023  -0.39489   0.26285
   7   27288.0    366.5   0.190957745   2.30378   1.13185  -1.00918   0.06527
   8   27830.5    359.3   0.188336625   2.22787  -1.06013  -0.82323  -0.65289
   9   28181.8    354.8   0.174390880   2.03718   0.47398  -0.45951  -1.26546
  10   28685.8    348.6   0.052966929   0.60787  -0.55991  -0.41149  -0.35363
  11   29629.7    337.5   0.000770647   0.00856  -0.01842  -0.03518   0.08358
  12   30218.9    330.9   0.345633496   3.76541  -0.27396  -0.44337  -1.86917
  13   30928.7    323.3   0.001652817   0.01759  -0.01660   0.01773   0.13039
  14   31424.2    318.2   0.135446791   1.41899   1.00091   0.58097   0.28221
  15   31935.3    313.1   0.059139021   0.60965  -0.52173   0.00534  -0.58088
  16   32074.1    311.8   0.118386368   1.21513   0.62950  -0.82756  -0.36606
  17   32495.7    307.7   0.068972035   0.69875  -0.68755  -0.10888   0.46279
  18   32639.7    306.4   0.000020588   0.00021  -0.00021  -0.01413  -0.00285
  19   32652.7    306.3   0.016831530   0.16970   0.26059  -0.17871   0.26430
  20   33220.7    301.0   0.302181096   2.99456   1.54869   0.21405  -0.74182
  21   34113.4    293.1   0.010720781   0.10346  -0.00569  -0.17706   0.26847
  22   34529.1    289.6   0.557507448   5.31546  -0.14232  -0.80214  -2.15680
  23   34635.0    288.7   0.297022285   2.82325  -0.18306  -0.50855  -1.59095
  24   34820.4    287.2   0.123565539   1.16826  -1.04984  -0.25410  -0.03908
  25   35336.1    283.0   0.006453745   0.06013   0.00629   0.06763   0.23561
  26   35476.6    281.9   0.003938312   0.03655  -0.08569  -0.02257   0.16939
  27   35576.5    281.1   0.063843435   0.59078   0.70236   0.21130  -0.22984
  28   35736.6    279.8   0.107771645   0.99281  -0.03694  -0.49547  -0.86369
  29   35845.8    279.0   0.006014570   0.05524  -0.09330  -0.03089  -0.21349
  30   36127.8    276.8   0.010287644   0.09375  -0.03488  -0.30246   0.03237
  31   36228.3    276.0   0.207563849   1.88616   1.12033  -0.67887   0.41252
  32   36551.6    273.6   0.090468229   0.81483  -0.22889   0.01541   0.87304
  33   37125.8    269.4   0.037163588   0.32955  -0.43622  -0.14798   0.34258
  34   37205.6    268.8   0.028232581   0.24981   0.39626  -0.10259  -0.28682
  35   37404.9    267.3   0.112815795   0.99293   0.92456   0.11559  -0.35321
  36   38033.5    262.9   0.013765833   0.11915  -0.16943  -0.05028   0.29651
  37   38110.1    262.4   0.205065531   1.77145   0.58770   0.09909  -1.19006
  38   38132.2    262.2   0.042365634   0.36576  -0.26476   0.03081   0.54287
  39   38506.2    259.7   0.002584189   0.02209   0.09524  -0.10251   0.05016
  40   38889.1    257.1   0.116885536   0.98948   0.64192   0.24506  -0.71928
  41   39409.8    253.7   0.016011024   0.13375  -0.15508   0.08552   0.31998
  42   39806.7    251.2   0.040712092   0.33670   0.50599   0.12368  -0.25569
  43   39841.6    251.0   0.030827030   0.25472  -0.42974  -0.15349   0.21562
  44   40235.5    248.5   0.026368706   0.21575  -0.30971  -0.21871   0.26833

FINAL SINGLE POINT ENERGY     -7313.784261296922

DIPOLE MOMENT
-------------
                                X             Y             Z
Electronic contribution:     28.68086     -97.28294    -147.64394
Nuclear contribution   :    -30.47301      98.60291     149.80068
                        -----------------------------------------
Total Dipole Moment    :     -1.79215       1.31997       2.15674
                        -----------------------------------------
Magnitude (a.u.)       :      3.09930
Magnitude (Debye)      :      7.87779

Rotational constants in cm-1:     0.001189     0.000354     0.000302
Rotational constants in MHz :    35.635297    10.608995     9.052620

                             ****ORCA TERMINATED NORMALLY****
TOTAL RUN TIME: 0 days 0 hours 10 minutes 15 seconds 324 msec
