                         Program Version 4.2.0 -  RELEASE  -
|  1> # ORCA input file
|  2> # SCF done       -190.530956375308          0.000900102262
|  3> ! CAM-B3LYP def2-SVP def2/J RIJCOSX Grid4 TightSCF
|  4> %maxcore 5000
|  5> %tddft
|  6>     Mode sTDDFT
|  7>     Ethresh 5.0
|  8>     maxcore 5000
|  9> end
| 10>
| 11> %pal
| 12>   nprocs 6
| 13>   end
| 14> * xyz 0 1
| 15>    C       -5.76436         8.93635         2.91528
| 16>    C       -6.83515         9.74998         2.64343
| 17>    C       -7.46252        10.57732         3.59746
| 18>    N       -8.01882        11.26969         4.32520
| 19>    C       -7.45705         9.88701         1.38562
| 20>    N       -8.01114        10.06823         0.39585
| 21>    C       -5.08333         8.83480         4.20160
| 22>    C       -4.02063         7.90538         4.08249
| 23>    C       -3.18452         7.59441         5.12660
| 24>    C       -3.39872         8.24247         6.34737
| 25>    C       -4.46260         9.16873         6.45869
| 26>    C       -5.31404         9.47576         5.40399
| 27>    S       -4.55183         9.85037         8.05392
| 28>    C       -3.17662         8.89632         8.54292
| 29>    C       -2.67510         8.10717         7.56369
| 30>   Br       -2.53454         9.03180        10.29892
| 31>    C       -4.00477         7.36129         2.71857
| 32>    O       -3.35101         6.40984         2.33057
| 33>    C       -5.06901         8.07780         1.98096
| 34>    C       -5.40513         7.84701         0.67430
| 35>    C       -4.57285         7.22309        -0.27541
| 36>    O       -5.14072         6.72806        -1.42091
| 37>    C       -3.19589         7.05723        -0.37130
| 38>    C       -1.89916         7.43169         0.22669
| 39>    O       -1.63127         8.11154         1.18138
| 40>    N       -0.96757         6.86753        -0.63649
| 41>    C       -1.50296         6.22786        -1.75762
| 42>    O       -0.85995         5.68084        -2.61598
| 43>    C       -2.94362         6.40380        -1.58915
| 44>    C       -4.17280         6.22195        -2.22643
| 45>    C       -4.39964         5.66161        -3.48977
| 46>    C       -5.60218         5.61589        -4.15099
| 47>    C       -5.83359         5.05585        -5.41336
| 48>    C       -4.96010         4.32063        -6.19493
| 49>    C       -5.25766         3.73180        -7.45039
| 50>    C       -4.25410         2.97058        -7.97980
| 51>    C       -3.10419         2.91492        -7.16854
| 52>    S       -3.32935         3.90240        -5.74059
| 53>    C       -1.93458         2.18368        -7.25819
| 54>    C       -1.53174         1.19448        -8.19027
| 55>    C       -0.39700         0.53727        -7.83205
| 56>    C        0.16370         0.97300        -6.59483
| 57>    S       -0.76787         2.33276        -5.97183
| 58>    C        1.23606         0.49227        -5.91387
| 59>    C        1.65033         1.08902        -4.66128
| 60>    C        2.90513         1.61085        -4.52477
| 61>    S        3.09173         2.64452        -3.16733
| 62>    C        1.44386         2.34251        -2.69855
| 63>    C        0.79697         1.43551        -3.54628
| 64>    C       -0.47893         0.93715        -3.18246
| 65>    C       -0.97274        -0.33844        -3.83167
| 66>    C       -2.22135        -0.25146        -4.72541
| 67>    C       -1.16261         1.50902        -2.11691
| 68>    C       -2.58285         1.10870        -1.82443
| 69>    C       -3.54894         2.20904        -2.26803
| 70>    C       -0.54171         2.50124        -1.31480
| 71>    C       -1.01173         3.21883        -0.15312
| 72>    C       -0.07079         4.06585         0.34077
| 73>    S        1.42713         4.04686        -0.50494
| 74>    C        0.78271         2.87600        -1.60541
| 75>    C       -2.30910         3.16611         0.52732
| 76>    C       -2.75991         2.10941         1.22056
| 77>    C       -4.02072         2.05364         1.88384
| 78>    S       -4.62626         0.54330         2.51645
| 79>    C       -6.13965         1.21130         3.05778
| 80>    C       -6.16482         2.56916         2.76779
| 81>    C       -4.97737         3.02555         2.11398
| 82>    N       -5.14472         4.35419         1.89000
| 83>    N       -6.31423         4.78017         2.40477
| 84>    C       -6.94602         3.74976         2.90244
| 85>    C       -7.09907         0.35533         3.68056
| 86>    C       -8.30023         0.73803         4.11755
| 87>    H       -2.38440         6.88229         5.00216
| 88>    H       -6.11244        10.18526         5.54251
| 89>    H       -1.82973         7.45619         7.69130
| 90>    H       -6.37082         8.15745         0.29996
| 91>    H        0.02816         6.94832        -0.48560
| 92>    H       -3.49325         5.29524        -3.94254
| 93>    H       -6.45452         6.06791        -3.66063
| 94>    H       -6.82594         5.18311        -5.82645
| 95>    H       -6.21586         3.87403        -7.91881
| 96>    H       -4.32165         2.44300        -8.91459
| 97>    H       -2.10500         0.98342        -9.07570
| 98>    H        0.04813        -0.26470        -8.39472
| 99>    H        1.87004        -0.25526        -6.37129
|100>    H        3.71534         1.51576        -5.22197
|101>    H       -1.16905        -1.04076        -3.01658
|102>    H       -0.15120        -0.76295        -4.41140
|103>    H       -2.93005        -1.03706        -4.47326
|104>    H       -1.95879        -0.37746        -5.77262
|105>    H       -2.72249         0.70470        -4.61758
|106>    H       -2.71473         0.93488        -0.75937
|107>    H       -2.83669         0.18696        -2.33945
|108>    H       -3.35408         3.13157        -1.72842
|109>    H       -4.57604         1.90736        -2.07543
|110>    H       -3.43800         2.41619        -3.32958
|111>    H       -0.18119         4.70100         1.19940
|112>    H       -2.87281         4.08914         0.52451
|113>    H       -2.16029         1.20960         1.28388
|114>    H       -4.43021         5.03859         1.67479
|115>    H       -7.91593         3.87726         3.33838
|116>    H       -6.78918        -0.67664         3.78626
|117>    H       -8.64080         1.75356         4.02530
|118>    H       -8.97436         0.03863         4.57855
|119> *
|120>
|121>                          ****END OF INPUT****

CARTESIAN COORDINATES (ANGSTROEM)
---------------------------------
  C     -5.764360    8.936350    2.915280
  C     -6.835150    9.749980    2.643430
  C     -7.462520   10.577320    3.597460
  N     -8.018820   11.269690    4.325200
  C     -7.457050    9.887010    1.385620
  N     -8.011140   10.068230    0.395850
  C     -5.083330    8.834800    4.201600
  C     -4.020630    7.905380    4.082490
  C     -3.184520    7.594410    5.126600
  C     -3.398720    8.242470    6.347370
  C     -4.462600    9.168730    6.458690
  C     -5.314040    9.475760    5.403990
  S     -4.551830    9.850370    8.053920
  C     -3.176620    8.896320    8.542920
  C     -2.675100    8.107170    7.563690
  Br    -2.534540    9.031800   10.298920
  C     -4.004770    7.361290    2.718570
  O     -3.351010    6.409840    2.330570
  C     -5.069010    8.077800    1.980960
  C     -5.405130    7.847010    0.674300
  C     -4.572850    7.223090   -0.275410
  O     -5.140720    6.728060   -1.420910
  C     -3.195890    7.057230   -0.371300
  C     -1.899160    7.431690    0.226690
  O     -1.631270    8.111540    1.181380
  N     -0.967570    6.867530   -0.636490
  C     -1.502960    6.227860   -1.757620
  O     -0.859950    5.680840   -2.615980
  C     -2.943620    6.403800   -1.589150
  C     -4.172800    6.221950   -2.226430
  C     -4.399640    5.661610   -3.489770
  C     -5.602180    5.615890   -4.150990
  C     -5.833590    5.055850   -5.413360
  C     -4.960100    4.320630   -6.194930
  C     -5.257660    3.731800   -7.450390
  C     -4.254100    2.970580   -7.979800
  C     -3.104190    2.914920   -7.168540
  S     -3.329350    3.902400   -5.740590
  C     -1.934580    2.183680   -7.258190
  C     -1.531740    1.194480   -8.190270
  C     -0.397000    0.537270   -7.832050
  C      0.163700    0.973000   -6.594830
  S     -0.767870    2.332760   -5.971830
  C      1.236060    0.492270   -5.913870
  C      1.650330    1.089020   -4.661280
  C      2.905130    1.610850   -4.524770
  S      3.091730    2.644520   -3.167330
  C      1.443860    2.342510   -2.698550
  C      0.796970    1.435510   -3.546280
  C     -0.478930    0.937150   -3.182460
  C     -0.972740   -0.338440   -3.831670
  C     -2.221350   -0.251460   -4.725410
  C     -1.162610    1.509020   -2.116910
  C     -2.582850    1.108700   -1.824430
  C     -3.548940    2.209040   -2.268030
  C     -0.541710    2.501240   -1.314800
  C     -1.011730    3.218830   -0.153120
  C     -0.070790    4.065850    0.340770
  S      1.427130    4.046860   -0.504940
  C      0.782710    2.876000   -1.605410
  C     -2.309100    3.166110    0.527320
  C     -2.759910    2.109410    1.220560
  C     -4.020720    2.053640    1.883840
  S     -4.626260    0.543300    2.516450
  C     -6.139650    1.211300    3.057780
  C     -6.164820    2.569160    2.767790
  C     -4.977370    3.025550    2.113980
  N     -5.144720    4.354190    1.890000
  N     -6.314230    4.780170    2.404770
  C     -6.946020    3.749760    2.902440
  C     -7.099070    0.355330    3.680560
  C     -8.300230    0.738030    4.117550
  H     -2.384400    6.882290    5.002160
  H     -6.112440   10.185260    5.542510
  H     -1.829730    7.456190    7.691300
  H     -6.370820    8.157450    0.299960
  H      0.028160    6.948320   -0.485600
  H     -3.493250    5.295240   -3.942540
  H     -6.454520    6.067910   -3.660630
  H     -6.825940    5.183110   -5.826450
  H     -6.215860    3.874030   -7.918810
  H     -4.321650    2.443000   -8.914590
  H     -2.105000    0.983420   -9.075700
  H      0.048130   -0.264700   -8.394720
  H      1.870040   -0.255260   -6.371290
  H      3.715340    1.515760   -5.221970
  H     -1.169050   -1.040760   -3.016580
  H     -0.151200   -0.762950   -4.411400
  H     -2.930050   -1.037060   -4.473260
  H     -1.958790   -0.377460   -5.772620
  H     -2.722490    0.704700   -4.617580
  H     -2.714730    0.934880   -0.759370
  H     -2.836690    0.186960   -2.339450
  H     -3.354080    3.131570   -1.728420
  H     -4.576040    1.907360   -2.075430
  H     -3.438000    2.416190   -3.329580
  H     -0.181190    4.701000    1.199400
  H     -2.872810    4.089140    0.524510
  H     -2.160290    1.209600    1.283880
  H     -4.430210    5.038590    1.674790
  H     -7.915930    3.877260    3.338380
  H     -6.789180   -0.676640    3.786260
  H     -8.640800    1.753560    4.025300
  H     -8.974360    0.038630    4.578550

 Total Charge           Charge          ....    0
 Multiplicity           Mult            ....    1
 Number of Electrons    NEL             ....  566
 Basis Dimension        Dim             .... 1210

ORBITAL ENERGIES
----------------

  NO   OCC          E(Eh)            E(eV)
   0   2.0000    -482.881716    -13139.8795
   1   2.0000     -88.970989     -2421.0237
   2   2.0000     -88.956251     -2420.6227
   3   2.0000     -88.952650     -2420.5247
   4   2.0000     -88.952361     -2420.5168
   5   2.0000     -88.950458     -2420.4650
   6   2.0000     -88.944686     -2420.3080
   7   2.0000     -62.559447     -1702.3291
   8   2.0000     -56.393394     -1534.5423
   9   2.0000     -56.390683     -1534.4685
  10   2.0000     -56.390649     -1534.4676
  11   2.0000     -19.306772      -525.3640
  12   2.0000     -19.218436      -522.9602
  13   2.0000     -19.210205      -522.7363
  14   2.0000     -19.205839      -522.6175
  15   2.0000     -14.454877      -393.3372
  16   2.0000     -14.449308      -393.1857
  17   2.0000     -14.424259      -392.5040
  18   2.0000     -14.409888      -392.1130
  19   2.0000     -14.409024      -392.0895
  20   2.0000     -10.398136      -282.9477
  21   2.0000     -10.393642      -282.8254
  22   2.0000     -10.368859      -282.1510
  23   2.0000     -10.364495      -282.0323
  24   2.0000     -10.356198      -281.8065
  25   2.0000     -10.354409      -281.7578
  26   2.0000     -10.336022      -281.2575
  27   2.0000     -10.335311      -281.2381
  28   2.0000     -10.326625      -281.0017
  29   2.0000     -10.321089      -280.8511
  30   2.0000     -10.319665      -280.8123
  31   2.0000     -10.317162      -280.7442
  32   2.0000     -10.314829      -280.6808
  33   2.0000     -10.313853      -280.6542
  34   2.0000     -10.312664      -280.6218
  35   2.0000     -10.312135      -280.6074
  36   2.0000     -10.303402      -280.3698
  37   2.0000     -10.302915      -280.3566
  38   2.0000     -10.302680      -280.3502
  39   2.0000     -10.301457      -280.3169
  40   2.0000     -10.300132      -280.2808
  41   2.0000     -10.300122      -280.2806
  42   2.0000     -10.299794      -280.2716
  43   2.0000     -10.299346      -280.2594
  44   2.0000     -10.298623      -280.2398
  45   2.0000     -10.297408      -280.2067
  46   2.0000     -10.296931      -280.1937
  47   2.0000     -10.296726      -280.1882
  48   2.0000     -10.296638      -280.1858
  49   2.0000     -10.294049      -280.1153
  50   2.0000     -10.292542      -280.0743
  51   2.0000     -10.292386      -280.0700
  52   2.0000     -10.290883      -280.0292
  53   2.0000     -10.290257      -280.0121
  54   2.0000     -10.290032      -280.0060
  55   2.0000     -10.287721      -279.9431
  56   2.0000     -10.286087      -279.8987
  57   2.0000     -10.285827      -279.8916
  58   2.0000     -10.284773      -279.8629
  59   2.0000     -10.282799      -279.8092
  60   2.0000     -10.279976      -279.7324
  61   2.0000     -10.279284      -279.7135
  62   2.0000     -10.275443      -279.6090
  63   2.0000     -10.275416      -279.6083
  64   2.0000     -10.274276      -279.5773
  65   2.0000     -10.273459      -279.5550
  66   2.0000     -10.271799      -279.5099
  67   2.0000     -10.267940      -279.4048
  68   2.0000     -10.266492      -279.3655
  69   2.0000     -10.265510      -279.3387
  70   2.0000     -10.264824      -279.3201
  71   2.0000     -10.259502      -279.1752
  72   2.0000     -10.259166      -279.1661
  73   2.0000     -10.248528      -278.8766
  74   2.0000     -10.247550      -278.8500
  75   2.0000     -10.238823      -278.6125
  76   2.0000      -8.788886      -239.1577
  77   2.0000      -8.067078      -219.5164
  78   2.0000      -8.051200      -219.0843
  79   2.0000      -8.048375      -219.0074
  80   2.0000      -8.047449      -218.9822
  81   2.0000      -8.045773      -218.9366
  82   2.0000      -8.040763      -218.8003
  83   2.0000      -6.625185      -180.2804
  84   2.0000      -6.610622      -179.8842
  85   2.0000      -6.610424      -179.8788
  86   2.0000      -6.036768      -164.2688
  87   2.0000      -6.032484      -164.1522
  88   2.0000      -6.028280      -164.0378
  89   2.0000      -6.020846      -163.8355
  90   2.0000      -6.017869      -163.7545
  91   2.0000      -6.016679      -163.7221
  92   2.0000      -6.016574      -163.7193
  93   2.0000      -6.015579      -163.6922
  94   2.0000      -6.013627      -163.6391
  95   2.0000      -6.012560      -163.6101
  96   2.0000      -6.012549      -163.6098
  97   2.0000      -6.011463      -163.5802
  98   2.0000      -6.010210      -163.5461
  99   2.0000      -6.010100      -163.5431
 100   2.0000      -6.010025      -163.5411
 101   2.0000      -6.006602      -163.4480
 102   2.0000      -6.006153      -163.4357
 103   2.0000      -6.002428      -163.3344
 104   2.0000      -2.741035       -74.5873
 105   2.0000      -2.736984       -74.4771
 106   2.0000      -2.736831       -74.4729
 107   2.0000      -2.725260       -74.1581
 108   2.0000      -2.725240       -74.1575
 109   2.0000      -1.221441       -33.2371
 110   2.0000      -1.152764       -31.3683
 111   2.0000      -1.135752       -30.9054
 112   2.0000      -1.129137       -30.7254
 113   2.0000      -1.122112       -30.5342
 114   2.0000      -1.038996       -28.2725
 115   2.0000      -1.018134       -27.7048
 116   2.0000      -1.008021       -27.4297
 117   2.0000      -1.007567       -27.4173
 118   2.0000      -0.997536       -27.1443
 119   2.0000      -0.988025       -26.8855
 120   2.0000      -0.985347       -26.8127
 121   2.0000      -0.982732       -26.7415
 122   2.0000      -0.972038       -26.4505
 123   2.0000      -0.966310       -26.2946
 124   2.0000      -0.941480       -25.6190
 125   2.0000      -0.927100       -25.2277
 126   2.0000      -0.923031       -25.1170
 127   2.0000      -0.917374       -24.9630
 128   2.0000      -0.909450       -24.7474
 129   2.0000      -0.907258       -24.6878
 130   2.0000      -0.903928       -24.5971
 131   2.0000      -0.897215       -24.4145
 132   2.0000      -0.884862       -24.0783
 133   2.0000      -0.881073       -23.9752
 134   2.0000      -0.877658       -23.8823
 135   2.0000      -0.867762       -23.6130
 136   2.0000      -0.865323       -23.5466
 137   2.0000      -0.851199       -23.1623
 138   2.0000      -0.849503       -23.1162
 139   2.0000      -0.848591       -23.0913
 140   2.0000      -0.836364       -22.7586
 141   2.0000      -0.832023       -22.6405
 142   2.0000      -0.829628       -22.5753
 143   2.0000      -0.824940       -22.4478
 144   2.0000      -0.819632       -22.3033
 145   2.0000      -0.811344       -22.0778
 146   2.0000      -0.797028       -21.6882
 147   2.0000      -0.787760       -21.4360
 148   2.0000      -0.779331       -21.2067
 149   2.0000      -0.770225       -20.9589
 150   2.0000      -0.763219       -20.7682
 151   2.0000      -0.760309       -20.6891
 152   2.0000      -0.757013       -20.5994
 153   2.0000      -0.751003       -20.4358
 154   2.0000      -0.736597       -20.0438
 155   2.0000      -0.712689       -19.3933
 156   2.0000      -0.710198       -19.3255
 157   2.0000      -0.699030       -19.0216
 158   2.0000      -0.697629       -18.9835
 159   2.0000      -0.695177       -18.9167
 160   2.0000      -0.689196       -18.7540
 161   2.0000      -0.688090       -18.7239
 162   2.0000      -0.685793       -18.6614
 163   2.0000      -0.683814       -18.6075
 164   2.0000      -0.681621       -18.5479
 165   2.0000      -0.676526       -18.4092
 166   2.0000      -0.671727       -18.2786
 167   2.0000      -0.668109       -18.1802
 168   2.0000      -0.652514       -17.7558
 169   2.0000      -0.650203       -17.6929
 170   2.0000      -0.640379       -17.4256
 171   2.0000      -0.634894       -17.2764
 172   2.0000      -0.627431       -17.0733
 173   2.0000      -0.623731       -16.9726
 174   2.0000      -0.620360       -16.8809
 175   2.0000      -0.612016       -16.6538
 176   2.0000      -0.608337       -16.5537
 177   2.0000      -0.605831       -16.4855
 178   2.0000      -0.601654       -16.3719
 179   2.0000      -0.598890       -16.2966
 180   2.0000      -0.594373       -16.1737
 181   2.0000      -0.591751       -16.1024
 182   2.0000      -0.589785       -16.0489
 183   2.0000      -0.583487       -15.8775
 184   2.0000      -0.579588       -15.7714
 185   2.0000      -0.575148       -15.6506
 186   2.0000      -0.568332       -15.4651
 187   2.0000      -0.564210       -15.3529
 188   2.0000      -0.554590       -15.0912
 189   2.0000      -0.549111       -14.9421
 190   2.0000      -0.548077       -14.9139
 191   2.0000      -0.544532       -14.8175
 192   2.0000      -0.542221       -14.7546
 193   2.0000      -0.540493       -14.7076
 194   2.0000      -0.536849       -14.6084
 195   2.0000      -0.535663       -14.5761
 196   2.0000      -0.534535       -14.5454
 197   2.0000      -0.529023       -14.3955
 198   2.0000      -0.527890       -14.3646
 199   2.0000      -0.525054       -14.2874
 200   2.0000      -0.522638       -14.2217
 201   2.0000      -0.522005       -14.2045
 202   2.0000      -0.517354       -14.0779
 203   2.0000      -0.516682       -14.0596
 204   2.0000      -0.514954       -14.0126
 205   2.0000      -0.513401       -13.9704
 206   2.0000      -0.508532       -13.8379
 207   2.0000      -0.507977       -13.8228
 208   2.0000      -0.504038       -13.7156
 209   2.0000      -0.503649       -13.7050
 210   2.0000      -0.502718       -13.6796
 211   2.0000      -0.499707       -13.5977
 212   2.0000      -0.497536       -13.5387
 213   2.0000      -0.495751       -13.4901
 214   2.0000      -0.491197       -13.3661
 215   2.0000      -0.490514       -13.3476
 216   2.0000      -0.487542       -13.2667
 217   2.0000      -0.481809       -13.1107
 218   2.0000      -0.480034       -13.0624
 219   2.0000      -0.477937       -13.0053
 220   2.0000      -0.476213       -12.9584
 221   2.0000      -0.473324       -12.8798
 222   2.0000      -0.471476       -12.8295
 223   2.0000      -0.468109       -12.7379
 224   2.0000      -0.467133       -12.7113
 225   2.0000      -0.461776       -12.5656
 226   2.0000      -0.459485       -12.5032
 227   2.0000      -0.454437       -12.3659
 228   2.0000      -0.453132       -12.3304
 229   2.0000      -0.452421       -12.3110
 230   2.0000      -0.449767       -12.2388
 231   2.0000      -0.447769       -12.1844
 232   2.0000      -0.443668       -12.0728
 233   2.0000      -0.443142       -12.0585
 234   2.0000      -0.441958       -12.0263
 235   2.0000      -0.438192       -11.9238
 236   2.0000      -0.437962       -11.9176
 237   2.0000      -0.434920       -11.8348
 238   2.0000      -0.434441       -11.8217
 239   2.0000      -0.433561       -11.7978
 240   2.0000      -0.428842       -11.6694
 241   2.0000      -0.428130       -11.6500
 242   2.0000      -0.426389       -11.6026
 243   2.0000      -0.423503       -11.5241
 244   2.0000      -0.421444       -11.4681
 245   2.0000      -0.419752       -11.4220
 246   2.0000      -0.417711       -11.3665
 247   2.0000      -0.415938       -11.3182
 248   2.0000      -0.412254       -11.2180
 249   2.0000      -0.410538       -11.1713
 250   2.0000      -0.407483       -11.0882
 251   2.0000      -0.404177       -10.9982
 252   2.0000      -0.402679       -10.9574
 253   2.0000      -0.396954       -10.8017
 254   2.0000      -0.393672       -10.7124
 255   2.0000      -0.390484       -10.6256
 256   2.0000      -0.382720       -10.4143
 257   2.0000      -0.380086       -10.3427
 258   2.0000      -0.379982       -10.3398
 259   2.0000      -0.371337       -10.1046
 260   2.0000      -0.370792       -10.0898
 261   2.0000      -0.370469       -10.0810
 262   2.0000      -0.366459        -9.9719
 263   2.0000      -0.355954        -9.6860
 264   2.0000      -0.354475        -9.6458
 265   2.0000      -0.350723        -9.5437
 266   2.0000      -0.345404        -9.3989
 267   2.0000      -0.342361        -9.3161
 268   2.0000      -0.340853        -9.2751
 269   2.0000      -0.340428        -9.2635
 270   2.0000      -0.332722        -9.0538
 271   2.0000      -0.330585        -8.9957
 272   2.0000      -0.328007        -8.9255
 273   2.0000      -0.316243        -8.6054
 274   2.0000      -0.310764        -8.4563
 275   2.0000      -0.309237        -8.4148
 276   2.0000      -0.302012        -8.2182
 277   2.0000      -0.289171        -7.8687
 278   2.0000      -0.275717        -7.5026
 279   2.0000      -0.264038        -7.1848
 280   2.0000      -0.260895        -7.0993
 281   2.0000      -0.230045        -6.2599
 282   2.0000      -0.222602        -6.0573
 283   0.0000      -0.104255        -2.8369
 284   0.0000      -0.081095        -2.2067
 285   0.0000      -0.060562        -1.6480
 286   0.0000      -0.033478        -0.9110
 287   0.0000      -0.030462        -0.8289

MULLIKEN ATOMIC CHARGES
-----------------------
   0 C :    0.312877
   1 C :   -0.347433
   2 C :   -0.188658
   3 N :    0.148844
   4 C :   -0.197093
   5 N :    0.156327
   6 C :    0.026814
   7 C :    0.002365
   8 C :   -0.067046
   9 C :    0.119268
  10 C :   -0.087610
  11 C :   -0.029819
  12 S :    0.185525
  13 C :   -0.122446
  14 C :    0.037708
  15 Br:    0.021263
  16 C :    0.181353
  17 O :   -0.213153
  18 C :   -0.051894
  19 C :   -0.010775
  20 C :    0.081803
  21 O :   -0.203977
  22 C :   -0.035807
  23 C :    0.181630
  24 O :   -0.141167
  25 N :   -0.165715
  26 C :    0.192629
  27 O :   -0.137911
  28 C :   -0.076794
  29 C :    0.133354
  30 C :   -0.077162
  31 C :    0.047152
  32 C :   -0.008758
  33 C :   -0.012245
  34 C :    0.028755
  35 C :    0.046096
  36 C :   -0.042249
  37 S :    0.068510
  38 C :   -0.036922
  39 C :    0.029850
  40 C :    0.069958
  41 C :   -0.056202
  42 S :    0.103482
  43 C :   -0.015149
  44 C :    0.000670
  45 C :   -0.082129
  46 S :    0.135324
  47 C :   -0.134067
  48 C :    0.066094
  49 C :   -0.111831
  50 C :    0.019981
  51 C :    0.037307
  52 C :   -0.125238
  53 C :    0.095249
  54 C :    0.042147
  55 C :    0.140754
  56 C :    0.031444
  57 C :   -0.105652
  58 S :    0.105236
  59 C :   -0.124788
  60 C :   -0.101878
  61 C :    0.098658
  62 C :   -0.222230
  63 S :    0.136247
  64 C :   -0.143809
  65 C :    0.020037
  66 C :    0.153500
  67 N :   -0.077335
  68 N :   -0.072718
  69 C :   -0.019562
  70 C :    0.044268
  71 C :   -0.024455
  72 H :   -0.009980
  73 H :   -0.006515
  74 H :   -0.003550
  75 H :    0.029023
  76 H :    0.135008
  77 H :    0.026816
  78 H :    0.006530
  79 H :   -0.013464
  80 H :   -0.010354
  81 H :   -0.011305
  82 H :   -0.009482
  83 H :   -0.005178
  84 H :    0.004568
  85 H :    0.018257
  86 H :    0.022272
  87 H :   -0.001093
  88 H :    0.008142
  89 H :    0.003678
  90 H :    0.021400
  91 H :   -0.024338
  92 H :   -0.017923
  93 H :   -0.000653
  94 H :    0.010755
  95 H :    0.008061
  96 H :    0.020125
  97 H :    0.000335
  98 H :   -0.009817
  99 H :    0.166098
 100 H :   -0.004790
 101 H :   -0.018093
 102 H :    0.010020
 103 H :    0.024645
Sum of atomic charges:   -0.0000000

LOEWDIN ATOMIC CHARGES
----------------------
   0 C :    0.078806
   1 C :   -0.138228
   2 C :   -0.017426
   3 N :   -0.055712
   4 C :   -0.020945
   5 N :   -0.051960
   6 C :   -0.013930
   7 C :   -0.042626
   8 C :    0.027716
   9 C :   -0.032910
  10 C :   -0.141796
  11 C :   -0.010524
  12 S :    0.432454
  13 C :   -0.272561
  14 C :   -0.069282
  15 Br:    0.135539
  16 C :    0.108203
  17 O :   -0.155654
  18 C :   -0.078459
  19 C :    0.054865
  20 C :    0.032088
  21 O :    0.014105
  22 C :   -0.052892
  23 C :    0.084763
  24 O :   -0.149103
  25 N :    0.003015
  26 C :    0.085838
  27 O :   -0.152856
  28 C :   -0.109090
  29 C :    0.093774
  30 C :   -0.083225
  31 C :    0.014483
  32 C :   -0.083222
  33 C :   -0.120777
  34 C :   -0.041804
  35 C :   -0.021536
  36 C :   -0.197078
  37 S :    0.436496
  38 C :   -0.151684
  39 C :   -0.038066
  40 C :   -0.012578
  41 C :   -0.151460
  42 S :    0.429996
  43 C :   -0.021433
  44 C :   -0.082504
  45 C :   -0.159920
  46 S :    0.421910
  47 C :   -0.174439
  48 C :   -0.060105
  49 C :   -0.030991
  50 C :   -0.032862
  51 C :   -0.066571
  52 C :   -0.012341
  53 C :   -0.029280
  54 C :   -0.048358
  55 C :   -0.034757
  56 C :   -0.063287
  57 C :   -0.170794
  58 S :    0.403432
  59 C :   -0.172489
  60 C :   -0.041025
  61 C :   -0.033092
  62 C :   -0.220563
  63 S :    0.455107
  64 C :   -0.177659
  65 C :   -0.091189
  66 C :   -0.015735
  67 N :    0.079897
  68 N :   -0.059777
  69 C :   -0.044192
  70 C :   -0.042114
  71 C :   -0.047091
  72 H :    0.041570
  73 H :    0.041028
  74 H :    0.038773
  75 H :    0.053902
  76 H :    0.088391
  77 H :    0.021354
  78 H :    0.039078
  79 H :    0.035148
  80 H :    0.034097
  81 H :    0.034104
  82 H :    0.033627
  83 H :    0.036196
  84 H :    0.037035
  85 H :    0.024068
  86 H :    0.032420
  87 H :    0.025558
  88 H :    0.022376
  89 H :    0.020622
  90 H :    0.020621
  91 H :    0.025333
  92 H :    0.024987
  93 H :    0.019900
  94 H :    0.024993
  95 H :    0.007302
  96 H :    0.022368
  97 H :    0.022802
  98 H :    0.029067
  99 H :    0.056311
 100 H :    0.018633
 101 H :    0.027949
 102 H :    0.021886
 103 H :    0.025966

  Mayer bond orders larger than 0.100000
B(  0-C ,  1-C ) :   1.6264 B(  0-C ,  6-C ) :   1.0037 B(  0-C , 18-C ) :   1.0858
B(  1-C ,  2-C ) :   1.1461 B(  1-C ,  4-C ) :   1.1465 B(  2-C ,  3-N ) :   2.9669
B(  4-C ,  5-N ) :   2.9748 B(  6-C ,  7-C ) :   1.2720 B(  6-C , 11-C ) :   1.4091
B(  7-C ,  8-C ) :   1.4183 B(  7-C , 16-C ) :   0.9621 B(  8-C ,  9-C ) :   1.2446
B(  8-C , 72-H ) :   1.0172 B(  9-C , 10-C ) :   1.3060 B(  9-C , 14-C ) :   1.1613
B( 10-C , 11-C ) :   1.3271 B( 10-C , 12-S ) :   1.0872 B( 11-C , 73-H ) :   0.9808
B( 12-S , 13-C ) :   1.0850 B( 13-C , 14-C ) :   1.6191 B( 13-C , 15-Br) :   1.0174
B( 14-C , 74-H ) :   1.0011 B( 16-C , 17-O ) :   2.0448 B( 16-C , 18-C ) :   0.9721
B( 18-C , 19-C ) :   1.5334 B( 19-C , 20-C ) :   1.2186 B( 19-C , 75-H ) :   0.9294
B( 20-C , 21-O ) :   1.1075 B( 20-C , 22-C ) :   1.3841 B( 21-O , 29-C ) :   1.1805
B( 22-C , 23-C ) :   0.8615 B( 22-C , 28-C ) :   1.3455 B( 23-C , 24-O ) :   2.2331
B( 23-C , 25-N ) :   1.0988 B( 25-N , 26-C ) :   1.0610 B( 25-N , 76-H ) :   0.9129
B( 26-C , 27-O ) :   2.2325 B( 26-C , 28-C ) :   0.8962 B( 28-C , 29-C ) :   1.2916
B( 29-C , 30-C ) :   1.2903 B( 30-C , 31-C ) :   1.4877 B( 30-C , 77-H ) :   0.9210
B( 31-C , 32-C ) :   1.2500 B( 31-C , 78-H ) :   0.9797 B( 32-C , 33-C ) :   1.4923
B( 32-C , 79-H ) :   0.9659 B( 33-C , 34-C ) :   1.1727 B( 33-C , 37-S ) :   1.0808
B( 34-C , 35-C ) :   1.5666 B( 34-C , 80-H ) :   0.9979 B( 35-C , 36-C ) :   1.2019
B( 35-C , 81-H ) :   0.9939 B( 36-C , 37-S ) :   1.0424 B( 36-C , 38-C ) :   1.4808
B( 38-C , 39-C ) :   1.1707 B( 38-C , 42-S ) :   1.0829 B( 39-C , 40-C ) :   1.6122
B( 39-C , 82-H ) :   0.9957 B( 40-C , 41-C ) :   1.1069 B( 40-C , 83-H ) :   0.9997
B( 41-C , 42-S ) :   1.0377 B( 41-C , 43-C ) :   1.6851 B( 43-C , 44-C ) :   1.0205
B( 43-C , 84-H ) :   0.9650 B( 44-C , 45-C ) :   1.6000 B( 44-C , 48-C ) :   1.1354
B( 45-C , 46-S ) :   1.1381 B( 45-C , 85-H ) :   0.9668 B( 46-S , 47-C ) :   1.0697
B( 47-C , 48-C ) :   1.3938 B( 47-C , 59-C ) :   1.3842 B( 48-C , 49-C ) :   1.2606
B( 49-C , 50-C ) :   1.0592 B( 49-C , 52-C ) :   1.4991 B( 50-C , 51-C ) :   1.0762
B( 50-C , 86-H ) :   0.9370 B( 50-C , 87-H ) :   0.9229 B( 51-C , 88-H ) :   0.9574
B( 51-C , 89-H ) :   0.9588 B( 51-C , 90-H ) :   0.9726 B( 52-C , 53-C ) :   1.0885
B( 52-C , 55-C ) :   1.2469 B( 53-C , 54-C ) :   1.1061 B( 53-C , 91-H ) :   0.9039
B( 53-C , 92-H ) :   0.9035 B( 54-C , 93-H ) :   0.9587 B( 54-C , 94-H ) :   0.9597
B( 54-C , 95-H ) :   0.9515 B( 55-C , 56-C ) :   1.1830 B( 55-C , 59-C ) :   1.3631
B( 56-C , 57-C ) :   1.6372 B( 56-C , 60-C ) :   0.9867 B( 57-C , 58-S ) :   1.1018
B( 57-C , 96-H ) :   0.9610 B( 58-S , 59-C ) :   1.0737 B( 60-C , 61-C ) :   1.8192
B( 60-C , 97-H ) :   0.9400 B( 61-C , 62-C ) :   1.1287 B( 61-C , 98-H ) :   0.9287
B( 62-C , 63-S ) :   1.1073 B( 62-C , 64-C ) :   0.1207 B( 62-C , 66-C ) :   1.3936
B( 63-S , 64-C ) :   1.1548 B( 64-C , 65-C ) :   1.3516 B( 64-C , 70-C ) :   1.1258
B( 65-C , 66-C ) :   1.2547 B( 65-C , 69-C ) :   1.1435 B( 66-C , 67-N ) :   1.1680
B( 67-N , 68-N ) :   1.1453 B( 67-N , 99-H ) :   0.8834 B( 68-N , 69-C ) :   1.7412
B( 69-C ,100-H ) :   0.9968 B( 70-C , 71-C ) :   1.9193 B( 70-C ,101-H ) :   0.9513
B( 71-C ,102-H ) :   0.9543 B( 71-C ,103-H ) :   0.9481

-----------------------------------------------------------------------------
         ABSORPTION SPECTRUM VIA TRANSITION ELECTRIC DIPOLE MOMENTS
-----------------------------------------------------------------------------
State   Energy  Wavelength   fosc         T2         TX        TY        TZ
        (cm-1)    (nm)                  (au**2)     (au)      (au)      (au)
-----------------------------------------------------------------------------
   0   11527.2    867.5   0.949792129  27.12571  -2.35434   2.98132   3.56294
   1   12880.4    776.4   0.001780555   0.04551   0.08476   0.00186  -0.19576
   2   17133.5    583.7   0.118741806   2.28156   0.98651  -0.56699   0.99342
   3   18707.3    534.5   0.000865150   0.01522   0.10576  -0.02837   0.05688
   4   19436.0    514.5   0.091104901   1.54316   0.01513   0.53586   1.12062
   5   20535.5    487.0   0.053670902   0.86042  -0.15926  -0.36637  -0.83715
   6   21553.2    464.0   0.004751208   0.07257  -0.02265  -0.26701  -0.02761
   7   22123.6    452.0   0.031399246   0.46724  -0.19579   0.18053  -0.62954
   8   22405.6    446.3   0.116571392   1.71282  -0.09533   0.59453   1.16201
   9   24693.3    405.0   0.007064944   0.09419   0.14439  -0.10902   0.24791
  10   24901.0    401.6   0.005067360   0.06699   0.15429   0.03191   0.20535
  11   25378.7    394.0   0.014849839   0.19263   0.16776  -0.37337  -0.15836
  12   25824.6    387.2   0.347180247   4.42585   0.89795   0.13186   1.89793
  13   27063.3    369.5   0.711003446   8.64900  -1.36002  -0.85646   2.46289
  14   27754.6    360.3   0.747147909   8.86232  -2.56530  -0.46492  -1.43716
  15   28428.6    351.8   0.103810165   1.20215   1.06000   0.09970   0.26195
  16   28552.3    350.2   0.029939187   0.34520  -0.53052   0.25241   0.00623
  17   28571.0    350.0   0.041383907   0.47685   0.67734  -0.03399   0.13002
  18   28878.5    346.3   0.062515861   0.71267  -0.78580   0.19214   0.24140
  19   29615.0    337.7   0.098207463   1.09171  -0.93758  -0.33376   0.31823
  20   29687.0    336.8   0.029233439   0.32418   0.31060  -0.07389   0.47143
  21   30698.4    325.8   0.029140241   0.31250   0.29929   0.00697   0.47210
  22   30967.6    322.9   0.096545167   1.02636  -0.62175   0.00085  -0.79987
  23   31115.5    321.4   0.062217173   0.65828   0.34854  -0.26148   0.68442
  24   31409.6    318.4   0.008105014   0.08495  -0.02340  -0.10862  -0.26945
  25   31724.8    315.2   0.395422503   4.10334   0.97189  -0.41769   1.72751
  26   32117.8    311.4   0.050412343   0.51673  -0.57270   0.18372  -0.39370
  27   32348.0    309.1   0.164241688   1.67152  -1.05637   0.15037  -0.73007
  28   32606.6    306.7   0.035089986   0.35428  -0.29232  -0.06931  -0.51384
  29   32795.6    304.9   0.026011696   0.26111  -0.41412   0.25684  -0.15380
  30   33108.5    302.0   0.032919781   0.32734   0.02171   0.24120   0.51835
  31   33333.0    300.0   0.019226241   0.18989  -0.13310  -0.21263  -0.35631
  32   33508.6    298.4   0.014810893   0.14551  -0.33843  -0.13274   0.11558
  33   33698.4    296.8   0.026530192   0.25918   0.42793   0.10762  -0.25393
  34   34030.7    293.9   0.007363400   0.07123   0.16257   0.19715  -0.07705
  35   34352.2    291.1   0.021760607   0.20854   0.44679   0.01297   0.09353
  36   34573.6    289.2   0.034913463   0.33245   0.33388  -0.27197  -0.38341
  37   34698.3    288.2   0.004057887   0.03850  -0.17226  -0.08714  -0.03514
  38   35029.3    285.5   0.000381664   0.00359  -0.04061   0.00978   0.04291
  39   35258.1    283.6   0.034221481   0.31953   0.50381   0.01080  -0.25611
  40   35277.4    283.5   0.009227477   0.08611   0.25314   0.10539  -0.10452
  41   35491.7    281.8   0.008998471   0.08347  -0.23933   0.02823   0.15936
  42   35535.7    281.4   0.009469974   0.08773  -0.26905  -0.00214   0.12385
  43   35572.0    281.1   0.002051792   0.01899   0.03900   0.04924   0.12265
  44   35930.5    278.3   0.000809668   0.00742  -0.03429   0.05962   0.05184
  45   36089.4    277.1   0.019276570   0.17584   0.29122  -0.25927  -0.15432
  46   36355.9    275.1   0.283078870   2.56335   1.06862  -1.06956  -0.52675
  47   36439.0    274.4   0.041871178   0.37829   0.35458   0.25857   0.43094
  48   36744.9    272.1   0.057351127   0.51383   0.34985  -0.43114  -0.45338
  49   36781.7    271.9   0.174933186   1.56573  -0.80409   0.64611   0.70831
  50   37143.2    269.2   0.073904108   0.65504   0.62547  -0.41776   0.29884
  51   37479.8    266.8   0.016814152   0.14769   0.36803  -0.10676   0.02917
  52   37750.2    264.9   0.040359266   0.35196   0.34566  -0.36717  -0.31252
  53   38167.7    262.0   0.017402573   0.15010  -0.13115  -0.34462  -0.11891
  54   38217.7    261.7   0.033141487   0.28548   0.43825   0.14388  -0.26967
  55   38523.3    259.6   0.032287182   0.27592   0.31085  -0.41662  -0.07561
  56   38592.5    259.1   0.043348887   0.36979  -0.52421   0.27661   0.13592
  57   39112.7    255.7   0.002116869   0.01782   0.10425  -0.07326  -0.03977
  58   39265.6    254.7   0.012462344   0.10449   0.15110  -0.19865  -0.20541
  59   39751.2    251.6   0.130708553   1.08250   0.50451  -0.06313  -0.90774
  60   39999.5    250.0   0.039859344   0.32806   0.10615   0.18725   0.53078
  61   40067.7    249.6   0.033157387   0.27243   0.52020   0.04274   0.00096
  62   40237.0    248.5   0.016347537   0.13375  -0.27873   0.05239  -0.23090

FINAL SINGLE POINT ENERGY     -7686.691513027349

DIPOLE MOMENT
-------------
                                X             Y             Z
Electronic contribution:     17.78836      98.28787     149.02688
Nuclear contribution   :    -15.97850    -101.53299    -151.43430
                        -----------------------------------------
Total Dipole Moment    :      1.80987      -3.24512      -2.40742
                        -----------------------------------------
Magnitude (a.u.)       :      4.42742
Magnitude (Debye)      :     11.25362

Rotational constants in cm-1:     0.001368     0.000419     0.000397
Rotational constants in MHz :    41.017308    12.550891    11.896603

                             ****ORCA TERMINATED NORMALLY****
TOTAL RUN TIME: 0 days 0 hours 13 minutes 5 seconds 896 msec
