                         Program Version 4.2.0 -  RELEASE  -
|  1> # ORCA input file
|  2> # SCF done       -197.137921589297          0.000928451724
|  3> ! CAM-B3LYP def2-SVP def2/J RIJCOSX Grid4 TightSCF
|  4> %maxcore 5000
|  5> %tddft
|  6>     Mode sTDDFT
|  7>     Ethresh 5.0
|  8>     maxcore 5000
|  9> end
| 10>
| 11> %pal
| 12>   nprocs 6
| 13>   end
| 14> * xyz 0 1
| 15>    C       -5.66530         5.92286        -6.63630
| 16>    C       -5.90495         4.83982        -7.44180
| 17>    C       -5.33116         4.66485        -8.71837
| 18>    N       -4.89680         4.47732        -9.76396
| 19>    C       -6.72258         3.74490        -7.09281
| 20>    N       -7.36484         2.82017        -6.86464
| 21>    C       -4.75768         7.02321        -6.93100
| 22>    C       -4.66971         7.85718        -5.78927
| 23>    C       -3.88300         8.98261        -5.75208
| 24>    C       -3.14817         9.30290        -6.89801
| 25>    C       -3.24671         8.46761        -8.03699
| 26>    C       -4.04104         7.32858        -8.07385
| 27>    S       -2.26169         9.05183        -9.34380
| 28>    C       -1.73693        10.38955        -8.35593
| 29>    C       -2.27044        10.40063        -7.11119
| 30>   Br       -0.53665        11.64602        -9.06120
| 31>    C       -5.52722         7.32040        -4.71336
| 32>    O       -5.66400         7.78977        -3.60482
| 33>    C       -6.20685         6.14000        -5.30497
| 34>    C       -7.29746         5.51064        -4.78967
| 35>    C       -7.79564         5.61576        -3.45110
| 36>    C       -6.94341         5.66131        -2.37674
| 37>    S       -7.70665         5.56013        -0.85854
| 38>    C       -9.26043         5.49655        -1.63681
| 39>    C       -9.17962         5.53859        -3.03420
| 40>    C      -10.37592         5.60032        -3.78689
| 41>    C      -10.28165         5.85483        -5.27110
| 42>    C      -10.34161         4.58324        -6.12134
| 43>    C      -11.61024         5.49937        -3.15236
| 44>    C      -12.87909         5.54362        -3.96405
| 45>    C      -13.56978         6.90395        -3.85055
| 46>    C      -11.68562         5.40289        -1.73865
| 47>    C      -12.81663         5.35449        -0.83071
| 48>    C      -12.41355         5.34704         0.47719
| 49>    S      -10.72185         5.38136         0.71596
| 50>    C      -10.48839         5.43303        -1.00236
| 51>    C      -14.22272         5.33084        -1.14662
| 52>    C      -15.19039         5.83432        -0.35716
| 53>    C      -16.56867         5.81284        -0.76102
| 54>    N      -17.48385         6.33658         0.08528
| 55>    C      -18.72024         6.36412        -0.32765
| 56>    C      -19.06561         5.88628        -1.61383
| 57>    N      -18.09025         5.35182        -2.36706
| 58>    N      -16.87653         5.30466        -1.95844
| 59>    C      -20.35783         5.91466        -2.20053
| 60>    C      -20.53539         5.40899        -3.45710
| 61>    C      -21.74258         5.34821        -4.20965
| 62>    C      -21.60416         4.76938        -5.42914
| 63>    C      -20.27785         4.34285        -5.69404
| 64>    S      -19.20332         4.71668        -4.34871
| 65>    C      -19.80825         3.67129        -6.79936
| 66>    C      -20.50461         3.19828        -7.93651
| 67>    C      -19.73148         2.46893        -8.78350
| 68>    C      -18.38704         2.29973        -8.35354
| 69>    S      -18.12565         3.18878        -6.87783
| 70>    C      -17.42937         1.58117        -9.04049
| 71>    C      -16.10904         1.28159        -8.69986
| 72>    C      -15.40624         1.28652        -7.51243
| 73>    C      -15.76576         1.29521        -6.12517
| 74>    C      -16.96594         0.88837        -5.58199
| 75>    C      -17.26827         0.92036        -4.20758
| 76>    N      -17.58375         0.94447        -3.10337
| 77>    C      -17.98168         0.27311        -6.33669
| 78>    N      -18.81807        -0.25939        -6.91667
| 79>    C      -14.55582         1.57046        -5.34900
| 80>    C      -13.44027         1.50131        -6.21934
| 81>    C      -13.92213         1.28806        -7.59962
| 82>    O      -13.25460         1.16729        -8.60314
| 83>    C      -12.14580         1.59808        -5.77305
| 84>    C      -11.94346         1.78915        -4.40094
| 85>    C      -13.06366         1.90055        -3.54632
| 86>    C      -14.37593         1.79623        -3.99874
| 87>    S      -12.58039         2.11450        -1.88904
| 88>    C      -10.90403         2.02295        -2.36285
| 89>    C      -10.71261         1.86476        -3.69221
| 90>   Br       -9.56416         2.09338        -1.05244
| 91>    H       -3.83561         9.59564        -4.86572
| 92>    H       -4.08641         6.72687        -8.96623
| 93>    H       -2.05564        11.15139        -6.37273
| 94>    H       -7.83491         4.83430        -5.43713
| 95>    H       -5.87251         5.67788        -2.41691
| 96>    H       -9.34435         6.38045        -5.46770
| 97>    H      -11.08311         6.52733        -5.57968
| 98>    H       -9.61403         3.84596        -5.79168
| 99>    H      -10.14027         4.82019        -7.16382
|100>    H      -11.32269         4.11903        -6.06403
|101>    H      -13.55204         4.75327        -3.63536
|102>    H      -12.67245         5.34343        -5.01180
|103>    H      -13.78777         7.14718        -2.81404
|104>    H      -14.50495         6.89395        -4.40495
|105>    H      -12.93136         7.68594        -4.25650
|106>    H      -13.05258         5.27980         1.33552
|107>    H      -14.54844         4.88235        -2.07052
|108>    H      -14.98929         6.32140         0.58463
|109>    H      -19.46362         6.76480         0.35045
|110>    H      -21.18357         6.33507        -1.64784
|111>    H      -22.66642         5.73176        -3.81283
|112>    H      -22.40759         4.63219        -6.13117
|113>    H      -21.55179         3.39255        -8.08193
|114>    H      -20.08579         2.00775        -9.68801
|115>    H      -17.73836         1.25193       -10.02554
|116>    H      -15.47389         1.02597        -9.54542
|117>    H      -11.31357         1.50823        -6.45353
|118>    H      -15.20048         1.88114        -3.31001
|119>    H       -9.74648         1.78209        -4.15570
|120> *
|121>
|122>                          ****END OF INPUT****

CARTESIAN COORDINATES (ANGSTROEM)
---------------------------------
  C     -5.665300    5.922860   -6.636300
  C     -5.904950    4.839820   -7.441800
  C     -5.331160    4.664850   -8.718370
  N     -4.896800    4.477320   -9.763960
  C     -6.722580    3.744900   -7.092810
  N     -7.364840    2.820170   -6.864640
  C     -4.757680    7.023210   -6.931000
  C     -4.669710    7.857180   -5.789270
  C     -3.883000    8.982610   -5.752080
  C     -3.148170    9.302900   -6.898010
  C     -3.246710    8.467610   -8.036990
  C     -4.041040    7.328580   -8.073850
  S     -2.261690    9.051830   -9.343800
  C     -1.736930   10.389550   -8.355930
  C     -2.270440   10.400630   -7.111190
  Br    -0.536650   11.646020   -9.061200
  C     -5.527220    7.320400   -4.713360
  O     -5.664000    7.789770   -3.604820
  C     -6.206850    6.140000   -5.304970
  C     -7.297460    5.510640   -4.789670
  C     -7.795640    5.615760   -3.451100
  C     -6.943410    5.661310   -2.376740
  S     -7.706650    5.560130   -0.858540
  C     -9.260430    5.496550   -1.636810
  C     -9.179620    5.538590   -3.034200
  C    -10.375920    5.600320   -3.786890
  C    -10.281650    5.854830   -5.271100
  C    -10.341610    4.583240   -6.121340
  C    -11.610240    5.499370   -3.152360
  C    -12.879090    5.543620   -3.964050
  C    -13.569780    6.903950   -3.850550
  C    -11.685620    5.402890   -1.738650
  C    -12.816630    5.354490   -0.830710
  C    -12.413550    5.347040    0.477190
  S    -10.721850    5.381360    0.715960
  C    -10.488390    5.433030   -1.002360
  C    -14.222720    5.330840   -1.146620
  C    -15.190390    5.834320   -0.357160
  C    -16.568670    5.812840   -0.761020
  N    -17.483850    6.336580    0.085280
  C    -18.720240    6.364120   -0.327650
  C    -19.065610    5.886280   -1.613830
  N    -18.090250    5.351820   -2.367060
  N    -16.876530    5.304660   -1.958440
  C    -20.357830    5.914660   -2.200530
  C    -20.535390    5.408990   -3.457100
  C    -21.742580    5.348210   -4.209650
  C    -21.604160    4.769380   -5.429140
  C    -20.277850    4.342850   -5.694040
  S    -19.203320    4.716680   -4.348710
  C    -19.808250    3.671290   -6.799360
  C    -20.504610    3.198280   -7.936510
  C    -19.731480    2.468930   -8.783500
  C    -18.387040    2.299730   -8.353540
  S    -18.125650    3.188780   -6.877830
  C    -17.429370    1.581170   -9.040490
  C    -16.109040    1.281590   -8.699860
  C    -15.406240    1.286520   -7.512430
  C    -15.765760    1.295210   -6.125170
  C    -16.965940    0.888370   -5.581990
  C    -17.268270    0.920360   -4.207580
  N    -17.583750    0.944470   -3.103370
  C    -17.981680    0.273110   -6.336690
  N    -18.818070   -0.259390   -6.916670
  C    -14.555820    1.570460   -5.349000
  C    -13.440270    1.501310   -6.219340
  C    -13.922130    1.288060   -7.599620
  O    -13.254600    1.167290   -8.603140
  C    -12.145800    1.598080   -5.773050
  C    -11.943460    1.789150   -4.400940
  C    -13.063660    1.900550   -3.546320
  C    -14.375930    1.796230   -3.998740
  S    -12.580390    2.114500   -1.889040
  C    -10.904030    2.022950   -2.362850
  C    -10.712610    1.864760   -3.692210
  Br    -9.564160    2.093380   -1.052440
  H     -3.835610    9.595640   -4.865720
  H     -4.086410    6.726870   -8.966230
  H     -2.055640   11.151390   -6.372730
  H     -7.834910    4.834300   -5.437130
  H     -5.872510    5.677880   -2.416910
  H     -9.344350    6.380450   -5.467700
  H    -11.083110    6.527330   -5.579680
  H     -9.614030    3.845960   -5.791680
  H    -10.140270    4.820190   -7.163820
  H    -11.322690    4.119030   -6.064030
  H    -13.552040    4.753270   -3.635360
  H    -12.672450    5.343430   -5.011800
  H    -13.787770    7.147180   -2.814040
  H    -14.504950    6.893950   -4.404950
  H    -12.931360    7.685940   -4.256500
  H    -13.052580    5.279800    1.335520
  H    -14.548440    4.882350   -2.070520
  H    -14.989290    6.321400    0.584630
  H    -19.463620    6.764800    0.350450
  H    -21.183570    6.335070   -1.647840
  H    -22.666420    5.731760   -3.812830
  H    -22.407590    4.632190   -6.131170
  H    -21.551790    3.392550   -8.081930
  H    -20.085790    2.007750   -9.688010
  H    -17.738360    1.251930  -10.025540
  H    -15.473890    1.025970   -9.545420
  H    -11.313570    1.508230   -6.453530
  H    -15.200480    1.881140   -3.310010
  H     -9.746480    1.782090   -4.155700

 Total Charge           Charge          ....    0
 Multiplicity           Mult            ....    1
 Number of Electrons    NEL             ....  614
 Basis Dimension        Dim             .... 1269

ORBITAL ENERGIES
----------------

  NO   OCC          E(Eh)            E(eV)
   0   2.0000    -482.887284    -13140.0310
   1   2.0000    -482.873806    -13139.6643
   2   2.0000     -88.977329     -2421.1962
   3   2.0000     -88.965338     -2420.8699
   4   2.0000     -88.963598     -2420.8226
   5   2.0000     -88.960515     -2420.7387
   6   2.0000     -88.957498     -2420.6566
   7   2.0000     -88.952704     -2420.5261
   8   2.0000     -62.565009     -1702.4805
   9   2.0000     -62.551007     -1702.0994
  10   2.0000     -56.398964     -1534.6938
  11   2.0000     -56.396238     -1534.6197
  12   2.0000     -56.396210     -1534.6189
  13   2.0000     -56.384941     -1534.3123
  14   2.0000     -56.382286     -1534.2400
  15   2.0000     -56.382245     -1534.2389
  16   2.0000     -19.217245      -522.9278
  17   2.0000     -19.199599      -522.4476
  18   2.0000     -14.462544      -393.5458
  19   2.0000     -14.451928      -393.2570
  20   2.0000     -14.432811      -392.7367
  21   2.0000     -14.419077      -392.3630
  22   2.0000     -14.416027      -392.2800
  23   2.0000     -14.400145      -391.8479
  24   2.0000     -14.397919      -391.7873
  25   2.0000     -10.369603      -282.1713
  26   2.0000     -10.361032      -281.9380
  27   2.0000     -10.349460      -281.6231
  28   2.0000     -10.348749      -281.6038
  29   2.0000     -10.344385      -281.4850
  30   2.0000     -10.343566      -281.4627
  31   2.0000     -10.342830      -281.4427
  32   2.0000     -10.339022      -281.3391
  33   2.0000     -10.329694      -281.0853
  34   2.0000     -10.327733      -281.0319
  35   2.0000     -10.326020      -280.9853
  36   2.0000     -10.324826      -280.9528
  37   2.0000     -10.322229      -280.8821
  38   2.0000     -10.321378      -280.8590
  39   2.0000     -10.319910      -280.8190
  40   2.0000     -10.319602      -280.8106
  41   2.0000     -10.319555      -280.8094
  42   2.0000     -10.318927      -280.7923
  43   2.0000     -10.313677      -280.6494
  44   2.0000     -10.313227      -280.6372
  45   2.0000     -10.312400      -280.6147
  46   2.0000     -10.310170      -280.5540
  47   2.0000     -10.309983      -280.5489
  48   2.0000     -10.307916      -280.4927
  49   2.0000     -10.303666      -280.3770
  50   2.0000     -10.303187      -280.3640
  51   2.0000     -10.302987      -280.3585
  52   2.0000     -10.302534      -280.3462
  53   2.0000     -10.300655      -280.2951
  54   2.0000     -10.300624      -280.2942
  55   2.0000     -10.300011      -280.2776
  56   2.0000     -10.299418      -280.2614
  57   2.0000     -10.298628      -280.2399
  58   2.0000     -10.297890      -280.2198
  59   2.0000     -10.297216      -280.2015
  60   2.0000     -10.295354      -280.1508
  61   2.0000     -10.294335      -280.1231
  62   2.0000     -10.294313      -280.1225
  63   2.0000     -10.293266      -280.0940
  64   2.0000     -10.292354      -280.0692
  65   2.0000     -10.291794      -280.0539
  66   2.0000     -10.291427      -280.0440
  67   2.0000     -10.289854      -280.0012
  68   2.0000     -10.286885      -279.9204
  69   2.0000     -10.286552      -279.9113
  70   2.0000     -10.286469      -279.9091
  71   2.0000     -10.285053      -279.8705
  72   2.0000     -10.284528      -279.8562
  73   2.0000     -10.284377      -279.8521
  74   2.0000     -10.282583      -279.8033
  75   2.0000     -10.279983      -279.7326
  76   2.0000     -10.278836      -279.7013
  77   2.0000     -10.278139      -279.6824
  78   2.0000     -10.276282      -279.6319
  79   2.0000     -10.274635      -279.5870
  80   2.0000     -10.268230      -279.4127
  81   2.0000     -10.262440      -279.2552
  82   2.0000     -10.253760      -279.0190
  83   2.0000     -10.251853      -278.9671
  84   2.0000      -8.794441      -239.3089
  85   2.0000      -8.780262      -238.9231
  86   2.0000      -8.073381      -219.6879
  87   2.0000      -8.061596      -219.3672
  88   2.0000      -8.058738      -219.2894
  89   2.0000      -8.055635      -219.2050
  90   2.0000      -8.053790      -219.1548
  91   2.0000      -8.045723      -218.9352
  92   2.0000      -6.630769      -180.4324
  93   2.0000      -6.616463      -180.0431
  94   2.0000      -6.616182      -180.0355
  95   2.0000      -6.615946      -180.0290
  96   2.0000      -6.601988      -179.6492
  97   2.0000      -6.601904      -179.6469
  98   2.0000      -6.043074      -164.4404
  99   2.0000      -6.038791      -164.3239
 100   2.0000      -6.034576      -164.2092
 101   2.0000      -6.030917      -164.1096
 102   2.0000      -6.028510      -164.0441
 103   2.0000      -6.026683      -163.9944
 104   2.0000      -6.025131      -163.9522
 105   2.0000      -6.024185      -163.9264
 106   2.0000      -6.023576      -163.9098
 107   2.0000      -6.023213      -163.9000
 108   2.0000      -6.020949      -163.8384
 109   2.0000      -6.020006      -163.8127
 110   2.0000      -6.019015      -163.7857
 111   2.0000      -6.017207      -163.7365
 112   2.0000      -6.016047      -163.7050
 113   2.0000      -6.015561      -163.6917
 114   2.0000      -6.010908      -163.5651
 115   2.0000      -6.006751      -163.4520
 116   2.0000      -2.746623       -74.7394
 117   2.0000      -2.742528       -74.6280
 118   2.0000      -2.742398       -74.6244
 119   2.0000      -2.732410       -74.3527
 120   2.0000      -2.730795       -74.3087
 121   2.0000      -2.730772       -74.3081
 122   2.0000      -2.728256       -74.2396
 123   2.0000      -2.728194       -74.2379
 124   2.0000      -2.716693       -73.9250
 125   2.0000      -2.716678       -73.9246
 126   2.0000      -1.152223       -31.3536
 127   2.0000      -1.133003       -30.8306
 128   2.0000      -1.113978       -30.3129
 129   2.0000      -1.033307       -28.1177
 130   2.0000      -1.024932       -27.8898
 131   2.0000      -1.015528       -27.6339
 132   2.0000      -1.010066       -27.4853
 133   2.0000      -1.008864       -27.4526
 134   2.0000      -1.005393       -27.3581
 135   2.0000      -0.997668       -27.1479
 136   2.0000      -0.996346       -27.1119
 137   2.0000      -0.991482       -26.9796
 138   2.0000      -0.986664       -26.8485
 139   2.0000      -0.980261       -26.6743
 140   2.0000      -0.977181       -26.5904
 141   2.0000      -0.973086       -26.4790
 142   2.0000      -0.956936       -26.0396
 143   2.0000      -0.944833       -25.7102
 144   2.0000      -0.929659       -25.2973
 145   2.0000      -0.928351       -25.2617
 146   2.0000      -0.911695       -24.8085
 147   2.0000      -0.910282       -24.7700
 148   2.0000      -0.905813       -24.6484
 149   2.0000      -0.898538       -24.4505
 150   2.0000      -0.893811       -24.3218
 151   2.0000      -0.888003       -24.1638
 152   2.0000      -0.880166       -23.9505
 153   2.0000      -0.875003       -23.8100
 154   2.0000      -0.871314       -23.7097
 155   2.0000      -0.867068       -23.5941
 156   2.0000      -0.859472       -23.3874
 157   2.0000      -0.856979       -23.3196
 158   2.0000      -0.853950       -23.2372
 159   2.0000      -0.838158       -22.8075
 160   2.0000      -0.833375       -22.6773
 161   2.0000      -0.831473       -22.6255
 162   2.0000      -0.825545       -22.4642
 163   2.0000      -0.820731       -22.3332
 164   2.0000      -0.814359       -22.1598
 165   2.0000      -0.804370       -21.8880
 166   2.0000      -0.793756       -21.5992
 167   2.0000      -0.790591       -21.5131
 168   2.0000      -0.780737       -21.2449
 169   2.0000      -0.768265       -20.9055
 170   2.0000      -0.763063       -20.7640
 171   2.0000      -0.757418       -20.6104
 172   2.0000      -0.749297       -20.3894
 173   2.0000      -0.739125       -20.1126
 174   2.0000      -0.723698       -19.6928
 175   2.0000      -0.717802       -19.5324
 176   2.0000      -0.712283       -19.3822
 177   2.0000      -0.702891       -19.1266
 178   2.0000      -0.699111       -19.0238
 179   2.0000      -0.694381       -18.8951
 180   2.0000      -0.690674       -18.7942
 181   2.0000      -0.690047       -18.7771
 182   2.0000      -0.687569       -18.7097
 183   2.0000      -0.678544       -18.4641
 184   2.0000      -0.671802       -18.2807
 185   2.0000      -0.667432       -18.1617
 186   2.0000      -0.660424       -17.9710
 187   2.0000      -0.657117       -17.8811
 188   2.0000      -0.651844       -17.7376
 189   2.0000      -0.646319       -17.5872
 190   2.0000      -0.641467       -17.4552
 191   2.0000      -0.636185       -17.3115
 192   2.0000      -0.628661       -17.1067
 193   2.0000      -0.626273       -17.0417
 194   2.0000      -0.620084       -16.8733
 195   2.0000      -0.615341       -16.7443
 196   2.0000      -0.607519       -16.5314
 197   2.0000      -0.607173       -16.5220
 198   2.0000      -0.603069       -16.4103
 199   2.0000      -0.600928       -16.3521
 200   2.0000      -0.589535       -16.0421
 201   2.0000      -0.588330       -16.0093
 202   2.0000      -0.583174       -15.8690
 203   2.0000      -0.579541       -15.7701
 204   2.0000      -0.571181       -15.5426
 205   2.0000      -0.567454       -15.4412
 206   2.0000      -0.562318       -15.3015
 207   2.0000      -0.557491       -15.1701
 208   2.0000      -0.553878       -15.0718
 209   2.0000      -0.549594       -14.9552
 210   2.0000      -0.548029       -14.9126
 211   2.0000      -0.542894       -14.7729
 212   2.0000      -0.540948       -14.7200
 213   2.0000      -0.537998       -14.6397
 214   2.0000      -0.533525       -14.5180
 215   2.0000      -0.532445       -14.4886
 216   2.0000      -0.530213       -14.4278
 217   2.0000      -0.528596       -14.3838
 218   2.0000      -0.527410       -14.3515
 219   2.0000      -0.524759       -14.2794
 220   2.0000      -0.518835       -14.1182
 221   2.0000      -0.518181       -14.1004
 222   2.0000      -0.516087       -14.0434
 223   2.0000      -0.513369       -13.9695
 224   2.0000      -0.511672       -13.9233
 225   2.0000      -0.510468       -13.8905
 226   2.0000      -0.508821       -13.8457
 227   2.0000      -0.505580       -13.7575
 228   2.0000      -0.502368       -13.6701
 229   2.0000      -0.500026       -13.6064
 230   2.0000      -0.498760       -13.5720
 231   2.0000      -0.497452       -13.5364
 232   2.0000      -0.496224       -13.5030
 233   2.0000      -0.495045       -13.4708
 234   2.0000      -0.492611       -13.4046
 235   2.0000      -0.488695       -13.2981
 236   2.0000      -0.487525       -13.2662
 237   2.0000      -0.484491       -13.1837
 238   2.0000      -0.482849       -13.1390
 239   2.0000      -0.478662       -13.0251
 240   2.0000      -0.476260       -12.9597
 241   2.0000      -0.473281       -12.8786
 242   2.0000      -0.469696       -12.7811
 243   2.0000      -0.467718       -12.7273
 244   2.0000      -0.466247       -12.6872
 245   2.0000      -0.461752       -12.5649
 246   2.0000      -0.460739       -12.5373
 247   2.0000      -0.457882       -12.4596
 248   2.0000      -0.457484       -12.4488
 249   2.0000      -0.453802       -12.3486
 250   2.0000      -0.450622       -12.2621
 251   2.0000      -0.449376       -12.2281
 252   2.0000      -0.448618       -12.2075
 253   2.0000      -0.446955       -12.1623
 254   2.0000      -0.445715       -12.1285
 255   2.0000      -0.443784       -12.0760
 256   2.0000      -0.442038       -12.0285
 257   2.0000      -0.441291       -12.0081
 258   2.0000      -0.440238       -11.9795
 259   2.0000      -0.438422       -11.9301
 260   2.0000      -0.434946       -11.8355
 261   2.0000      -0.431660       -11.7461
 262   2.0000      -0.430278       -11.7084
 263   2.0000      -0.429376       -11.6839
 264   2.0000      -0.429346       -11.6831
 265   2.0000      -0.428610       -11.6631
 266   2.0000      -0.427679       -11.6377
 267   2.0000      -0.425598       -11.5811
 268   2.0000      -0.424533       -11.5521
 269   2.0000      -0.422482       -11.4963
 270   2.0000      -0.419572       -11.4171
 271   2.0000      -0.413838       -11.2611
 272   2.0000      -0.413151       -11.2424
 273   2.0000      -0.410589       -11.1727
 274   2.0000      -0.410118       -11.1599
 275   2.0000      -0.405307       -11.0290
 276   2.0000      -0.403085       -10.9685
 277   2.0000      -0.399342       -10.8667
 278   2.0000      -0.394162       -10.7257
 279   2.0000      -0.391665       -10.6577
 280   2.0000      -0.390039       -10.6135
 281   2.0000      -0.385551       -10.4914
 282   2.0000      -0.382212       -10.4005
 283   2.0000      -0.378858       -10.3093
 284   2.0000      -0.376699       -10.2505
 285   2.0000      -0.376090       -10.2339
 286   2.0000      -0.375215       -10.2101
 287   2.0000      -0.366481        -9.9725
 288   2.0000      -0.362755        -9.8711
 289   2.0000      -0.354591        -9.6489
 290   2.0000      -0.349861        -9.5202
 291   2.0000      -0.346000        -9.4151
 292   2.0000      -0.340968        -9.2782
 293   2.0000      -0.337793        -9.1918
 294   2.0000      -0.327820        -8.9204
 295   2.0000      -0.322834        -8.7848
 296   2.0000      -0.318540        -8.6679
 297   2.0000      -0.317476        -8.6390
 298   2.0000      -0.308053        -8.3825
 299   2.0000      -0.299152        -8.1403
 300   2.0000      -0.296476        -8.0675
 301   2.0000      -0.295662        -8.0454
 302   2.0000      -0.294103        -8.0029
 303   2.0000      -0.277036        -7.5385
 304   2.0000      -0.269762        -7.3406
 305   2.0000      -0.264959        -7.2099
 306   2.0000      -0.236199        -6.4273
 307   0.0000      -0.104734        -2.8500
 308   0.0000      -0.086716        -2.3597
 309   0.0000      -0.058236        -1.5847
 310   0.0000      -0.054892        -1.4937
 311   0.0000      -0.046778        -1.2729

MULLIKEN ATOMIC CHARGES
-----------------------
   0 C :    0.296773
   1 C :   -0.348447
   2 C :   -0.185055
   3 N :    0.152520
   4 C :   -0.191089
   5 N :    0.157529
   6 C :    0.017829
   7 C :   -0.018097
   8 C :   -0.071607
   9 C :    0.119445
  10 C :   -0.089993
  11 C :   -0.022511
  12 S :    0.188292
  13 C :   -0.123022
  14 C :    0.038111
  15 Br:    0.025301
  16 C :    0.130731
  17 O :   -0.142463
  18 C :   -0.091298
  19 C :   -0.040485
  20 C :    0.052082
  21 C :   -0.039171
  22 S :    0.151571
  23 C :   -0.142028
  24 C :    0.108776
  25 C :   -0.100608
  26 C :    0.007190
  27 C :    0.024946
  28 C :   -0.123717
  29 C :    0.021046
  30 C :    0.040519
  31 C :    0.135010
  32 C :    0.093874
  33 C :   -0.112637
  34 S :    0.137955
  35 C :   -0.157250
  36 C :   -0.005958
  37 C :    0.023345
  38 C :   -0.066315
  39 N :   -0.027827
  40 C :    0.029270
  41 C :    0.075324
  42 N :   -0.128403
  43 N :   -0.046283
  44 C :   -0.032248
  45 C :    0.003425
  46 C :    0.048341
  47 C :    0.035309
  48 C :   -0.021144
  49 S :    0.155715
  50 C :   -0.065446
  51 C :    0.041432
  52 C :    0.066821
  53 C :   -0.040114
  54 S :    0.128834
  55 C :   -0.001419
  56 C :    0.021998
  57 C :   -0.136135
  58 C :    0.281169
  59 C :   -0.356300
  60 C :   -0.173602
  61 N :    0.144677
  62 C :   -0.205932
  63 N :    0.159010
  64 C :    0.012655
  65 C :   -0.001453
  66 C :    0.130231
  67 O :   -0.146700
  68 C :   -0.075468
  69 C :    0.094678
  70 C :   -0.100320
  71 C :   -0.040405
  72 S :    0.176082
  73 C :   -0.128175
  74 C :    0.054987
  75 Br:    0.015251
  76 H :   -0.009241
  77 H :   -0.004729
  78 H :   -0.002380
  79 H :    0.009386
  80 H :    0.034029
  81 H :    0.005652
  82 H :    0.008930
  83 H :    0.028884
  84 H :    0.020605
  85 H :    0.020861
  86 H :    0.025473
  87 H :   -0.002718
  88 H :    0.020176
  89 H :    0.018700
  90 H :    0.003108
  91 H :    0.025144
  92 H :    0.019962
  93 H :   -0.018398
  94 H :    0.009644
  95 H :   -0.014524
  96 H :   -0.005983
  97 H :   -0.008135
  98 H :   -0.008028
  99 H :   -0.003471
 100 H :   -0.000445
 101 H :    0.025429
 102 H :    0.001406
 103 H :   -0.004561
 104 H :    0.006294
Sum of atomic charges:   -0.0000000

LOEWDIN ATOMIC CHARGES
----------------------
   0 C :    0.078087
   1 C :   -0.143315
   2 C :   -0.018969
   3 N :   -0.052126
   4 C :   -0.016656
   5 N :   -0.055807
   6 C :   -0.022106
   7 C :   -0.050350
   8 C :    0.021896
   9 C :   -0.031673
  10 C :   -0.143728
  11 C :   -0.008790
  12 S :    0.433572
  13 C :   -0.270706
  14 C :   -0.070417
  15 Br:    0.138232
  16 C :    0.080738
  17 O :   -0.137972
  18 C :   -0.101565
  19 C :    0.079739
  20 C :   -0.080067
  21 C :   -0.109307
  22 S :    0.447509
  23 C :   -0.182432
  24 C :   -0.037531
  25 C :   -0.019351
  26 C :   -0.031235
  27 C :   -0.053015
  28 C :   -0.011763
  29 C :   -0.031224
  30 C :   -0.047889
  31 C :   -0.041046
  32 C :   -0.070467
  33 C :   -0.157661
  34 S :    0.424991
  35 C :   -0.180665
  36 C :    0.027924
  37 C :   -0.049443
  38 C :    0.006189
  39 N :   -0.057575
  40 C :    0.042811
  41 C :   -0.040465
  42 N :   -0.037573
  43 N :   -0.046773
  44 C :   -0.071868
  45 C :   -0.121518
  46 C :   -0.017044
  47 C :   -0.023733
  48 C :   -0.165998
  49 S :    0.442333
  50 C :   -0.174089
  51 C :   -0.019832
  52 C :   -0.019482
  53 C :   -0.115165
  54 S :    0.462384
  55 C :   -0.067078
  56 C :    0.038074
  57 C :   -0.103328
  58 C :    0.040135
  59 C :   -0.158670
  60 C :   -0.020128
  61 N :   -0.062860
  62 C :   -0.028016
  63 N :   -0.062323
  64 C :   -0.012073
  65 C :   -0.057519
  66 C :    0.082907
  67 O :   -0.146384
  68 C :    0.022649
  69 C :   -0.041123
  70 C :   -0.145547
  71 C :   -0.023063
  72 S :    0.438944
  73 C :   -0.272682
  74 C :   -0.064764
  75 Br:    0.139254
  76 H :    0.041198
  77 H :    0.041412
  78 H :    0.039222
  79 H :    0.043241
  80 H :    0.029738
  81 H :    0.027221
  82 H :    0.029625
  83 H :    0.018882
  84 H :    0.028677
  85 H :    0.024490
  86 H :    0.026541
  87 H :    0.027802
  88 H :    0.024191
  89 H :    0.027648
  90 H :    0.022259
  91 H :    0.025297
  92 H :    0.030015
  93 H :    0.031173
  94 H :    0.029211
  95 H :    0.035117
  96 H :    0.035923
  97 H :    0.032363
  98 H :    0.034996
  99 H :    0.038030
 100 H :    0.041177
 101 H :    0.046775
 102 H :    0.043521
 103 H :    0.039663
 104 H :    0.040177

  Mayer bond orders larger than 0.100000
B(  0-C ,  1-C ) :   1.6451 B(  0-C ,  6-C ) :   1.0116 B(  0-C , 18-C ) :   1.0431
B(  1-C ,  2-C ) :   1.1369 B(  1-C ,  4-C ) :   1.1530 B(  2-C ,  3-N ) :   2.9747
B(  4-C ,  5-N ) :   2.9735 B(  6-C ,  7-C ) :   1.2694 B(  6-C , 11-C ) :   1.4070
B(  7-C ,  8-C ) :   1.4246 B(  7-C , 16-C ) :   0.9428 B(  8-C ,  9-C ) :   1.2465
B(  8-C , 76-H ) :   1.0164 B(  9-C , 10-C ) :   1.3032 B(  9-C , 14-C ) :   1.1626
B( 10-C , 11-C ) :   1.3331 B( 10-C , 12-S ) :   1.0855 B( 11-C , 77-H ) :   0.9804
B( 12-S , 13-C ) :   1.0869 B( 13-C , 14-C ) :   1.6183 B( 13-C , 15-Br) :   1.0196
B( 14-C , 78-H ) :   1.0002 B( 16-C , 17-O ) :   2.2324 B( 16-C , 18-C ) :   0.9329
B( 18-C , 19-C ) :   1.6430 B( 19-C , 20-C ) :   1.0768 B( 19-C , 79-H ) :   0.9338
B( 20-C , 21-C ) :   1.5544 B( 20-C , 24-C ) :   1.1314 B( 21-C , 22-S ) :   1.1737
B( 21-C , 80-H ) :   0.9554 B( 22-S , 23-C ) :   1.0575 B( 23-C , 24-C ) :   1.3813
B( 23-C , 35-C ) :   1.3829 B( 24-C , 25-C ) :   1.2749 B( 25-C , 26-C ) :   1.0544
B( 25-C , 28-C ) :   1.5097 B( 26-C , 27-C ) :   1.1101 B( 26-C , 81-H ) :   0.9185
B( 26-C , 82-H ) :   0.9091 B( 27-C , 83-H ) :   0.9464 B( 27-C , 84-H ) :   0.9587
B( 27-C , 85-H ) :   0.9527 B( 28-C , 29-C ) :   1.0624 B( 28-C , 31-C ) :   1.2562
B( 29-C , 30-C ) :   1.1133 B( 29-C , 86-H ) :   0.9236 B( 29-C , 87-H ) :   0.9022
B( 30-C , 88-H ) :   0.9631 B( 30-C , 89-H ) :   0.9645 B( 30-C , 90-H ) :   0.9559
B( 31-C , 32-C ) :   1.1330 B( 31-C , 35-C ) :   1.3725 B( 32-C , 33-C ) :   1.5991
B( 32-C , 36-C ) :   1.0063 B( 33-C , 34-S ) :   1.1267 B( 33-C , 91-H ) :   0.9606
B( 34-S , 35-C ) :   1.0772 B( 36-C , 37-C ) :   1.7245 B( 36-C , 92-H ) :   0.9569
B( 37-C , 38-C ) :   1.0736 B( 37-C , 93-H ) :   0.9721 B( 38-C , 39-N ) :   1.4346
B( 38-C , 43-N ) :   1.5215 B( 39-N , 40-C ) :   1.6535 B( 40-C , 41-C ) :   1.2127
B( 40-C , 94-H ) :   0.9801 B( 41-C , 42-N ) :   1.3812 B( 41-C , 44-C ) :   1.1200
B( 42-N , 43-N ) :   1.3766 B( 42-N , 49-S ) :   0.1345 B( 44-C , 45-C ) :   1.5843
B( 44-C , 95-H ) :   0.9772 B( 45-C , 46-C ) :   1.1183 B( 45-C , 49-S ) :   1.0763
B( 46-C , 47-C ) :   1.6154 B( 46-C , 96-H ) :   1.0003 B( 47-C , 48-C ) :   1.1600
B( 47-C , 97-H ) :   0.9957 B( 48-C , 49-S ) :   0.9885 B( 48-C , 50-C ) :   1.5372
B( 50-C , 51-C ) :   1.1781 B( 50-C , 54-S ) :   1.0359 B( 51-C , 52-C ) :   1.5917
B( 51-C , 98-H ) :   0.9914 B( 52-C , 53-C ) :   1.1454 B( 52-C , 99-H ) :   0.9969
B( 53-C , 54-S ) :   1.1060 B( 53-C , 55-C ) :   1.4780 B( 55-C , 56-C ) :   1.2943
B( 55-C ,100-H ) :   0.9527 B( 56-C , 57-C ) :   1.5111 B( 56-C ,101-H ) :   0.9252
B( 57-C , 58-C ) :   1.1174 B( 57-C , 66-C ) :   0.9580 B( 58-C , 59-C ) :   1.5589
B( 58-C , 64-C ) :   1.0016 B( 59-C , 60-C ) :   1.1472 B( 59-C , 62-C ) :   1.1680
B( 60-C , 61-N ) :   2.9758 B( 62-C , 63-N ) :   3.0030 B( 64-C , 65-C ) :   1.2846
B( 64-C , 71-C ) :   1.4303 B( 65-C , 66-C ) :   0.9184 B( 65-C , 68-C ) :   1.4273
B( 66-C , 67-O ) :   2.2541 B( 68-C , 69-C ) :   1.2395 B( 68-C ,102-H ) :   1.0139
B( 69-C , 70-C ) :   1.3249 B( 69-C , 74-C ) :   1.1622 B( 70-C , 71-C ) :   1.3037
B( 70-C , 72-S ) :   1.0836 B( 71-C ,103-H ) :   0.9828 B( 72-S , 73-C ) :   1.0833
B( 73-C , 74-C ) :   1.6131 B( 73-C , 75-Br) :   1.0160 B( 74-C ,104-H ) :   0.9989

-----------------------------------------------------------------------------
         ABSORPTION SPECTRUM VIA TRANSITION ELECTRIC DIPOLE MOMENTS
-----------------------------------------------------------------------------
State   Energy  Wavelength   fosc         T2         TX        TY        TZ
        (cm-1)    (nm)                  (au**2)     (au)      (au)      (au)
-----------------------------------------------------------------------------
   0   13127.6    761.8   0.429619866  10.77397  -1.02245   2.33791   2.06464
   1   20412.5    489.9   0.006045173   0.09750  -0.19157  -0.24511  -0.02682
   2   21519.2    464.7   0.045404526   0.69462   0.68985   0.23495   0.40438
   3   21909.4    456.4   0.410653573   6.17050  -2.45113   0.37822   0.13936
   4   22620.5    442.1   0.316430707   4.60523   1.35467   0.15768  -1.65688
   5   23209.1    430.9   0.243183714   3.44946   0.72178  -0.19932   1.69964
   6   23342.4    428.4   0.077337802   1.09074  -0.14440   0.14517  -1.02412
   7   24821.6    402.9   0.172841167   2.29241  -1.47871   0.29998   0.12591
   8   25202.1    396.8   0.021672645   0.28311   0.50435  -0.05686   0.15971
   9   25368.5    394.2   0.005223807   0.06779  -0.23707   0.01632  -0.10641
  10   26682.9    374.8   0.466053110   5.75014   1.78108   0.13641   1.59978
  11   26736.3    374.0   0.034246414   0.42169   0.34108  -0.09079   0.54508
  12   26806.8    373.0   0.166605137   2.04607  -0.92159   0.33405  -1.04171
  13   27265.2    366.8   0.016556469   0.19991  -0.41611   0.12922  -0.10034
  14   27493.2    363.7   0.032262342   0.38632   0.55558  -0.08473   0.26546
  15   28282.9    353.6   0.007148114   0.08320  -0.17242   0.21507   0.08496
  16   28871.2    346.4   0.449158709   5.12165   1.30626   1.80880  -0.37889
  17   29047.3    344.3   0.052782923   0.59822   0.27339   0.28612   0.66454
  18   29309.7    341.2   0.053660983   0.60273   0.61654   0.32937  -0.33782
  19   29911.4    334.3   0.006219445   0.06845   0.09221  -0.07045  -0.23449
  20   29939.6    334.0   0.009155178   0.10067   0.19939   0.21746  -0.11673
  21   30665.6    326.1   0.038431465   0.41258   0.24946   0.57765   0.12911
  22   30700.4    325.7   0.099397422   1.06588   0.68921   0.26405   0.72190
  23   30994.4    322.6   0.075520254   0.80215   0.76201   0.27447  -0.38229
  24   31390.2    318.6   0.477214016   5.00489  -2.21873   0.24129   0.15463
  25   31591.6    316.5   0.045760994   0.47687   0.68973   0.03196   0.01086
  26   31864.9    313.8   0.009070371   0.09371  -0.22052  -0.19681   0.07969
  27   32137.5    311.2   0.483283097   4.95068  -1.77393  -0.55144  -1.22465
  28   32253.5    310.0   0.005821843   0.05942  -0.11501  -0.16136  -0.14199
  29   33037.6    302.7   0.079749746   0.79469   0.85231   0.23222   0.11973
  30   33331.5    300.0   0.071995433   0.71109   0.41310   0.19248  -0.70950
  31   33401.0    299.4   0.077569248   0.76455   0.72639   0.08503  -0.47924
  32   33640.5    297.3   0.100618837   0.98467  -0.88380  -0.40725   0.19421
  33   33790.3    295.9   0.030713232   0.29923  -0.34807  -0.09020  -0.41224
  34   33991.7    294.2   0.216595625   2.09775  -0.90082  -0.00532   1.13412
  35   34084.3    293.4   0.529003586   5.10952   0.97938   2.01232   0.31767
  36   34197.3    292.4   0.039009260   0.37554  -0.34238  -0.05249   0.50553
  37   34401.0    290.7   0.008694172   0.08320   0.09896   0.01066   0.27073
  38   34503.6    289.8   0.131797599   1.25753   0.71830   0.18677  -0.84065
  39   34647.5    288.6   0.148675667   1.41268   0.23079  -0.14886  -1.15640
  40   35212.3    284.0   0.071545169   0.66890  -0.58818   0.29039   0.48849
  41   35225.7    283.9   0.055388890   0.51765  -0.53089   0.17890   0.45145
  42   35393.3    282.5   0.081590237   0.75891  -0.77917   0.14717   0.36077
  43   36013.0    277.7   0.148230848   1.35505   1.13117   0.03179  -0.27293
  44   36410.8    274.6   0.027170643   0.24567  -0.36527  -0.23315   0.24059
  45   36782.7    271.9   0.005257383   0.04705  -0.21588  -0.00578  -0.02043
  46   37009.7    270.2   0.059178848   0.52641  -0.56787  -0.21094   0.39930
  47   37084.0    269.7   0.043426880   0.38552  -0.47668  -0.21532   0.33456
  48   37301.2    268.1   0.008087428   0.07138  -0.24869  -0.09763  -0.00006
  49   37388.3    267.5   0.001810544   0.01594   0.08755  -0.06502   0.06364
  50   37698.6    265.3   0.017573106   0.15346   0.26130  -0.06882   0.28363
  51   37862.5    264.1   0.049621962   0.43146   0.17281  -0.25858  -0.57856
  52   37956.1    263.5   0.005015008   0.04350  -0.13706   0.03938  -0.15219
  53   38485.6    259.8   0.303849147   2.59918  -1.47469  -0.22006   0.61322
  54   38562.2    259.3   0.160452673   1.36981   0.10757   0.25926   1.13623
  55   38742.6    258.1   0.289353951   2.45876  -0.90372  -0.52412   1.16933
  56   39091.4    255.8   0.008228942   0.06930   0.25654  -0.04893   0.03307
  57   39195.4    255.1   0.028092173   0.23595  -0.37309   0.18870   0.24728
  58   39258.0    254.7   0.013387197   0.11226  -0.08903  -0.25566  -0.19742
  59   39602.9    252.5   0.049367311   0.41038   0.27381  -0.40789  -0.41114
  60   39613.0    252.4   0.008358269   0.06946  -0.05305   0.18301   0.18209
  61   39839.1    251.0   0.041820107   0.34558   0.16095  -0.17522  -0.53756
  62   40098.6    249.4   0.037920892   0.31133   0.42347   0.22065   0.28865
  63   40234.2    248.5   0.007655775   0.06264  -0.09775  -0.22989   0.01548

FINAL SINGLE POINT ENERGY    -10332.080229912326

DIPOLE MOMENT
-------------
                                X             Y             Z
Electronic contribution:    165.70615      34.82763      -1.25465
Nuclear contribution   :   -166.89610     -31.05282       2.38553
                        -----------------------------------------
Total Dipole Moment    :     -1.18996       3.77482       1.13089
                        -----------------------------------------
Magnitude (a.u.)       :      4.11633
Magnitude (Debye)      :     10.46287

Rotational constants in cm-1:     0.001086     0.000299     0.000278
Rotational constants in MHz :    32.567368     8.977449     8.343273

                             ****ORCA TERMINATED NORMALLY****
TOTAL RUN TIME: 0 days 0 hours 13 minutes 24 seconds 243 msec
