                         Program Version 4.2.0 -  RELEASE  -
|  1> # ORCA input file
|  2> # SCF done       -118.984138309784          0.000535515629
|  3> ! CAM-B3LYP def2-SVP def2/J RIJCOSX Grid4 TightSCF
|  4> %maxcore 5000
|  5> %tddft
|  6>     Mode sTDDFT
|  7>     Ethresh 5.0
|  8>     maxcore 5000
|  9> end
| 10>
| 11> %pal
| 12>   nprocs 6
| 13>   end
| 14> * xyz 0 1
| 15>    C        2.36509       -11.73617        -5.89077
| 16>    C        2.90346       -10.61124        -5.40191
| 17>    C        2.49794        -9.25833        -5.65700
| 18>    C        3.24322        -8.32102        -5.03138
| 19>    C        4.29262        -8.84210        -4.22425
| 20>    S        4.29534       -10.59735        -4.30185
| 21>    C        5.19721        -8.14554        -3.46390
| 22>    C        5.28786        -6.74333        -3.26998
| 23>    C        6.26411        -6.37043        -2.40471
| 24>    C        7.01576        -7.44453        -1.84777
| 25>    S        6.43177        -8.96507        -2.51848
| 26>    C        8.07693        -7.28219        -0.99988
| 27>    C        8.90955        -8.25481        -0.38062
| 28>    C        8.54136        -9.51626         0.01385
| 29>    O        9.44894       -10.46060         0.45186
| 30>    C       10.72800       -10.01503         0.58902
| 31>    C       11.09386        -8.66764         0.29754
| 32>    C       12.40596        -8.41899         0.52951
| 33>    S       13.21893        -9.82724         1.10689
| 34>    C       11.77029       -10.75939         1.03430
| 35>    O       10.19788        -7.76380        -0.18387
| 36>    C        7.17752        -9.94692         0.06629
| 37>    C        6.78994       -11.23928         0.04497
| 38>    C        5.41021       -11.61284         0.01707
| 39>    C        4.90739       -12.83354        -0.23051
| 40>    C        5.70201       -14.06811        -0.49929
| 41>    C        3.41695       -13.00903        -0.36194
| 42>    N        3.06199       -12.82684        -1.75430
| 43>    C        1.87748       -13.21633        -2.29795
| 44>    C        0.93146       -13.98048        -1.71378
| 45>    C       -0.25783       -14.45683        -2.35505
| 46>    C       -0.68141       -14.18109        -3.60379
| 47>    C       -1.87381       -14.71889        -4.20681
| 48>    C       -2.30403       -14.34721        -5.45792
| 49>    S       -3.73576       -15.15181        -5.94508
| 50>    C       -3.79291       -16.03823        -4.44154
| 51>    C       -2.74144       -15.68901        -3.63899
| 52>    C       -4.85103       -16.97853        -4.22899
| 53>    C       -5.00418       -17.72721        -3.12284
| 54>    C       -6.05792       -18.68418        -2.90601
| 55>    C       -6.16938       -19.41190        -1.74946
| 56>    S       -7.50992       -20.47936        -1.75699
| 57>    C       -7.94698       -19.95659        -3.33970
| 58>    C       -7.10398       -19.01568        -3.81955
| 59>    H        1.52259       -11.69379        -6.55834
| 60>    H        2.75703       -12.70719        -5.64774
| 61>    H        1.66439        -9.05055        -6.30416
| 62>    H        3.08120        -7.26106        -5.11686
| 63>    H        4.62761        -6.05757        -3.76989
| 64>    H        6.47514        -5.35139        -2.13146
| 65>    H        8.42432        -6.26532        -0.86269
| 66>    H       12.93717        -7.50028         0.39629
| 67>    H       11.76943       -11.78965         1.32197
| 68>    H        6.43930        -9.16074         0.12119
| 69>    H        7.54531       -12.00708        -0.01805
| 70>    H        4.71227       -10.79651         0.16323
| 71>    H        6.76134       -13.86440        -0.60682
| 72>    H        5.33922       -14.53868        -1.41231
| 73>    H        5.56560       -14.78102         0.31476
| 74>    H        2.88222       -12.29154         0.27903
| 75>    H        3.12912       -14.02058        -0.06431
| 76>    H        3.56918       -12.09651        -2.23129
| 77>    H        1.75452       -12.89292        -3.32148
| 78>    H        1.06010       -14.29065        -0.68687
| 79>    H       -0.86562       -15.10944        -1.74210
| 80>    H       -0.11476       -13.51039        -4.23539
| 81>    H       -1.85113       -13.63644        -6.12089
| 82>    H       -2.58627       -16.12221        -2.66854
| 83>    H       -5.55606       -17.06762        -5.04364
| 84>    H       -4.29698       -17.63115        -2.31046
| 85>    H       -5.53081       -19.37564        -0.88887
| 86>    H       -8.80778       -20.38550        -3.81324
| 87>    H       -7.21373       -18.56945        -4.79075
| 88> *
| 89>
| 90>                          ****END OF INPUT****

CARTESIAN COORDINATES (ANGSTROEM)
---------------------------------
  C      2.365090  -11.736170   -5.890770
  C      2.903460  -10.611240   -5.401910
  C      2.497940   -9.258330   -5.657000
  C      3.243220   -8.321020   -5.031380
  C      4.292620   -8.842100   -4.224250
  S      4.295340  -10.597350   -4.301850
  C      5.197210   -8.145540   -3.463900
  C      5.287860   -6.743330   -3.269980
  C      6.264110   -6.370430   -2.404710
  C      7.015760   -7.444530   -1.847770
  S      6.431770   -8.965070   -2.518480
  C      8.076930   -7.282190   -0.999880
  C      8.909550   -8.254810   -0.380620
  C      8.541360   -9.516260    0.013850
  O      9.448940  -10.460600    0.451860
  C     10.728000  -10.015030    0.589020
  C     11.093860   -8.667640    0.297540
  C     12.405960   -8.418990    0.529510
  S     13.218930   -9.827240    1.106890
  C     11.770290  -10.759390    1.034300
  O     10.197880   -7.763800   -0.183870
  C      7.177520   -9.946920    0.066290
  C      6.789940  -11.239280    0.044970
  C      5.410210  -11.612840    0.017070
  C      4.907390  -12.833540   -0.230510
  C      5.702010  -14.068110   -0.499290
  C      3.416950  -13.009030   -0.361940
  N      3.061990  -12.826840   -1.754300
  C      1.877480  -13.216330   -2.297950
  C      0.931460  -13.980480   -1.713780
  C     -0.257830  -14.456830   -2.355050
  C     -0.681410  -14.181090   -3.603790
  C     -1.873810  -14.718890   -4.206810
  C     -2.304030  -14.347210   -5.457920
  S     -3.735760  -15.151810   -5.945080
  C     -3.792910  -16.038230   -4.441540
  C     -2.741440  -15.689010   -3.638990
  C     -4.851030  -16.978530   -4.228990
  C     -5.004180  -17.727210   -3.122840
  C     -6.057920  -18.684180   -2.906010
  C     -6.169380  -19.411900   -1.749460
  S     -7.509920  -20.479360   -1.756990
  C     -7.946980  -19.956590   -3.339700
  C     -7.103980  -19.015680   -3.819550
  H      1.522590  -11.693790   -6.558340
  H      2.757030  -12.707190   -5.647740
  H      1.664390   -9.050550   -6.304160
  H      3.081200   -7.261060   -5.116860
  H      4.627610   -6.057570   -3.769890
  H      6.475140   -5.351390   -2.131460
  H      8.424320   -6.265320   -0.862690
  H     12.937170   -7.500280    0.396290
  H     11.769430  -11.789650    1.321970
  H      6.439300   -9.160740    0.121190
  H      7.545310  -12.007080   -0.018050
  H      4.712270  -10.796510    0.163230
  H      6.761340  -13.864400   -0.606820
  H      5.339220  -14.538680   -1.412310
  H      5.565600  -14.781020    0.314760
  H      2.882220  -12.291540    0.279030
  H      3.129120  -14.020580   -0.064310
  H      3.569180  -12.096510   -2.231290
  H      1.754520  -12.892920   -3.321480
  H      1.060100  -14.290650   -0.686870
  H     -0.865620  -15.109440   -1.742100
  H     -0.114760  -13.510390   -4.235390
  H     -1.851130  -13.636440   -6.120890
  H     -2.586270  -16.122210   -2.668540
  H     -5.556060  -17.067620   -5.043640
  H     -4.296980  -17.631150   -2.310460
  H     -5.530810  -19.375640   -0.888870
  H     -8.807780  -20.385500   -3.813240
  H     -7.213730  -18.569450   -4.790750

 Total Charge           Charge          ....    0
 Multiplicity           Mult            ....    1
 Number of Electrons    NEL             ....  348
 Basis Dimension        Dim             ....  781

ORBITAL ENERGIES
----------------

  NO   OCC          E(Eh)            E(eV)
   0   2.0000     -88.950822     -2420.4749
   1   2.0000     -88.948571     -2420.4137
   2   2.0000     -88.945213     -2420.3223
   3   2.0000     -88.941253     -2420.2145
   4   2.0000     -88.930828     -2419.9309
   5   2.0000     -19.267524      -524.2960
   6   2.0000     -19.263131      -524.1764
   7   2.0000     -14.412087      -392.1728
   8   2.0000     -10.337643      -281.3016
   9   2.0000     -10.336854      -281.2801
  10   2.0000     -10.333536      -281.1898
  11   2.0000     -10.332920      -281.1730
  12   2.0000     -10.314585      -280.6741
  13   2.0000     -10.313557      -280.6461
  14   2.0000     -10.312785      -280.6251
  15   2.0000     -10.311890      -280.6008
  16   2.0000     -10.294826      -280.1365
  17   2.0000     -10.294780      -280.1352
  18   2.0000     -10.289923      -280.0030
  19   2.0000     -10.289357      -279.9876
  20   2.0000     -10.289120      -279.9812
  21   2.0000     -10.287892      -279.9478
  22   2.0000     -10.287545      -279.9383
  23   2.0000     -10.286565      -279.9117
  24   2.0000     -10.284914      -279.8667
  25   2.0000     -10.280440      -279.7450
  26   2.0000     -10.278400      -279.6895
  27   2.0000     -10.277113      -279.6545
  28   2.0000     -10.275782      -279.6182
  29   2.0000     -10.275374      -279.6071
  30   2.0000     -10.271472      -279.5010
  31   2.0000     -10.270520      -279.4751
  32   2.0000     -10.265485      -279.3380
  33   2.0000     -10.264901      -279.3221
  34   2.0000     -10.264368      -279.3077
  35   2.0000     -10.262605      -279.2597
  36   2.0000     -10.261729      -279.2358
  37   2.0000     -10.260124      -279.1922
  38   2.0000     -10.259514      -279.1756
  39   2.0000     -10.255219      -279.0587
  40   2.0000     -10.248111      -278.8653
  41   2.0000     -10.247545      -278.8499
  42   2.0000     -10.237743      -278.5832
  43   2.0000     -10.229409      -278.3564
  44   2.0000      -8.046589      -218.9588
  45   2.0000      -8.044409      -218.8995
  46   2.0000      -8.040771      -218.8005
  47   2.0000      -8.037526      -218.7122
  48   2.0000      -8.026961      -218.4247
  49   2.0000      -6.016133      -163.7073
  50   2.0000      -6.014210      -163.6550
  51   2.0000      -6.011930      -163.5929
  52   2.0000      -6.010607      -163.5569
  53   2.0000      -6.010397      -163.5512
  54   2.0000      -6.008247      -163.4927
  55   2.0000      -6.006769      -163.4525
  56   2.0000      -6.006545      -163.4464
  57   2.0000      -6.005075      -163.4064
  58   2.0000      -6.002410      -163.3339
  59   2.0000      -6.001508      -163.3093
  60   2.0000      -5.999964      -163.2673
  61   2.0000      -5.996160      -163.1638
  62   2.0000      -5.992070      -163.0525
  63   2.0000      -5.989227      -162.9752
  64   2.0000      -1.191238       -32.4152
  65   2.0000      -1.154107       -31.4048
  66   2.0000      -1.011920       -27.5357
  67   2.0000      -0.996005       -27.1027
  68   2.0000      -0.979594       -26.6561
  69   2.0000      -0.972407       -26.4605
  70   2.0000      -0.966838       -26.3090
  71   2.0000      -0.958273       -26.0759
  72   2.0000      -0.919789       -25.0287
  73   2.0000      -0.905036       -24.6273
  74   2.0000      -0.884799       -24.0766
  75   2.0000      -0.881968       -23.9996
  76   2.0000      -0.869936       -23.6722
  77   2.0000      -0.863500       -23.4970
  78   2.0000      -0.848968       -23.1016
  79   2.0000      -0.837567       -22.7914
  80   2.0000      -0.829134       -22.5619
  81   2.0000      -0.823247       -22.4017
  82   2.0000      -0.820940       -22.3389
  83   2.0000      -0.812856       -22.1189
  84   2.0000      -0.803683       -21.8693
  85   2.0000      -0.803469       -21.8635
  86   2.0000      -0.787165       -21.4199
  87   2.0000      -0.782754       -21.2998
  88   2.0000      -0.769063       -20.9273
  89   2.0000      -0.763286       -20.7701
  90   2.0000      -0.745833       -20.2951
  91   2.0000      -0.734841       -19.9960
  92   2.0000      -0.705821       -19.2064
  93   2.0000      -0.694135       -18.8884
  94   2.0000      -0.688964       -18.7477
  95   2.0000      -0.676601       -18.4112
  96   2.0000      -0.674195       -18.3458
  97   2.0000      -0.667033       -18.1509
  98   2.0000      -0.652514       -17.7558
  99   2.0000      -0.643409       -17.5081
 100   2.0000      -0.638782       -17.3822
 101   2.0000      -0.625705       -17.0263
 102   2.0000      -0.621608       -16.9148
 103   2.0000      -0.617819       -16.8117
 104   2.0000      -0.611997       -16.6533
 105   2.0000      -0.604832       -16.4583
 106   2.0000      -0.603024       -16.4091
 107   2.0000      -0.602149       -16.3853
 108   2.0000      -0.596136       -16.2217
 109   2.0000      -0.585124       -15.9220
 110   2.0000      -0.576578       -15.6895
 111   2.0000      -0.572202       -15.5704
 112   2.0000      -0.570534       -15.5250
 113   2.0000      -0.560978       -15.2650
 114   2.0000      -0.557513       -15.1707
 115   2.0000      -0.553093       -15.0504
 116   2.0000      -0.546924       -14.8826
 117   2.0000      -0.532756       -14.4970
 118   2.0000      -0.531877       -14.4731
 119   2.0000      -0.526397       -14.3240
 120   2.0000      -0.513703       -13.9786
 121   2.0000      -0.510283       -13.8855
 122   2.0000      -0.507139       -13.7999
 123   2.0000      -0.500447       -13.6178
 124   2.0000      -0.498179       -13.5561
 125   2.0000      -0.497476       -13.5370
 126   2.0000      -0.496351       -13.5064
 127   2.0000      -0.491334       -13.3699
 128   2.0000      -0.488236       -13.2856
 129   2.0000      -0.487816       -13.2742
 130   2.0000      -0.485421       -13.2090
 131   2.0000      -0.483021       -13.1437
 132   2.0000      -0.473634       -12.8882
 133   2.0000      -0.470819       -12.8116
 134   2.0000      -0.466576       -12.6962
 135   2.0000      -0.466019       -12.6810
 136   2.0000      -0.464064       -12.6278
 137   2.0000      -0.460818       -12.5395
 138   2.0000      -0.455817       -12.4034
 139   2.0000      -0.454212       -12.3597
 140   2.0000      -0.453768       -12.3477
 141   2.0000      -0.451025       -12.2730
 142   2.0000      -0.449706       -12.2371
 143   2.0000      -0.441455       -12.0126
 144   2.0000      -0.438797       -11.9403
 145   2.0000      -0.432604       -11.7718
 146   2.0000      -0.432380       -11.7657
 147   2.0000      -0.428540       -11.6612
 148   2.0000      -0.426120       -11.5953
 149   2.0000      -0.416677       -11.3384
 150   2.0000      -0.413710       -11.2576
 151   2.0000      -0.411527       -11.1982
 152   2.0000      -0.407131       -11.0786
 153   2.0000      -0.404950       -11.0192
 154   2.0000      -0.401829       -10.9343
 155   2.0000      -0.398130       -10.8337
 156   2.0000      -0.393573       -10.7097
 157   2.0000      -0.390983       -10.6392
 158   2.0000      -0.386032       -10.5045
 159   2.0000      -0.380819       -10.3626
 160   2.0000      -0.354503        -9.6465
 161   2.0000      -0.352450        -9.5907
 162   2.0000      -0.342410        -9.3175
 163   2.0000      -0.332938        -9.0597
 164   2.0000      -0.316179        -8.6037
 165   2.0000      -0.310913        -8.4604
 166   2.0000      -0.301122        -8.1939
 167   2.0000      -0.299011        -8.1365
 168   2.0000      -0.297294        -8.0898
 169   2.0000      -0.282742        -7.6938
 170   2.0000      -0.255861        -6.9623
 171   2.0000      -0.245037        -6.6678
 172   2.0000      -0.220116        -5.9897
 173   2.0000      -0.212986        -5.7956
 174   0.0000      -0.070849        -1.9279
 175   0.0000      -0.017324        -0.4714
 176   0.0000      -0.005243        -0.1427
 177   0.0000       0.017412         0.4738
 178   0.0000       0.021688         0.5902

MULLIKEN ATOMIC CHARGES
-----------------------
   0 C :   -0.026561
   1 C :   -0.075379
   2 C :    0.056640
   3 C :    0.032355
   4 C :   -0.070633
   5 S :    0.069867
   6 C :   -0.050198
   7 C :    0.030032
   8 C :    0.039738
   9 C :   -0.038032
  10 S :    0.085987
  11 C :   -0.055562
  12 C :    0.157126
  13 C :    0.152607
  14 O :   -0.253134
  15 C :    0.214486
  16 C :    0.223996
  17 C :   -0.178773
  18 S :    0.102830
  19 C :   -0.174380
  20 O :   -0.261019
  21 C :   -0.097534
  22 C :    0.032994
  23 C :    0.023931
  24 C :   -0.220798
  25 C :    0.109864
  26 C :    0.225120
  27 N :   -0.179228
  28 C :    0.081650
  29 C :   -0.064708
  30 C :    0.023651
  31 C :   -0.010736
  32 C :    0.136320
  33 C :   -0.150726
  34 S :    0.096806
  35 C :   -0.092593
  36 C :   -0.028901
  37 C :    0.062431
  38 C :    0.016889
  39 C :    0.085811
  40 C :   -0.145604
  41 S :    0.101275
  42 C :   -0.081504
  43 C :    0.025655
  44 H :    0.026070
  45 H :    0.033522
  46 H :   -0.008112
  47 H :   -0.008489
  48 H :   -0.013312
  49 H :   -0.009831
  50 H :    0.006133
  51 H :    0.021347
  52 H :    0.021897
  53 H :    0.025042
  54 H :    0.001138
  55 H :   -0.025130
  56 H :    0.009569
  57 H :    0.025010
  58 H :    0.026785
  59 H :    0.008117
  60 H :    0.008788
  61 H :    0.120382
  62 H :   -0.020085
  63 H :   -0.037457
  64 H :   -0.031978
  65 H :   -0.052937
  66 H :    0.002714
  67 H :   -0.028023
  68 H :   -0.030639
  69 H :   -0.028941
  70 H :    0.017287
  71 H :    0.022580
  72 H :   -0.013506
Sum of atomic charges:   -0.0000000

LOEWDIN ATOMIC CHARGES
----------------------
   0 C :   -0.079013
   1 C :   -0.137701
   2 C :   -0.031123
   3 C :   -0.023336
   4 C :   -0.179555
   5 S :    0.360441
   6 C :   -0.177983
   7 C :   -0.035528
   8 C :   -0.027606
   9 C :   -0.144632
  10 S :    0.396677
  11 C :   -0.066792
  12 C :    0.007826
  13 C :    0.018348
  14 O :   -0.054019
  15 C :   -0.008231
  16 C :   -0.007038
  17 C :   -0.213500
  18 S :    0.429421
  19 C :   -0.212555
  20 O :   -0.066035
  21 C :   -0.059492
  22 C :   -0.005685
  23 C :   -0.050797
  24 C :   -0.024520
  25 C :   -0.047305
  26 C :    0.048662
  27 N :   -0.018654
  28 C :    0.045738
  29 C :   -0.147394
  30 C :   -0.015921
  31 C :   -0.062808
  32 C :   -0.053171
  33 C :   -0.208677
  34 S :    0.414352
  35 C :   -0.169147
  36 C :   -0.056592
  37 C :   -0.044531
  38 C :   -0.017084
  39 C :   -0.066130
  40 C :   -0.194341
  41 S :    0.426764
  42 C :   -0.181983
  43 C :   -0.058265
  44 H :    0.030979
  45 H :    0.027896
  46 H :    0.035271
  47 H :    0.034082
  48 H :    0.031519
  49 H :    0.034198
  50 H :    0.040955
  51 H :    0.027662
  52 H :    0.027897
  53 H :    0.030502
  54 H :    0.027748
  55 H :    0.025782
  56 H :    0.027376
  57 H :    0.036571
  58 H :    0.037588
  59 H :    0.017198
  60 H :    0.024791
  61 H :    0.048095
  62 H :    0.021793
  63 H :    0.016309
  64 H :    0.022315
  65 H :    0.016460
  66 H :    0.014611
  67 H :    0.021966
  68 H :    0.022854
  69 H :    0.027060
  70 H :    0.020094
  71 H :    0.021898
  72 H :    0.027448

  Mayer bond orders larger than 0.100000
B(  0-C ,  1-C ) :   1.8620 B(  0-C , 44-H ) :   0.9504 B(  0-C , 45-H ) :   0.9343
B(  1-C ,  2-C ) :   1.0802 B(  1-C ,  5-S ) :   1.0035 B(  2-C ,  3-C ) :   1.6604
B(  2-C , 46-H ) :   0.9928 B(  3-C ,  4-C ) :   1.1524 B(  3-C , 47-H ) :   0.9907
B(  4-C ,  5-S ) :   1.0326 B(  4-C ,  6-C ) :   1.5746 B(  6-C ,  7-C ) :   1.1552
B(  6-C , 10-S ) :   1.0320 B(  7-C ,  8-C ) :   1.6240 B(  7-C , 48-H ) :   0.9924
B(  8-C ,  9-C ) :   1.1178 B(  8-C , 49-H ) :   0.9994 B(  9-C , 10-S ) :   1.0375
B(  9-C , 11-C ) :   1.6243 B( 11-C , 12-C ) :   1.1257 B( 11-C , 50-H ) :   0.9469
B( 12-C , 13-C ) :   1.5008 B( 12-C , 20-O ) :   1.0229 B( 13-C , 14-O ) :   1.0586
B( 13-C , 21-C ) :   1.1351 B( 14-O , 15-C ) :   1.0570 B( 15-C , 16-C ) :   1.1960
B( 15-C , 19-C ) :   1.5743 B( 16-C , 17-C ) :   1.5732 B( 16-C , 20-O ) :   1.0662
B( 17-C , 18-S ) :   1.1385 B( 17-C , 51-H ) :   0.9718 B( 18-S , 19-C ) :   1.1394
B( 19-C , 52-H ) :   0.9717 B( 21-C , 22-C ) :   1.6934 B( 21-C , 53-H ) :   0.9657
B( 22-C , 23-C ) :   1.0893 B( 22-C , 54-H ) :   0.9775 B( 23-C , 24-C ) :   1.7736
B( 23-C , 55-H ) :   0.9692 B( 24-C , 25-C ) :   1.0890 B( 24-C , 26-C ) :   1.0266
B( 25-C , 56-H ) :   0.9535 B( 25-C , 57-H ) :   0.9438 B( 25-C , 58-H ) :   0.9442
B( 26-C , 27-N ) :   0.9961 B( 26-C , 59-H ) :   0.9334 B( 26-C , 60-H ) :   0.9250
B( 27-N , 28-C ) :   1.2295 B( 27-N , 61-H ) :   0.9147 B( 28-C , 29-C ) :   1.6711
B( 28-C , 62-H ) :   0.9513 B( 29-C , 30-C ) :   1.1342 B( 29-C , 63-H ) :   0.9635
B( 30-C , 31-C ) :   1.7322 B( 30-C , 64-H ) :   0.9667 B( 31-C , 32-C ) :   1.0934
B( 31-C , 65-H ) :   0.9666 B( 32-C , 33-C ) :   1.5040 B( 32-C , 36-C ) :   1.2255
B( 33-C , 34-S ) :   1.1339 B( 33-C , 66-H ) :   0.9709 B( 34-S , 35-C ) :   1.1287
B( 35-C , 36-C ) :   1.5556 B( 35-C , 37-C ) :   1.0826 B( 36-C , 67-H ) :   0.9890
B( 37-C , 38-C ) :   1.7404 B( 37-C , 68-H ) :   0.9602 B( 38-C , 39-C ) :   1.0929
B( 38-C , 69-H ) :   0.9790 B( 39-C , 40-C ) :   1.5254 B( 39-C , 43-C ) :   1.2269
B( 40-C , 41-S ) :   1.1615 B( 40-C , 70-H ) :   0.9714 B( 41-S , 42-C ) :   1.1687
B( 42-C , 43-C ) :   1.6108 B( 42-C , 71-H ) :   0.9671 B( 43-C , 72-H ) :   0.9932

-----------------------------------------------------------------------------
         ABSORPTION SPECTRUM VIA TRANSITION ELECTRIC DIPOLE MOMENTS
-----------------------------------------------------------------------------
State   Energy  Wavelength   fosc         T2         TX        TY        TZ
        (cm-1)    (nm)                  (au**2)     (au)      (au)      (au)
-----------------------------------------------------------------------------
   0   16845.8    593.6   0.186137896   3.63764   1.14722  -0.25897   1.50148
   1   17177.6    582.2   0.308600165   5.91436  -1.55287   0.21193  -1.85958
   2   23143.8    432.1   0.136972566   1.94838   0.92121   0.76977   0.71218
   3   27586.4    362.5   0.643510304   7.67954   1.87749   1.84956   0.85656
   4   27755.9    360.3   0.034124709   0.40475  -0.31915  -0.52695  -0.15879
   5   28502.3    350.8   0.000225536   0.00261   0.00350   0.01867   0.04737
   6   29128.4    343.3   0.290844651   3.28716   1.14601   1.25280  -0.63585
   7   29615.0    337.7   0.374455386   4.16259  -1.52081  -1.21629  -0.60858
   8   33050.0    302.6   0.337824524   3.36508  -1.20583  -1.30856  -0.44578
   9   33728.6    296.5   0.198131422   1.93389  -0.89035  -1.06259  -0.10983
  10   33893.7    295.0   1.187003312  11.52945   2.99256   1.44449   0.69819
  11   34645.3    288.6   0.069723577   0.66254   0.06263  -0.79154   0.17909
  12   35328.7    283.1   0.213751527   1.99185  -1.18717  -0.76311   0.01182
  13   35478.4    281.9   0.004438650   0.04119   0.14668   0.13831  -0.02327
  14   35769.9    279.6   0.005327009   0.04903  -0.19304   0.09975  -0.04259
  15   37004.7    270.2   0.000775718   0.00690  -0.04389  -0.06395  -0.02975
  16   37406.2    267.3   0.553747705   4.87353   0.00282   1.26192  -1.81138
  17   37498.3    266.7   0.071472300   0.62748  -0.77332   0.15346   0.07690
  18   37946.6    263.5   0.010687926   0.09272   0.13548  -0.07605   0.26189
  19   38791.6    257.8   0.000377035   0.00320  -0.01028  -0.01332   0.05401
  20   39282.4    254.6   0.131775997   1.10437   0.70952  -0.05114   0.77352
  21   40017.8    249.9   0.002765987   0.02275   0.08521   0.00472   0.12439

FINAL SINGLE POINT ENERGY     -3582.625680007168

DIPOLE MOMENT
-------------
                                X             Y             Z
Electronic contribution:     21.06518      12.89449       1.13212
Nuclear contribution   :    -20.33698     -11.47722      -1.22756
                        -----------------------------------------
Total Dipole Moment    :      0.72821       1.41727      -0.09544
                        -----------------------------------------
Magnitude (a.u.)       :      1.59626
Magnitude (Debye)      :      4.05737

Rotational constants in cm-1:     0.004162     0.000487     0.000445
Rotational constants in MHz :   124.761100    14.590064    13.346031

                             ****ORCA TERMINATED NORMALLY****
TOTAL RUN TIME: 0 days 0 hours 4 minutes 11 seconds 597 msec
