                         Program Version 4.2.0 -  RELEASE  -
|  1> # ORCA input file
|  2> # SCF done       -189.513576340281          0.000722945629
|  3> ! CAM-B3LYP def2-SVP def2/J RIJCOSX Grid4 TightSCF
|  4> %maxcore 5000
|  5> %tddft
|  6>     Mode sTDDFT
|  7>     Ethresh 5.0
|  8>     maxcore 5000
|  9> end
| 10>
| 11> %pal
| 12>   nprocs 6
| 13>   end
| 14> * xyz 0 1
| 15>    C       -1.58194         0.69665         8.32187
| 16>    C       -0.87574        -0.47552         8.54856
| 17>    C        0.56442        -0.53996         8.40289
| 18>    N        1.22982        -1.60548         8.85307
| 19>    C        0.55346        -2.65009         9.26985
| 20>    C       -0.88316        -2.67045         9.19513
| 21>    N       -1.55483        -1.59370         8.89276
| 22>    C       -1.56951        -3.87863         9.47368
| 23>    N       -2.06592        -4.88884         9.68926
| 24>    C        1.24693        -3.76056         9.79731
| 25>    N        1.77297        -4.69519        10.20589
| 26>    C        1.29185         0.54693         7.85753
| 27>    C        0.56697         1.74461         7.68265
| 28>    C       -0.85833         1.81720         7.92487
| 29>    N       -1.33463         3.04416         7.68271
| 30>    S       -0.12783         3.98784         7.20803
| 31>    N        1.06279         2.91062         7.27066
| 32>    C        2.65080         0.43634         7.47361
| 33>    S        3.65016         1.84474         7.29140
| 34>    C        5.00013         0.92609         6.78269
| 35>    C        4.71005        -0.41464         6.70250
| 36>    C        3.36599        -0.70961         7.10514
| 37>    N        2.90157        -1.96790         7.05910
| 38>    C        3.71704        -2.92767         6.69683
| 39>    C        5.08047        -2.62133         6.25005
| 40>    N        5.84211        -3.56099         5.64673
| 41>    C        7.20014        -3.29835         5.24161
| 42>    N        5.53636        -1.39404         6.26955
| 43>    N        3.18569        -4.19437         6.62163
| 44>    C        1.75468        -4.33188         6.43847
| 45>    C        3.86505        -5.34503         6.96528
| 46>    C        4.97704        -5.41047         7.71968
| 47>    C        5.73040        -6.63501         7.90398
| 48>    C        5.70518        -7.59009         6.92673
| 49>    S        6.69681        -8.95885         7.21827
| 50>    C        7.20814        -8.25151         8.71690
| 51>    C        6.61877        -7.00774         8.98780
| 52>    C        6.96097        -6.35911        10.20402
| 53>    C        6.18092        -5.13765        10.61635
| 54>    C        4.73195        -5.51916        10.92506
| 55>    C        7.93386        -6.89924        11.03935
| 56>    C        8.43840        -6.12997        12.23520
| 57>    C        7.72732        -6.53305        13.52720
| 58>    C        8.48809        -8.17919        10.77770
| 59>    C        9.36905        -9.03432        11.55227
| 60>    C        9.59153       -10.22662        10.91986
| 61>    S        8.80023       -10.41081         9.41145
| 62>    C        8.09191        -8.83878         9.60534
| 63>    C        9.95874        -8.80759        12.85190
| 64>    C       10.17527        -9.80010        13.74507
| 65>    C       10.78031        -9.63745        15.01295
| 66>    S       11.00663       -11.03505        16.04688
| 67>    C       11.76962       -10.13211        17.33979
| 68>    C       11.83185        -8.78554        16.96211
| 69>    C       11.28057        -8.52243        15.67733
| 70>    N       11.41558        -7.18534        15.48272
| 71>    N       12.00471        -6.59420        16.53683
| 72>    C       12.26280        -7.52027        17.42610
| 73>    C       12.23216       -10.72089        18.51941
| 74>    C       12.06460       -12.04746        18.83137
| 75>    C       12.50729       -12.73525        19.96691
| 76>    C       13.44632       -12.36103        20.90627
| 77>    C       14.37353       -11.29379        20.93641
| 78>    C       15.18551       -11.28200        22.03046
| 79>    C       14.95145       -12.34030        22.93854
| 80>    S       13.67105       -13.36787        22.33349
| 81>    C       15.60058       -12.59239        24.12746
| 82>    C       16.64411       -11.82964        24.71793
| 83>    C       17.09420       -12.31757        25.89642
| 84>    C       16.43424       -13.51349        26.33250
| 85>    S       15.20737       -13.96725        25.13852
| 86>    C       16.66179       -14.21719        27.45078
| 87>    H       -2.65117         0.72541         8.44092
| 88>    H        5.93822         1.40299         6.58329
| 89>    H        5.57185        -4.52798         5.73583
| 90>    H        7.30777        -2.22680         5.09639
| 91>    H        7.40575        -3.82307         4.30964
| 92>    H        7.91442        -3.62923         6.00059
| 93>    H        1.34738        -3.37569         6.12007
| 94>    H        1.26537        -4.63731         7.36582
| 95>    H        1.56052        -5.08717         5.67455
| 96>    H        3.38767        -6.24670         6.60543
| 97>    H        5.35989        -4.50261         8.15612
| 98>    H        5.16405        -7.54960         6.00152
| 99>    H        6.21800        -4.37513         9.83910
|100>    H        6.59677        -4.68577        11.51232
|101>    H        4.16838        -4.64358        11.23546
|102>    H        4.70346        -6.25138        11.72875
|103>    H        4.23500        -5.94631        10.06005
|104>    H        8.32235        -5.05825        12.07603
|105>    H        9.51130        -6.29711        12.31985
|106>    H        6.66625        -6.30831        13.45692
|107>    H        8.13796        -5.99000        14.37646
|108>    H        7.83778        -7.59949        13.70998
|109>    H       10.22655       -11.02010        11.26178
|110>    H       10.26001        -7.80952        13.11715
|111>    H        9.85407       -10.80654        13.51496
|112>    H       11.13617        -6.62192        14.69860
|113>    H       12.73524        -7.26550        18.35298
|114>    H       12.70219       -10.04605        19.21925
|115>    H       11.47366       -12.63133        18.13437
|116>    H       12.05834       -13.70744        20.12835
|117>    H       14.45856       -10.58617        20.13271
|118>    H       15.95134       -10.54658        22.20137
|119>    H       17.02587       -10.94238        24.24468
|120>    H       17.87802       -11.87686        26.48638
|121>    H       17.41522       -13.90434        28.15188
|122>    H       16.10436       -15.10565        27.68328
|123> *
|124>
|125>                          ****END OF INPUT****

CARTESIAN COORDINATES (ANGSTROEM)
---------------------------------
  C     -1.581940    0.696650    8.321870
  C     -0.875740   -0.475520    8.548560
  C      0.564420   -0.539960    8.402890
  N      1.229820   -1.605480    8.853070
  C      0.553460   -2.650090    9.269850
  C     -0.883160   -2.670450    9.195130
  N     -1.554830   -1.593700    8.892760
  C     -1.569510   -3.878630    9.473680
  N     -2.065920   -4.888840    9.689260
  C      1.246930   -3.760560    9.797310
  N      1.772970   -4.695190   10.205890
  C      1.291850    0.546930    7.857530
  C      0.566970    1.744610    7.682650
  C     -0.858330    1.817200    7.924870
  N     -1.334630    3.044160    7.682710
  S     -0.127830    3.987840    7.208030
  N      1.062790    2.910620    7.270660
  C      2.650800    0.436340    7.473610
  S      3.650160    1.844740    7.291400
  C      5.000130    0.926090    6.782690
  C      4.710050   -0.414640    6.702500
  C      3.365990   -0.709610    7.105140
  N      2.901570   -1.967900    7.059100
  C      3.717040   -2.927670    6.696830
  C      5.080470   -2.621330    6.250050
  N      5.842110   -3.560990    5.646730
  C      7.200140   -3.298350    5.241610
  N      5.536360   -1.394040    6.269550
  N      3.185690   -4.194370    6.621630
  C      1.754680   -4.331880    6.438470
  C      3.865050   -5.345030    6.965280
  C      4.977040   -5.410470    7.719680
  C      5.730400   -6.635010    7.903980
  C      5.705180   -7.590090    6.926730
  S      6.696810   -8.958850    7.218270
  C      7.208140   -8.251510    8.716900
  C      6.618770   -7.007740    8.987800
  C      6.960970   -6.359110   10.204020
  C      6.180920   -5.137650   10.616350
  C      4.731950   -5.519160   10.925060
  C      7.933860   -6.899240   11.039350
  C      8.438400   -6.129970   12.235200
  C      7.727320   -6.533050   13.527200
  C      8.488090   -8.179190   10.777700
  C      9.369050   -9.034320   11.552270
  C      9.591530  -10.226620   10.919860
  S      8.800230  -10.410810    9.411450
  C      8.091910   -8.838780    9.605340
  C      9.958740   -8.807590   12.851900
  C     10.175270   -9.800100   13.745070
  C     10.780310   -9.637450   15.012950
  S     11.006630  -11.035050   16.046880
  C     11.769620  -10.132110   17.339790
  C     11.831850   -8.785540   16.962110
  C     11.280570   -8.522430   15.677330
  N     11.415580   -7.185340   15.482720
  N     12.004710   -6.594200   16.536830
  C     12.262800   -7.520270   17.426100
  C     12.232160  -10.720890   18.519410
  C     12.064600  -12.047460   18.831370
  C     12.507290  -12.735250   19.966910
  C     13.446320  -12.361030   20.906270
  C     14.373530  -11.293790   20.936410
  C     15.185510  -11.282000   22.030460
  C     14.951450  -12.340300   22.938540
  S     13.671050  -13.367870   22.333490
  C     15.600580  -12.592390   24.127460
  C     16.644110  -11.829640   24.717930
  C     17.094200  -12.317570   25.896420
  C     16.434240  -13.513490   26.332500
  S     15.207370  -13.967250   25.138520
  C     16.661790  -14.217190   27.450780
  H     -2.651170    0.725410    8.440920
  H      5.938220    1.402990    6.583290
  H      5.571850   -4.527980    5.735830
  H      7.307770   -2.226800    5.096390
  H      7.405750   -3.823070    4.309640
  H      7.914420   -3.629230    6.000590
  H      1.347380   -3.375690    6.120070
  H      1.265370   -4.637310    7.365820
  H      1.560520   -5.087170    5.674550
  H      3.387670   -6.246700    6.605430
  H      5.359890   -4.502610    8.156120
  H      5.164050   -7.549600    6.001520
  H      6.218000   -4.375130    9.839100
  H      6.596770   -4.685770   11.512320
  H      4.168380   -4.643580   11.235460
  H      4.703460   -6.251380   11.728750
  H      4.235000   -5.946310   10.060050
  H      8.322350   -5.058250   12.076030
  H      9.511300   -6.297110   12.319850
  H      6.666250   -6.308310   13.456920
  H      8.137960   -5.990000   14.376460
  H      7.837780   -7.599490   13.709980
  H     10.226550  -11.020100   11.261780
  H     10.260010   -7.809520   13.117150
  H      9.854070  -10.806540   13.514960
  H     11.136170   -6.621920   14.698600
  H     12.735240   -7.265500   18.352980
  H     12.702190  -10.046050   19.219250
  H     11.473660  -12.631330   18.134370
  H     12.058340  -13.707440   20.128350
  H     14.458560  -10.586170   20.132710
  H     15.951340  -10.546580   22.201370
  H     17.025870  -10.942380   24.244680
  H     17.878020  -11.876860   26.486380
  H     17.415220  -13.904340   28.151880
  H     16.104360  -15.105650   27.683280

 Total Charge           Charge          ....    0
 Multiplicity           Mult            ....    1
 Number of Electrons    NEL             ....  550
 Basis Dimension        Dim             .... 1216

ORBITAL ENERGIES
----------------

  NO   OCC          E(Eh)            E(eV)
   0   2.0000     -89.039257     -2422.8813
   1   2.0000     -88.963953     -2420.8322
   2   2.0000     -88.952623     -2420.5239
   3   2.0000     -88.947460     -2420.3834
   4   2.0000     -88.945285     -2420.3243
   5   2.0000     -88.936590     -2420.0877
   6   2.0000     -88.936112     -2420.0747
   7   2.0000     -14.474251      -393.8644
   8   2.0000     -14.458705      -393.4414
   9   2.0000     -14.450464      -393.2171
  10   2.0000     -14.450249      -393.2113
  11   2.0000     -14.447685      -393.1415
  12   2.0000     -14.444653      -393.0590
  13   2.0000     -14.429672      -392.6513
  14   2.0000     -14.428681      -392.6244
  15   2.0000     -14.424178      -392.5018
  16   2.0000     -14.422230      -392.4488
  17   2.0000     -14.413813      -392.2198
  18   2.0000     -14.397199      -391.7677
  19   2.0000     -10.372015      -282.2369
  20   2.0000     -10.363928      -282.0168
  21   2.0000     -10.362057      -281.9659
  22   2.0000     -10.358025      -281.8562
  23   2.0000     -10.336067      -281.2587
  24   2.0000     -10.335527      -281.2440
  25   2.0000     -10.335081      -281.2318
  26   2.0000     -10.334207      -281.2081
  27   2.0000     -10.320812      -280.8436
  28   2.0000     -10.317539      -280.7545
  29   2.0000     -10.317233      -280.7462
  30   2.0000     -10.314603      -280.6746
  31   2.0000     -10.311270      -280.5839
  32   2.0000     -10.307623      -280.4847
  33   2.0000     -10.306430      -280.4522
  34   2.0000     -10.305811      -280.4354
  35   2.0000     -10.305112      -280.4163
  36   2.0000     -10.304669      -280.4043
  37   2.0000     -10.303931      -280.3842
  38   2.0000     -10.302890      -280.3559
  39   2.0000     -10.302796      -280.3533
  40   2.0000     -10.302683      -280.3502
  41   2.0000     -10.296409      -280.1795
  42   2.0000     -10.293948      -280.1126
  43   2.0000     -10.293025      -280.0874
  44   2.0000     -10.291788      -280.0538
  45   2.0000     -10.291058      -280.0339
  46   2.0000     -10.290071      -280.0071
  47   2.0000     -10.289389      -279.9885
  48   2.0000     -10.288431      -279.9624
  49   2.0000     -10.286883      -279.9203
  50   2.0000     -10.286347      -279.9057
  51   2.0000     -10.285617      -279.8859
  52   2.0000     -10.283840      -279.8375
  53   2.0000     -10.281948      -279.7860
  54   2.0000     -10.279680      -279.7243
  55   2.0000     -10.278201      -279.6841
  56   2.0000     -10.277502      -279.6651
  57   2.0000     -10.276063      -279.6259
  58   2.0000     -10.275563      -279.6123
  59   2.0000     -10.275065      -279.5987
  60   2.0000     -10.274205      -279.5753
  61   2.0000     -10.273419      -279.5539
  62   2.0000     -10.272615      -279.5321
  63   2.0000     -10.271589      -279.5041
  64   2.0000     -10.270100      -279.4636
  65   2.0000     -10.269856      -279.4570
  66   2.0000     -10.269629      -279.4508
  67   2.0000     -10.267903      -279.4039
  68   2.0000     -10.262454      -279.2556
  69   2.0000     -10.255348      -279.0622
  70   2.0000     -10.250687      -278.9354
  71   2.0000     -10.234589      -278.4973
  72   2.0000      -8.130590      -221.2446
  73   2.0000      -8.058465      -219.2820
  74   2.0000      -8.047404      -218.9810
  75   2.0000      -8.043800      -218.8829
  76   2.0000      -8.041635      -218.8240
  77   2.0000      -8.033198      -218.5944
  78   2.0000      -8.032789      -218.5833
  79   2.0000      -6.101563      -166.0320
  80   2.0000      -6.093865      -165.8225
  81   2.0000      -6.093509      -165.8128
  82   2.0000      -6.027671      -164.0213
  83   2.0000      -6.023182      -163.8991
  84   2.0000      -6.021158      -163.8441
  85   2.0000      -6.016741      -163.7239
  86   2.0000      -6.013274      -163.6295
  87   2.0000      -6.012668      -163.6130
  88   2.0000      -6.011060      -163.5693
  89   2.0000      -6.009536      -163.5278
  90   2.0000      -6.009097      -163.5159
  91   2.0000      -6.006938      -163.4571
  92   2.0000      -6.005460      -163.4169
  93   2.0000      -6.003339      -163.3592
  94   2.0000      -6.002924      -163.3479
  95   2.0000      -6.002609      -163.3393
  96   2.0000      -5.998997      -163.2410
  97   2.0000      -5.998698      -163.2329
  98   2.0000      -5.993965      -163.1041
  99   2.0000      -5.993335      -163.0869
 100   2.0000      -1.135041       -30.8860
 101   2.0000      -1.134292       -30.8657
 102   2.0000      -1.108210       -30.1559
 103   2.0000      -1.102793       -30.0085
 104   2.0000      -1.056173       -28.7399
 105   2.0000      -1.037165       -28.2227
 106   2.0000      -1.028994       -28.0003
 107   2.0000      -1.007383       -27.4123
 108   2.0000      -0.997622       -27.1467
 109   2.0000      -0.996886       -27.1267
 110   2.0000      -0.991789       -26.9880
 111   2.0000      -0.988617       -26.9016
 112   2.0000      -0.976864       -26.5818
 113   2.0000      -0.975212       -26.5369
 114   2.0000      -0.971968       -26.4486
 115   2.0000      -0.966249       -26.2930
 116   2.0000      -0.965546       -26.2738
 117   2.0000      -0.954594       -25.9758
 118   2.0000      -0.919572       -25.0228
 119   2.0000      -0.917833       -24.9755
 120   2.0000      -0.899082       -24.4653
 121   2.0000      -0.897493       -24.4220
 122   2.0000      -0.895994       -24.3812
 123   2.0000      -0.885102       -24.0848
 124   2.0000      -0.879357       -23.9285
 125   2.0000      -0.870799       -23.6956
 126   2.0000      -0.859886       -23.3987
 127   2.0000      -0.851758       -23.1775
 128   2.0000      -0.848237       -23.0817
 129   2.0000      -0.844793       -22.9880
 130   2.0000      -0.840897       -22.8820
 131   2.0000      -0.840533       -22.8721
 132   2.0000      -0.827424       -22.5154
 133   2.0000      -0.826189       -22.4818
 134   2.0000      -0.818705       -22.2781
 135   2.0000      -0.813941       -22.1485
 136   2.0000      -0.811304       -22.0767
 137   2.0000      -0.799202       -21.7474
 138   2.0000      -0.793655       -21.5965
 139   2.0000      -0.787894       -21.4397
 140   2.0000      -0.780172       -21.2296
 141   2.0000      -0.778148       -21.1745
 142   2.0000      -0.770666       -20.9709
 143   2.0000      -0.752992       -20.4900
 144   2.0000      -0.738717       -20.1015
 145   2.0000      -0.731294       -19.8995
 146   2.0000      -0.726152       -19.7596
 147   2.0000      -0.714559       -19.4441
 148   2.0000      -0.710558       -19.3353
 149   2.0000      -0.706932       -19.2366
 150   2.0000      -0.700006       -19.0481
 151   2.0000      -0.694737       -18.9047
 152   2.0000      -0.692485       -18.8435
 153   2.0000      -0.690729       -18.7957
 154   2.0000      -0.686399       -18.6779
 155   2.0000      -0.683781       -18.6066
 156   2.0000      -0.678810       -18.4714
 157   2.0000      -0.677767       -18.4430
 158   2.0000      -0.671864       -18.2823
 159   2.0000      -0.670795       -18.2533
 160   2.0000      -0.650632       -17.7046
 161   2.0000      -0.645771       -17.5723
 162   2.0000      -0.641718       -17.4620
 163   2.0000      -0.635305       -17.2875
 164   2.0000      -0.632849       -17.2207
 165   2.0000      -0.629424       -17.1275
 166   2.0000      -0.626188       -17.0394
 167   2.0000      -0.619118       -16.8471
 168   2.0000      -0.617812       -16.8115
 169   2.0000      -0.610990       -16.6259
 170   2.0000      -0.602842       -16.4042
 171   2.0000      -0.600858       -16.3502
 172   2.0000      -0.596267       -16.2253
 173   2.0000      -0.594825       -16.1860
 174   2.0000      -0.586491       -15.9592
 175   2.0000      -0.585434       -15.9305
 176   2.0000      -0.584255       -15.8984
 177   2.0000      -0.572927       -15.5901
 178   2.0000      -0.565909       -15.3992
 179   2.0000      -0.556874       -15.1533
 180   2.0000      -0.551863       -15.0170
 181   2.0000      -0.550267       -14.9735
 182   2.0000      -0.549041       -14.9402
 183   2.0000      -0.544962       -14.8292
 184   2.0000      -0.539559       -14.6821
 185   2.0000      -0.536788       -14.6068
 186   2.0000      -0.536048       -14.5866
 187   2.0000      -0.535204       -14.5636
 188   2.0000      -0.534013       -14.5312
 189   2.0000      -0.529821       -14.4172
 190   2.0000      -0.527390       -14.3510
 191   2.0000      -0.526283       -14.3209
 192   2.0000      -0.524243       -14.2654
 193   2.0000      -0.519365       -14.1326
 194   2.0000      -0.517232       -14.0746
 195   2.0000      -0.516674       -14.0594
 196   2.0000      -0.514606       -14.0031
 197   2.0000      -0.509587       -13.8666
 198   2.0000      -0.505331       -13.7508
 199   2.0000      -0.502713       -13.6795
 200   2.0000      -0.498844       -13.5742
 201   2.0000      -0.496861       -13.5203
 202   2.0000      -0.491163       -13.3652
 203   2.0000      -0.490839       -13.3564
 204   2.0000      -0.488336       -13.2883
 205   2.0000      -0.487676       -13.2703
 206   2.0000      -0.484358       -13.1801
 207   2.0000      -0.481456       -13.1011
 208   2.0000      -0.479743       -13.0545
 209   2.0000      -0.477684       -12.9984
 210   2.0000      -0.474547       -12.9131
 211   2.0000      -0.472581       -12.8596
 212   2.0000      -0.470940       -12.8149
 213   2.0000      -0.470009       -12.7896
 214   2.0000      -0.467349       -12.7172
 215   2.0000      -0.466444       -12.6926
 216   2.0000      -0.462567       -12.5871
 217   2.0000      -0.459105       -12.4929
 218   2.0000      -0.453976       -12.3533
 219   2.0000      -0.453588       -12.3428
 220   2.0000      -0.452855       -12.3228
 221   2.0000      -0.451122       -12.2757
 222   2.0000      -0.450123       -12.2485
 223   2.0000      -0.448741       -12.2109
 224   2.0000      -0.446649       -12.1539
 225   2.0000      -0.441588       -12.0162
 226   2.0000      -0.440086       -11.9753
 227   2.0000      -0.439195       -11.9511
 228   2.0000      -0.438804       -11.9405
 229   2.0000      -0.437436       -11.9032
 230   2.0000      -0.435564       -11.8523
 231   2.0000      -0.430084       -11.7032
 232   2.0000      -0.428407       -11.6575
 233   2.0000      -0.426951       -11.6179
 234   2.0000      -0.425448       -11.5770
 235   2.0000      -0.423409       -11.5216
 236   2.0000      -0.422839       -11.5060
 237   2.0000      -0.418683       -11.3930
 238   2.0000      -0.417134       -11.3508
 239   2.0000      -0.413388       -11.2489
 240   2.0000      -0.412056       -11.2126
 241   2.0000      -0.409701       -11.1485
 242   2.0000      -0.407882       -11.0990
 243   2.0000      -0.407160       -11.0794
 244   2.0000      -0.405127       -11.0241
 245   2.0000      -0.403271       -10.9736
 246   2.0000      -0.397208       -10.8086
 247   2.0000      -0.395245       -10.7552
 248   2.0000      -0.393048       -10.6954
 249   2.0000      -0.389273       -10.5927
 250   2.0000      -0.380567       -10.3558
 251   2.0000      -0.375548       -10.2192
 252   2.0000      -0.373335       -10.1590
 253   2.0000      -0.369912       -10.0658
 254   2.0000      -0.363369        -9.8878
 255   2.0000      -0.359312        -9.7774
 256   2.0000      -0.356227        -9.6934
 257   2.0000      -0.352106        -9.5813
 258   2.0000      -0.346549        -9.4301
 259   2.0000      -0.339625        -9.2417
 260   2.0000      -0.338197        -9.2028
 261   2.0000      -0.333582        -9.0772
 262   2.0000      -0.326153        -8.8751
 263   2.0000      -0.323902        -8.8138
 264   2.0000      -0.317182        -8.6309
 265   2.0000      -0.314379        -8.5547
 266   2.0000      -0.307943        -8.3795
 267   2.0000      -0.301000        -8.1906
 268   2.0000      -0.295037        -8.0284
 269   2.0000      -0.274114        -7.4590
 270   2.0000      -0.268879        -7.3166
 271   2.0000      -0.255316        -6.9475
 272   2.0000      -0.244175        -6.6443
 273   2.0000      -0.241936        -6.5834
 274   2.0000      -0.197910        -5.3854
 275   0.0000      -0.108518        -2.9529
 276   0.0000      -0.079025        -2.1504
 277   0.0000      -0.047409        -1.2901
 278   0.0000      -0.036716        -0.9991
 279   0.0000      -0.027494        -0.7481

MULLIKEN ATOMIC CHARGES
-----------------------
   0 C :   -0.095993
   1 C :    0.038353
   2 C :   -0.115243
   3 N :    0.090513
   4 C :   -0.185086
   5 C :   -0.138170
   6 N :    0.040428
   7 C :   -0.190089
   8 N :    0.216299
   9 C :   -0.181917
  10 N :    0.209602
  11 C :    0.185780
  12 C :   -0.051674
  13 C :    0.110751
  14 N :   -0.273224
  15 S :    0.534843
  16 N :   -0.290054
  17 C :   -0.298108
  18 S :    0.199031
  19 C :   -0.143907
  20 C :    0.060145
  21 C :    0.095098
  22 N :   -0.015203
  23 C :    0.057546
  24 C :   -0.081906
  25 N :   -0.116167
  26 C :    0.117962
  27 N :   -0.046457
  28 N :   -0.210513
  29 C :    0.132955
  30 C :    0.051628
  31 C :   -0.080191
  32 C :    0.075586
  33 C :   -0.142480
  34 S :    0.125294
  35 C :   -0.147785
  36 C :    0.115706
  37 C :   -0.123168
  38 C :    0.055195
  39 C :    0.023757
  40 C :   -0.119206
  41 C :    0.011704
  42 C :    0.033016
  43 C :    0.112145
  44 C :    0.080759
  45 C :   -0.128877
  46 S :    0.124951
  47 C :   -0.147515
  48 C :   -0.031902
  49 C :    0.060775
  50 C :   -0.202838
  51 S :    0.120334
  52 C :   -0.090277
  53 C :    0.008691
  54 C :    0.165931
  55 N :   -0.054754
  56 N :   -0.064710
  57 C :   -0.007528
  58 C :   -0.009449
  59 C :   -0.002621
  60 C :    0.044418
  61 C :   -0.063965
  62 C :    0.026138
  63 C :    0.016022
  64 C :   -0.050154
  65 S :    0.084893
  66 C :   -0.062921
  67 C :    0.031065
  68 C :    0.049007
  69 C :   -0.063081
  70 S :    0.082747
  71 C :   -0.030263
  72 H :   -0.022122
  73 H :    0.011957
  74 H :    0.129988
  75 H :    0.047537
  76 H :    0.019989
  77 H :    0.024195
  78 H :    0.043555
  79 H :    0.035708
  80 H :    0.030666
  81 H :    0.007388
  82 H :    0.019229
  83 H :    0.008042
  84 H :   -0.004881
  85 H :   -0.012422
  86 H :    0.016249
  87 H :    0.005834
  88 H :    0.037910
  89 H :    0.006836
  90 H :   -0.005796
  91 H :    0.010248
  92 H :    0.007216
  93 H :    0.028226
  94 H :    0.018418
  95 H :   -0.054113
  96 H :   -0.027986
  97 H :    0.137869
  98 H :   -0.009060
  99 H :   -0.016129
 100 H :   -0.005177
 101 H :   -0.012610
 102 H :   -0.012099
 103 H :   -0.014643
 104 H :   -0.012239
 105 H :   -0.011769
 106 H :    0.020357
 107 H :    0.021958
Sum of atomic charges:   -0.0000000

LOEWDIN ATOMIC CHARGES
----------------------
   0 C :   -0.030253
   1 C :   -0.006783
   2 C :   -0.021208
   3 N :    0.035166
   4 C :   -0.059923
   5 C :   -0.026534
   6 N :   -0.011496
   7 C :   -0.034204
   8 N :   -0.011657
   9 C :   -0.031504
  10 N :   -0.019682
  11 C :   -0.009422
  12 C :   -0.056178
  13 C :   -0.045329
  14 N :   -0.288247
  15 S :    0.672589
  16 N :   -0.295120
  17 C :   -0.199352
  18 S :    0.508336
  19 C :   -0.186216
  20 C :   -0.057633
  21 C :   -0.032399
  22 N :   -0.068288
  23 C :    0.034451
  24 C :    0.028760
  25 N :   -0.006757
  26 C :    0.025693
  27 N :   -0.115542
  28 N :   -0.010066
  29 C :    0.036387
  30 C :    0.015648
  31 C :   -0.067439
  32 C :   -0.058027
  33 C :   -0.186483
  34 S :    0.411217
  35 C :   -0.175976
  36 C :   -0.042209
  37 C :   -0.017064
  38 C :   -0.032092
  39 C :   -0.047140
  40 C :   -0.022886
  41 C :   -0.031719
  42 C :   -0.053860
  43 C :   -0.040404
  44 C :   -0.059660
  45 C :   -0.173855
  46 S :    0.412133
  47 C :   -0.180029
  48 C :   -0.040412
  49 C :   -0.037004
  50 C :   -0.210704
  51 S :    0.441776
  52 C :   -0.161376
  53 C :   -0.094771
  54 C :   -0.019438
  55 N :    0.084153
  56 N :   -0.057945
  57 C :   -0.038722
  58 C :   -0.048713
  59 C :   -0.034145
  60 C :   -0.068125
  61 C :   -0.138162
  62 C :   -0.045568
  63 C :   -0.023897
  64 C :   -0.184824
  65 S :    0.371306
  66 C :   -0.175704
  67 C :   -0.027285
  68 C :   -0.032427
  69 C :   -0.139497
  70 S :    0.354662
  71 C :   -0.075699
  72 H :    0.045059
  73 H :    0.027273
  74 H :    0.069433
  75 H :    0.031826
  76 H :    0.023035
  77 H :    0.021204
  78 H :    0.031591
  79 H :    0.023797
  80 H :    0.027186
  81 H :    0.025608
  82 H :    0.028327
  83 H :    0.015470
  84 H :    0.020860
  85 H :    0.023988
  86 H :    0.023048
  87 H :    0.023155
  88 H :    0.024451
  89 H :    0.026057
  90 H :    0.017966
  91 H :    0.026260
  92 H :    0.021239
  93 H :    0.027044
  94 H :    0.021338
  95 H :    0.013383
  96 H :    0.027453
  97 H :    0.080555
  98 H :    0.020486
  99 H :    0.030811
 100 H :    0.024481
 101 H :    0.029940
 102 H :    0.031098
 103 H :    0.031142
 104 H :    0.032063
 105 H :    0.033142
 106 H :    0.028683
 107 H :    0.026328

  Mayer bond orders larger than 0.100000
B(  0-C ,  1-C ) :   1.3274 B(  0-C , 11-C ) :   0.1240 B(  0-C , 13-C ) :   1.1722
B(  0-C , 72-H ) :   1.0573 B(  1-C ,  2-C ) :   1.1032 B(  1-C ,  6-N ) :   1.3202
B(  2-C ,  3-N ) :   1.4538 B(  2-C , 11-C ) :   1.2496 B(  3-N ,  4-C ) :   1.7127
B(  4-C ,  5-C ) :   1.1757 B(  4-C ,  9-C ) :   1.1503 B(  5-C ,  6-N ) :   1.7955
B(  5-C ,  7-C ) :   1.1335 B(  7-C ,  8-N ) :   3.0532 B(  9-C , 10-N ) :   2.9770
B( 11-C , 12-C ) :   1.2052 B( 11-C , 17-C ) :   1.2031 B( 12-C , 13-C ) :   1.1330
B( 12-C , 16-N ) :   1.4999 B( 13-C , 14-N ) :   1.4685 B( 14-N , 15-S ) :   1.2950
B( 14-N , 16-N ) :   0.1573 B( 15-S , 16-N ) :   1.2783 B( 17-C , 18-S ) :   1.1780
B( 17-C , 19-C ) :   0.1129 B( 17-C , 21-C ) :   1.2960 B( 18-S , 19-C ) :   1.1712
B( 19-C , 20-C ) :   1.4083 B( 19-C , 73-H ) :   0.9786 B( 20-C , 21-C ) :   1.2170
B( 20-C , 27-N ) :   1.3338 B( 21-C , 22-N ) :   1.3693 B( 22-N , 23-C ) :   1.6753
B( 23-C , 24-C ) :   1.0335 B( 23-C , 28-N ) :   1.1197 B( 24-C , 25-N ) :   1.3131
B( 24-C , 27-N ) :   1.6678 B( 25-N , 26-C ) :   0.9912 B( 25-N , 74-H ) :   0.9035
B( 26-C , 75-H ) :   0.9580 B( 26-C , 76-H ) :   0.9756 B( 26-C , 77-H ) :   0.9738
B( 28-N , 29-C ) :   0.9619 B( 28-N , 30-C ) :   1.0754 B( 29-C , 78-H ) :   0.9604
B( 29-C , 79-H ) :   0.9656 B( 29-C , 80-H ) :   0.9654 B( 30-C , 31-C ) :   1.7145
B( 30-C , 81-H ) :   0.9677 B( 31-C , 32-C ) :   1.0352 B( 31-C , 82-H ) :   0.9601
B( 32-C , 33-C ) :   1.6060 B( 32-C , 36-C ) :   1.1488 B( 33-C , 34-S ) :   1.1080
B( 33-C , 83-H ) :   0.9601 B( 34-S , 35-C ) :   1.0841 B( 35-C , 36-C ) :   1.3823
B( 35-C , 47-C ) :   1.3716 B( 36-C , 37-C ) :   1.2361 B( 37-C , 38-C ) :   1.0687
B( 37-C , 40-C ) :   1.5327 B( 38-C , 39-C ) :   1.0996 B( 38-C , 84-H ) :   0.9222
B( 38-C , 85-H ) :   0.9047 B( 39-C , 86-H ) :   0.9644 B( 39-C , 87-H ) :   0.9531
B( 39-C , 88-H ) :   0.9669 B( 40-C , 41-C ) :   1.0490 B( 40-C , 43-C ) :   1.2574
B( 41-C , 42-C ) :   1.1017 B( 41-C , 89-H ) :   0.9214 B( 41-C , 90-H ) :   0.9276
B( 42-C , 91-H ) :   0.9593 B( 42-C , 92-H ) :   0.9628 B( 42-C , 93-H ) :   0.9629
B( 43-C , 44-C ) :   1.1390 B( 43-C , 47-C ) :   1.3783 B( 44-C , 45-C ) :   1.5983
B( 44-C , 48-C ) :   1.0456 B( 45-C , 46-S ) :   1.1115 B( 45-C , 94-H ) :   0.9615
B( 46-S , 47-C ) :   1.0817 B( 48-C , 49-C ) :   1.7153 B( 48-C , 95-H ) :   0.9516
B( 49-C , 50-C ) :   1.1558 B( 49-C , 96-H ) :   0.9477 B( 50-C , 51-S ) :   1.0886
B( 50-C , 52-C ) :   0.1058 B( 50-C , 54-C ) :   1.3689 B( 51-S , 52-C ) :   1.1239
B( 52-C , 53-C ) :   1.2928 B( 52-C , 58-C ) :   1.2504 B( 53-C , 54-C ) :   1.2608
B( 53-C , 57-C ) :   1.1605 B( 54-C , 55-N ) :   1.1439 B( 55-N , 56-N ) :   1.1250
B( 55-N , 97-H ) :   0.9473 B( 56-N , 57-C ) :   1.7366 B( 57-C , 98-H ) :   0.9992
B( 58-C , 59-C ) :   1.5597 B( 58-C , 99-H ) :   0.9632 B( 59-C , 60-C ) :   1.2643
B( 59-C ,100-H ) :   0.9594 B( 60-C , 61-C ) :   1.5391 B( 60-C ,101-H ) :   0.9442
B( 61-C , 62-C ) :   1.1605 B( 61-C , 65-S ) :   1.0448 B( 62-C , 63-C ) :   1.5957
B( 62-C ,102-H ) :   0.9883 B( 63-C , 64-C ) :   1.1879 B( 63-C ,103-H ) :   0.9930
B( 64-C , 65-S ) :   1.0476 B( 64-C , 66-C ) :   1.5264 B( 66-C , 67-C ) :   1.1625
B( 66-C , 70-S ) :   1.0496 B( 67-C , 68-C ) :   1.6515 B( 67-C ,104-H ) :   0.9918
B( 68-C , 69-C ) :   1.0838 B( 68-C ,105-H ) :   0.9934 B( 69-C , 70-S ) :   1.0074
B( 69-C , 71-C ) :   1.8580 B( 71-C ,106-H ) :   0.9511 B( 71-C ,107-H ) :   0.9420

-----------------------------------------------------------------------------
         ABSORPTION SPECTRUM VIA TRANSITION ELECTRIC DIPOLE MOMENTS
-----------------------------------------------------------------------------
State   Energy  Wavelength   fosc         T2         TX        TY        TZ
        (cm-1)    (nm)                  (au**2)     (au)      (au)      (au)
-----------------------------------------------------------------------------
   0   13186.0    758.4   1.381427404  34.48970   3.68258  -2.20097   4.01049
   1   13407.2    745.9   0.736316513  18.08016   0.27154  -0.70214   4.18491
   2   13615.7    734.4   0.007487948   0.18105   0.15861   0.01210  -0.39465
   3   15802.9    632.8   0.059545911   1.24048  -0.80953  -0.73910   0.19716
   4   20933.4    477.7   0.019572334   0.30781   0.11944  -0.29861   0.45208
   5   21196.7    471.8   0.030408330   0.47228   0.58869  -0.04895  -0.35117
   6   22312.3    448.2   0.000297457   0.00439  -0.05439   0.03098  -0.02170
   7   23055.7    433.7   0.076900920   1.09807   0.73502  -0.71613  -0.21203
   8   24651.1    405.7   0.029862856   0.39881  -0.06912   0.36671  -0.50947
   9   25481.7    392.4   0.143531015   1.85436   0.98090  -0.89526  -0.30118
  10   26254.9    380.9   0.015850033   0.19874  -0.24900   0.35316  -0.10966
  11   26279.9    380.5   0.000050922   0.00064  -0.01052  -0.02208   0.00630
  12   27006.0    370.3   0.055012282   0.67062  -0.34943   0.73085  -0.11989
  13   27274.3    366.6   0.088755711   1.07132   0.65604  -0.80052  -0.00992
  14   27691.0    361.1   0.004890804   0.05815  -0.11337   0.06879  -0.20140
  15   27797.5    359.7   0.039694012   0.47011  -0.08902   0.63712  -0.23718
  16   28083.0    356.1   0.168348030   1.97351   0.32209   1.36527  -0.07627
  17   28564.5    350.1   0.001783705   0.02056  -0.07550   0.12016  -0.02048
  18   28817.5    347.0   0.001803177   0.02060   0.01041  -0.14064   0.02666
  19   29864.5    334.8   0.007641403   0.08424  -0.12484  -0.26191   0.00729
  20   30085.2    332.4   0.145640071   1.59369  -0.28172   1.21245  -0.21047
  21   30531.4    327.5   0.121263633   1.30755   0.39406   0.50306   0.94826
  22   30968.8    322.9   0.071478089   0.75984  -0.22647  -0.82170   0.18265
  23   31055.6    322.0   0.015400404   0.16326  -0.30083   0.19632   0.18498
  24   31845.4    314.0   0.108567432   1.12235   0.07696   0.88768  -0.57310
  25   32247.0    310.1   0.073374161   0.74908  -0.16272   0.81850  -0.22947
  26   32259.7    310.0   0.039160293   0.39963   0.20210  -0.14661   0.58077
  27   32318.4    309.4   0.027358998   0.27869  -0.21073   0.27679  -0.39708
  28   32498.0    307.7   0.019847635   0.20106   0.10387  -0.38119   0.21205
  29   32678.9    306.0   0.474751734   4.78272  -0.15738   2.10953  -0.55482
  30   33468.6    298.8   0.002919119   0.02871   0.11009   0.04593   0.12035
  31   33561.1    298.0   0.085509703   0.83879  -0.26398  -0.51897  -0.70695
  32   33689.2    296.8   0.067400772   0.65864  -0.67644   0.42377   0.14658
  33   33817.8    295.7   0.073236382   0.71295  -0.29340  -0.13482   0.78018
  34   34243.0    292.0   0.065848246   0.63307   0.10639  -0.46486   0.63691
  35   34378.9    290.9   0.010640729   0.10190   0.16940  -0.26718  -0.04258
  36   34613.5    288.9   0.005403025   0.05139   0.17921   0.05063   0.12927
  37   35074.6    285.1   0.012688704   0.11910  -0.25593  -0.19880  -0.11863
  38   35397.2    282.5   0.047646827   0.44314   0.16989   0.61012   0.20502
  39   35463.0    282.0   0.153683687   1.42668  -0.34009  -0.87115  -0.74305
  40   35730.4    279.9   0.006825719   0.06289   0.13265   0.06460   0.20278
  41   36444.8    274.4   0.444394361   4.01429  -0.18889   1.89877  -0.61097
  42   36850.4    271.4   0.024587297   0.21966  -0.23408  -0.37879  -0.14622
  43   36889.5    271.1   0.008253277   0.07365  -0.11236  -0.24227  -0.04833
  44   36923.8    270.8   0.026518668   0.23644   0.31676   0.32424   0.17599
  45   37257.0    268.4   0.101263668   0.89479  -0.00596   0.77112  -0.54785
  46   37533.4    266.4   0.026131186   0.22920  -0.00173  -0.43835   0.19248
  47   37561.1    266.2   0.004356080   0.03818   0.05663  -0.06629   0.17487
  48   37969.2    263.4   0.031993253   0.27740  -0.16652  -0.43382   0.24793
  49   38183.6    261.9   0.188619649   1.62624   0.74472  -0.06400   1.03322
  50   38233.6    261.6   0.031722831   0.27315   0.03670   0.44180   0.27679
  51   38343.8    260.8   0.000329986   0.00283   0.04599  -0.02674   0.00175
  52   38711.9    258.3   0.153796061   1.30791   0.70286  -0.51705   0.73929
  53   38888.7    257.1   0.036571549   0.30960  -0.38179   0.33918  -0.22088
  54   39121.9    255.6   0.108694284   0.91467   0.57059  -0.65992   0.39191
  55   39412.9    253.7   0.031115588   0.25991   0.09811   0.29632   0.40308
  56   39533.9    252.9   0.011668986   0.09717  -0.30137   0.07175  -0.03459
  57   39627.4    252.4   0.037955738   0.31532   0.11338   0.01045   0.54987
  58   40126.8    249.2   0.023415702   0.19211   0.12905   0.33800  -0.24741

FINAL SINGLE POINT ENERGY     -5481.218372112730

DIPOLE MOMENT
-------------
                                X             Y             Z
Electronic contribution:    -44.88568      32.37908     -26.17870
Nuclear contribution   :     46.62224     -30.77448      25.01454
                        -----------------------------------------
Total Dipole Moment    :      1.73656       1.60460      -1.16416
                        -----------------------------------------
Magnitude (a.u.)       :      2.63546
Magnitude (Debye)      :      6.69881

Rotational constants in cm-1:     0.001578     0.000181     0.000174
Rotational constants in MHz :    47.313910     5.439269     5.205864

                             ****ORCA TERMINATED NORMALLY****
TOTAL RUN TIME: 0 days 0 hours 11 minutes 35 seconds 342 msec
