                         Program Version 4.2.0 -  RELEASE  -
|  1> # ORCA input file
|  2> # SCF done       -169.567419096197          0.000680527019
|  3> ! CAM-B3LYP def2-SVP def2/J RIJCOSX Grid4 TightSCF
|  4> %maxcore 5000
|  5> %tddft
|  6>     Mode sTDDFT
|  7>     Ethresh 5.0
|  8>     maxcore 5000
|  9> end
| 10>
| 11> %pal
| 12>   nprocs 6
| 13>   end
| 14> * xyz 0 1
| 15>    C       -3.85977        -0.82195        -1.49259
| 16>    C       -2.79590        -1.02459        -2.36007
| 17>    C       -1.97336        -2.21911        -2.32003
| 18>    N       -0.96669        -2.34821        -3.19039
| 19>    C       -0.73472        -1.39225        -4.06725
| 20>    C       -1.54709        -0.21214        -4.10072
| 21>    N       -2.53756        -0.05582        -3.26742
| 22>    C       -1.27002         0.79929        -5.05811
| 23>    N       -1.01255         1.59011        -5.84475
| 24>    C        0.33224        -1.55415        -4.98142
| 25>    N        1.19526        -1.67534        -5.72652
| 26>    C       -2.22426        -3.25277        -1.37196
| 27>    C       -3.32233        -3.01793        -0.50717
| 28>    C       -4.12643        -1.82024        -0.56397
| 29>    N       -5.09686        -1.83432         0.35812
| 30>    S       -5.00631        -3.19383         1.19550
| 31>    N       -3.74160        -3.84637         0.44678
| 32>    C       -1.47958        -4.44701        -1.23228
| 33>    S       -1.93333        -5.60607         0.00240
| 34>    C       -0.63558        -6.70660        -0.36668
| 35>    C        0.11993        -6.20883        -1.43176
| 36>    C       -0.35820        -4.95071        -1.90666
| 37>    N        0.45074        -4.60877        -2.92844
| 38>    N        1.38523        -5.53785        -3.14830
| 39>    C        1.21924        -6.50347        -2.27935
| 40>    C       -0.48793        -7.87540         0.41049
| 41>    C        0.58283        -8.70140         0.30191
| 42>    C        0.82502        -9.92562         1.00228
| 43>    C        0.34559       -10.31157         2.28026
| 44>    C       -0.29343        -9.40046         3.24443
| 45>    O       -0.44117        -8.21503         3.18354
| 46>    S       -0.79739       -10.32903         4.70125
| 47>    C       -0.03902       -11.83807         4.11589
| 48>    O       -0.04385       -12.84973         4.75560
| 49>    C        0.55862       -11.59764         2.78873
| 50>    C        1.33465       -12.57847         2.13960
| 51>    C        1.89400       -12.15693         0.92274
| 52>    C        1.62944       -10.89949         0.38044
| 53>    C        2.29024       -10.84557        -0.93878
| 54>    O        2.34099        -9.96636        -1.74871
| 55>    O        2.89816       -12.05801        -1.14024
| 56>    C        2.71453       -12.89003        -0.05722
| 57>    O        3.17457       -13.99353        -0.03193
| 58>    C        1.50313       -13.90016         2.69297
| 59>    C        2.65931       -14.57379         2.75708
| 60>    C        2.78279       -15.86889         3.40566
| 61>    C        3.91235       -16.13067         4.18441
| 62>    F        4.90515       -15.21791         4.20880
| 63>    C        4.04413       -17.26376         4.96089
| 64>    C        3.00493       -18.18108         4.97945
| 65>    C        1.88292       -17.97329         4.20118
| 66>    C        1.76987       -16.84949         3.38287
| 67>    C        0.62847       -16.73998         2.48755
| 68>    C        0.74218       -16.50968         1.15670
| 69>    C        1.92950       -16.45368         0.36404
| 70>    C        1.71042       -16.24934        -0.95496
| 71>    C        0.33948       -16.11029        -1.30602
| 72>    S       -0.66807       -16.28655         0.11934
| 73>    C       -0.18240       -15.88541        -2.55503
| 74>    C        0.54353       -15.71966        -3.77188
| 75>    C       -0.23210       -15.52810        -4.85935
| 76>    C       -1.64302       -15.52348        -4.58992
| 77>    S       -1.90399       -15.77231        -2.85485
| 78>    C       -2.64413       -15.36498        -5.46513
| 79>    H       -4.44563         0.07853        -1.54979
| 80>    H        0.38739        -3.76710        -3.48490
| 81>    H        1.86043        -7.36120        -2.29957
| 82>    H       -1.28519        -8.07162         1.11072
| 83>    H        1.31780        -8.47001        -0.45385
| 84>    H        0.61981       -14.32836         3.14830
| 85>    H        3.58247       -14.11202         2.43578
| 86>    H        4.93645       -17.40526         5.54914
| 87>    H        3.07963       -19.06266         5.59683
| 88>    H        1.08820       -18.70402         4.19432
| 89>    H       -0.35006       -16.92431         2.90883
| 90>    H        2.90023       -16.59563         0.80007
| 91>    H        2.49197       -16.19146        -1.68948
| 92>    H        1.61819       -15.74875        -3.78888
| 93>    H        0.13417       -15.38801        -5.86078
| 94>    H       -2.44037       -15.21819        -6.51122
| 95>    H       -3.67351       -15.38108        -5.15683
| 96> *
| 97>
| 98>                          ****END OF INPUT****

CARTESIAN COORDINATES (ANGSTROEM)
---------------------------------
  C     -3.859770   -0.821950   -1.492590
  C     -2.795900   -1.024590   -2.360070
  C     -1.973360   -2.219110   -2.320030
  N     -0.966690   -2.348210   -3.190390
  C     -0.734720   -1.392250   -4.067250
  C     -1.547090   -0.212140   -4.100720
  N     -2.537560   -0.055820   -3.267420
  C     -1.270020    0.799290   -5.058110
  N     -1.012550    1.590110   -5.844750
  C      0.332240   -1.554150   -4.981420
  N      1.195260   -1.675340   -5.726520
  C     -2.224260   -3.252770   -1.371960
  C     -3.322330   -3.017930   -0.507170
  C     -4.126430   -1.820240   -0.563970
  N     -5.096860   -1.834320    0.358120
  S     -5.006310   -3.193830    1.195500
  N     -3.741600   -3.846370    0.446780
  C     -1.479580   -4.447010   -1.232280
  S     -1.933330   -5.606070    0.002400
  C     -0.635580   -6.706600   -0.366680
  C      0.119930   -6.208830   -1.431760
  C     -0.358200   -4.950710   -1.906660
  N      0.450740   -4.608770   -2.928440
  N      1.385230   -5.537850   -3.148300
  C      1.219240   -6.503470   -2.279350
  C     -0.487930   -7.875400    0.410490
  C      0.582830   -8.701400    0.301910
  C      0.825020   -9.925620    1.002280
  C      0.345590  -10.311570    2.280260
  C     -0.293430   -9.400460    3.244430
  O     -0.441170   -8.215030    3.183540
  S     -0.797390  -10.329030    4.701250
  C     -0.039020  -11.838070    4.115890
  O     -0.043850  -12.849730    4.755600
  C      0.558620  -11.597640    2.788730
  C      1.334650  -12.578470    2.139600
  C      1.894000  -12.156930    0.922740
  C      1.629440  -10.899490    0.380440
  C      2.290240  -10.845570   -0.938780
  O      2.340990   -9.966360   -1.748710
  O      2.898160  -12.058010   -1.140240
  C      2.714530  -12.890030   -0.057220
  O      3.174570  -13.993530   -0.031930
  C      1.503130  -13.900160    2.692970
  C      2.659310  -14.573790    2.757080
  C      2.782790  -15.868890    3.405660
  C      3.912350  -16.130670    4.184410
  F      4.905150  -15.217910    4.208800
  C      4.044130  -17.263760    4.960890
  C      3.004930  -18.181080    4.979450
  C      1.882920  -17.973290    4.201180
  C      1.769870  -16.849490    3.382870
  C      0.628470  -16.739980    2.487550
  C      0.742180  -16.509680    1.156700
  C      1.929500  -16.453680    0.364040
  C      1.710420  -16.249340   -0.954960
  C      0.339480  -16.110290   -1.306020
  S     -0.668070  -16.286550    0.119340
  C     -0.182400  -15.885410   -2.555030
  C      0.543530  -15.719660   -3.771880
  C     -0.232100  -15.528100   -4.859350
  C     -1.643020  -15.523480   -4.589920
  S     -1.903990  -15.772310   -2.854850
  C     -2.644130  -15.364980   -5.465130
  H     -4.445630    0.078530   -1.549790
  H      0.387390   -3.767100   -3.484900
  H      1.860430   -7.361200   -2.299570
  H     -1.285190   -8.071620    1.110720
  H      1.317800   -8.470010   -0.453850
  H      0.619810  -14.328360    3.148300
  H      3.582470  -14.112020    2.435780
  H      4.936450  -17.405260    5.549140
  H      3.079630  -19.062660    5.596830
  H      1.088200  -18.704020    4.194320
  H     -0.350060  -16.924310    2.908830
  H      2.900230  -16.595630    0.800070
  H      2.491970  -16.191460   -1.689480
  H      1.618190  -15.748750   -3.788880
  H      0.134170  -15.388010   -5.860780
  H     -2.440370  -15.218190   -6.511220
  H     -3.673510  -15.381080   -5.156830

 Total Charge           Charge          ....    0
 Multiplicity           Mult            ....    1
 Number of Electrons    NEL             ....  472
 Basis Dimension        Dim             .... 1001

ORBITAL ENERGIES
----------------

  NO   OCC          E(Eh)            E(eV)
   0   2.0000     -89.048755     -2423.1398
   1   2.0000     -88.977018     -2421.1878
   2   2.0000     -88.958912     -2420.6951
   3   2.0000     -88.939732     -2420.1731
   4   2.0000     -88.937332     -2420.1078
   5   2.0000     -24.783792      -674.4013
   6   2.0000     -19.301130      -525.2104
   7   2.0000     -19.252215      -523.8794
   8   2.0000     -19.250668      -523.8373
   9   2.0000     -19.250542      -523.8339
  10   2.0000     -19.248396      -523.7755
  11   2.0000     -14.483618      -394.1193
  12   2.0000     -14.473589      -393.8464
  13   2.0000     -14.460264      -393.4838
  14   2.0000     -14.459258      -393.4564
  15   2.0000     -14.453359      -393.2959
  16   2.0000     -14.438747      -392.8983
  17   2.0000     -14.434013      -392.7695
  18   2.0000     -14.430531      -392.6747
  19   2.0000     -10.443539      -284.1831
  20   2.0000     -10.441187      -284.1191
  21   2.0000     -10.416381      -283.4441
  22   2.0000     -10.412725      -283.3446
  23   2.0000     -10.383789      -282.5573
  24   2.0000     -10.381110      -282.4844
  25   2.0000     -10.360634      -281.9272
  26   2.0000     -10.355096      -281.7765
  27   2.0000     -10.348674      -281.6017
  28   2.0000     -10.346425      -281.5405
  29   2.0000     -10.344751      -281.4950
  30   2.0000     -10.343700      -281.4664
  31   2.0000     -10.341025      -281.3936
  32   2.0000     -10.339519      -281.3526
  33   2.0000     -10.337769      -281.3050
  34   2.0000     -10.336143      -281.2607
  35   2.0000     -10.335484      -281.2428
  36   2.0000     -10.335082      -281.2319
  37   2.0000     -10.331735      -281.1408
  38   2.0000     -10.330162      -281.0980
  39   2.0000     -10.329004      -281.0665
  40   2.0000     -10.326956      -281.0108
  41   2.0000     -10.323480      -280.9162
  42   2.0000     -10.310640      -280.5668
  43   2.0000     -10.308978      -280.5216
  44   2.0000     -10.306724      -280.4602
  45   2.0000     -10.306634      -280.4578
  46   2.0000     -10.305608      -280.4298
  47   2.0000     -10.301577      -280.3202
  48   2.0000     -10.299339      -280.2593
  49   2.0000     -10.296366      -280.1784
  50   2.0000     -10.294946      -280.1397
  51   2.0000     -10.294387      -280.1245
  52   2.0000     -10.291292      -280.0403
  53   2.0000     -10.289863      -280.0014
  54   2.0000     -10.287936      -279.9490
  55   2.0000     -10.285589      -279.8851
  56   2.0000     -10.284626      -279.8589
  57   2.0000     -10.283556      -279.8298
  58   2.0000     -10.283489      -279.8280
  59   2.0000     -10.279553      -279.7209
  60   2.0000     -10.276859      -279.6476
  61   2.0000     -10.276690      -279.6429
  62   2.0000     -10.275744      -279.6172
  63   2.0000     -10.269004      -279.4338
  64   2.0000      -8.139966      -221.4997
  65   2.0000      -8.070441      -219.6079
  66   2.0000      -8.058267      -219.2766
  67   2.0000      -8.036162      -218.6751
  68   2.0000      -8.034088      -218.6187
  69   2.0000      -6.110994      -166.2886
  70   2.0000      -6.103266      -166.0783
  71   2.0000      -6.102790      -166.0654
  72   2.0000      -6.039992      -164.3565
  73   2.0000      -6.035266      -164.2279
  74   2.0000      -6.032667      -164.1572
  75   2.0000      -6.027115      -164.0061
  76   2.0000      -6.023866      -163.9177
  77   2.0000      -6.019299      -163.7935
  78   2.0000      -6.005999      -163.4315
  79   2.0000      -6.003909      -163.3747
  80   2.0000      -6.002095      -163.3253
  81   2.0000      -6.000064      -163.2700
  82   2.0000      -5.996743      -163.1797
  83   2.0000      -5.994553      -163.1201
  84   2.0000      -1.297614       -35.3099
  85   2.0000      -1.250922       -34.0393
  86   2.0000      -1.177228       -32.0340
  87   2.0000      -1.175601       -31.9897
  88   2.0000      -1.172126       -31.8952
  89   2.0000      -1.150463       -31.3057
  90   2.0000      -1.145921       -31.1821
  91   2.0000      -1.137318       -30.9480
  92   2.0000      -1.122586       -30.5471
  93   2.0000      -1.049966       -28.5710
  94   2.0000      -1.024552       -27.8795
  95   2.0000      -1.017650       -27.6917
  96   2.0000      -1.009914       -27.4812
  97   2.0000      -1.005435       -27.3593
  98   2.0000      -0.991640       -26.9839
  99   2.0000      -0.990296       -26.9473
 100   2.0000      -0.975175       -26.5359
 101   2.0000      -0.974652       -26.5216
 102   2.0000      -0.962809       -26.1994
 103   2.0000      -0.961584       -26.1660
 104   2.0000      -0.944656       -25.7054
 105   2.0000      -0.926429       -25.2094
 106   2.0000      -0.911320       -24.7983
 107   2.0000      -0.907484       -24.6939
 108   2.0000      -0.895446       -24.3663
 109   2.0000      -0.891552       -24.2604
 110   2.0000      -0.882219       -24.0064
 111   2.0000      -0.875865       -23.8335
 112   2.0000      -0.862650       -23.4739
 113   2.0000      -0.858440       -23.3593
 114   2.0000      -0.842253       -22.9189
 115   2.0000      -0.838671       -22.8214
 116   2.0000      -0.834199       -22.6997
 117   2.0000      -0.832450       -22.6521
 118   2.0000      -0.815241       -22.1838
 119   2.0000      -0.812616       -22.1124
 120   2.0000      -0.809502       -22.0277
 121   2.0000      -0.796823       -21.6826
 122   2.0000      -0.782938       -21.3048
 123   2.0000      -0.777598       -21.1595
 124   2.0000      -0.770604       -20.9692
 125   2.0000      -0.752341       -20.4722
 126   2.0000      -0.741604       -20.1801
 127   2.0000      -0.731315       -19.9001
 128   2.0000      -0.720886       -19.6163
 129   2.0000      -0.716804       -19.5052
 130   2.0000      -0.714967       -19.4552
 131   2.0000      -0.703758       -19.1502
 132   2.0000      -0.699066       -19.0225
 133   2.0000      -0.695849       -18.9350
 134   2.0000      -0.690892       -18.8001
 135   2.0000      -0.688409       -18.7326
 136   2.0000      -0.678523       -18.4636
 137   2.0000      -0.675708       -18.3870
 138   2.0000      -0.657321       -17.8866
 139   2.0000      -0.649739       -17.6803
 140   2.0000      -0.643184       -17.5019
 141   2.0000      -0.641748       -17.4629
 142   2.0000      -0.637513       -17.3476
 143   2.0000      -0.636181       -17.3114
 144   2.0000      -0.628465       -17.1014
 145   2.0000      -0.624192       -16.9851
 146   2.0000      -0.620005       -16.8712
 147   2.0000      -0.617715       -16.8089
 148   2.0000      -0.612633       -16.6706
 149   2.0000      -0.607510       -16.5312
 150   2.0000      -0.602318       -16.3899
 151   2.0000      -0.600174       -16.3316
 152   2.0000      -0.596769       -16.2389
 153   2.0000      -0.582612       -15.8537
 154   2.0000      -0.582088       -15.8394
 155   2.0000      -0.581319       -15.8185
 156   2.0000      -0.573809       -15.6141
 157   2.0000      -0.572141       -15.5688
 158   2.0000      -0.567150       -15.4329
 159   2.0000      -0.563420       -15.3314
 160   2.0000      -0.560805       -15.2603
 161   2.0000      -0.557607       -15.1732
 162   2.0000      -0.553753       -15.0684
 163   2.0000      -0.552193       -15.0259
 164   2.0000      -0.551089       -14.9959
 165   2.0000      -0.549678       -14.9575
 166   2.0000      -0.546714       -14.8768
 167   2.0000      -0.542368       -14.7586
 168   2.0000      -0.539357       -14.6766
 169   2.0000      -0.535061       -14.5597
 170   2.0000      -0.530811       -14.4441
 171   2.0000      -0.529615       -14.4115
 172   2.0000      -0.527117       -14.3436
 173   2.0000      -0.518891       -14.1197
 174   2.0000      -0.518257       -14.1025
 175   2.0000      -0.513156       -13.9637
 176   2.0000      -0.510341       -13.8871
 177   2.0000      -0.508503       -13.8371
 178   2.0000      -0.505433       -13.7535
 179   2.0000      -0.500077       -13.6078
 180   2.0000      -0.493352       -13.4248
 181   2.0000      -0.490744       -13.3538
 182   2.0000      -0.490596       -13.3498
 183   2.0000      -0.489151       -13.3105
 184   2.0000      -0.488486       -13.2924
 185   2.0000      -0.484962       -13.1965
 186   2.0000      -0.483496       -13.1566
 187   2.0000      -0.482626       -13.1329
 188   2.0000      -0.478911       -13.0318
 189   2.0000      -0.476199       -12.9580
 190   2.0000      -0.473193       -12.8762
 191   2.0000      -0.470800       -12.8111
 192   2.0000      -0.464390       -12.6367
 193   2.0000      -0.463013       -12.5992
 194   2.0000      -0.458512       -12.4768
 195   2.0000      -0.457006       -12.4358
 196   2.0000      -0.456399       -12.4193
 197   2.0000      -0.454900       -12.3785
 198   2.0000      -0.449040       -12.2190
 199   2.0000      -0.447449       -12.1757
 200   2.0000      -0.446946       -12.1620
 201   2.0000      -0.445350       -12.1186
 202   2.0000      -0.441056       -12.0017
 203   2.0000      -0.434830       -11.8323
 204   2.0000      -0.428309       -11.6549
 205   2.0000      -0.422923       -11.5083
 206   2.0000      -0.420431       -11.4405
 207   2.0000      -0.418620       -11.3912
 208   2.0000      -0.418578       -11.3901
 209   2.0000      -0.415819       -11.3150
 210   2.0000      -0.415433       -11.3045
 211   2.0000      -0.413329       -11.2472
 212   2.0000      -0.405192       -11.0258
 213   2.0000      -0.397376       -10.8131
 214   2.0000      -0.396732       -10.7956
 215   2.0000      -0.385626       -10.4934
 216   2.0000      -0.383866       -10.4455
 217   2.0000      -0.381326       -10.3764
 218   2.0000      -0.380340       -10.3496
 219   2.0000      -0.377566       -10.2741
 220   2.0000      -0.368802       -10.0356
 221   2.0000      -0.367147        -9.9906
 222   2.0000      -0.358711        -9.7610
 223   2.0000      -0.355090        -9.6625
 224   2.0000      -0.352579        -9.5942
 225   2.0000      -0.351417        -9.5625
 226   2.0000      -0.341330        -9.2881
 227   2.0000      -0.337568        -9.1857
 228   2.0000      -0.333016        -9.0618
 229   2.0000      -0.327812        -8.9202
 230   2.0000      -0.322316        -8.7707
 231   2.0000      -0.320639        -8.7250
 232   2.0000      -0.306051        -8.3281
 233   2.0000      -0.288740        -7.8570
 234   2.0000      -0.249808        -6.7976
 235   2.0000      -0.223458        -6.0806
 236   0.0000      -0.128605        -3.4995
 237   0.0000      -0.105621        -2.8741
 238   0.0000      -0.082135        -2.2350
 239   0.0000      -0.059060        -1.6071
 240   0.0000      -0.051949        -1.4136

MULLIKEN ATOMIC CHARGES
-----------------------
   0 C :   -0.107104
   1 C :    0.030335
   2 C :   -0.088314
   3 N :   -0.018959
   4 C :   -0.086491
   5 C :   -0.141399
   6 N :    0.054302
   7 C :   -0.205108
   8 N :    0.238235
   9 C :   -0.268334
  10 N :    0.248194
  11 C :    0.244137
  12 C :   -0.055507
  13 C :    0.115572
  14 N :   -0.265243
  15 S :    0.550410
  16 N :   -0.327205
  17 C :   -0.304686
  18 S :    0.203358
  19 C :   -0.113661
  20 C :   -0.007236
  21 C :    0.178197
  22 N :   -0.008457
  23 N :   -0.034993
  24 C :   -0.014826
  25 C :    0.119436
  26 C :   -0.060494
  27 C :    0.073459
  28 C :    0.013865
  29 C :    0.026035
  30 O :   -0.126033
  31 S :    0.026077
  32 C :    0.036523
  33 O :   -0.124176
  34 C :    0.039858
  35 C :    0.028167
  36 C :   -0.065852
  37 C :   -0.076669
  38 C :    0.243977
  39 O :   -0.113290
  40 O :   -0.228479
  41 C :    0.237739
  42 O :   -0.102091
  43 C :   -0.000416
  44 C :    0.013838
  45 C :   -0.028338
  46 C :    0.236083
  47 F :   -0.192124
  48 C :   -0.042677
  49 C :    0.038008
  50 C :   -0.000332
  51 C :    0.039838
  52 C :   -0.075553
  53 C :   -0.046412
  54 C :    0.088376
  55 C :    0.026716
  56 C :   -0.066389
  57 S :    0.070920
  58 C :   -0.065931
  59 C :    0.028342
  60 C :    0.054633
  61 C :   -0.062461
  62 S :    0.073679
  63 C :   -0.033702
  64 H :   -0.020717
  65 H :    0.142690
  66 H :    0.021389
  67 H :   -0.011179
  68 H :    0.014701
  69 H :    0.037606
  70 H :    0.007624
  71 H :   -0.006045
  72 H :   -0.003011
  73 H :   -0.021916
  74 H :    0.002893
  75 H :   -0.002745
  76 H :   -0.009118
  77 H :   -0.005267
  78 H :   -0.009922
  79 H :    0.021516
  80 H :    0.022136
Sum of atomic charges:   -0.0000000

LOEWDIN ATOMIC CHARGES
----------------------
   0 C :   -0.033853
   1 C :   -0.003596
   2 C :   -0.018123
   3 N :   -0.007685
   4 C :   -0.045061
   5 C :   -0.023757
   6 N :   -0.002343
   7 C :   -0.033825
   8 N :   -0.001611
   9 C :   -0.051093
  10 N :   -0.003702
  11 C :   -0.017503
  12 C :   -0.054099
  13 C :   -0.043658
  14 N :   -0.284287
  15 S :    0.679508
  16 N :   -0.301938
  17 C :   -0.197232
  18 S :    0.515813
  19 C :   -0.145136
  20 C :   -0.093829
  21 C :   -0.001094
  22 N :    0.115633
  23 N :   -0.043131
  24 C :   -0.033114
  25 C :    0.004061
  26 C :   -0.024125
  27 C :    0.023402
  28 C :   -0.053281
  29 C :   -0.043199
  30 O :   -0.111635
  31 S :    0.308990
  32 C :   -0.044912
  33 O :   -0.106710
  34 C :   -0.047991
  35 C :    0.032531
  36 C :   -0.045610
  37 C :   -0.042631
  38 C :    0.112511
  39 O :   -0.106248
  40 O :   -0.053771
  41 C :    0.112776
  42 O :   -0.084855
  43 C :   -0.027283
  44 C :    0.029330
  45 C :   -0.062139
  46 C :    0.098031
  47 F :   -0.068855
  48 C :   -0.054217
  49 C :   -0.003844
  50 C :   -0.025649
  51 C :   -0.002336
  52 C :   -0.071456
  53 C :   -0.131997
  54 C :   -0.027952
  55 C :   -0.019055
  56 C :   -0.185239
  57 S :    0.349896
  58 C :   -0.178245
  59 C :   -0.025244
  60 C :   -0.029654
  61 C :   -0.138831
  62 S :    0.346261
  63 C :   -0.077073
  64 H :    0.046632
  65 H :    0.070958
  66 H :    0.026883
  67 H :    0.028938
  68 H :    0.038437
  69 H :    0.038775
  70 H :    0.029878
  71 H :    0.038303
  72 H :    0.033592
  73 H :    0.030771
  74 H :    0.030637
  75 H :    0.034057
  76 H :    0.032990
  77 H :    0.034434
  78 H :    0.034242
  79 H :    0.029184
  80 H :    0.026254

  Mayer bond orders larger than 0.100000
B(  0-C ,  1-C ) :   1.3241 B(  0-C , 11-C ) :   0.1117 B(  0-C , 13-C ) :   1.1618
B(  0-C , 64-H ) :   1.0610 B(  1-C ,  2-C ) :   1.1097 B(  1-C ,  6-N ) :   1.3311
B(  2-C ,  3-N ) :   1.4658 B(  2-C , 11-C ) :   1.1990 B(  3-N ,  4-C ) :   1.6450
B(  4-C ,  5-C ) :   1.2057 B(  4-C ,  9-C ) :   1.1547 B(  5-C ,  6-N ) :   1.7854
B(  5-C ,  7-C ) :   1.1522 B(  7-C ,  8-N ) :   3.0526 B(  9-C , 10-N ) :   3.0317
B( 11-C , 12-C ) :   1.1808 B( 11-C , 17-C ) :   1.2762 B( 12-C , 13-C ) :   1.1349
B( 12-C , 16-N ) :   1.4765 B( 13-C , 14-N ) :   1.4732 B( 14-N , 15-S ) :   1.2982
B( 14-N , 16-N ) :   0.1513 B( 15-S , 16-N ) :   1.2658 B( 17-C , 18-S ) :   1.1219
B( 17-C , 21-C ) :   1.2906 B( 18-S , 19-C ) :   1.1210 B( 19-C , 20-C ) :   1.2842
B( 19-C , 25-C ) :   1.1991 B( 20-C , 21-C ) :   1.2584 B( 20-C , 24-C ) :   1.1669
B( 21-C , 22-N ) :   1.2231 B( 22-N , 23-N ) :   1.1321 B( 22-N , 65-H ) :   0.9134
B( 23-N , 24-C ) :   1.7247 B( 24-C , 66-H ) :   0.9877 B( 25-C , 26-C ) :   1.6417
B( 25-C , 67-H ) :   0.9421 B( 26-C , 27-C ) :   1.1483 B( 26-C , 68-H ) :   0.9485
B( 27-C , 28-C ) :   1.3028 B( 27-C , 37-C ) :   1.3151 B( 28-C , 29-C ) :   0.8450
B( 28-C , 34-C ) :   1.3326 B( 29-C , 30-O ) :   2.1781 B( 29-C , 31-S ) :   1.0280
B( 30-O , 31-S ) :   0.1046 B( 31-S , 32-C ) :   1.0347 B( 31-S , 33-O ) :   0.1048
B( 32-C , 33-O ) :   2.1591 B( 32-C , 34-C ) :   0.8503 B( 34-C , 35-C ) :   1.3548
B( 35-C , 36-C ) :   1.3276 B( 35-C , 43-C ) :   1.1120 B( 36-C , 37-C ) :   1.3509
B( 36-C , 41-C ) :   0.9091 B( 37-C , 38-C ) :   0.9233 B( 38-C , 39-O ) :   2.1919
B( 38-C , 40-O ) :   1.0654 B( 40-O , 41-C ) :   1.0525 B( 41-C , 42-O ) :   2.2014
B( 43-C , 44-C ) :   1.7633 B( 43-C , 69-H ) :   0.9217 B( 44-C , 45-C ) :   1.0535
B( 44-C , 70-H ) :   0.9628 B( 45-C , 46-C ) :   1.3150 B( 45-C , 51-C ) :   1.3399
B( 46-C , 47-F ) :   1.1164 B( 46-C , 48-C ) :   1.3926 B( 48-C , 49-C ) :   1.3342
B( 48-C , 71-H ) :   0.9947 B( 49-C , 50-C ) :   1.3781 B( 49-C , 72-H ) :   0.9906
B( 50-C , 51-C ) :   1.3815 B( 50-C , 73-H ) :   0.9976 B( 51-C , 52-C ) :   1.0294
B( 52-C , 53-C ) :   1.6993 B( 52-C , 74-H ) :   0.9492 B( 53-C , 54-C ) :   1.1280
B( 53-C , 57-S ) :   1.0209 B( 54-C , 55-C ) :   1.6398 B( 54-C , 75-H ) :   0.9785
B( 55-C , 56-C ) :   1.1559 B( 55-C , 76-H ) :   0.9934 B( 56-C , 57-S ) :   1.0284
B( 56-C , 58-C ) :   1.5741 B( 58-C , 59-C ) :   1.1440 B( 58-C , 62-S ) :   1.0410
B( 59-C , 60-C ) :   1.6690 B( 59-C , 77-H ) :   0.9929 B( 60-C , 61-C ) :   1.0764
B( 60-C , 78-H ) :   0.9931 B( 61-C , 62-S ) :   1.0046 B( 61-C , 63-C ) :   1.8673
B( 63-C , 79-H ) :   0.9511 B( 63-C , 80-H ) :   0.9427

-----------------------------------------------------------------------------
         ABSORPTION SPECTRUM VIA TRANSITION ELECTRIC DIPOLE MOMENTS
-----------------------------------------------------------------------------
State   Energy  Wavelength   fosc         T2         TX        TY        TZ
        (cm-1)    (nm)                  (au**2)     (au)      (au)      (au)
-----------------------------------------------------------------------------
   0   10017.1    998.3   0.150525247   4.94701  -0.40204   2.17451  -0.23850
   1   10660.4    938.1   0.332291018  10.26175   1.28347  -2.86613   0.63226
   2   11406.0    876.7   0.168359110   4.85936   1.08713  -1.69934   0.88868
   3   16430.4    608.6   0.028695448   0.57496   0.36867   0.03645  -0.66160
   4   17523.8    570.7   0.115867913   2.17676  -0.46372  -0.89989  -1.07327
   5   20856.8    479.5   0.386338685   6.09811  -0.63848   2.28957  -0.66958
   6   21660.5    461.7   0.008167035   0.12413   0.27262   0.22206  -0.02227
   7   22112.9    452.2   0.666661300   9.92509   1.31924  -0.27325   2.84781
   8   23036.9    434.1   0.127602444   1.82352  -0.38922   0.76481  -1.04264
   9   23892.4    418.5   0.092324161   1.27213  -0.13453  -0.12290  -1.11307
  10   24114.7    414.7   0.558875027   7.62971   1.18642  -1.43292   2.04178
  11   25803.9    387.5   0.027536083   0.35131  -0.38522  -0.01210   0.45030
  12   26416.0    378.6   0.030265021   0.37718  -0.08606   0.32904  -0.51138
  13   26810.5    373.0   0.021805007   0.26775   0.27620   0.14227  -0.41379
  14   26984.8    370.6   0.015007707   0.18309  -0.04285   0.11151  -0.41088
  15   28157.2    355.1   0.003076334   0.03597  -0.12948  -0.12380  -0.06225
  16   28479.6    351.1   0.034658348   0.40063  -0.04531   0.39744  -0.49053
  17   28795.5    347.3   0.024196435   0.27663  -0.18244   0.31699  -0.37798
  18   28919.8    345.8   0.034635005   0.39427   0.14341  -0.49332   0.36102
  19   29524.0    338.7   0.048627066   0.54222   0.48978  -0.42773   0.34552
  20   30085.6    332.4   0.010002980   0.10946  -0.04144  -0.32676   0.03115
  21   30257.5    330.5   0.034375884   0.37402  -0.39073   0.18721   0.43163
  22   30324.2    329.8   0.005641906   0.06125  -0.12704   0.21237   0.00302
  23   30644.2    326.3   0.016603276   0.17837   0.04778   0.40144  -0.12220
  24   30754.9    325.2   0.004950270   0.05299  -0.12396   0.18254   0.06559
  25   31427.8    318.2   0.014706967   0.15406  -0.01150   0.38641   0.06793
  26   31650.8    315.9   0.025453167   0.26475  -0.01995   0.41266  -0.30670
  27   31827.1    314.2   0.096145418   0.99450  -0.03890  -0.71169   0.69749
  28   31992.0    312.6   0.115483645   1.18838  -0.24542  -0.70274   0.79643
  29   32313.1    309.5   0.659043637   6.71447   1.36296   0.95736  -1.98501
  30   32403.2    308.6   0.038392977   0.39007   0.41335   0.19538  -0.42548
  31   32600.2    306.7   0.054921208   0.55462  -0.59870   0.03102   0.44183
  32   32975.6    303.3   0.020855387   0.20821   0.31531  -0.30483   0.12597
  33   33333.7    300.0   0.063222824   0.62440  -0.55113   0.47781   0.30390
  34   33385.8    299.5   0.022172281   0.21864   0.27005  -0.36566   0.10957
  35   33399.5    299.4   0.021733000   0.21422  -0.28817   0.36026  -0.03725
  36   33971.6    294.4   0.004299313   0.04166  -0.14301   0.14150   0.03450
  37   34173.3    292.6   0.004131717   0.03980   0.11632   0.11023   0.11884
  38   34333.4    291.3   0.026759544   0.25659   0.19900  -0.44855   0.12565
  39   34503.6    289.8   0.030910671   0.29493  -0.34997   0.41156   0.05539
  40   34674.7    288.4   0.006701941   0.06363  -0.10856   0.19910  -0.11048
  41   34936.0    286.2   0.006840325   0.06446   0.03685  -0.10856   0.22653
  42   35086.3    285.0   0.011434393   0.10729   0.08550  -0.25080   0.19256
  43   35259.8    283.6   0.015578100   0.14545  -0.25054   0.23594   0.16435
  44   35445.5    282.1   0.013042435   0.12114  -0.03921  -0.26059   0.22736
  45   36222.2    276.1   0.009406301   0.08549   0.15737   0.21902  -0.11294
  46   36277.3    275.7   0.008662877   0.07861  -0.27809  -0.00441  -0.03554
  47   36405.7    274.7   0.055934526   0.50581  -0.28002  -0.07889   0.64898
  48   36464.6    274.2   0.014537285   0.13125   0.34004  -0.11607  -0.04635
  49   36733.8    272.2   0.036124972   0.32376  -0.47979   0.25182   0.17362
  50   36910.7    270.9   0.009091098   0.08108  -0.22319   0.14592  -0.09990
  51   37693.0    265.3   0.009467377   0.08269  -0.19596  -0.12008   0.17283
  52   38181.6    261.9   0.027002786   0.23282   0.00375   0.07574  -0.47652
  53   38323.1    260.9   0.019290633   0.16571   0.08167   0.16973  -0.36088
  54   38579.6    259.2   0.053006669   0.45232  -0.10598   0.32933  -0.57674
  55   39000.9    256.4   0.004367659   0.03687  -0.06368   0.16280  -0.07944
  56   39252.7    254.8   0.000857517   0.00719  -0.01182   0.01519   0.08259
  57   39506.6    253.1   0.002889090   0.02408  -0.03914   0.08598   0.12308
  58   39553.7    252.8   0.003380545   0.02814  -0.05751  -0.04109  -0.15212
  59   39694.3    251.9   0.003601150   0.02987  -0.04010  -0.05704   0.15813
  60   39762.1    251.5   0.038097340   0.31543  -0.32008   0.22617  -0.40227

FINAL SINGLE POINT ENERGY     -4625.984853954504

DIPOLE MOMENT
-------------
                                X             Y             Z
Electronic contribution:     -9.84846      48.40509       8.61236
Nuclear contribution   :      8.61035     -50.78311      -6.42092
                        -----------------------------------------
Total Dipole Moment    :     -1.23811      -2.37802       2.19145
                        -----------------------------------------
Magnitude (a.u.)       :      3.46271
Magnitude (Debye)      :      8.80150

Rotational constants in cm-1:     0.001818     0.000433     0.000399
Rotational constants in MHz :    54.505801    12.993288    11.965196

                             ****ORCA TERMINATED NORMALLY****
TOTAL RUN TIME: 0 days 0 hours 13 minutes 38 seconds 44 msec
