                         Program Version 4.2.0 -  RELEASE  -
|  1> # ORCA input file
|  2> # SCF done       -206.922372040288          0.000997188064
|  3> ! CAM-B3LYP def2-SVP def2/J RIJCOSX Grid4 TightSCF
|  4> %maxcore 5000
|  5> %tddft
|  6>     Mode sTDDFT
|  7>     Ethresh 5.0
|  8>     maxcore 5000
|  9> end
| 10>
| 11> %pal
| 12>   nprocs 6
| 13>   end
| 14> * xyz 0 1
| 15>    C       18.77964         2.03570        -4.01140
| 16>    C       19.95370         2.23330        -4.68330
| 17>    F       21.10727         2.31170        -3.99365
| 18>    C       20.01223         2.35487        -6.07774
| 19>    C       18.85274         2.26460        -6.79682
| 20>    C       17.61495         2.05683        -6.15556
| 21>    C       17.57466         1.95123        -4.73428
| 22>    C       16.33926         1.76098        -4.06975
| 23>    C       15.19185         1.65457        -4.80628
| 24>    C       15.24426         1.72297        -6.23010
| 25>    C       16.41687         1.93299        -6.89459
| 26>    C       13.89548         1.49321        -6.78202
| 27>    O       13.55019         1.50653        -7.94172
| 28>    C       13.05458         1.15421        -5.60398
| 29>    C       13.80005         1.46798        -4.41035
| 30>    C       13.24716         1.78936        -3.19322
| 31>    C       11.85243         1.87475        -3.01716
| 32>    N       10.71660         1.99868        -2.89075
| 33>    C       13.98036         2.17075        -2.05720
| 34>    N       14.52092         2.48200        -1.09227
| 35>    C       11.85076         0.53849        -5.78761
| 36>    C       11.12585        -0.27053        -4.88997
| 37>    S       11.85498        -1.05973        -3.51719
| 38>    C       10.38916        -1.93712        -3.17596
| 39>    C        9.39026        -1.61864        -4.10411
| 40>    C        9.79101        -0.65944        -5.03079
| 41>    C        8.85334        -0.02104        -5.99958
| 42>    S        9.04743         1.81880        -5.99403
| 43>    C        7.40541        -0.38623        -5.68445
| 44>    C        7.28751        -1.87769        -5.40000
| 45>    C        8.00775        -2.22481        -4.09279
| 46>    O        8.02500        -3.61801        -3.86510
| 47>    C       10.25988        -2.80339        -2.08300
| 48>    C       11.03858        -2.83963        -0.95154
| 49>    C       10.82852        -3.70670         0.14830
| 50>    C       11.60398        -3.43106         1.23379
| 51>    C       12.46221        -2.32571         1.05211
| 52>    S       12.32069        -1.70124        -0.57629
| 53>    C       13.24118        -1.70500         2.01629
| 54>    C       13.39656        -2.08445         3.36535
| 55>    C       14.10137        -1.18456         4.10913
| 56>    C       14.54982        -0.05363         3.38741
| 57>    S       14.08166        -0.20413         1.70297
| 58>    C       15.08612         1.07539         3.97579
| 59>    C       15.52807         2.25944         3.38191
| 60>    S       15.36316         3.73518         4.28950
| 61>    C       15.89281         4.72799         2.96585
| 62>    C       16.27747         3.91770         1.87151
| 63>    C       16.09154         2.52717         2.11005
| 64>    C       16.56833         1.59178         1.18201
| 65>    C       17.12284         2.04469         0.01781
| 66>    F       17.59663         1.16253        -0.87989
| 67>    C       17.22669         3.42059        -0.25804
| 68>    F       17.75983         3.81282        -1.42621
| 69>    C       16.82588         4.35456         0.65665
| 70>    C       15.91378         6.12141         3.05157
| 71>    C       15.49692         6.83223         4.14823
| 72>    C       15.52702         8.22917         4.20253
| 73>    C       15.17203         9.03431         5.25678
| 74>    C       14.85651        10.46150         5.00490
| 75>    O       15.09763        11.09229         3.99853
| 76>    C       14.14166        10.92191         6.21205
| 77>    C       13.53784        12.12207         6.44833
| 78>    C       12.86565        12.32631         7.67485
| 79>    C       12.82996        11.27262         8.63326
| 80>    C       12.14859        11.47750         9.84852
| 81>    C       11.54125        12.67960        10.08319
| 82>    C       11.56736        13.72881         9.15511
| 83>    C       12.22337        13.54597         7.96935
| 84>    F       10.88910        12.87685        11.24480
| 85>    C       13.47378        10.04146         8.36404
| 86>    C       14.12587         9.87090         7.17370
| 87>    C       14.88702         8.74148         6.63758
| 88>    C       15.39525         7.71078         7.39181
| 89>    C       16.35905         6.78581         6.94291
| 90>    N       17.17372         6.02782         6.65787
| 91>    C       15.09611         7.51600         8.75466
| 92>    N       14.86898         7.29075         9.85779
| 93>    H       18.77695         1.94493        -2.93873
| 94>    H       20.96749         2.51211        -6.55316
| 95>    H       18.87120         2.34852        -7.87312
| 96>    H       16.33065         1.67945        -2.99544
| 97>    H       16.43296         1.99595        -7.97239
| 98>    H       11.45909         0.59584        -6.79842
| 99>    H        9.10746        -0.30362        -7.02679
|100>    H        9.17778         1.95534        -4.67548
|101>    H        6.77012        -0.10190        -6.52345
|102>    H        7.07667         0.17586        -4.80742
|103>    H        7.73886        -2.44617        -6.21904
|104>    H        6.24069        -2.17204        -5.32021
|105>    H        7.44533        -1.81665        -3.24234
|106>    H        8.45558        -4.05003        -4.61237
|107>    H        9.40607        -3.46819        -2.10797
|108>    H       10.09443        -4.49140         0.10551
|109>    H       11.55530        -3.96914         2.16291
|110>    H       12.97449        -2.99185         3.75706
|111>    H       14.30195        -1.29162         5.16038
|112>    H       15.03782         1.09006         5.05869
|113>    H       16.52723         0.53328         1.37173
|114>    H       16.94837         5.40157         0.43511
|115>    H       16.29395         6.66254         2.19581
|116>    H       15.10144         6.28111         4.98975
|117>    H       15.77380         8.76001         3.28865
|118>    H       13.56924        12.90716         5.70770
|119>    H       12.11085        10.69276        10.58790
|120>    H       11.07045        14.65535         9.39532
|121>    H       12.25701        14.33936         7.23782
|122>    H       13.42387         9.26035         9.10591
|123> *
|124>
|125>                          ****END OF INPUT****

CARTESIAN COORDINATES (ANGSTROEM)
---------------------------------
  C     18.779640    2.035700   -4.011400
  C     19.953700    2.233300   -4.683300
  F     21.107270    2.311700   -3.993650
  C     20.012230    2.354870   -6.077740
  C     18.852740    2.264600   -6.796820
  C     17.614950    2.056830   -6.155560
  C     17.574660    1.951230   -4.734280
  C     16.339260    1.760980   -4.069750
  C     15.191850    1.654570   -4.806280
  C     15.244260    1.722970   -6.230100
  C     16.416870    1.932990   -6.894590
  C     13.895480    1.493210   -6.782020
  O     13.550190    1.506530   -7.941720
  C     13.054580    1.154210   -5.603980
  C     13.800050    1.467980   -4.410350
  C     13.247160    1.789360   -3.193220
  C     11.852430    1.874750   -3.017160
  N     10.716600    1.998680   -2.890750
  C     13.980360    2.170750   -2.057200
  N     14.520920    2.482000   -1.092270
  C     11.850760    0.538490   -5.787610
  C     11.125850   -0.270530   -4.889970
  S     11.854980   -1.059730   -3.517190
  C     10.389160   -1.937120   -3.175960
  C      9.390260   -1.618640   -4.104110
  C      9.791010   -0.659440   -5.030790
  C      8.853340   -0.021040   -5.999580
  S      9.047430    1.818800   -5.994030
  C      7.405410   -0.386230   -5.684450
  C      7.287510   -1.877690   -5.400000
  C      8.007750   -2.224810   -4.092790
  O      8.025000   -3.618010   -3.865100
  C     10.259880   -2.803390   -2.083000
  C     11.038580   -2.839630   -0.951540
  C     10.828520   -3.706700    0.148300
  C     11.603980   -3.431060    1.233790
  C     12.462210   -2.325710    1.052110
  S     12.320690   -1.701240   -0.576290
  C     13.241180   -1.705000    2.016290
  C     13.396560   -2.084450    3.365350
  C     14.101370   -1.184560    4.109130
  C     14.549820   -0.053630    3.387410
  S     14.081660   -0.204130    1.702970
  C     15.086120    1.075390    3.975790
  C     15.528070    2.259440    3.381910
  S     15.363160    3.735180    4.289500
  C     15.892810    4.727990    2.965850
  C     16.277470    3.917700    1.871510
  C     16.091540    2.527170    2.110050
  C     16.568330    1.591780    1.182010
  C     17.122840    2.044690    0.017810
  F     17.596630    1.162530   -0.879890
  C     17.226690    3.420590   -0.258040
  F     17.759830    3.812820   -1.426210
  C     16.825880    4.354560    0.656650
  C     15.913780    6.121410    3.051570
  C     15.496920    6.832230    4.148230
  C     15.527020    8.229170    4.202530
  C     15.172030    9.034310    5.256780
  C     14.856510   10.461500    5.004900
  O     15.097630   11.092290    3.998530
  C     14.141660   10.921910    6.212050
  C     13.537840   12.122070    6.448330
  C     12.865650   12.326310    7.674850
  C     12.829960   11.272620    8.633260
  C     12.148590   11.477500    9.848520
  C     11.541250   12.679600   10.083190
  C     11.567360   13.728810    9.155110
  C     12.223370   13.545970    7.969350
  F     10.889100   12.876850   11.244800
  C     13.473780   10.041460    8.364040
  C     14.125870    9.870900    7.173700
  C     14.887020    8.741480    6.637580
  C     15.395250    7.710780    7.391810
  C     16.359050    6.785810    6.942910
  N     17.173720    6.027820    6.657870
  C     15.096110    7.516000    8.754660
  N     14.868980    7.290750    9.857790
  H     18.776950    1.944930   -2.938730
  H     20.967490    2.512110   -6.553160
  H     18.871200    2.348520   -7.873120
  H     16.330650    1.679450   -2.995440
  H     16.432960    1.995950   -7.972390
  H     11.459090    0.595840   -6.798420
  H      9.107460   -0.303620   -7.026790
  H      9.177780    1.955340   -4.675480
  H      6.770120   -0.101900   -6.523450
  H      7.076670    0.175860   -4.807420
  H      7.738860   -2.446170   -6.219040
  H      6.240690   -2.172040   -5.320210
  H      7.445330   -1.816650   -3.242340
  H      8.455580   -4.050030   -4.612370
  H      9.406070   -3.468190   -2.107970
  H     10.094430   -4.491400    0.105510
  H     11.555300   -3.969140    2.162910
  H     12.974490   -2.991850    3.757060
  H     14.301950   -1.291620    5.160380
  H     15.037820    1.090060    5.058690
  H     16.527230    0.533280    1.371730
  H     16.948370    5.401570    0.435110
  H     16.293950    6.662540    2.195810
  H     15.101440    6.281110    4.989750
  H     15.773800    8.760010    3.288650
  H     13.569240   12.907160    5.707700
  H     12.110850   10.692760   10.587900
  H     11.070450   14.655350    9.395320
  H     12.257010   14.339360    7.237820
  H     13.423870    9.260350    9.105910

 Total Charge           Charge          ....    0
 Multiplicity           Mult            ....    1
 Number of Electrons    NEL             ....  570
 Basis Dimension        Dim             .... 1262

ORBITAL ENERGIES
----------------

  NO   OCC          E(Eh)            E(eV)
   0   2.0000     -88.974369     -2421.1157
   1   2.0000     -88.969085     -2420.9719
   2   2.0000     -88.962708     -2420.7983
   3   2.0000     -88.962596     -2420.7953
   4   2.0000     -88.911171     -2419.3960
   5   2.0000     -24.800590      -674.8584
   6   2.0000     -24.797108      -674.7636
   7   2.0000     -24.777724      -674.2361
   8   2.0000     -24.777272      -674.2239
   9   2.0000     -19.227941      -523.2189
  10   2.0000     -19.204749      -522.5878
  11   2.0000     -19.198302      -522.4123
  12   2.0000     -14.414467      -392.2376
  13   2.0000     -14.412252      -392.1773
  14   2.0000     -14.403205      -391.9311
  15   2.0000     -14.402057      -391.8999
  16   2.0000     -10.373729      -282.2835
  17   2.0000     -10.370060      -282.1837
  18   2.0000     -10.360517      -281.9240
  19   2.0000     -10.359988      -281.9096
  20   2.0000     -10.356447      -281.8133
  21   2.0000     -10.349814      -281.6327
  22   2.0000     -10.335976      -281.2562
  23   2.0000     -10.335361      -281.2395
  24   2.0000     -10.335186      -281.2347
  25   2.0000     -10.328645      -281.0567
  26   2.0000     -10.328643      -281.0567
  27   2.0000     -10.328444      -281.0513
  28   2.0000     -10.327830      -281.0345
  29   2.0000     -10.327613      -281.0286
  30   2.0000     -10.326945      -281.0105
  31   2.0000     -10.324997      -280.9574
  32   2.0000     -10.322483      -280.8890
  33   2.0000     -10.319314      -280.8028
  34   2.0000     -10.316496      -280.7261
  35   2.0000     -10.315363      -280.6953
  36   2.0000     -10.314060      -280.6598
  37   2.0000     -10.313204      -280.6366
  38   2.0000     -10.310449      -280.5616
  39   2.0000     -10.306773      -280.4616
  40   2.0000     -10.306717      -280.4600
  41   2.0000     -10.305468      -280.4260
  42   2.0000     -10.304201      -280.3916
  43   2.0000     -10.303315      -280.3674
  44   2.0000     -10.302948      -280.3575
  45   2.0000     -10.302015      -280.3321
  46   2.0000     -10.301641      -280.3219
  47   2.0000     -10.301484      -280.3176
  48   2.0000     -10.300759      -280.2979
  49   2.0000     -10.300020      -280.2778
  50   2.0000     -10.298662      -280.2408
  51   2.0000     -10.298658      -280.2407
  52   2.0000     -10.297915      -280.2205
  53   2.0000     -10.295460      -280.1537
  54   2.0000     -10.294022      -280.1146
  55   2.0000     -10.293914      -280.1116
  56   2.0000     -10.293345      -280.0962
  57   2.0000     -10.292943      -280.0852
  58   2.0000     -10.292080      -280.0617
  59   2.0000     -10.291811      -280.0544
  60   2.0000     -10.291017      -280.0328
  61   2.0000     -10.290506      -280.0189
  62   2.0000     -10.289934      -280.0033
  63   2.0000     -10.288420      -279.9621
  64   2.0000     -10.288415      -279.9620
  65   2.0000     -10.288102      -279.9535
  66   2.0000     -10.287066      -279.9253
  67   2.0000     -10.286481      -279.9094
  68   2.0000     -10.285873      -279.8928
  69   2.0000     -10.285271      -279.8764
  70   2.0000     -10.282128      -279.7909
  71   2.0000     -10.282087      -279.7898
  72   2.0000     -10.279816      -279.7280
  73   2.0000     -10.278952      -279.7045
  74   2.0000     -10.278391      -279.6892
  75   2.0000     -10.278384      -279.6890
  76   2.0000     -10.277508      -279.6652
  77   2.0000     -10.277025      -279.6521
  78   2.0000      -8.069632      -219.5858
  79   2.0000      -8.063757      -219.4260
  80   2.0000      -8.058617      -219.2861
  81   2.0000      -8.058536      -219.2839
  82   2.0000      -8.006544      -217.8691
  83   2.0000      -6.038597      -164.3186
  84   2.0000      -6.034594      -164.2097
  85   2.0000      -6.032981      -164.1658
  86   2.0000      -6.032211      -164.1448
  87   2.0000      -6.028999      -164.0574
  88   2.0000      -6.028352      -164.0398
  89   2.0000      -6.028281      -164.0379
  90   2.0000      -6.025860      -163.9720
  91   2.0000      -6.024163      -163.9258
  92   2.0000      -6.024126      -163.9248
  93   2.0000      -6.019585      -163.8012
  94   2.0000      -6.019538      -163.8000
  95   2.0000      -5.977101      -162.6452
  96   2.0000      -5.972835      -162.5291
  97   2.0000      -5.966306      -162.3514
  98   2.0000      -1.319017       -35.8923
  99   2.0000      -1.303901       -35.4809
 100   2.0000      -1.292374       -35.1673
 101   2.0000      -1.291731       -35.1498
 102   2.0000      -1.119907       -30.4742
 103   2.0000      -1.118763       -30.4431
 104   2.0000      -1.113006       -30.2864
 105   2.0000      -1.017206       -27.6796
 106   2.0000      -1.014673       -27.6107
 107   2.0000      -1.010261       -27.4906
 108   2.0000      -1.005793       -27.3690
 109   2.0000      -1.003445       -27.3051
 110   2.0000      -0.994624       -27.0651
 111   2.0000      -0.991993       -26.9935
 112   2.0000      -0.988842       -26.9077
 113   2.0000      -0.987659       -26.8756
 114   2.0000      -0.981522       -26.7086
 115   2.0000      -0.968952       -26.3665
 116   2.0000      -0.964792       -26.2533
 117   2.0000      -0.950473       -25.8637
 118   2.0000      -0.936982       -25.4966
 119   2.0000      -0.928675       -25.2705
 120   2.0000      -0.923321       -25.1249
 121   2.0000      -0.915344       -24.9078
 122   2.0000      -0.909625       -24.7522
 123   2.0000      -0.900055       -24.4917
 124   2.0000      -0.890466       -24.2308
 125   2.0000      -0.883663       -24.0457
 126   2.0000      -0.879418       -23.9302
 127   2.0000      -0.877265       -23.8716
 128   2.0000      -0.872971       -23.7547
 129   2.0000      -0.866362       -23.5749
 130   2.0000      -0.859523       -23.3888
 131   2.0000      -0.857629       -23.3373
 132   2.0000      -0.847665       -23.0661
 133   2.0000      -0.844732       -22.9863
 134   2.0000      -0.839995       -22.8574
 135   2.0000      -0.835414       -22.7328
 136   2.0000      -0.829697       -22.5772
 137   2.0000      -0.826334       -22.4857
 138   2.0000      -0.823429       -22.4067
 139   2.0000      -0.810761       -22.0619
 140   2.0000      -0.798620       -21.7315
 141   2.0000      -0.786816       -21.4103
 142   2.0000      -0.775346       -21.0982
 143   2.0000      -0.763528       -20.7767
 144   2.0000      -0.754740       -20.5375
 145   2.0000      -0.749524       -20.3956
 146   2.0000      -0.742521       -20.2050
 147   2.0000      -0.742318       -20.1995
 148   2.0000      -0.724584       -19.7169
 149   2.0000      -0.718888       -19.5619
 150   2.0000      -0.716121       -19.4866
 151   2.0000      -0.709463       -19.3055
 152   2.0000      -0.704161       -19.1612
 153   2.0000      -0.702458       -19.1148
 154   2.0000      -0.700502       -19.0616
 155   2.0000      -0.698617       -19.0103
 156   2.0000      -0.683920       -18.6104
 157   2.0000      -0.678686       -18.4680
 158   2.0000      -0.675712       -18.3871
 159   2.0000      -0.674585       -18.3564
 160   2.0000      -0.668770       -18.1982
 161   2.0000      -0.667061       -18.1517
 162   2.0000      -0.658782       -17.9264
 163   2.0000      -0.646435       -17.5904
 164   2.0000      -0.641299       -17.4506
 165   2.0000      -0.639272       -17.3955
 166   2.0000      -0.634555       -17.2671
 167   2.0000      -0.628458       -17.1012
 168   2.0000      -0.626427       -17.0459
 169   2.0000      -0.624878       -17.0038
 170   2.0000      -0.622268       -16.9328
 171   2.0000      -0.620181       -16.8760
 172   2.0000      -0.617533       -16.8039
 173   2.0000      -0.616303       -16.7705
 174   2.0000      -0.612856       -16.6767
 175   2.0000      -0.610483       -16.6121
 176   2.0000      -0.599932       -16.3250
 177   2.0000      -0.592138       -16.1129
 178   2.0000      -0.589398       -16.0383
 179   2.0000      -0.585066       -15.9204
 180   2.0000      -0.584134       -15.8951
 181   2.0000      -0.577969       -15.7273
 182   2.0000      -0.565522       -15.3886
 183   2.0000      -0.563228       -15.3262
 184   2.0000      -0.560176       -15.2432
 185   2.0000      -0.557493       -15.1701
 186   2.0000      -0.557194       -15.1620
 187   2.0000      -0.553579       -15.0636
 188   2.0000      -0.551982       -15.0202
 189   2.0000      -0.550137       -14.9700
 190   2.0000      -0.549645       -14.9566
 191   2.0000      -0.549220       -14.9450
 192   2.0000      -0.546245       -14.8641
 193   2.0000      -0.545292       -14.8382
 194   2.0000      -0.540340       -14.7034
 195   2.0000      -0.538126       -14.6431
 196   2.0000      -0.537153       -14.6167
 197   2.0000      -0.533654       -14.5215
 198   2.0000      -0.530211       -14.4278
 199   2.0000      -0.527284       -14.3481
 200   2.0000      -0.526817       -14.3354
 201   2.0000      -0.522199       -14.2097
 202   2.0000      -0.521241       -14.1837
 203   2.0000      -0.517561       -14.0836
 204   2.0000      -0.516251       -14.0479
 205   2.0000      -0.514777       -14.0078
 206   2.0000      -0.513677       -13.9779
 207   2.0000      -0.513087       -13.9618
 208   2.0000      -0.512471       -13.9451
 209   2.0000      -0.510026       -13.8785
 210   2.0000      -0.508364       -13.8333
 211   2.0000      -0.506209       -13.7747
 212   2.0000      -0.504432       -13.7263
 213   2.0000      -0.501563       -13.6482
 214   2.0000      -0.497638       -13.5414
 215   2.0000      -0.497298       -13.5322
 216   2.0000      -0.493285       -13.4230
 217   2.0000      -0.488426       -13.2907
 218   2.0000      -0.486452       -13.2370
 219   2.0000      -0.485356       -13.2072
 220   2.0000      -0.483275       -13.1506
 221   2.0000      -0.481181       -13.0936
 222   2.0000      -0.480321       -13.0702
 223   2.0000      -0.478148       -13.0111
 224   2.0000      -0.475763       -12.9462
 225   2.0000      -0.473813       -12.8931
 226   2.0000      -0.471861       -12.8400
 227   2.0000      -0.470770       -12.8103
 228   2.0000      -0.468725       -12.7547
 229   2.0000      -0.465376       -12.6635
 230   2.0000      -0.462117       -12.5748
 231   2.0000      -0.460960       -12.5433
 232   2.0000      -0.455748       -12.4015
 233   2.0000      -0.455227       -12.3874
 234   2.0000      -0.452076       -12.3016
 235   2.0000      -0.449118       -12.2211
 236   2.0000      -0.447549       -12.1784
 237   2.0000      -0.446117       -12.1395
 238   2.0000      -0.442001       -12.0275
 239   2.0000      -0.441027       -12.0009
 240   2.0000      -0.439605       -11.9623
 241   2.0000      -0.438118       -11.9218
 242   2.0000      -0.436168       -11.8687
 243   2.0000      -0.434422       -11.8212
 244   2.0000      -0.430676       -11.7193
 245   2.0000      -0.429440       -11.6856
 246   2.0000      -0.427510       -11.6331
 247   2.0000      -0.426821       -11.6144
 248   2.0000      -0.425121       -11.5681
 249   2.0000      -0.424108       -11.5406
 250   2.0000      -0.422537       -11.4978
 251   2.0000      -0.420613       -11.4455
 252   2.0000      -0.416960       -11.3461
 253   2.0000      -0.414591       -11.2816
 254   2.0000      -0.413765       -11.2591
 255   2.0000      -0.412962       -11.2373
 256   2.0000      -0.409184       -11.1345
 257   2.0000      -0.407406       -11.0861
 258   2.0000      -0.405733       -11.0405
 259   2.0000      -0.399704       -10.8765
 260   2.0000      -0.396447       -10.7879
 261   2.0000      -0.391880       -10.6636
 262   2.0000      -0.388971       -10.5844
 263   2.0000      -0.380853       -10.3635
 264   2.0000      -0.372943       -10.1483
 265   2.0000      -0.370695       -10.0871
 266   2.0000      -0.363650        -9.8954
 267   2.0000      -0.360453        -9.8084
 268   2.0000      -0.357285        -9.7222
 269   2.0000      -0.351851        -9.5744
 270   2.0000      -0.342467        -9.3190
 271   2.0000      -0.332522        -9.0484
 272   2.0000      -0.326601        -8.8873
 273   2.0000      -0.324508        -8.8303
 274   2.0000      -0.323642        -8.8068
 275   2.0000      -0.317353        -8.6356
 276   2.0000      -0.314202        -8.5499
 277   2.0000      -0.307935        -8.3793
 278   2.0000      -0.302094        -8.2204
 279   2.0000      -0.296740        -8.0747
 280   2.0000      -0.292200        -7.9512
 281   2.0000      -0.288792        -7.8584
 282   2.0000      -0.284378        -7.7383
 283   2.0000      -0.254269        -6.9190
 284   2.0000      -0.216832        -5.9003
 285   0.0000      -0.117879        -3.2076
 286   0.0000      -0.090315        -2.4576
 287   0.0000      -0.069144        -1.8815
 288   0.0000      -0.051663        -1.4058
 289   0.0000      -0.044315        -1.2059

MULLIKEN ATOMIC CHARGES
-----------------------
   0 C :   -0.089081
   1 C :    0.301313
   2 F :   -0.192762
   3 C :   -0.032495
   4 C :   -0.013026
   5 C :    0.095230
   6 C :    0.105511
   7 C :   -0.070773
   8 C :    0.045269
   9 C :    0.006189
  10 C :   -0.084142
  11 C :    0.146884
  12 O :   -0.148456
  13 C :   -0.155163
  14 C :    0.260251
  15 C :   -0.339060
  16 C :   -0.172092
  17 N :    0.134233
  18 C :   -0.163847
  19 N :    0.140886
  20 C :    0.065307
  21 C :   -0.165840
  22 S :    0.145445
  23 C :   -0.088239
  24 C :   -0.070004
  25 C :    0.076151
  26 C :   -0.165152
  27 S :   -0.047417
  28 C :    0.103413
  29 C :    0.047317
  30 C :    0.224911
  31 O :   -0.299652
  32 C :   -0.045868
  33 C :   -0.024407
  34 C :    0.026944
  35 C :    0.036946
  36 C :   -0.042892
  37 S :    0.098735
  38 C :   -0.055569
  39 C :    0.035176
  40 C :    0.035251
  41 C :   -0.038935
  42 S :    0.119694
  43 C :   -0.013564
  44 C :   -0.112847
  45 S :    0.184247
  46 C :   -0.091513
  47 C :    0.148583
  48 C :    0.128562
  49 C :   -0.091728
  50 C :    0.239999
  51 F :   -0.175970
  52 C :    0.252010
  53 F :   -0.173105
  54 C :   -0.114483
  55 C :    0.015849
  56 C :   -0.003395
  57 C :    0.025548
  58 C :   -0.125216
  59 C :    0.139029
  60 O :   -0.153114
  61 C :    0.008764
  62 C :   -0.090258
  63 C :    0.106130
  64 C :    0.107099
  65 C :   -0.103191
  66 C :    0.302315
  67 C :   -0.029808
  68 C :   -0.015077
  69 F :   -0.193615
  70 C :   -0.096709
  71 C :    0.046008
  72 C :    0.288714
  73 C :   -0.341699
  74 C :   -0.223656
  75 N :    0.158570
  76 C :   -0.179306
  77 N :    0.139317
  78 H :   -0.021994
  79 H :    0.000310
  80 H :   -0.010417
  81 H :   -0.036675
  82 H :   -0.013088
  83 H :    0.024230
  84 H :    0.055306
  85 H :    0.089453
  86 H :    0.013184
  87 H :    0.013220
  88 H :   -0.009885
  89 H :    0.015817
  90 H :    0.013676
  91 H :    0.166749
  92 H :    0.015277
  93 H :   -0.000124
  94 H :   -0.008027
  95 H :   -0.006997
  96 H :   -0.001043
  97 H :    0.007299
  98 H :   -0.003222
  99 H :   -0.009594
 100 H :    0.002648
 101 H :    0.020865
 102 H :    0.009381
 103 H :   -0.014217
 104 H :   -0.003581
 105 H :   -0.000400
 106 H :   -0.010340
 107 H :   -0.006486
Sum of atomic charges:   -0.0000000

LOEWDIN ATOMIC CHARGES
----------------------
   0 C :   -0.038666
   1 C :    0.090571
   2 F :   -0.067564
   3 C :   -0.038085
   4 C :    0.000837
   5 C :   -0.018927
   6 C :    0.003787
   7 C :    0.011399
   8 C :   -0.018641
   9 C :   -0.058610
  10 C :    0.031373
  11 C :    0.082125
  12 O :   -0.149734
  13 C :   -0.107194
  14 C :    0.067436
  15 C :   -0.158984
  16 C :   -0.015232
  17 N :   -0.069242
  18 C :   -0.008644
  19 N :   -0.065608
  20 C :    0.047397
  21 C :   -0.193124
  22 S :    0.468667
  23 C :   -0.141098
  24 C :   -0.080513
  25 C :   -0.036412
  26 C :   -0.119658
  27 S :    0.183859
  28 C :   -0.037182
  29 C :   -0.040298
  30 C :    0.065994
  31 O :   -0.116091
  32 C :   -0.072496
  33 C :   -0.140325
  34 C :   -0.026655
  35 C :   -0.028307
  36 C :   -0.174100
  37 S :    0.383412
  38 C :   -0.173601
  39 C :   -0.028144
  40 C :   -0.027794
  41 C :   -0.141696
  42 S :    0.419059
  43 C :   -0.079738
  44 C :   -0.147140
  45 S :    0.502850
  46 C :   -0.183403
  47 C :   -0.016204
  48 C :   -0.048409
  49 C :   -0.032944
  50 C :    0.063222
  51 F :   -0.050776
  52 C :    0.076900
  53 F :   -0.048246
  54 C :   -0.034284
  55 C :    0.017068
  56 C :   -0.046332
  57 C :    0.062568
  58 C :   -0.106587
  59 C :    0.078541
  60 O :   -0.155671
  61 C :   -0.056726
  62 C :    0.029632
  63 C :   -0.019585
  64 C :    0.002318
  65 C :   -0.043223
  66 C :    0.090875
  67 C :   -0.040034
  68 C :    0.002954
  69 F :   -0.068260
  70 C :    0.007014
  71 C :   -0.015212
  72 C :    0.069963
  73 C :   -0.150900
  74 C :   -0.025074
  75 N :   -0.061536
  76 C :   -0.019001
  77 N :   -0.063472
  78 H :    0.032925
  79 H :    0.040470
  80 H :    0.034663
  81 H :    0.030016
  82 H :    0.038800
  83 H :    0.044066
  84 H :    0.034443
  85 H :   -0.023315
  86 H :    0.030557
  87 H :    0.025832
  88 H :    0.018774
  89 H :    0.030896
  90 H :    0.031384
  91 H :    0.076649
  92 H :    0.042067
  93 H :    0.037906
  94 H :    0.034062
  95 H :    0.034328
  96 H :    0.037245
  97 H :    0.040597
  98 H :    0.031405
  99 H :    0.041180
 100 H :    0.039629
 101 H :    0.024333
 102 H :    0.042740
 103 H :    0.038312
 104 H :    0.042291
 105 H :    0.040379
 106 H :    0.034801
 107 H :    0.038130

  Mayer bond orders larger than 0.100000
B(  0-C ,  1-C ) :   1.4396 B(  0-C ,  6-C ) :   1.2116 B(  0-C , 78-H ) :   0.9971
B(  1-C ,  2-F ) :   1.0874 B(  1-C ,  3-C ) :   1.2533 B(  3-C ,  4-C ) :   1.4554
B(  3-C , 79-H ) :   0.9936 B(  4-C ,  5-C ) :   1.2387 B(  4-C , 80-H ) :   0.9974
B(  5-C ,  6-C ) :   1.2498 B(  5-C , 10-C ) :   1.1867 B(  6-C ,  7-C ) :   1.2065
B(  7-C ,  8-C ) :   1.4640 B(  7-C , 81-H ) :   0.9920 B(  8-C ,  9-C ) :   1.2120
B(  8-C , 14-C ) :   0.9969 B(  9-C , 10-C ) :   1.4794 B(  9-C , 11-C ) :   0.9185
B( 10-C , 82-H ) :   1.0154 B( 11-C , 12-O ) :   2.2627 B( 11-C , 13-C ) :   0.9480
B( 13-C , 14-C ) :   1.0670 B( 13-C , 20-C ) :   1.5976 B( 14-C , 15-C ) :   1.6111
B( 15-C , 16-C ) :   1.1710 B( 15-C , 18-C ) :   1.1484 B( 16-C , 17-N ) :   2.9491
B( 18-C , 19-N ) :   2.9732 B( 20-C , 21-C ) :   1.1716 B( 20-C , 83-H ) :   0.9314
B( 21-C , 22-S ) :   1.1033 B( 21-C , 25-C ) :   1.3931 B( 22-S , 23-C ) :   1.1299
B( 23-C , 24-C ) :   1.4035 B( 23-C , 32-C ) :   1.2201 B( 24-C , 25-C ) :   1.4293
B( 24-C , 30-C ) :   0.9563 B( 25-C , 26-C ) :   0.9654 B( 26-C , 27-S ) :   1.0603
B( 26-C , 28-C ) :   1.0226 B( 26-C , 84-H ) :   0.8899 B( 27-S , 85-H ) :   0.9351
B( 28-C , 29-C ) :   1.0550 B( 28-C , 86-H ) :   0.9271 B( 28-C , 87-H ) :   0.9385
B( 29-C , 30-C ) :   1.0835 B( 29-C , 88-H ) :   0.9286 B( 29-C , 89-H ) :   0.9288
B( 30-C , 31-O ) :   0.9938 B( 30-C , 90-H ) :   0.8855 B( 31-O , 91-H ) :   0.9758
B( 32-C , 33-C ) :   1.5146 B( 32-C , 92-H ) :   0.9495 B( 33-C , 34-C ) :   1.1591
B( 33-C , 37-S ) :   1.0467 B( 34-C , 35-C ) :   1.5726 B( 34-C , 93-H ) :   1.0013
B( 35-C , 36-C ) :   1.1982 B( 35-C , 94-H ) :   0.9931 B( 36-C , 37-S ) :   1.0529
B( 36-C , 38-C ) :   1.4798 B( 38-C , 39-C ) :   1.2018 B( 38-C , 42-S ) :   1.0539
B( 39-C , 40-C ) :   1.5675 B( 39-C , 95-H ) :   0.9938 B( 40-C , 41-C ) :   1.1649
B( 40-C , 96-H ) :   0.9991 B( 41-C , 42-S ) :   1.0520 B( 41-C , 43-C ) :   1.5464
B( 43-C , 44-C ) :   1.2154 B( 43-C , 97-H ) :   0.9465 B( 44-C , 45-S ) :   1.1748
B( 44-C , 48-C ) :   1.2752 B( 45-S , 46-C ) :   1.1136 B( 46-C , 47-C ) :   1.2574
B( 46-C , 55-C ) :   1.2565 B( 47-C , 48-C ) :   1.2432 B( 47-C , 54-C ) :   1.1954
B( 48-C , 49-C ) :   1.1868 B( 49-C , 50-C ) :   1.5109 B( 49-C , 54-C ) :   0.1066
B( 49-C , 98-H ) :   0.9800 B( 50-C , 51-F ) :   1.0652 B( 50-C , 52-C ) :   1.1812
B( 52-C , 53-F ) :   1.1156 B( 52-C , 54-C ) :   1.4840 B( 54-C , 99-H ) :   0.9969
B( 55-C , 56-C ) :   1.5197 B( 55-C ,100-H ) :   0.9769 B( 56-C , 57-C ) :   1.2173
B( 56-C ,101-H ) :   0.9615 B( 57-C , 58-C ) :   1.5169 B( 57-C ,102-H ) :   0.9577
B( 58-C , 59-C ) :   0.9565 B( 58-C , 72-C ) :   1.0753 B( 59-C , 60-O ) :   2.2573
B( 59-C , 61-C ) :   0.9188 B( 61-C , 62-C ) :   1.4792 B( 61-C , 71-C ) :   1.2171
B( 62-C , 63-C ) :   1.1846 B( 62-C ,103-H ) :   1.0150 B( 63-C , 64-C ) :   1.2585
B( 63-C , 68-C ) :   1.2372 B( 64-C , 65-C ) :   1.2039 B( 64-C , 70-C ) :   1.1980
B( 65-C , 66-C ) :   1.4408 B( 65-C ,104-H ) :   1.0062 B( 66-C , 67-C ) :   1.2576
B( 66-C , 69-F ) :   1.0854 B( 67-C , 68-C ) :   1.4583 B( 67-C ,105-H ) :   0.9923
B( 68-C ,106-H ) :   0.9964 B( 70-C , 71-C ) :   1.4669 B( 70-C ,107-H ) :   0.9925
B( 71-C , 72-C ) :   0.9925 B( 72-C , 73-C ) :   1.6089 B( 73-C , 74-C ) :   1.1613
B( 73-C , 76-C ) :   1.1375 B( 74-C , 75-N ) :   3.0124 B( 76-C , 77-N ) :   2.9753

-----------------------------------------------------------------------------
         ABSORPTION SPECTRUM VIA TRANSITION ELECTRIC DIPOLE MOMENTS
-----------------------------------------------------------------------------
State   Energy  Wavelength   fosc         T2         TX        TY        TZ
        (cm-1)    (nm)                  (au**2)     (au)      (au)      (au)
-----------------------------------------------------------------------------
   0    7975.9   1253.8   0.728602056  30.07362  -1.20891  -3.22657  -4.26631
   1   13546.2    738.2   0.438458766  10.65581  -0.68259  -3.16941  -0.38045
   2   15850.8    630.9   0.478348574   9.93504  -0.31979  -3.13547  -0.04018
   3   18866.5    530.0   0.115908440   2.02255  -1.41971  -0.00304  -0.08347
   4   21637.6    462.2   0.293520622   4.46586  -1.48659  -1.03083   1.09238
   5   22543.6    443.6   0.089282618   1.30382  -0.88699  -0.21739  -0.68543
   6   22811.7    438.4   0.039379870   0.56832  -0.21829  -0.56205   0.45252
   7   23445.8    426.5   0.068413470   0.96062   0.14852  -0.54519   0.80083
   8   24233.3    412.7   0.047811494   0.64952   0.51350   0.47548  -0.39970
   9   24825.6    402.8   0.037301470   0.49465   0.28043   0.55383  -0.33058
  10   25525.0    391.8   0.203133832   2.61995   1.58542   0.28571   0.15736
  11   26021.3    384.3   0.095477168   1.20794  -0.31130   1.05232   0.06040
  12   26450.8    378.1   0.059887312   0.74537   0.49811   0.04277   0.70387
  13   26624.7    375.6   0.144494727   1.78666  -1.01734  -0.07793  -0.86349
  14   26933.7    371.3   0.332208442   4.06059  -0.26724  -0.44948   1.94606
  15   27788.6    359.9   0.436601950   5.17244  -0.61626   0.92799   1.98280
  16   28146.6    355.3   0.009224881   0.10790   0.13447  -0.06733   0.29203
  17   28258.3    353.9   0.024996932   0.29122   0.24425  -0.47069   0.10005
  18   28823.5    346.9   0.017087826   0.19517   0.38565   0.09375  -0.19406
  19   29010.6    344.7   0.101684106   1.15391  -1.07149  -0.07057  -0.02901
  20   29138.2    343.2   0.089021884   1.00580  -0.21053  -0.01407   0.98045
  21   29638.1    337.4   0.074448241   0.82695   0.25417   0.79710   0.35635
  22   29847.1    335.0   0.015857610   0.17491   0.14653  -0.35312   0.16954
  23   30587.8    326.9   0.161212457   1.73510   1.28300  -0.24423   0.17134
  24   30651.9    326.2   0.056161088   0.60319  -0.74588  -0.16056  -0.14515
  25   30762.2    325.1   0.093520407   1.00084  -0.88395   0.29301   0.36555
  26   31469.2    317.8   0.006612067   0.06917  -0.01744   0.25237  -0.07193
  27   31789.3    314.6   0.238330915   2.46817   0.45963  -1.33383  -0.69123
  28   32437.6    308.3   0.060639001   0.61543   0.50324  -0.34708  -0.49164
  29   32524.3    307.5   0.012505803   0.12658   0.07069  -0.26470  -0.22698
  30   32743.4    305.4   0.034531818   0.34719  -0.55631  -0.06494   0.18303
  31   33349.0    299.9   0.085704845   0.84605   0.25482  -0.56616  -0.67867
  32   33388.8    299.5   0.078736930   0.77634  -0.29405   0.07792   0.82692
  33   33412.9    299.3   0.134201949   1.32227  -1.03744  -0.39278   0.30285
  34   33658.6    297.1   0.060692740   0.59363  -0.47015   0.28405  -0.54028
  35   33738.5    296.4   0.033640231   0.32825   0.38906   0.37368  -0.19300
  36   33882.3    295.1   0.273563052   2.65803   1.48853   0.25139   0.61572
  37   34173.7    292.6   0.082308850   0.79292   0.57123  -0.02296  -0.68271
  38   34766.9    287.6   0.322037895   3.04942  -1.34174  -0.38454   1.04942
  39   34819.0    287.2   0.080630436   0.76236   0.25501  -0.40677  -0.72929
  40   35291.5    283.4   0.039378558   0.36734  -0.49109   0.32612   0.14076
  41   35354.4    282.9   0.109855549   1.02295  -0.74642   0.67128  -0.12322
  42   35902.5    278.5   0.016381909   0.15022   0.03485  -0.32139  -0.21380
  43   35954.7    278.1   0.006768536   0.06197  -0.15851   0.03720   0.18832
  44   36112.7    276.9   0.340945609   3.10814   0.99854  -1.45098  -0.07569
  45   36351.1    275.1   0.112490655   1.01877   0.51554  -0.84352  -0.20359
  46   36980.8    270.4   0.053548988   0.47671  -0.65218  -0.14776   0.17184
  47   37222.3    268.7   0.066266411   0.58609  -0.65235  -0.35690   0.18207
  48   37448.6    267.0   0.023990736   0.21090   0.24669   0.17759   0.34425
  49   37489.0    266.7   0.071761393   0.63018   0.71292  -0.11130  -0.33095
  50   37811.3    264.5   0.099159801   0.86335   0.54338  -0.73743  -0.15586
  51   38188.8    261.9   0.027952725   0.24097   0.26112  -0.36979   0.18985
  52   38279.0    261.2   0.049195387   0.42310   0.23012   0.14116  -0.59179
  53   38388.4    260.5   0.183819180   1.57640  -0.47328   0.16998   1.15044
  54   38426.9    260.2   0.025686932   0.22007   0.10000  -0.11567   0.44349
  55   38687.5    258.5   0.058222659   0.49545  -0.09770   0.69004  -0.09871
  56   38783.0    257.8   0.038412294   0.32607  -0.06604   0.21960  -0.52295
  57   39056.8    256.0   0.005737765   0.04836  -0.21650   0.02334  -0.03079
  58   39155.8    255.4   0.102468417   0.86153   0.61534  -0.66999   0.18439
  59   39652.4    252.2   0.024708411   0.20514  -0.33140   0.28061  -0.12873
  60   39858.7    250.9   0.054631172   0.45122   0.13305   0.42143  -0.50589
  61   40151.8    249.1   0.015283893   0.12532   0.26706  -0.10192  -0.20882
  62   40166.6    249.0   0.015026708   0.12316  -0.07902  -0.25358   0.22938

FINAL SINGLE POINT ENERGY     -5210.951299223256

DIPOLE MOMENT
-------------
                                X             Y             Z
Electronic contribution:     41.50483      20.44193      21.23938
Nuclear contribution   :    -43.20084     -23.87790     -22.96672
                        -----------------------------------------
Total Dipole Moment    :     -1.69601      -3.43597      -1.72735
                        -----------------------------------------
Magnitude (a.u.)       :      4.20311
Magnitude (Debye)      :     10.68345

Rotational constants in cm-1:     0.000964     0.000311     0.000289
Rotational constants in MHz :    28.889182     9.322716     8.677782

                             ****ORCA TERMINATED NORMALLY****
TOTAL RUN TIME: 0 days 0 hours 12 minutes 42 seconds 690 msec
