                         Program Version 4.2.0 -  RELEASE  -
|  1> # ORCA input file
|  2> # SCF done       -192.749166946621          0.000674905451
|  3> ! CAM-B3LYP def2-SVP def2/J RIJCOSX Grid4 TightSCF
|  4> %maxcore 5000
|  5> %tddft
|  6>     Mode sTDDFT
|  7>     Ethresh 5.0
|  8>     maxcore 5000
|  9> end
| 10>
| 11> %pal
| 12>   nprocs 6
| 13>   end
| 14> * xyz 0 1
| 15>    C       13.58618        -5.15168         6.22303
| 16>    C       13.50824        -5.50120         7.54254
| 17>    F       14.62595        -5.50777         8.29246
| 18>    C       12.29966        -5.85625         8.15609
| 19>    C       11.15389        -5.85258         7.40989
| 20>    C       11.17639        -5.49891         6.04551
| 21>    C       12.41645        -5.14449         5.43902
| 22>    C       12.46625        -4.79863         4.06764
| 23>    C       11.31216        -4.80152         3.33365
| 24>    C       10.07248        -5.13858         3.95013
| 25>    C        9.99667        -5.48597         5.26727
| 26>    C        8.98933        -5.02670         2.95412
| 27>    O        7.81208        -5.26927         3.10239
| 28>    C        9.63781        -4.48645         1.73101
| 29>    C       11.06445        -4.54571         1.91578
| 30>    C       12.01111        -4.62835         0.92304
| 31>    C       11.67924        -4.74240        -0.44056
| 32>    N       11.43854        -4.88797        -1.55419
| 33>    C       13.39604        -4.69959         1.15987
| 34>    N       14.53672        -4.71546         1.29523
| 35>    C        8.83554        -3.95824         0.75379
| 36>    C        9.10049        -3.02806        -0.25782
| 37>    S       10.54269        -2.06115        -0.34479
| 38>    C        9.98704        -1.15892        -1.70651
| 39>    C        8.70009        -1.58467        -2.09025
| 40>    C        8.19702        -2.63552        -1.27031
| 41>    C        6.93048        -3.18344        -1.53282
| 42>    C        6.19805        -2.68349        -2.57376
| 43>    F        4.98473        -3.18548        -2.83767
| 44>    C        6.69583        -1.64095        -3.38559
| 45>    F        5.94033        -1.18426        -4.39524
| 46>    C        7.92721        -1.09479        -3.15795
| 47>    C       10.76877        -0.15059        -2.31241
| 48>    C       12.06029         0.12513        -2.00325
| 49>    C       12.79787         1.15698        -2.65384
| 50>    C       14.09570         1.45197        -2.44913
| 51>    C       14.99401         0.69755        -1.52099
| 52>    C       14.73461         2.59792        -3.19199
| 53>    N       15.74224         2.11939        -4.10604
| 54>    C       17.02453         2.50677        -4.12373
| 55>    C       17.96050         2.01772        -4.98831
| 56>    C       19.28368         2.47482        -5.02785
| 57>    C       20.23489         2.02099        -5.91035
| 58>    C       21.57524         2.45017        -6.02824
| 59>    C       22.28078         1.81854        -7.01078
| 60>    C       21.53339         0.85265        -7.71700
| 61>    S       19.90637         0.77015        -7.10501
| 62>    C       21.95542         0.03612        -8.75784
| 63>    C       23.22080        -0.01544        -9.36852
| 64>    C       23.30995        -0.94696       -10.36670
| 65>    C       22.12169        -1.67211       -10.58583
| 66>    S       20.87486        -1.13060        -9.48881
| 67>    C       21.92210        -2.68223       -11.51467
| 68>    C       20.71601        -3.35104       -11.64937
| 69>    C       20.46708        -4.37965       -12.54349
| 70>    C       19.23153        -5.09469       -12.70073
| 71>    C       18.04961        -4.88631       -12.02255
| 72>    C       16.87396        -5.62980       -12.23731
| 73>    N       15.88176        -6.19745       -12.35919
| 74>    C       17.82605        -3.91195       -11.03152
| 75>    N       17.54573        -3.14882       -10.21798
| 76>    C       19.43293        -6.11037       -13.73477
| 77>    C       20.76269        -6.01292       -14.20966
| 78>    C       21.45745        -4.92473       -13.48520
| 79>    O       22.61175        -4.57712       -13.65465
| 80>    C       21.26286        -6.83450       -15.18813
| 81>    C       20.40843        -7.80400       -15.72648
| 82>    C       19.08307        -7.89459       -15.24568
| 83>    C       18.57663        -7.06097       -14.25453
| 84>    S       18.19822        -9.16066       -16.04448
| 85>    C       19.60507        -9.54379       -17.00043
| 86>    C       20.68144        -8.76674       -16.73749
| 87>   Br       19.51959       -10.93554       -18.25674
| 88>    H       14.53549        -4.88875         5.78310
| 89>    H       12.29939        -6.12432         9.20068
| 90>    H       10.21032        -6.12243         7.85982
| 91>    H       13.41730        -4.53229         3.63393
| 92>    H        9.04867        -5.74991         5.71146
| 93>    H        7.79093        -4.23792         0.85647
| 94>    H        6.52779        -3.98694        -0.93858
| 95>    H        8.28440        -0.30586        -3.79872
| 96>    H       10.28611         0.41843        -3.09556
| 97>    H       12.55283        -0.45753        -1.23795
| 98>    H       12.23945         1.75216        -3.36623
| 99>    H       14.84410        -0.37597        -1.60829
|100>    H       14.79111         0.97885        -0.48701
|101>    H       16.03743         0.91869        -1.73314
|102>    H       15.21272         3.28076        -2.48343
|103>    H       13.97148         3.15627        -3.74801
|104>    H       15.45680         1.40050        -4.75570
|105>    H       17.29266         3.27172        -3.40631
|106>    H       17.67332         1.25136        -5.69554
|107>    H       19.58314         3.24507        -4.32871
|108>    H       21.97898         3.21371        -5.38662
|109>    H       23.31116         2.01998        -7.24135
|110>    H       24.03006         0.62500        -9.06632
|111>    H       24.19519        -1.13409       -10.94791
|112>    H       22.75135        -2.95545       -12.15065
|113>    H       19.91091        -3.04168       -10.99383
|114>    H       22.28158        -6.73498       -15.52889
|115>    H       17.55808        -7.17247       -13.92282
|116>    H       21.62962        -8.86600       -17.23376
|117> *
|118>
|119>                          ****END OF INPUT****

CARTESIAN COORDINATES (ANGSTROEM)
---------------------------------
  C     13.586180   -5.151680    6.223030
  C     13.508240   -5.501200    7.542540
  F     14.625950   -5.507770    8.292460
  C     12.299660   -5.856250    8.156090
  C     11.153890   -5.852580    7.409890
  C     11.176390   -5.498910    6.045510
  C     12.416450   -5.144490    5.439020
  C     12.466250   -4.798630    4.067640
  C     11.312160   -4.801520    3.333650
  C     10.072480   -5.138580    3.950130
  C      9.996670   -5.485970    5.267270
  C      8.989330   -5.026700    2.954120
  O      7.812080   -5.269270    3.102390
  C      9.637810   -4.486450    1.731010
  C     11.064450   -4.545710    1.915780
  C     12.011110   -4.628350    0.923040
  C     11.679240   -4.742400   -0.440560
  N     11.438540   -4.887970   -1.554190
  C     13.396040   -4.699590    1.159870
  N     14.536720   -4.715460    1.295230
  C      8.835540   -3.958240    0.753790
  C      9.100490   -3.028060   -0.257820
  S     10.542690   -2.061150   -0.344790
  C      9.987040   -1.158920   -1.706510
  C      8.700090   -1.584670   -2.090250
  C      8.197020   -2.635520   -1.270310
  C      6.930480   -3.183440   -1.532820
  C      6.198050   -2.683490   -2.573760
  F      4.984730   -3.185480   -2.837670
  C      6.695830   -1.640950   -3.385590
  F      5.940330   -1.184260   -4.395240
  C      7.927210   -1.094790   -3.157950
  C     10.768770   -0.150590   -2.312410
  C     12.060290    0.125130   -2.003250
  C     12.797870    1.156980   -2.653840
  C     14.095700    1.451970   -2.449130
  C     14.994010    0.697550   -1.520990
  C     14.734610    2.597920   -3.191990
  N     15.742240    2.119390   -4.106040
  C     17.024530    2.506770   -4.123730
  C     17.960500    2.017720   -4.988310
  C     19.283680    2.474820   -5.027850
  C     20.234890    2.020990   -5.910350
  C     21.575240    2.450170   -6.028240
  C     22.280780    1.818540   -7.010780
  C     21.533390    0.852650   -7.717000
  S     19.906370    0.770150   -7.105010
  C     21.955420    0.036120   -8.757840
  C     23.220800   -0.015440   -9.368520
  C     23.309950   -0.946960  -10.366700
  C     22.121690   -1.672110  -10.585830
  S     20.874860   -1.130600   -9.488810
  C     21.922100   -2.682230  -11.514670
  C     20.716010   -3.351040  -11.649370
  C     20.467080   -4.379650  -12.543490
  C     19.231530   -5.094690  -12.700730
  C     18.049610   -4.886310  -12.022550
  C     16.873960   -5.629800  -12.237310
  N     15.881760   -6.197450  -12.359190
  C     17.826050   -3.911950  -11.031520
  N     17.545730   -3.148820  -10.217980
  C     19.432930   -6.110370  -13.734770
  C     20.762690   -6.012920  -14.209660
  C     21.457450   -4.924730  -13.485200
  O     22.611750   -4.577120  -13.654650
  C     21.262860   -6.834500  -15.188130
  C     20.408430   -7.804000  -15.726480
  C     19.083070   -7.894590  -15.245680
  C     18.576630   -7.060970  -14.254530
  S     18.198220   -9.160660  -16.044480
  C     19.605070   -9.543790  -17.000430
  C     20.681440   -8.766740  -16.737490
  Br    19.519590  -10.935540  -18.256740
  H     14.535490   -4.888750    5.783100
  H     12.299390   -6.124320    9.200680
  H     10.210320   -6.122430    7.859820
  H     13.417300   -4.532290    3.633930
  H      9.048670   -5.749910    5.711460
  H      7.790930   -4.237920    0.856470
  H      6.527790   -3.986940   -0.938580
  H      8.284400   -0.305860   -3.798720
  H     10.286110    0.418430   -3.095560
  H     12.552830   -0.457530   -1.237950
  H     12.239450    1.752160   -3.366230
  H     14.844100   -0.375970   -1.608290
  H     14.791110    0.978850   -0.487010
  H     16.037430    0.918690   -1.733140
  H     15.212720    3.280760   -2.483430
  H     13.971480    3.156270   -3.748010
  H     15.456800    1.400500   -4.755700
  H     17.292660    3.271720   -3.406310
  H     17.673320    1.251360   -5.695540
  H     19.583140    3.245070   -4.328710
  H     21.978980    3.213710   -5.386620
  H     23.311160    2.019980   -7.241350
  H     24.030060    0.625000   -9.066320
  H     24.195190   -1.134090  -10.947910
  H     22.751350   -2.955450  -12.150650
  H     19.910910   -3.041680  -10.993830
  H     22.281580   -6.734980  -15.528890
  H     17.558080   -7.172470  -13.922820
  H     21.629620   -8.866000  -17.233760

 Total Charge           Charge          ....    0
 Multiplicity           Mult            ....    1
 Number of Electrons    NEL             ....  554
 Basis Dimension        Dim             .... 1201

ORBITAL ENERGIES
----------------

  NO   OCC          E(Eh)            E(eV)
   0   2.0000    -482.867826    -13139.5015
   1   2.0000     -88.991737     -2421.5883
   2   2.0000     -88.955116     -2420.5918
   3   2.0000     -88.953205     -2420.5398
   4   2.0000     -88.944552     -2420.3043
   5   2.0000     -62.545528     -1701.9503
   6   2.0000     -56.379450     -1534.1628
   7   2.0000     -56.376786     -1534.0904
   8   2.0000     -56.376743     -1534.0892
   9   2.0000     -24.801996      -674.8966
  10   2.0000     -24.799918      -674.8401
  11   2.0000     -24.786341      -674.4706
  12   2.0000     -19.211824      -522.7803
  13   2.0000     -19.182592      -521.9849
  14   2.0000     -14.474010      -393.8578
  15   2.0000     -14.416573      -392.2949
  16   2.0000     -14.414507      -392.2387
  17   2.0000     -14.385359      -391.4455
  18   2.0000     -14.382689      -391.3729
  19   2.0000     -10.387487      -282.6579
  20   2.0000     -10.383673      -282.5541
  21   2.0000     -10.369896      -282.1792
  22   2.0000     -10.363582      -282.0074
  23   2.0000     -10.353554      -281.7345
  24   2.0000     -10.344259      -281.4816
  25   2.0000     -10.342863      -281.4436
  26   2.0000     -10.341886      -281.4170
  27   2.0000     -10.341276      -281.4004
  28   2.0000     -10.337220      -281.2901
  29   2.0000     -10.332906      -281.1727
  30   2.0000     -10.327773      -281.0330
  31   2.0000     -10.327134      -281.0156
  32   2.0000     -10.323892      -280.9274
  33   2.0000     -10.319691      -280.8131
  34   2.0000     -10.318315      -280.7756
  35   2.0000     -10.316445      -280.7247
  36   2.0000     -10.314349      -280.6677
  37   2.0000     -10.312965      -280.6300
  38   2.0000     -10.312532      -280.6183
  39   2.0000     -10.310834      -280.5720
  40   2.0000     -10.310701      -280.5684
  41   2.0000     -10.309924      -280.5473
  42   2.0000     -10.309232      -280.5285
  43   2.0000     -10.308041      -280.4961
  44   2.0000     -10.307014      -280.4681
  45   2.0000     -10.306293      -280.4485
  46   2.0000     -10.306030      -280.4413
  47   2.0000     -10.305287      -280.4211
  48   2.0000     -10.303266      -280.3661
  49   2.0000     -10.303262      -280.3660
  50   2.0000     -10.301028      -280.3052
  51   2.0000     -10.300182      -280.2822
  52   2.0000     -10.299969      -280.2764
  53   2.0000     -10.299513      -280.2640
  54   2.0000     -10.299150      -280.2541
  55   2.0000     -10.298218      -280.2287
  56   2.0000     -10.298042      -280.2240
  57   2.0000     -10.295184      -280.1462
  58   2.0000     -10.294735      -280.1340
  59   2.0000     -10.291179      -280.0372
  60   2.0000     -10.290914      -280.0300
  61   2.0000     -10.290305      -280.0134
  62   2.0000     -10.289597      -279.9942
  63   2.0000     -10.289539      -279.9926
  64   2.0000     -10.289453      -279.9903
  65   2.0000     -10.288127      -279.9542
  66   2.0000     -10.282815      -279.8096
  67   2.0000     -10.282094      -279.7900
  68   2.0000     -10.279364      -279.7157
  69   2.0000     -10.278978      -279.7052
  70   2.0000     -10.277925      -279.6766
  71   2.0000     -10.275923      -279.6221
  72   2.0000     -10.274237      -279.5762
  73   2.0000     -10.274151      -279.5739
  74   2.0000     -10.263169      -279.2750
  75   2.0000     -10.255276      -279.0603
  76   2.0000     -10.253086      -279.0007
  77   2.0000      -8.774951      -238.7786
  78   2.0000      -8.086223      -220.0373
  79   2.0000      -8.051363      -219.0887
  80   2.0000      -8.049256      -219.0314
  81   2.0000      -8.040514      -218.7935
  82   2.0000      -6.611107      -179.8974
  83   2.0000      -6.596730      -179.5062
  84   2.0000      -6.596596      -179.5025
  85   2.0000      -6.055159      -164.7692
  86   2.0000      -6.051108      -164.6590
  87   2.0000      -6.049042      -164.6028
  88   2.0000      -6.020955      -163.8385
  89   2.0000      -6.018956      -163.7841
  90   2.0000      -6.016940      -163.7292
  91   2.0000      -6.014709      -163.6686
  92   2.0000      -6.012518      -163.6089
  93   2.0000      -6.010435      -163.5523
  94   2.0000      -6.010056      -163.5419
  95   2.0000      -6.006040      -163.4326
  96   2.0000      -6.001815      -163.3177
  97   2.0000      -2.727049       -74.2068
  98   2.0000      -2.722937       -74.0949
  99   2.0000      -2.722846       -74.0924
 100   2.0000      -2.711406       -73.7811
 101   2.0000      -2.711399       -73.7809
 102   2.0000      -1.323949       -36.0265
 103   2.0000      -1.308696       -35.6114
 104   2.0000      -1.301085       -35.4043
 105   2.0000      -1.127041       -30.6683
 106   2.0000      -1.095672       -29.8147
 107   2.0000      -1.073459       -29.2103
 108   2.0000      -1.028633       -27.9905
 109   2.0000      -1.017477       -27.6870
 110   2.0000      -1.000754       -27.2319
 111   2.0000      -1.000463       -27.2240
 112   2.0000      -0.996399       -27.1134
 113   2.0000      -0.994116       -27.0513
 114   2.0000      -0.984296       -26.7840
 115   2.0000      -0.976619       -26.5751
 116   2.0000      -0.975951       -26.5570
 117   2.0000      -0.964842       -26.2547
 118   2.0000      -0.963671       -26.2228
 119   2.0000      -0.959531       -26.1102
 120   2.0000      -0.951009       -25.8783
 121   2.0000      -0.933474       -25.4011
 122   2.0000      -0.923505       -25.1298
 123   2.0000      -0.917278       -24.9604
 124   2.0000      -0.914220       -24.8772
 125   2.0000      -0.899043       -24.4642
 126   2.0000      -0.891256       -24.2523
 127   2.0000      -0.886987       -24.1361
 128   2.0000      -0.884336       -24.0640
 129   2.0000      -0.880945       -23.9717
 130   2.0000      -0.868576       -23.6351
 131   2.0000      -0.864647       -23.5282
 132   2.0000      -0.859765       -23.3954
 133   2.0000      -0.854585       -23.2545
 134   2.0000      -0.849588       -23.1185
 135   2.0000      -0.848612       -23.0919
 136   2.0000      -0.835676       -22.7399
 137   2.0000      -0.830564       -22.6008
 138   2.0000      -0.823572       -22.4105
 139   2.0000      -0.821327       -22.3494
 140   2.0000      -0.809274       -22.0215
 141   2.0000      -0.804260       -21.8850
 142   2.0000      -0.800630       -21.7862
 143   2.0000      -0.779571       -21.2132
 144   2.0000      -0.771383       -20.9904
 145   2.0000      -0.760352       -20.6902
 146   2.0000      -0.754591       -20.5335
 147   2.0000      -0.749493       -20.3948
 148   2.0000      -0.738497       -20.0955
 149   2.0000      -0.730347       -19.8738
 150   2.0000      -0.726010       -19.7557
 151   2.0000      -0.719324       -19.5738
 152   2.0000      -0.711179       -19.3522
 153   2.0000      -0.708683       -19.2842
 154   2.0000      -0.702012       -19.1027
 155   2.0000      -0.685867       -18.6634
 156   2.0000      -0.682411       -18.5694
 157   2.0000      -0.680107       -18.5066
 158   2.0000      -0.672849       -18.3091
 159   2.0000      -0.669537       -18.2190
 160   2.0000      -0.661318       -17.9954
 161   2.0000      -0.655767       -17.8443
 162   2.0000      -0.650692       -17.7062
 163   2.0000      -0.646681       -17.5971
 164   2.0000      -0.637149       -17.3377
 165   2.0000      -0.635642       -17.2967
 166   2.0000      -0.634094       -17.2546
 167   2.0000      -0.630332       -17.1522
 168   2.0000      -0.630233       -17.1495
 169   2.0000      -0.627248       -17.0683
 170   2.0000      -0.625929       -17.0324
 171   2.0000      -0.617486       -16.8026
 172   2.0000      -0.612763       -16.6741
 173   2.0000      -0.605816       -16.4851
 174   2.0000      -0.604543       -16.4504
 175   2.0000      -0.601250       -16.3608
 176   2.0000      -0.595653       -16.2086
 177   2.0000      -0.593500       -16.1499
 178   2.0000      -0.591966       -16.1082
 179   2.0000      -0.588727       -16.0201
 180   2.0000      -0.583002       -15.8643
 181   2.0000      -0.572074       -15.5669
 182   2.0000      -0.567850       -15.4520
 183   2.0000      -0.567574       -15.4445
 184   2.0000      -0.566680       -15.4202
 185   2.0000      -0.559235       -15.2176
 186   2.0000      -0.558633       -15.2012
 187   2.0000      -0.556407       -15.1406
 188   2.0000      -0.553770       -15.0688
 189   2.0000      -0.551009       -14.9937
 190   2.0000      -0.549891       -14.9633
 191   2.0000      -0.546021       -14.8580
 192   2.0000      -0.539202       -14.6724
 193   2.0000      -0.535214       -14.5639
 194   2.0000      -0.533361       -14.5135
 195   2.0000      -0.531064       -14.4510
 196   2.0000      -0.527026       -14.3411
 197   2.0000      -0.524071       -14.2607
 198   2.0000      -0.523786       -14.2529
 199   2.0000      -0.520701       -14.1690
 200   2.0000      -0.518778       -14.1167
 201   2.0000      -0.513673       -13.9777
 202   2.0000      -0.512640       -13.9496
 203   2.0000      -0.511084       -13.9073
 204   2.0000      -0.510112       -13.8809
 205   2.0000      -0.504876       -13.7384
 206   2.0000      -0.503524       -13.7016
 207   2.0000      -0.501733       -13.6529
 208   2.0000      -0.499972       -13.6049
 209   2.0000      -0.497869       -13.5477
 210   2.0000      -0.497283       -13.5318
 211   2.0000      -0.495534       -13.4842
 212   2.0000      -0.492368       -13.3980
 213   2.0000      -0.489615       -13.3231
 214   2.0000      -0.485977       -13.2241
 215   2.0000      -0.483605       -13.1596
 216   2.0000      -0.483579       -13.1588
 217   2.0000      -0.481923       -13.1138
 218   2.0000      -0.479231       -13.0405
 219   2.0000      -0.476962       -12.9788
 220   2.0000      -0.475382       -12.9358
 221   2.0000      -0.473859       -12.8944
 222   2.0000      -0.468186       -12.7400
 223   2.0000      -0.467222       -12.7137
 224   2.0000      -0.466183       -12.6855
 225   2.0000      -0.462629       -12.5888
 226   2.0000      -0.461745       -12.5647
 227   2.0000      -0.458842       -12.4857
 228   2.0000      -0.457195       -12.4409
 229   2.0000      -0.455413       -12.3924
 230   2.0000      -0.451873       -12.2961
 231   2.0000      -0.448001       -12.1907
 232   2.0000      -0.444880       -12.1058
 233   2.0000      -0.444783       -12.1032
 234   2.0000      -0.444428       -12.0935
 235   2.0000      -0.442250       -12.0342
 236   2.0000      -0.438296       -11.9266
 237   2.0000      -0.436730       -11.8840
 238   2.0000      -0.435667       -11.8551
 239   2.0000      -0.433354       -11.7922
 240   2.0000      -0.427188       -11.6244
 241   2.0000      -0.426422       -11.6035
 242   2.0000      -0.425292       -11.5728
 243   2.0000      -0.422761       -11.5039
 244   2.0000      -0.420999       -11.4560
 245   2.0000      -0.418107       -11.3773
 246   2.0000      -0.415553       -11.3078
 247   2.0000      -0.413803       -11.2601
 248   2.0000      -0.408310       -11.1107
 249   2.0000      -0.406252       -11.0547
 250   2.0000      -0.400614       -10.9013
 251   2.0000      -0.398724       -10.8498
 252   2.0000      -0.397522       -10.8171
 253   2.0000      -0.393918       -10.7190
 254   2.0000      -0.387373       -10.5410
 255   2.0000      -0.385628       -10.4935
 256   2.0000      -0.378369       -10.2959
 257   2.0000      -0.377774       -10.2798
 258   2.0000      -0.370798       -10.0899
 259   2.0000      -0.361102        -9.8261
 260   2.0000      -0.357476        -9.7274
 261   2.0000      -0.348788        -9.4910
 262   2.0000      -0.344773        -9.3818
 263   2.0000      -0.338305        -9.2057
 264   2.0000      -0.335662        -9.1338
 265   2.0000      -0.330489        -8.9931
 266   2.0000      -0.327557        -8.9133
 267   2.0000      -0.323185        -8.7943
 268   2.0000      -0.313232        -8.5235
 269   2.0000      -0.311094        -8.4653
 270   2.0000      -0.303532        -8.2595
 271   2.0000      -0.299034        -8.1371
 272   2.0000      -0.290702        -7.9104
 273   2.0000      -0.273800        -7.4505
 274   2.0000      -0.265687        -7.2297
 275   2.0000      -0.258555        -7.0356
 276   2.0000      -0.208641        -5.6774
 277   0.0000      -0.113028        -3.0757
 278   0.0000      -0.091628        -2.4933
 279   0.0000      -0.064790        -1.7630
 280   0.0000      -0.046841        -1.2746
 281   0.0000      -0.042919        -1.1679

MULLIKEN ATOMIC CHARGES
-----------------------
   0 C :   -0.098857
   1 C :    0.303835
   2 F :   -0.191831
   3 C :   -0.031491
   4 C :   -0.009736
   5 C :    0.100591
   6 C :    0.103334
   7 C :   -0.088087
   8 C :    0.042656
   9 C :    0.009791
  10 C :   -0.081865
  11 C :    0.138493
  12 O :   -0.151232
  13 C :   -0.139299
  14 C :    0.257663
  15 C :   -0.334343
  16 C :   -0.225762
  17 N :    0.175974
  18 C :   -0.168243
  19 N :    0.141823
  20 C :    0.009060
  21 C :   -0.105072
  22 S :    0.181033
  23 C :   -0.058532
  24 C :    0.121241
  25 C :    0.160618
  26 C :   -0.109466
  27 C :    0.237837
  28 F :   -0.167026
  29 C :    0.228849
  30 F :   -0.173063
  31 C :   -0.111344
  32 C :   -0.009827
  33 C :    0.017149
  34 C :    0.005725
  35 C :   -0.212363
  36 C :    0.083303
  37 C :    0.222489
  38 N :   -0.138587
  39 C :    0.070614
  40 C :   -0.038310
  41 C :    0.017588
  42 C :   -0.055667
  43 C :    0.058289
  44 C :    0.004131
  45 C :   -0.019519
  46 S :    0.101673
  47 C :   -0.063225
  48 C :    0.044185
  49 C :    0.013085
  50 C :    0.009764
  51 S :    0.102787
  52 C :   -0.030836
  53 C :   -0.039718
  54 C :   -0.099441
  55 C :    0.332548
  56 C :   -0.374762
  57 C :   -0.191426
  58 N :    0.126829
  59 C :   -0.190725
  60 N :    0.116924
  61 C :    0.009594
  62 C :   -0.007563
  63 C :    0.132516
  64 O :   -0.172848
  65 C :   -0.080679
  66 C :    0.115409
  67 C :   -0.092746
  68 C :   -0.026675
  69 S :    0.173024
  70 C :   -0.123916
  71 C :    0.035883
  72 Br:    0.006270
  73 H :   -0.004165
  74 H :    0.003619
  75 H :   -0.009740
  76 H :   -0.007373
  77 H :   -0.012314
  78 H :    0.018601
  79 H :    0.005674
  80 H :   -0.006308
  81 H :   -0.006414
  82 H :    0.007498
  83 H :   -0.020666
  84 H :    0.049418
  85 H :    0.042303
  86 H :    0.018944
  87 H :    0.025730
  88 H :    0.019979
  89 H :    0.134831
  90 H :    0.012512
  91 H :    0.004575
  92 H :   -0.010840
  93 H :   -0.009958
  94 H :   -0.012019
  95 H :   -0.012463
  96 H :   -0.007457
  97 H :    0.009942
  98 H :    0.009398
  99 H :   -0.019688
 100 H :   -0.012661
 101 H :   -0.009452
Sum of atomic charges:   -0.0000000

LOEWDIN ATOMIC CHARGES
----------------------
   0 C :   -0.043329
   1 C :    0.092927
   2 F :   -0.066048
   3 C :   -0.037915
   4 C :    0.004702
   5 C :   -0.019397
   6 C :    0.002894
   7 C :    0.007309
   8 C :   -0.015867
   9 C :   -0.058162
  10 C :    0.033214
  11 C :    0.080995
  12 O :   -0.152294
  13 C :   -0.109389
  14 C :    0.061996
  15 C :   -0.155199
  16 C :   -0.042167
  17 N :   -0.050823
  18 C :   -0.020252
  19 N :   -0.059377
  20 C :    0.046251
  21 C :   -0.190661
  22 S :    0.528907
  23 C :   -0.135587
  24 C :   -0.047943
  25 C :   -0.011517
  26 C :   -0.037284
  27 C :    0.076887
  28 F :   -0.045234
  29 C :    0.062579
  30 F :   -0.051638
  31 C :   -0.031847
  32 C :   -0.040183
  33 C :    0.000087
  34 C :   -0.047984
  35 C :   -0.028790
  36 C :   -0.053066
  37 C :    0.050480
  38 N :    0.024549
  39 C :    0.067928
  40 C :   -0.125092
  41 C :    0.001284
  42 C :   -0.188381
  43 C :   -0.006542
  44 C :   -0.058391
  45 C :   -0.136754
  46 S :    0.398090
  47 C :   -0.213036
  48 C :   -0.008105
  49 C :   -0.058183
  50 C :   -0.101338
  51 S :    0.411084
  52 C :   -0.086765
  53 C :    0.046178
  54 C :   -0.123097
  55 C :    0.073101
  56 C :   -0.169186
  57 C :   -0.019442
  58 N :   -0.081071
  59 C :   -0.020143
  60 N :   -0.081275
  61 C :   -0.016451
  62 C :   -0.046868
  63 C :    0.079652
  64 O :   -0.166729
  65 C :    0.013309
  66 C :   -0.038734
  67 C :   -0.147535
  68 C :   -0.016463
  69 S :    0.421963
  70 C :   -0.277775
  71 C :   -0.071505
  72 Br:    0.123203
  73 H :    0.042264
  74 H :    0.041837
  75 H :    0.035576
  76 H :    0.038027
  77 H :    0.039507
  78 H :    0.048706
  79 H :    0.046277
  80 H :    0.041635
  81 H :    0.035617
  82 H :    0.025768
  83 H :    0.027897
  84 H :    0.042822
  85 H :    0.044703
  86 H :    0.032348
  87 H :    0.035659
  88 H :    0.027810
  89 H :    0.089862
  90 H :    0.032261
  91 H :    0.024386
  92 H :    0.035216
  93 H :    0.034854
  94 H :    0.032060
  95 H :    0.032501
  96 H :    0.035570
  97 H :    0.036234
  98 H :    0.029568
  99 H :    0.037002
 100 H :    0.039037
 101 H :    0.036238

  Mayer bond orders larger than 0.100000
B(  0-C ,  1-C ) :   1.4393 B(  0-C ,  6-C ) :   1.2045 B(  0-C , 73-H ) :   1.0065
B(  1-C ,  2-F ) :   1.0869 B(  1-C ,  3-C ) :   1.2574 B(  3-C ,  4-C ) :   1.4593
B(  3-C , 74-H ) :   0.9925 B(  4-C ,  5-C ) :   1.2353 B(  4-C , 75-H ) :   0.9972
B(  5-C ,  6-C ) :   1.2587 B(  5-C , 10-C ) :   1.1876 B(  6-C ,  7-C ) :   1.1971
B(  7-C ,  8-C ) :   1.4685 B(  7-C , 76-H ) :   0.9941 B(  8-C ,  9-C ) :   1.2161
B(  8-C , 14-C ) :   0.9998 B(  9-C , 10-C ) :   1.4784 B(  9-C , 11-C ) :   0.9244
B( 10-C , 77-H ) :   1.0153 B( 11-C , 12-O ) :   2.2453 B( 11-C , 13-C ) :   0.9546
B( 13-C , 14-C ) :   1.0606 B( 13-C , 20-C ) :   1.5674 B( 14-C , 15-C ) :   1.6193
B( 15-C , 16-C ) :   1.1619 B( 15-C , 18-C ) :   1.1357 B( 16-C , 17-N ) :   3.0220
B( 18-C , 19-N ) :   2.9789 B( 20-C , 21-C ) :   1.2453 B( 20-C , 78-H ) :   0.9303
B( 21-C , 22-S ) :   1.1078 B( 21-C , 25-C ) :   1.2735 B( 22-S , 23-C ) :   1.1999
B( 23-C , 24-C ) :   1.2901 B( 23-C , 32-C ) :   1.1631 B( 24-C , 25-C ) :   1.2353
B( 24-C , 31-C ) :   1.1706 B( 25-C , 26-C ) :   1.1897 B( 26-C , 27-C ) :   1.4794
B( 26-C , 31-C ) :   0.1113 B( 26-C , 79-H ) :   0.9977 B( 27-C , 28-F ) :   1.1406
B( 27-C , 29-C ) :   1.1655 B( 29-C , 30-F ) :   1.1337 B( 29-C , 31-C ) :   1.4973
B( 31-C , 80-H ) :   0.9980 B( 32-C , 33-C ) :   1.6494 B( 32-C , 81-H ) :   0.9759
B( 33-C , 34-C ) :   1.1233 B( 33-C , 82-H ) :   0.9715 B( 34-C , 35-C ) :   1.7387
B( 34-C , 83-H ) :   0.9791 B( 35-C , 36-C ) :   1.0667 B( 35-C , 37-C ) :   1.0555
B( 36-C , 84-H ) :   0.9488 B( 36-C , 85-H ) :   0.9447 B( 36-C , 86-H ) :   0.9533
B( 37-C , 38-N ) :   0.9801 B( 37-C , 87-H ) :   0.9274 B( 37-C , 88-H ) :   0.9369
B( 38-N , 39-C ) :   1.2776 B( 38-N , 89-H ) :   0.9345 B( 39-C , 40-C ) :   1.5325
B( 39-C , 90-H ) :   0.9687 B( 40-C , 41-C ) :   1.2199 B( 40-C , 91-H ) :   0.9658
B( 41-C , 42-C ) :   1.5313 B( 41-C , 92-H ) :   0.9798 B( 42-C , 43-C ) :   1.1767
B( 42-C , 46-S ) :   1.0154 B( 43-C , 44-C ) :   1.5464 B( 43-C , 93-H ) :   0.9991
B( 44-C , 45-C ) :   1.2257 B( 44-C , 94-H ) :   0.9945 B( 45-C , 46-S ) :   1.1045
B( 45-C , 47-C ) :   1.4154 B( 47-C , 48-C ) :   1.2575 B( 47-C , 51-S ) :   1.0416
B( 48-C , 49-C ) :   1.4955 B( 48-C , 95-H ) :   0.9940 B( 49-C , 50-C ) :   1.2176
B( 49-C , 96-H ) :   1.0019 B( 50-C , 51-S ) :   1.1020 B( 50-C , 52-C ) :   1.3574
B( 52-C , 53-C ) :   1.3195 B( 52-C , 97-H ) :   0.9793 B( 53-C , 54-C ) :   1.4193
B( 53-C , 98-H ) :   0.9427 B( 54-C , 55-C ) :   1.1419 B( 54-C , 63-C ) :   0.9810
B( 55-C , 56-C ) :   1.5560 B( 55-C , 61-C ) :   0.9817 B( 56-C , 57-C ) :   1.1541
B( 56-C , 59-C ) :   1.1567 B( 57-C , 58-N ) :   2.9577 B( 59-C , 60-N ) :   2.9542
B( 61-C , 62-C ) :   1.2786 B( 61-C , 68-C ) :   1.4279 B( 62-C , 63-C ) :   0.9311
B( 62-C , 65-C ) :   1.4365 B( 63-C , 64-O ) :   2.1798 B( 65-C , 66-C ) :   1.2355
B( 65-C , 99-H ) :   1.0151 B( 66-C , 67-C ) :   1.3231 B( 66-C , 71-C ) :   1.1585
B( 67-C , 68-C ) :   1.3140 B( 67-C , 69-S ) :   1.0800 B( 68-C ,100-H ) :   0.9781
B( 69-S , 70-C ) :   1.0839 B( 70-C , 71-C ) :   1.6236 B( 70-C , 72-Br) :   1.0091
B( 71-C ,101-H ) :   0.9994

-----------------------------------------------------------------------------
         ABSORPTION SPECTRUM VIA TRANSITION ELECTRIC DIPOLE MOMENTS
-----------------------------------------------------------------------------
State   Energy  Wavelength   fosc         T2         TX        TY        TZ
        (cm-1)    (nm)                  (au**2)     (au)      (au)      (au)
-----------------------------------------------------------------------------
   0   11438.6    874.2   0.999193387  28.75764  -0.98671   2.98337   4.34552
   1   12683.4    788.4   0.254846163   6.61483   0.29636   2.15596   1.37071
   2   15572.8    642.1   0.588052125  12.43154   0.09648   2.89178  -2.01490
   3   21214.9    471.4   0.176577107   2.74012  -1.47519   0.14222   0.73736
   4   23391.8    427.5   0.181701255   2.55723  -1.44662   0.16151   0.66215
   5   23474.9    426.0   0.165949549   2.32728   1.47669   0.32106  -0.20874
   6   24200.0    413.2   0.011518631   0.15670  -0.21372  -0.18690  -0.27584
   7   24854.6    402.3   0.028449944   0.37683  -0.56219  -0.19262  -0.15385
   8   25560.9    391.2   0.485332352   6.25084   2.22811   0.01764  -1.13405
   9   25758.2    388.2   0.026076482   0.33328   0.03424   0.57586  -0.02227
  10   26722.8    374.2   0.531215172   6.54430  -2.19374  -1.28265   0.29431
  11   27021.1    370.1   0.136826183   1.66702  -0.52708  -0.33131  -1.13112
  12   27755.9    360.3   0.049338390   0.58520  -0.67100  -0.33093   0.15952
  13   27963.9    357.6   0.000277162   0.00326  -0.05400  -0.01702   0.00757
  14   28227.6    354.3   0.031789073   0.37075   0.41574   0.40657  -0.18058
  15   28289.1    353.5   0.045647046   0.53121  -0.21263   0.02875   0.69655
  16   28576.6    349.9   0.007788831   0.08973  -0.13525  -0.09263   0.25071
  17   29005.4    344.8   0.062214046   0.70613   0.57367   0.02783   0.61340
  18   29622.6    337.6   0.009933291   0.11039  -0.19266  -0.23732  -0.13022
  19   29999.7    333.3   0.066895327   0.73410   0.23183  -0.31931   0.76052
  20   30385.2    329.1   0.399934431   4.33314   1.87290   0.33777   0.84339
  21   31149.8    321.0   0.008627020   0.09118  -0.26344  -0.13881   0.05005
  22   31929.1    313.2   0.129609328   1.33637   0.55706   0.81762   0.59795
  23   32130.2    311.2   0.000422491   0.00433  -0.01996   0.04721   0.04126
  24   32388.6    308.8   0.255531014   2.59733   0.13104  -0.47701  -1.53383
  25   32423.1    308.4   0.044505853   0.45190  -0.23939   0.52336  -0.34739
  26   32591.0    306.8   0.113900045   1.15054   0.18985  -0.73853  -0.75437
  27   32944.3    303.5   0.163727183   1.63612  -0.16274   0.82884   0.96055
  28   33532.6    298.2   0.005443745   0.05344  -0.20156   0.06886  -0.08986
  29   33584.0    297.8   0.584790779   5.73249   1.12219  -0.38569   2.07952
  30   33735.9    296.4   0.066757643   0.65145   0.57686   0.10495   0.55469
  31   33821.1    295.7   0.248822492   2.42202   0.79836  -0.89267  -0.99387
  32   34858.1    286.9   0.067343586   0.63602  -0.74324  -0.27401   0.09234
  33   35175.3    284.3   0.224704871   2.10305   1.40690   0.05732  -0.34697
  34   35374.7    282.7   0.000343563   0.00320  -0.03248   0.03246   0.03300
  35   35443.4    282.1   0.185773563   1.72554   0.93562   0.83422   0.39271
  36   36042.6    277.4   0.050406233   0.46041  -0.57788  -0.11022  -0.33811
  37   36177.6    276.4   0.006302119   0.05735   0.17423   0.06922   0.14900
  38   36361.3    275.0   0.148111770   1.34099  -1.10070  -0.05870   0.35496
  39   36426.1    274.5   0.269509585   2.43578   0.24213  -0.04990   1.54099
  40   37153.2    269.2   0.032068585   0.28416  -0.33719  -0.34536  -0.22626
  41   37669.6    265.5   0.112761585   0.98547   0.97133  -0.19086  -0.07457
  42   38024.4    263.0   0.000869789   0.00753  -0.02027   0.05220   0.06630
  43   38260.2    261.4   0.120273564   1.03490  -0.77406  -0.25893   0.60719
  44   38376.5    260.6   0.035814583   0.30723   0.00381  -0.23097  -0.50386
  45   38455.3    260.0   0.206979193   1.77193   1.14204  -0.14287  -0.66878
  46   38767.3    257.9   0.162021188   1.37588  -0.92797  -0.26148   0.66811
  47   39104.1    255.7   0.003716899   0.03129   0.09329   0.04704  -0.14274
  48   39468.6    253.4   0.005538540   0.04620   0.19923   0.07806  -0.02029
  49   40248.1    248.5   0.327507696   2.67887   1.11810  -0.11028   1.19020

FINAL SINGLE POINT ENERGY     -7113.785906846145

DIPOLE MOMENT
-------------
                                X             Y             Z
Electronic contribution:      7.83378    -121.96978    -147.80844
Nuclear contribution   :     -7.86216     127.74764     152.96057
                        -----------------------------------------
Total Dipole Moment    :     -0.02838       5.77786       5.15213
                        -----------------------------------------
Magnitude (a.u.)       :      7.74138
Magnitude (Debye)      :     19.67701

Rotational constants in cm-1:     0.000687     0.000187     0.000171
Rotational constants in MHz :    20.608382     5.595725     5.122998

                             ****ORCA TERMINATED NORMALLY****
TOTAL RUN TIME: 0 days 0 hours 11 minutes 2 seconds 629 msec
