                         Program Version 4.2.0 -  RELEASE  -
|  1> # ORCA input file
|  2> # SCF done       -176.480798315540          0.000934171562
|  3> ! CAM-B3LYP def2-SVP def2/J RIJCOSX Grid4 TightSCF
|  4> %maxcore 5000
|  5> %tddft
|  6>     Mode sTDDFT
|  7>     Ethresh 5.0
|  8>     maxcore 5000
|  9> end
| 10>
| 11> %pal
| 12>   nprocs 6
| 13>   end
| 14> * xyz 0 1
| 15>    C       -0.89879         0.43783         0.94646
| 16>    C       -2.06883         1.05704         0.60493
| 17>    F       -3.24070         0.46592         0.89857
| 18>    C       -2.10059         2.29737        -0.04735
| 19>    C       -0.91947         2.91305        -0.35502
| 20>    C        0.31669         2.31914        -0.02683
| 21>    C        0.32778         1.05818         0.63864
| 22>    C        1.55484         0.44648         0.98581
| 23>    C        2.73003         1.07477         0.67318
| 24>    C        2.71267         2.32746        -0.00658
| 25>    C        1.54277         2.94360        -0.34684
| 26>    C        4.09805         2.76395        -0.25985
| 27>    O        4.47715         3.79711        -0.75911
| 28>    C        4.95241         1.61885         0.17811
| 29>    C        4.11794         0.70499         0.92888
| 30>    C        4.54173        -0.19234         1.87115
| 31>    C        5.88768        -0.33309         2.26427
| 32>    N        6.96713        -0.46530         2.63190
| 33>    C        3.68004        -1.04308         2.59222
| 34>    N        3.03144        -1.77915         3.18817
| 35>    C        6.23302         1.55520        -0.26154
| 36>    C        7.14038         0.44991        -0.29895
| 37>    C        8.51576         0.66847        -0.36913
| 38>    N        9.45816        -0.26000        -0.41735
| 39>    C        9.15335        -1.54662        -0.40609
| 40>    C        7.77937        -1.92355        -0.36908
| 41>    C        6.75967        -0.91625        -0.32889
| 42>    N        5.53711        -1.44756        -0.36275
| 43>    S        5.66868        -3.05068        -0.41347
| 44>    N        7.26908        -3.15286        -0.41385
| 45>    C       10.14296        -2.58738        -0.46140
| 46>    C       11.48076        -2.46172        -0.53880
| 47>    C       12.21680        -1.17132        -0.56196
| 48>    C       12.35307        -3.68477        -0.61974
| 49>    N       11.69764        -4.79172        -1.27562
| 50>    C       12.25750        -5.99681        -1.44473
| 51>    C       13.33962        -6.48742        -0.77242
| 52>    C       13.97587        -7.71318        -1.09806
| 53>    C       14.67674        -8.45173        -0.07017
| 54>    C       14.93034        -8.10737         1.20957
| 55>    S       15.70473        -9.45657         2.15839
| 56>    F       16.76960       -10.75255         3.00108
| 57>    C       15.83604       -10.37015         0.66114
| 58>    C       15.22764        -9.76968        -0.38428
| 59>    C       15.10786       -10.27362        -1.71468
| 60>    C       14.49435        -9.53751        -2.66476
| 61>    C       13.93276        -8.24395        -2.39694
| 62>    C       13.47656        -7.41632        -3.46307
| 63>    C       12.90446        -7.75839        -4.66074
| 64>    C       12.64440        -6.84114        -5.74843
| 65>    C       12.72367        -5.46661        -5.72130
| 66>    C       12.46769        -4.63852        -6.83277
| 67>    N       12.28032        -3.90467        -7.69616
| 68>    C       12.96586        -4.68059        -4.58250
| 69>    N       13.07713        -3.96506        -3.68685
| 70>    C       12.17129        -7.62314        -6.88624
| 71>    C       11.98219        -8.96134        -6.46462
| 72>    C       12.37760        -9.08648        -5.04451
| 73>    O       12.23049       -10.06595        -4.34375
| 74>    C       11.49791        -9.93951        -7.29652
| 75>    C       11.19997        -9.58388        -8.61701
| 76>    C       11.40670        -8.24822        -9.03421
| 77>    C       11.88623        -7.25570        -8.18776
| 78>    S       10.97865        -8.02681       -10.70415
| 79>    C       10.53032        -9.70796       -10.81557
| 80>    C       10.69414       -10.40161        -9.66409
| 81>   Br        9.88668       -10.38815       -12.44114
| 82>    H       -0.91272        -0.51548         1.45128
| 83>    H       -3.05421         2.73768        -0.29183
| 84>    H       -0.91821         3.86859        -0.85747
| 85>    H        1.53555        -0.51114         1.48166
| 86>    H        1.55203         3.89595        -0.85552
| 87>    H        6.60603         2.47374        -0.70615
| 88>    H        8.88932         1.68450        -0.35990
| 89>    H        9.70263        -3.57540        -0.42195
| 90>    H       12.52205        -0.95411        -1.58602
| 91>    H       13.11958        -1.23954         0.04247
| 92>    H       11.58476        -0.36171        -0.21381
| 93>    H       12.62823        -3.98794         0.39861
| 94>    H       13.27713        -3.43397        -1.15655
| 95>    H       10.94860        -4.53291        -1.89867
| 96>    H       11.73030        -6.64738        -2.13117
| 97>    H       13.72060        -5.94375         0.07825
| 98>    H       14.60933        -7.21496         1.71246
| 99>    H       16.87623        -8.78794         2.16850
|100>    H       16.29932       -11.33434         0.70837
|101>    H       15.53535       -11.23719        -1.94255
|102>    H       14.45087        -9.90598        -3.67548
|103>    H       13.66656        -6.35942        -3.30748
|104>    H       11.35391       -10.94804        -6.94177
|105>    H       12.02477        -6.25224        -8.55386
|106>    H       10.46700       -11.44640        -9.55545
|107> *
|108>
|109>                          ****END OF INPUT****

CARTESIAN COORDINATES (ANGSTROEM)
---------------------------------
  C     -0.898790    0.437830    0.946460
  C     -2.068830    1.057040    0.604930
  F     -3.240700    0.465920    0.898570
  C     -2.100590    2.297370   -0.047350
  C     -0.919470    2.913050   -0.355020
  C      0.316690    2.319140   -0.026830
  C      0.327780    1.058180    0.638640
  C      1.554840    0.446480    0.985810
  C      2.730030    1.074770    0.673180
  C      2.712670    2.327460   -0.006580
  C      1.542770    2.943600   -0.346840
  C      4.098050    2.763950   -0.259850
  O      4.477150    3.797110   -0.759110
  C      4.952410    1.618850    0.178110
  C      4.117940    0.704990    0.928880
  C      4.541730   -0.192340    1.871150
  C      5.887680   -0.333090    2.264270
  N      6.967130   -0.465300    2.631900
  C      3.680040   -1.043080    2.592220
  N      3.031440   -1.779150    3.188170
  C      6.233020    1.555200   -0.261540
  C      7.140380    0.449910   -0.298950
  C      8.515760    0.668470   -0.369130
  N      9.458160   -0.260000   -0.417350
  C      9.153350   -1.546620   -0.406090
  C      7.779370   -1.923550   -0.369080
  C      6.759670   -0.916250   -0.328890
  N      5.537110   -1.447560   -0.362750
  S      5.668680   -3.050680   -0.413470
  N      7.269080   -3.152860   -0.413850
  C     10.142960   -2.587380   -0.461400
  C     11.480760   -2.461720   -0.538800
  C     12.216800   -1.171320   -0.561960
  C     12.353070   -3.684770   -0.619740
  N     11.697640   -4.791720   -1.275620
  C     12.257500   -5.996810   -1.444730
  C     13.339620   -6.487420   -0.772420
  C     13.975870   -7.713180   -1.098060
  C     14.676740   -8.451730   -0.070170
  C     14.930340   -8.107370    1.209570
  S     15.704730   -9.456570    2.158390
  F     16.769600  -10.752550    3.001080
  C     15.836040  -10.370150    0.661140
  C     15.227640   -9.769680   -0.384280
  C     15.107860  -10.273620   -1.714680
  C     14.494350   -9.537510   -2.664760
  C     13.932760   -8.243950   -2.396940
  C     13.476560   -7.416320   -3.463070
  C     12.904460   -7.758390   -4.660740
  C     12.644400   -6.841140   -5.748430
  C     12.723670   -5.466610   -5.721300
  C     12.467690   -4.638520   -6.832770
  N     12.280320   -3.904670   -7.696160
  C     12.965860   -4.680590   -4.582500
  N     13.077130   -3.965060   -3.686850
  C     12.171290   -7.623140   -6.886240
  C     11.982190   -8.961340   -6.464620
  C     12.377600   -9.086480   -5.044510
  O     12.230490  -10.065950   -4.343750
  C     11.497910   -9.939510   -7.296520
  C     11.199970   -9.583880   -8.617010
  C     11.406700   -8.248220   -9.034210
  C     11.886230   -7.255700   -8.187760
  S     10.978650   -8.026810  -10.704150
  C     10.530320   -9.707960  -10.815570
  C     10.694140  -10.401610   -9.664090
  Br     9.886680  -10.388150  -12.441140
  H     -0.912720   -0.515480    1.451280
  H     -3.054210    2.737680   -0.291830
  H     -0.918210    3.868590   -0.857470
  H      1.535550   -0.511140    1.481660
  H      1.552030    3.895950   -0.855520
  H      6.606030    2.473740   -0.706150
  H      8.889320    1.684500   -0.359900
  H      9.702630   -3.575400   -0.421950
  H     12.522050   -0.954110   -1.586020
  H     13.119580   -1.239540    0.042470
  H     11.584760   -0.361710   -0.213810
  H     12.628230   -3.987940    0.398610
  H     13.277130   -3.433970   -1.156550
  H     10.948600   -4.532910   -1.898670
  H     11.730300   -6.647380   -2.131170
  H     13.720600   -5.943750    0.078250
  H     14.609330   -7.214960    1.712460
  H     16.876230   -8.787940    2.168500
  H     16.299320  -11.334340    0.708370
  H     15.535350  -11.237190   -1.942550
  H     14.450870   -9.905980   -3.675480
  H     13.666560   -6.359420   -3.307480
  H     11.353910  -10.948040   -6.941770
  H     12.024770   -6.252240   -8.553860
  H     10.467000  -11.446400   -9.555450

 Total Charge           Charge          ....    0
 Multiplicity           Mult            ....    1
 Number of Electrons    NEL             ....  504
 Basis Dimension        Dim             .... 1093

ORBITAL ENERGIES
----------------

  NO   OCC          E(Eh)            E(eV)
   0   2.0000    -482.886237    -13140.0025
   1   2.0000     -89.043717     -2423.0027
   2   2.0000     -89.040594     -2422.9177
   3   2.0000     -88.975928     -2421.1581
   4   2.0000     -62.563946     -1702.4515
   5   2.0000     -56.397896     -1534.6648
   6   2.0000     -56.395181     -1534.5909
   7   2.0000     -56.395148     -1534.5900
   8   2.0000     -24.787513      -674.5025
   9   2.0000     -24.613179      -669.7587
  10   2.0000     -19.217305      -522.9294
  11   2.0000     -19.213116      -522.8155
  12   2.0000     -14.462684      -393.5496
  13   2.0000     -14.461875      -393.5276
  14   2.0000     -14.451933      -393.2571
  15   2.0000     -14.425975      -392.5507
  16   2.0000     -14.424578      -392.5127
  17   2.0000     -14.418501      -392.3474
  18   2.0000     -14.418228      -392.3399
  19   2.0000     -14.414050      -392.2262
  20   2.0000     -10.371248      -282.2160
  21   2.0000     -10.367993      -282.1274
  22   2.0000     -10.364448      -282.0310
  23   2.0000     -10.359382      -281.8931
  24   2.0000     -10.350369      -281.6479
  25   2.0000     -10.345142      -281.5056
  26   2.0000     -10.343598      -281.4636
  27   2.0000     -10.342622      -281.4370
  28   2.0000     -10.342261      -281.4272
  29   2.0000     -10.340147      -281.3697
  30   2.0000     -10.339063      -281.3402
  31   2.0000     -10.337662      -281.3021
  32   2.0000     -10.334519      -281.2166
  33   2.0000     -10.331012      -281.1211
  34   2.0000     -10.325596      -280.9738
  35   2.0000     -10.325363      -280.9674
  36   2.0000     -10.320886      -280.8456
  37   2.0000     -10.320149      -280.8255
  38   2.0000     -10.320122      -280.8248
  39   2.0000     -10.318348      -280.7765
  40   2.0000     -10.315547      -280.7003
  41   2.0000     -10.314347      -280.6677
  42   2.0000     -10.313516      -280.6450
  43   2.0000     -10.309149      -280.5262
  44   2.0000     -10.307914      -280.4926
  45   2.0000     -10.307545      -280.4826
  46   2.0000     -10.307430      -280.4794
  47   2.0000     -10.307185      -280.4728
  48   2.0000     -10.305709      -280.4326
  49   2.0000     -10.302751      -280.3521
  50   2.0000     -10.301872      -280.3282
  51   2.0000     -10.300784      -280.2986
  52   2.0000     -10.300441      -280.2892
  53   2.0000     -10.299287      -280.2578
  54   2.0000     -10.299242      -280.2566
  55   2.0000     -10.297733      -280.2156
  56   2.0000     -10.297305      -280.2039
  57   2.0000     -10.297095      -280.1982
  58   2.0000     -10.295977      -280.1678
  59   2.0000     -10.293800      -280.1086
  60   2.0000     -10.293362      -280.0966
  61   2.0000     -10.291559      -280.0476
  62   2.0000     -10.291196      -280.0377
  63   2.0000     -10.290882      -280.0291
  64   2.0000     -10.290499      -280.0187
  65   2.0000     -10.287892      -279.9478
  66   2.0000     -10.283437      -279.8266
  67   2.0000     -10.282639      -279.8048
  68   2.0000     -10.280792      -279.7546
  69   2.0000     -10.275964      -279.6232
  70   2.0000     -10.264631      -279.3148
  71   2.0000      -8.793375      -239.2799
  72   2.0000      -8.135254      -221.3715
  73   2.0000      -8.121159      -220.9880
  74   2.0000      -8.071910      -219.6478
  75   2.0000      -6.629650      -180.4020
  76   2.0000      -6.615121      -180.0066
  77   2.0000      -6.614921      -180.0012
  78   2.0000      -6.106376      -166.1629
  79   2.0000      -6.098654      -165.9528
  80   2.0000      -6.097810      -165.9298
  81   2.0000      -6.091323      -165.7533
  82   2.0000      -6.087858      -165.6590
  83   2.0000      -6.084144      -165.5580
  84   2.0000      -6.041593      -164.4001
  85   2.0000      -6.037331      -164.2841
  86   2.0000      -6.033131      -164.1699
  87   2.0000      -2.745566       -74.7106
  88   2.0000      -2.741419       -74.5978
  89   2.0000      -2.741289       -74.5943
  90   2.0000      -2.729743       -74.2801
  91   2.0000      -2.729720       -74.2795
  92   2.0000      -1.302520       -35.4434
  93   2.0000      -1.143828       -31.1251
  94   2.0000      -1.132680       -30.8218
  95   2.0000      -1.128013       -30.6948
  96   2.0000      -1.095920       -29.8215
  97   2.0000      -1.063448       -28.9379
  98   2.0000      -1.060867       -28.8677
  99   2.0000      -1.024475       -27.8774
 100   2.0000      -1.021826       -27.8053
 101   2.0000      -1.016883       -27.6708
 102   2.0000      -1.002681       -27.2843
 103   2.0000      -0.999883       -27.2082
 104   2.0000      -0.998791       -27.1785
 105   2.0000      -0.997924       -27.1549
 106   2.0000      -0.994705       -27.0673
 107   2.0000      -0.989257       -26.9190
 108   2.0000      -0.977341       -26.5948
 109   2.0000      -0.956766       -26.0349
 110   2.0000      -0.940532       -25.5932
 111   2.0000      -0.937329       -25.5060
 112   2.0000      -0.929741       -25.2995
 113   2.0000      -0.921431       -25.0734
 114   2.0000      -0.908863       -24.7314
 115   2.0000      -0.901844       -24.5404
 116   2.0000      -0.897911       -24.4334
 117   2.0000      -0.895207       -24.3598
 118   2.0000      -0.890315       -24.2267
 119   2.0000      -0.886110       -24.1123
 120   2.0000      -0.885115       -24.0852
 121   2.0000      -0.867525       -23.6066
 122   2.0000      -0.859378       -23.3849
 123   2.0000      -0.841966       -22.9111
 124   2.0000      -0.835952       -22.7474
 125   2.0000      -0.831744       -22.6329
 126   2.0000      -0.828329       -22.5400
 127   2.0000      -0.820268       -22.3206
 128   2.0000      -0.802921       -21.8486
 129   2.0000      -0.791151       -21.5283
 130   2.0000      -0.788098       -21.4452
 131   2.0000      -0.767669       -20.8893
 132   2.0000      -0.765663       -20.8347
 133   2.0000      -0.761232       -20.7142
 134   2.0000      -0.758484       -20.6394
 135   2.0000      -0.737981       -20.0815
 136   2.0000      -0.729070       -19.8390
 137   2.0000      -0.728980       -19.8366
 138   2.0000      -0.713695       -19.4206
 139   2.0000      -0.710315       -19.3286
 140   2.0000      -0.703776       -19.1507
 141   2.0000      -0.701113       -19.0783
 142   2.0000      -0.688803       -18.7433
 143   2.0000      -0.686609       -18.6836
 144   2.0000      -0.684361       -18.6224
 145   2.0000      -0.680304       -18.5120
 146   2.0000      -0.663400       -18.0520
 147   2.0000      -0.659503       -17.9460
 148   2.0000      -0.651081       -17.7168
 149   2.0000      -0.649285       -17.6679
 150   2.0000      -0.648012       -17.6333
 151   2.0000      -0.638114       -17.3640
 152   2.0000      -0.631481       -17.1835
 153   2.0000      -0.627751       -17.0820
 154   2.0000      -0.622915       -16.9504
 155   2.0000      -0.617608       -16.8060
 156   2.0000      -0.613654       -16.6984
 157   2.0000      -0.599326       -16.3085
 158   2.0000      -0.598544       -16.2872
 159   2.0000      -0.596422       -16.2295
 160   2.0000      -0.588136       -16.0040
 161   2.0000      -0.584920       -15.9165
 162   2.0000      -0.580864       -15.8061
 163   2.0000      -0.578347       -15.7376
 164   2.0000      -0.574122       -15.6226
 165   2.0000      -0.573661       -15.6101
 166   2.0000      -0.567702       -15.4480
 167   2.0000      -0.566848       -15.4247
 168   2.0000      -0.560018       -15.2389
 169   2.0000      -0.556897       -15.1540
 170   2.0000      -0.552324       -15.0295
 171   2.0000      -0.551731       -15.0134
 172   2.0000      -0.548198       -14.9172
 173   2.0000      -0.546020       -14.8580
 174   2.0000      -0.543991       -14.8027
 175   2.0000      -0.540228       -14.7004
 176   2.0000      -0.536484       -14.5985
 177   2.0000      -0.530358       -14.4318
 178   2.0000      -0.530104       -14.4249
 179   2.0000      -0.525133       -14.2896
 180   2.0000      -0.525107       -14.2889
 181   2.0000      -0.520612       -14.1666
 182   2.0000      -0.517793       -14.0899
 183   2.0000      -0.513764       -13.9802
 184   2.0000      -0.512708       -13.9515
 185   2.0000      -0.511058       -13.9066
 186   2.0000      -0.508717       -13.8429
 187   2.0000      -0.507402       -13.8071
 188   2.0000      -0.503171       -13.6920
 189   2.0000      -0.501833       -13.6556
 190   2.0000      -0.498789       -13.5727
 191   2.0000      -0.496381       -13.5072
 192   2.0000      -0.492578       -13.4037
 193   2.0000      -0.491554       -13.3759
 194   2.0000      -0.490498       -13.3471
 195   2.0000      -0.489622       -13.3233
 196   2.0000      -0.488572       -13.2947
 197   2.0000      -0.483405       -13.1541
 198   2.0000      -0.480630       -13.0786
 199   2.0000      -0.478733       -13.0270
 200   2.0000      -0.472795       -12.8654
 201   2.0000      -0.469393       -12.7728
 202   2.0000      -0.465096       -12.6559
 203   2.0000      -0.462767       -12.5925
 204   2.0000      -0.462068       -12.5735
 205   2.0000      -0.460141       -12.5211
 206   2.0000      -0.458339       -12.4720
 207   2.0000      -0.455565       -12.3965
 208   2.0000      -0.455247       -12.3879
 209   2.0000      -0.450731       -12.2650
 210   2.0000      -0.448862       -12.2142
 211   2.0000      -0.447375       -12.1737
 212   2.0000      -0.445609       -12.1256
 213   2.0000      -0.445230       -12.1153
 214   2.0000      -0.440259       -11.9801
 215   2.0000      -0.439837       -11.9686
 216   2.0000      -0.436553       -11.8792
 217   2.0000      -0.432466       -11.7680
 218   2.0000      -0.430585       -11.7168
 219   2.0000      -0.430022       -11.7015
 220   2.0000      -0.426818       -11.6143
 221   2.0000      -0.424358       -11.5474
 222   2.0000      -0.421532       -11.4705
 223   2.0000      -0.418058       -11.3759
 224   2.0000      -0.414785       -11.2869
 225   2.0000      -0.411601       -11.2002
 226   2.0000      -0.410841       -11.1796
 227   2.0000      -0.402380       -10.9493
 228   2.0000      -0.394779       -10.7425
 229   2.0000      -0.386390       -10.5142
 230   2.0000      -0.385742       -10.4966
 231   2.0000      -0.382690       -10.4135
 232   2.0000      -0.380378       -10.3506
 233   2.0000      -0.375575       -10.2199
 234   2.0000      -0.368629       -10.0309
 235   2.0000      -0.366915        -9.9843
 236   2.0000      -0.364370        -9.9150
 237   2.0000      -0.350921        -9.5490
 238   2.0000      -0.348349        -9.4791
 239   2.0000      -0.346822        -9.4375
 240   2.0000      -0.346216        -9.4210
 241   2.0000      -0.335451        -9.1281
 242   2.0000      -0.333011        -9.0617
 243   2.0000      -0.325839        -8.8665
 244   2.0000      -0.315646        -8.5892
 245   2.0000      -0.312375        -8.5001
 246   2.0000      -0.305076        -8.3015
 247   2.0000      -0.302335        -8.2270
 248   2.0000      -0.299687        -8.1549
 249   2.0000      -0.294397        -8.0110
 250   2.0000      -0.289387        -7.8746
 251   2.0000      -0.254253        -6.9186
 252   0.0000      -0.106915        -2.9093
 253   0.0000      -0.088925        -2.4198
 254   0.0000      -0.067769        -1.8441
 255   0.0000      -0.064579        -1.7573
 256   0.0000      -0.053604        -1.4586

MULLIKEN ATOMIC CHARGES
-----------------------
   0 C :   -0.094228
   1 C :    0.303349
   2 F :   -0.189743
   3 C :   -0.032495
   4 C :   -0.004964
   5 C :    0.094954
   6 C :    0.099779
   7 C :   -0.086627
   8 C :    0.043281
   9 C :    0.008372
  10 C :   -0.073853
  11 C :    0.133750
  12 O :   -0.140438
  13 C :   -0.113896
  14 C :    0.322506
  15 C :   -0.325195
  16 C :   -0.209153
  17 N :    0.167454
  18 C :   -0.194280
  19 N :    0.156250
  20 C :    0.010901
  21 C :    0.020196
  22 C :    0.011232
  23 N :   -0.056072
  24 C :    0.013747
  25 C :    0.012571
  26 C :    0.044207
  27 N :   -0.287625
  28 S :    0.538225
  29 N :   -0.254102
  30 C :   -0.042358
  31 C :   -0.211323
  32 C :    0.114277
  33 C :    0.237966
  34 N :   -0.127344
  35 C :    0.057286
  36 C :   -0.115947
  37 C :    0.146789
  38 C :    0.093704
  39 C :   -0.245350
  40 S :    0.531408
  41 F :   -0.545265
  42 C :   -0.206538
  43 C :    0.156321
  44 C :   -0.010091
  45 C :    0.067740
  46 C :    0.023808
  47 C :   -0.143538
  48 C :   -0.081347
  49 C :    0.307965
  50 C :   -0.366475
  51 C :   -0.186191
  52 N :    0.142102
  53 C :   -0.187109
  54 N :    0.117232
  55 C :    0.014371
  56 C :   -0.006147
  57 C :    0.117387
  58 O :   -0.146920
  59 C :   -0.079748
  60 C :    0.118815
  61 C :   -0.092736
  62 C :   -0.024062
  63 S :    0.184596
  64 C :   -0.124952
  65 C :    0.041270
  66 Br:    0.022859
  67 H :   -0.003291
  68 H :    0.003924
  69 H :   -0.008916
  70 H :   -0.007526
  71 H :   -0.011851
  72 H :    0.022904
  73 H :    0.009074
  74 H :   -0.011773
  75 H :    0.046825
  76 H :    0.014741
  77 H :    0.041575
  78 H :    0.046333
  79 H :    0.037534
  80 H :    0.142712
  81 H :    0.054021
  82 H :   -0.010682
  83 H :    0.011026
  84 H :    0.109175
  85 H :    0.046820
  86 H :   -0.020360
  87 H :   -0.014852
  88 H :    0.052449
  89 H :   -0.011169
  90 H :   -0.005691
  91 H :   -0.003563
Sum of atomic charges:   -0.0000000

LOEWDIN ATOMIC CHARGES
----------------------
   0 C :   -0.042687
   1 C :    0.093587
   2 F :   -0.064247
   3 C :   -0.036957
   4 C :    0.005332
   5 C :   -0.019198
   6 C :    0.004104
   7 C :    0.009830
   8 C :   -0.013483
   9 C :   -0.060548
  10 C :    0.036085
  11 C :    0.085266
  12 O :   -0.140281
  13 C :   -0.078627
  14 C :    0.077238
  15 C :   -0.132107
  16 C :   -0.018959
  17 N :   -0.056058
  18 C :   -0.019942
  19 N :   -0.053588
  20 C :    0.069916
  21 C :   -0.074695
  22 C :    0.061806
  23 N :   -0.066006
  24 C :    0.052716
  25 C :   -0.061023
  26 C :   -0.033695
  27 N :   -0.284882
  28 S :    0.667737
  29 N :   -0.265108
  30 C :   -0.078404
  31 C :    0.039128
  32 C :   -0.050294
  33 C :    0.044770
  34 N :    0.038066
  35 C :    0.078916
  36 C :   -0.109153
  37 C :    0.040192
  38 C :   -0.045998
  39 C :   -0.186161
  40 S :    0.849218
  41 F :   -0.546439
  42 C :   -0.167836
  43 C :   -0.020583
  44 C :   -0.032003
  45 C :    0.020386
  46 C :   -0.058990
  47 C :    0.065078
  48 C :   -0.127472
  49 C :    0.082398
  50 C :   -0.164916
  51 C :   -0.021336
  52 N :   -0.063163
  53 C :   -0.008796
  54 N :   -0.083184
  55 C :   -0.022954
  56 C :   -0.049830
  57 C :    0.075381
  58 O :   -0.145487
  59 C :    0.019226
  60 C :   -0.033129
  61 C :   -0.145567
  62 C :   -0.011238
  63 S :    0.430981
  64 C :   -0.272084
  65 C :   -0.070494
  66 Br:    0.135922
  67 H :    0.042867
  68 H :    0.042058
  69 H :    0.035927
  70 H :    0.038551
  71 H :    0.039849
  72 H :    0.048487
  73 H :    0.030378
  74 H :    0.028412
  75 H :    0.052007
  76 H :    0.033143
  77 H :    0.033667
  78 H :    0.041239
  79 H :    0.030644
  80 H :    0.084929
  81 H :    0.043034
  82 H :    0.026334
  83 H :    0.015045
  84 H :    0.020645
  85 H :    0.035425
  86 H :    0.033757
  87 H :    0.033424
  88 H :    0.044650
  89 H :    0.040409
  90 H :    0.040659
  91 H :    0.038782

  Mayer bond orders larger than 0.100000
B(  0-C ,  1-C ) :   1.4415 B(  0-C ,  6-C ) :   1.2034 B(  0-C , 67-H ) :   1.0054
B(  1-C ,  2-F ) :   1.0892 B(  1-C ,  3-C ) :   1.2541 B(  3-C ,  4-C ) :   1.4609
B(  3-C , 68-H ) :   0.9934 B(  4-C ,  5-C ) :   1.2343 B(  4-C , 69-H ) :   0.9963
B(  5-C ,  6-C ) :   1.2543 B(  5-C , 10-C ) :   1.1952 B(  6-C ,  7-C ) :   1.2037
B(  7-C ,  8-C ) :   1.4599 B(  7-C , 70-H ) :   0.9940 B(  8-C ,  9-C ) :   1.2127
B(  8-C , 14-C ) :   1.0075 B(  9-C , 10-C ) :   1.4700 B(  9-C , 11-C ) :   0.9211
B( 10-C , 71-H ) :   1.0138 B( 11-C , 12-O ) :   2.2708 B( 11-C , 13-C ) :   0.9311
B( 13-C , 14-C ) :   1.0284 B( 13-C , 20-C ) :   1.6925 B( 14-C , 15-C ) :   1.6512
B( 15-C , 16-C ) :   1.1669 B( 15-C , 18-C ) :   1.1447 B( 16-C , 17-N ) :   3.0053
B( 18-C , 19-N ) :   2.9859 B( 20-C , 21-C ) :   1.0708 B( 20-C , 72-H ) :   0.9405
B( 21-C , 22-C ) :   1.3956 B( 21-C , 26-C ) :   1.1943 B( 22-C , 23-N ) :   1.4520
B( 22-C , 73-H ) :   0.9820 B( 23-N , 24-C ) :   1.5920 B( 24-C , 25-C ) :   1.1315
B( 24-C , 30-C ) :   1.1474 B( 25-C , 26-C ) :   1.1906 B( 25-C , 29-N ) :   1.5570
B( 26-C , 27-N ) :   1.5165 B( 27-N , 28-S ) :   1.2496 B( 27-N , 29-N ) :   0.1407
B( 28-S , 29-N ) :   1.2901 B( 30-C , 31-C ) :   1.7039 B( 30-C , 74-H ) :   0.9514
B( 31-C , 32-C ) :   1.1075 B( 31-C , 33-C ) :   1.0124 B( 32-C , 75-H ) :   0.9295
B( 32-C , 76-H ) :   0.9398 B( 32-C , 77-H ) :   0.9240 B( 33-C , 34-N ) :   0.9968
B( 33-C , 78-H ) :   0.9097 B( 33-C , 79-H ) :   0.9239 B( 34-N , 35-C ) :   1.3242
B( 34-N , 80-H ) :   0.9218 B( 35-C , 36-C ) :   1.5020 B( 35-C , 81-H ) :   0.9525
B( 36-C , 37-C ) :   1.2501 B( 36-C , 82-H ) :   0.9521 B( 37-C , 38-C ) :   1.0443
B( 37-C , 46-C ) :   1.3944 B( 38-C , 39-C ) :   1.6454 B( 38-C , 43-C ) :   1.0901
B( 39-C , 40-S ) :   0.8918 B( 39-C , 83-H ) :   0.9380 B( 40-S , 41-F ) :   0.4848
B( 40-S , 42-C ) :   1.0402 B( 40-S , 84-H ) :   0.8860 B( 42-C , 43-C ) :   1.5327
B( 42-C , 85-H ) :   0.9933 B( 43-C , 44-C ) :   1.0880 B( 44-C , 45-C ) :   1.6547
B( 44-C , 86-H ) :   1.0013 B( 45-C , 46-C ) :   1.1165 B( 45-C , 87-H ) :   0.9800
B( 46-C , 47-C ) :   1.1580 B( 47-C , 48-C ) :   1.5164 B( 47-C , 88-H ) :   0.9269
B( 48-C , 49-C ) :   1.1034 B( 48-C , 57-C ) :   0.9447 B( 49-C , 50-C ) :   1.5733
B( 49-C , 55-C ) :   1.0001 B( 50-C , 51-C ) :   1.1381 B( 50-C , 53-C ) :   1.1699
B( 51-C , 52-N ) :   2.9724 B( 53-C , 54-N ) :   2.9253 B( 55-C , 56-C ) :   1.2739
B( 55-C , 62-C ) :   1.4088 B( 56-C , 57-C ) :   0.9228 B( 56-C , 59-C ) :   1.4300
B( 57-C , 58-O ) :   2.2403 B( 59-C , 60-C ) :   1.2392 B( 59-C , 89-H ) :   1.0169
B( 60-C , 61-C ) :   1.3130 B( 60-C , 65-C ) :   1.1644 B( 61-C , 62-C ) :   1.3269
B( 61-C , 63-S ) :   1.0839 B( 62-C , 90-H ) :   0.9803 B( 63-S , 64-C ) :   1.0878
B( 64-C , 65-C ) :   1.6167 B( 64-C , 66-Br) :   1.0190 B( 65-C , 91-H ) :   0.9999

-----------------------------------------------------------------------------
         ABSORPTION SPECTRUM VIA TRANSITION ELECTRIC DIPOLE MOMENTS
-----------------------------------------------------------------------------
State   Energy  Wavelength   fosc         T2         TX        TY        TZ
        (cm-1)    (nm)                  (au**2)     (au)      (au)      (au)
-----------------------------------------------------------------------------
   0   18544.8    539.2   0.467071350   8.29158  -0.13085   0.43547   2.84338
   1   20681.2    483.5   0.018581274   0.29578   0.50691  -0.17515   0.09026
   2   22055.6    453.4   0.647801008   9.66936  -2.79589   1.22743   0.58801
   3   23350.4    428.3   0.100126909   1.41167  -0.26462   1.12763  -0.26475
   4   25219.8    396.5   0.317062525   4.13884   1.85081  -0.84453   0.00989
   5   26580.8    376.2   0.321891392   3.98672   0.98460  -0.77686   1.55363
   6   26836.4    372.6   0.007149002   0.08770   0.11830  -0.26925  -0.03477
   7   27557.6    362.9   0.017466806   0.20866   0.33692  -0.25299   0.17649
   8   28278.1    353.6   0.105210244   1.22485   0.04937  -0.54939   0.95947
   9   28914.2    345.9   0.486767581   5.54225  -0.48534  -1.43593  -1.80133
  10   29029.4    344.5   0.009555256   0.10836   0.14430  -0.01747  -0.29536
  11   29705.0    336.6   0.224984995   2.49345   0.88211  -0.68871   1.11400
  12   30151.5    331.7   0.066297167   0.72387   0.56899  -0.31685   0.54748
  13   30339.0    329.6   0.010130184   0.10992  -0.02308   0.01460  -0.33042
  14   30741.6    325.3   0.012491943   0.13378   0.25387  -0.10140   0.24299
  15   30774.3    324.9   0.039542958   0.42302  -0.18389   0.60952  -0.13299
  16   31195.5    320.6   0.002633506   0.02779   0.15929  -0.04412   0.02171
  17   31304.7    319.4   0.002670236   0.02808   0.11889  -0.09508   0.07003
  18   31760.4    314.9   0.150845736   1.56359   1.12222  -0.54911   0.05185
  19   31985.0    312.6   0.034096077   0.35094   0.53303  -0.25842   0.00603
  20   32110.1    311.4   0.001395000   0.01430  -0.05328   0.01128  -0.10647
  21   33277.1    300.5   0.038602920   0.38190   0.39857   0.03037   0.47129
  22   33673.7    297.0   0.219283212   2.14383  -0.82927   0.06575  -1.20491
  23   33880.2    295.2   0.459532592   4.46526  -0.01421  -1.91804  -0.88666
  24   34012.1    294.0   0.538980554   5.21693   2.14998  -0.51263   0.57595
  25   34171.1    292.6   0.061144990   0.58908  -0.55078   0.39109  -0.36438
  26   34319.7    291.4   0.001552193   0.01489   0.10416   0.04029  -0.04916
  27   34505.8    289.8   0.024626593   0.23496   0.26288   0.34967   0.20877
  28   35085.6    285.0   0.096007020   0.90084  -0.69588  -0.47718  -0.43462
  29   35778.9    279.5   0.114816627   1.05646   0.44951  -0.01703   0.92418
  30   35877.3    278.7   0.005188362   0.04761   0.17917  -0.12129   0.02823
  31   36041.5    277.5   0.020272118   0.18517  -0.38169   0.19742  -0.02262
  32   36732.4    272.2   0.083721076   0.75035  -0.82964   0.10276  -0.22691
  33   36808.0    271.7   0.043699718   0.39085   0.57862  -0.17742   0.15677
  34   36987.9    270.4   0.075405253   0.67115  -0.38689  -0.45105  -0.56393
  35   37427.1    267.2   0.338590273   2.97827   0.90728  -1.22491   0.80914
  36   37729.2    265.0   0.054001938   0.47120  -0.10510   0.37051  -0.56822
  37   38150.8    262.1   0.004251075   0.03668   0.00150   0.14232  -0.12817
  38   38382.0    260.5   0.010556744   0.09055  -0.18867   0.16510  -0.16642
  39   38456.6    260.0   0.013210563   0.11309  -0.22432   0.19946  -0.15161
  40   38611.4    259.0   0.014430730   0.12304   0.29036  -0.11176  -0.16199
  41   38665.7    258.6   0.022754426   0.19374  -0.25123  -0.34965   0.09148
  42   38986.9    256.5   0.090418929   0.76351   0.14675  -0.07965   0.85769
  43   39189.1    255.2   0.026367204   0.22150  -0.11249   0.09103  -0.44784
  44   39537.1    252.9   0.080850344   0.67321  -0.09772   0.12543   0.80494
  45   39663.0    252.1   0.277625881   2.30436  -0.47044   0.87530  -1.14756
  46   39704.3    251.9   0.025128270   0.20835   0.01370  -0.27401   0.36481
  47   39941.4    250.4   0.147258483   1.21376  -1.08466  -0.19305   0.00290
  48   40059.3    249.6   0.080765322   0.66374  -0.54791  -0.58802   0.13329

FINAL SINGLE POINT ENERGY     -6511.136608608402

DIPOLE MOMENT
-------------
                                X             Y             Z
Electronic contribution:    -19.18018     -66.58290    -113.37575
Nuclear contribution   :     17.77242      67.53004     111.26538
                        -----------------------------------------
Total Dipole Moment    :     -1.40776       0.94714      -2.11037
                        -----------------------------------------
Magnitude (a.u.)       :      2.70786
Magnitude (Debye)      :      6.88284

Rotational constants in cm-1:     0.000889     0.000327     0.000263
Rotational constants in MHz :    26.665172     9.816497     7.874392

                             ****ORCA TERMINATED NORMALLY****
TOTAL RUN TIME: 0 days 0 hours 9 minutes 21 seconds 85 msec
