                         Program Version 4.2.0 -  RELEASE  -
|  1> # ORCA input file
|  2> # SCF done       -203.163346476750          0.000595847442
|  3> ! CAM-B3LYP def2-SVP def2/J RIJCOSX Grid4 TightSCF
|  4> %maxcore 5000
|  5> %tddft
|  6>     Mode sTDDFT
|  7>     Ethresh 5.0
|  8>     maxcore 5000
|  9> end
| 10>
| 11> %pal
| 12>   nprocs 6
| 13>   end
| 14> * xyz 0 1
| 15>    C      -12.54288         1.79106         4.77776
| 16>    C      -13.76260         1.24548         4.47438
| 17>    C      -14.81171         1.09224         5.40445
| 18>    N      -15.70021         0.95239         6.11755
| 19>    C      -14.11424         0.72176         3.21197
| 20>    N      -14.45370         0.24877         2.22225
| 21>    C      -12.10229         2.21468         6.10046
| 22>    C      -10.72643         2.54402         6.03277
| 23>    C      -10.01478         2.97386         7.12609
| 24>    C      -10.69389         3.08677         8.34398
| 25>    C      -12.07044         2.76237         8.39983
| 26>    C      -12.78981         2.32474         7.29446
| 27>    S      -12.71551         2.98535         9.99761
| 28>    C      -11.14855         3.50096        10.56226
| 29>    C      -10.19028         3.50738         9.60521
| 30>   Br      -10.92498         3.98256        12.36088
| 31>    C      -10.24214         2.36613         4.64948
| 32>    O       -9.11515         2.58283         4.25245
| 33>    C      -11.42732         1.95866         3.86528
| 34>    C      -11.52356         1.96305         2.50162
| 35>    C      -10.48095         2.08671         1.55514
| 36>    S      -10.84482         2.95136         0.07902
| 37>    C       -9.21072         2.85323        -0.41866
| 38>    C       -8.41884         2.16730         0.45298
| 39>    C       -6.96548         1.91302         0.23643
| 40>    C       -9.14515         1.69103         1.58134
| 41>    C       -8.56275         0.79859         2.54849
| 42>    C       -9.20340        -0.25828         3.08990
| 43>    C       -8.62841        -1.17535         4.02236
| 44>    C       -7.51401        -0.94876         4.75557
| 45>    C       -6.96184        -1.91720         5.63411
| 46>    N       -7.38969        -3.13171         5.81013
| 47>    C       -6.62491        -3.80533         6.67520
| 48>    C       -5.55710        -3.10708         7.19726
| 49>    S       -5.51417        -1.50784         6.59799
| 50>    C       -4.87694        -3.95187         8.19637
| 51>    C       -5.22164        -5.34026         7.63662
| 52>    C       -6.71328        -5.23369         7.18378
| 53>    C       -7.67804        -5.32289         8.37878
| 54>    C       -9.06139        -4.75910         8.07340
| 55>    C       -7.10753        -6.15663         6.01064
| 56>    C       -7.80875        -7.47319         6.33824
| 57>    N       -4.70047        -6.27655         8.61169
| 58>    C       -3.59506        -5.70550         9.35434
| 59>    S       -3.09641        -4.13395         8.53584
| 60>    C       -4.80850        -7.60425         8.39999
| 61>    C       -4.35233        -8.63526         9.16876
| 62>    C       -3.68735        -8.70298        10.42114
| 63>    C       -3.47932        -9.96968        10.87213
| 64>    C       -3.96299       -10.98205        10.00973
| 65>    S       -4.68006       -10.27698         8.58972
| 66>    C       -3.97332       -12.34960        10.20813
| 67>    C       -3.54152       -13.10635        11.31530
| 68>    C       -3.84791       -14.43212        11.21987
| 69>    C       -4.55884       -14.78948        10.04884
| 70>    S       -4.73637       -13.39350         9.02651
| 71>    C       -4.98592       -16.07083         9.73152
| 72>    C       -5.73610       -16.52013         8.65298
| 73>    C       -6.51906       -15.86655         7.71042
| 74>    C       -7.16894       -14.59847         7.67351
| 75>    C       -7.51585       -13.80978         8.75606
| 76>    C       -8.07898       -12.52725         8.65636
| 77>    N       -8.49078       -11.45359         8.63803
| 78>    C       -7.40542       -14.24990        10.08651
| 79>    N       -7.34951       -14.58757        11.18350
| 80>    C       -7.57861       -14.34145         6.29326
| 81>    C       -7.36250       -15.51712         5.53532
| 82>    C       -6.74936       -16.54161         6.41310
| 83>    O       -6.46304       -17.68266         6.11711
| 84>    C       -7.68273       -15.60556         4.20448
| 85>    C       -8.22554       -14.47092         3.58744
| 86>    C       -8.41993       -13.29857         4.35003
| 87>    C       -8.11088       -13.21393         5.70360
| 88>    S       -9.08419       -12.01223         3.38628
| 89>    C       -9.09641       -13.05897         1.99111
| 90>    C       -8.62673       -14.30443         2.23204
| 91>   Br       -9.72661       -12.40329         0.34844
| 92>    H       -8.96708         3.21738         7.04477
| 93>    H      -13.83846         2.09520         7.38455
| 94>    H       -9.17061         3.79884         9.77930
| 95>    H      -12.51947         1.97234         2.07202
| 96>    H       -8.91545         3.31201        -1.34250
| 97>    H       -6.63330         2.37337        -0.69010
| 98>    H       -6.77129         0.84245         0.18663
| 99>    H       -6.38511         2.32564         1.06059
|100>    H       -7.51559         0.95800         2.75885
|101>    H      -10.21875        -0.46928         2.77803
|102>    H       -9.13600        -2.11998         4.16107
|103>    H       -6.99743        -0.00168         4.70673
|104>    H       -5.32332        -3.78324         9.18476
|105>    H       -4.63900        -5.45408         6.70473
|106>    H       -7.75786        -6.36517         8.68826
|107>    H       -7.25832        -4.76536         9.21921
|108>    H       -9.52642        -5.27915         7.24224
|109>    H       -8.99821        -3.70494         7.81506
|110>    H       -9.70134        -4.86302         8.94634
|111>    H       -6.20866        -6.36589         5.42380
|112>    H       -7.77317        -5.57538         5.36932
|113>    H       -7.25691        -8.09322         7.03880
|114>    H       -7.92760        -8.04001         5.41727
|115>    H       -8.79827        -7.30529         6.75136
|116>    H       -2.73353        -6.37427         9.35990
|117>    H       -3.89002        -5.46302        10.38067
|118>    H       -5.37287        -7.86500         7.51734
|119>    H       -3.41546        -7.82631        10.98026
|120>    H       -3.00836       -10.20693        11.80894
|121>    H       -3.04248       -12.65767        12.15524
|122>    H       -3.62236       -15.16241        11.97607
|123>    H       -4.61527       -16.83902        10.39948
|124>    H       -5.65420       -17.58524         8.45175
|125>    H       -7.51965       -16.51729         3.65144
|126>    H       -8.27761       -12.29801         6.24573
|127>    H       -8.56363       -15.07674         1.48723
|128> *
|129>
|130>                          ****END OF INPUT****

CARTESIAN COORDINATES (ANGSTROEM)
---------------------------------
  C    -12.542880    1.791060    4.777760
  C    -13.762600    1.245480    4.474380
  C    -14.811710    1.092240    5.404450
  N    -15.700210    0.952390    6.117550
  C    -14.114240    0.721760    3.211970
  N    -14.453700    0.248770    2.222250
  C    -12.102290    2.214680    6.100460
  C    -10.726430    2.544020    6.032770
  C    -10.014780    2.973860    7.126090
  C    -10.693890    3.086770    8.343980
  C    -12.070440    2.762370    8.399830
  C    -12.789810    2.324740    7.294460
  S    -12.715510    2.985350    9.997610
  C    -11.148550    3.500960   10.562260
  C    -10.190280    3.507380    9.605210
  Br   -10.924980    3.982560   12.360880
  C    -10.242140    2.366130    4.649480
  O     -9.115150    2.582830    4.252450
  C    -11.427320    1.958660    3.865280
  C    -11.523560    1.963050    2.501620
  C    -10.480950    2.086710    1.555140
  S    -10.844820    2.951360    0.079020
  C     -9.210720    2.853230   -0.418660
  C     -8.418840    2.167300    0.452980
  C     -6.965480    1.913020    0.236430
  C     -9.145150    1.691030    1.581340
  C     -8.562750    0.798590    2.548490
  C     -9.203400   -0.258280    3.089900
  C     -8.628410   -1.175350    4.022360
  C     -7.514010   -0.948760    4.755570
  C     -6.961840   -1.917200    5.634110
  N     -7.389690   -3.131710    5.810130
  C     -6.624910   -3.805330    6.675200
  C     -5.557100   -3.107080    7.197260
  S     -5.514170   -1.507840    6.597990
  C     -4.876940   -3.951870    8.196370
  C     -5.221640   -5.340260    7.636620
  C     -6.713280   -5.233690    7.183780
  C     -7.678040   -5.322890    8.378780
  C     -9.061390   -4.759100    8.073400
  C     -7.107530   -6.156630    6.010640
  C     -7.808750   -7.473190    6.338240
  N     -4.700470   -6.276550    8.611690
  C     -3.595060   -5.705500    9.354340
  S     -3.096410   -4.133950    8.535840
  C     -4.808500   -7.604250    8.399990
  C     -4.352330   -8.635260    9.168760
  C     -3.687350   -8.702980   10.421140
  C     -3.479320   -9.969680   10.872130
  C     -3.962990  -10.982050   10.009730
  S     -4.680060  -10.276980    8.589720
  C     -3.973320  -12.349600   10.208130
  C     -3.541520  -13.106350   11.315300
  C     -3.847910  -14.432120   11.219870
  C     -4.558840  -14.789480   10.048840
  S     -4.736370  -13.393500    9.026510
  C     -4.985920  -16.070830    9.731520
  C     -5.736100  -16.520130    8.652980
  C     -6.519060  -15.866550    7.710420
  C     -7.168940  -14.598470    7.673510
  C     -7.515850  -13.809780    8.756060
  C     -8.078980  -12.527250    8.656360
  N     -8.490780  -11.453590    8.638030
  C     -7.405420  -14.249900   10.086510
  N     -7.349510  -14.587570   11.183500
  C     -7.578610  -14.341450    6.293260
  C     -7.362500  -15.517120    5.535320
  C     -6.749360  -16.541610    6.413100
  O     -6.463040  -17.682660    6.117110
  C     -7.682730  -15.605560    4.204480
  C     -8.225540  -14.470920    3.587440
  C     -8.419930  -13.298570    4.350030
  C     -8.110880  -13.213930    5.703600
  S     -9.084190  -12.012230    3.386280
  C     -9.096410  -13.058970    1.991110
  C     -8.626730  -14.304430    2.232040
  Br    -9.726610  -12.403290    0.348440
  H     -8.967080    3.217380    7.044770
  H    -13.838460    2.095200    7.384550
  H     -9.170610    3.798840    9.779300
  H    -12.519470    1.972340    2.072020
  H     -8.915450    3.312010   -1.342500
  H     -6.633300    2.373370   -0.690100
  H     -6.771290    0.842450    0.186630
  H     -6.385110    2.325640    1.060590
  H     -7.515590    0.958000    2.758850
  H    -10.218750   -0.469280    2.778030
  H     -9.136000   -2.119980    4.161070
  H     -6.997430   -0.001680    4.706730
  H     -5.323320   -3.783240    9.184760
  H     -4.639000   -5.454080    6.704730
  H     -7.757860   -6.365170    8.688260
  H     -7.258320   -4.765360    9.219210
  H     -9.526420   -5.279150    7.242240
  H     -8.998210   -3.704940    7.815060
  H     -9.701340   -4.863020    8.946340
  H     -6.208660   -6.365890    5.423800
  H     -7.773170   -5.575380    5.369320
  H     -7.256910   -8.093220    7.038800
  H     -7.927600   -8.040010    5.417270
  H     -8.798270   -7.305290    6.751360
  H     -2.733530   -6.374270    9.359900
  H     -3.890020   -5.463020   10.380670
  H     -5.372870   -7.865000    7.517340
  H     -3.415460   -7.826310   10.980260
  H     -3.008360  -10.206930   11.808940
  H     -3.042480  -12.657670   12.155240
  H     -3.622360  -15.162410   11.976070
  H     -4.615270  -16.839020   10.399480
  H     -5.654200  -17.585240    8.451750
  H     -7.519650  -16.517290    3.651440
  H     -8.277610  -12.298010    6.245730
  H     -8.563630  -15.076740    1.487230

 Total Charge           Charge          ....    0
 Multiplicity           Mult            ....    1
 Number of Electrons    NEL             ....  636
 Basis Dimension        Dim             .... 1322

ORBITAL ENERGIES
----------------

  NO   OCC          E(Eh)            E(eV)
   0   2.0000    -482.889784    -13140.0991
   1   2.0000    -482.870826    -13139.5832
   2   2.0000     -88.979638     -2421.2591
   3   2.0000     -88.978370     -2421.2245
   4   2.0000     -88.970346     -2421.0062
   5   2.0000     -88.959713     -2420.7169
   6   2.0000     -88.956947     -2420.6416
   7   2.0000     -88.952405     -2420.5180
   8   2.0000     -88.943232     -2420.2684
   9   2.0000     -62.567470     -1702.5474
  10   2.0000     -62.548518     -1702.0317
  11   2.0000     -56.401425     -1534.7608
  12   2.0000     -56.398704     -1534.6867
  13   2.0000     -56.398675     -1534.6860
  14   2.0000     -56.382441     -1534.2442
  15   2.0000     -56.379781     -1534.1718
  16   2.0000     -56.379731     -1534.1705
  17   2.0000     -19.221635      -523.0473
  18   2.0000     -19.185566      -522.0658
  19   2.0000     -14.478575      -393.9820
  20   2.0000     -14.419520      -392.3751
  21   2.0000     -14.417848      -392.3296
  22   2.0000     -14.417732      -392.3264
  23   2.0000     -14.389294      -391.5526
  24   2.0000     -14.383039      -391.3824
  25   2.0000     -10.370658      -282.2000
  26   2.0000     -10.363087      -281.9939
  27   2.0000     -10.358541      -281.8702
  28   2.0000     -10.353020      -281.7200
  29   2.0000     -10.348120      -281.5867
  30   2.0000     -10.345199      -281.5072
  31   2.0000     -10.343970      -281.4737
  32   2.0000     -10.339489      -281.3518
  33   2.0000     -10.335840      -281.2525
  34   2.0000     -10.335150      -281.2337
  35   2.0000     -10.333850      -281.1984
  36   2.0000     -10.333109      -281.1782
  37   2.0000     -10.329356      -281.0761
  38   2.0000     -10.328714      -281.0586
  39   2.0000     -10.320652      -280.8392
  40   2.0000     -10.320451      -280.8338
  41   2.0000     -10.316805      -280.7345
  42   2.0000     -10.315919      -280.7104
  43   2.0000     -10.312505      -280.6175
  44   2.0000     -10.311911      -280.6014
  45   2.0000     -10.311741      -280.5967
  46   2.0000     -10.311732      -280.5965
  47   2.0000     -10.311445      -280.5887
  48   2.0000     -10.311391      -280.5872
  49   2.0000     -10.309979      -280.5488
  50   2.0000     -10.309548      -280.5371
  51   2.0000     -10.307839      -280.4906
  52   2.0000     -10.305112      -280.4164
  53   2.0000     -10.304128      -280.3896
  54   2.0000     -10.303469      -280.3716
  55   2.0000     -10.303143      -280.3628
  56   2.0000     -10.302659      -280.3496
  57   2.0000     -10.301822      -280.3268
  58   2.0000     -10.301157      -280.3087
  59   2.0000     -10.300884      -280.3013
  60   2.0000     -10.296520      -280.1825
  61   2.0000     -10.296417      -280.1797
  62   2.0000     -10.294944      -280.1397
  63   2.0000     -10.294904      -280.1386
  64   2.0000     -10.292245      -280.0662
  65   2.0000     -10.290776      -280.0262
  66   2.0000     -10.289914      -280.0028
  67   2.0000     -10.286305      -279.9046
  68   2.0000     -10.286036      -279.8973
  69   2.0000     -10.283663      -279.8327
  70   2.0000     -10.283552      -279.8297
  71   2.0000     -10.281774      -279.7813
  72   2.0000     -10.281436      -279.7721
  73   2.0000     -10.279643      -279.7233
  74   2.0000     -10.278909      -279.7033
  75   2.0000     -10.278224      -279.6847
  76   2.0000     -10.277720      -279.6710
  77   2.0000     -10.274315      -279.5783
  78   2.0000     -10.272240      -279.5219
  79   2.0000     -10.271419      -279.4995
  80   2.0000     -10.265329      -279.3338
  81   2.0000     -10.265147      -279.3289
  82   2.0000     -10.260035      -279.1897
  83   2.0000     -10.259759      -279.1822
  84   2.0000     -10.256532      -279.0944
  85   2.0000      -8.796873      -239.3751
  86   2.0000      -8.777924      -238.8595
  87   2.0000      -8.075555      -219.7470
  88   2.0000      -8.073660      -219.6955
  89   2.0000      -8.066507      -219.5008
  90   2.0000      -8.055818      -219.2100
  91   2.0000      -8.052934      -219.1315
  92   2.0000      -8.047244      -218.9766
  93   2.0000      -8.039384      -218.7628
  94   2.0000      -6.633183      -180.4981
  95   2.0000      -6.618614      -180.1016
  96   2.0000      -6.618387      -180.0955
  97   2.0000      -6.614084      -179.9784
  98   2.0000      -6.599686      -179.5866
  99   2.0000      -6.599591      -179.5840
 100   2.0000      -6.045251      -164.4996
 101   2.0000      -6.042740      -164.4313
 102   2.0000      -6.040964      -164.3830
 103   2.0000      -6.038840      -164.3252
 104   2.0000      -6.036805      -164.2698
 105   2.0000      -6.035977      -164.2473
 106   2.0000      -6.035740      -164.2408
 107   2.0000      -6.031504      -164.1256
 108   2.0000      -6.028714      -164.0496
 109   2.0000      -6.025581      -163.9644
 110   2.0000      -6.022612      -163.8836
 111   2.0000      -6.021487      -163.8530
 112   2.0000      -6.018418      -163.7695
 113   2.0000      -6.016722      -163.7233
 114   2.0000      -6.016627      -163.7207
 115   2.0000      -6.014154      -163.6535
 116   2.0000      -6.012477      -163.6078
 117   2.0000      -6.009789      -163.5347
 118   2.0000      -6.009126      -163.5166
 119   2.0000      -6.006670      -163.4498
 120   2.0000      -5.997951      -163.2126
 121   2.0000      -2.749051       -74.8055
 122   2.0000      -2.744944       -74.6937
 123   2.0000      -2.744832       -74.6907
 124   2.0000      -2.733223       -74.3748
 125   2.0000      -2.733206       -74.3743
 126   2.0000      -2.730021       -74.2876
 127   2.0000      -2.725886       -74.1751
 128   2.0000      -2.725839       -74.1739
 129   2.0000      -2.714395       -73.8624
 130   2.0000      -2.714375       -73.8619
 131   2.0000      -1.135707       -30.9042
 132   2.0000      -1.099243       -29.9119
 133   2.0000      -1.099005       -29.9055
 134   2.0000      -1.076942       -29.3051
 135   2.0000      -1.026686       -27.9375
 136   2.0000      -1.016586       -27.6627
 137   2.0000      -1.004893       -27.3445
 138   2.0000      -1.003741       -27.3132
 139   2.0000      -0.999060       -27.1858
 140   2.0000      -0.996507       -27.1163
 141   2.0000      -0.992553       -27.0087
 142   2.0000      -0.987969       -26.8840
 143   2.0000      -0.979544       -26.6547
 144   2.0000      -0.971680       -26.4408
 145   2.0000      -0.964581       -26.2476
 146   2.0000      -0.961340       -26.1594
 147   2.0000      -0.946929       -25.7673
 148   2.0000      -0.931695       -25.3527
 149   2.0000      -0.923103       -25.1189
 150   2.0000      -0.918904       -25.0046
 151   2.0000      -0.912139       -24.8206
 152   2.0000      -0.909843       -24.7581
 153   2.0000      -0.908257       -24.7149
 154   2.0000      -0.892450       -24.2848
 155   2.0000      -0.889806       -24.2129
 156   2.0000      -0.888062       -24.1654
 157   2.0000      -0.884216       -24.0607
 158   2.0000      -0.878248       -23.8983
 159   2.0000      -0.871297       -23.7092
 160   2.0000      -0.866811       -23.5871
 161   2.0000      -0.862708       -23.4755
 162   2.0000      -0.858479       -23.3604
 163   2.0000      -0.852584       -23.2000
 164   2.0000      -0.850182       -23.1346
 165   2.0000      -0.841034       -22.8857
 166   2.0000      -0.833364       -22.6770
 167   2.0000      -0.829437       -22.5701
 168   2.0000      -0.825436       -22.4613
 169   2.0000      -0.816588       -22.2205
 170   2.0000      -0.806396       -21.9432
 171   2.0000      -0.802712       -21.8429
 172   2.0000      -0.793561       -21.5939
 173   2.0000      -0.788435       -21.4544
 174   2.0000      -0.774214       -21.0674
 175   2.0000      -0.764887       -20.8136
 176   2.0000      -0.759112       -20.6565
 177   2.0000      -0.756766       -20.5926
 178   2.0000      -0.748278       -20.3617
 179   2.0000      -0.733455       -19.9583
 180   2.0000      -0.723884       -19.6979
 181   2.0000      -0.718748       -19.5581
 182   2.0000      -0.713023       -19.4024
 183   2.0000      -0.706020       -19.2118
 184   2.0000      -0.704327       -19.1657
 185   2.0000      -0.695982       -18.9386
 186   2.0000      -0.689427       -18.7603
 187   2.0000      -0.686555       -18.6821
 188   2.0000      -0.683201       -18.5908
 189   2.0000      -0.674497       -18.3540
 190   2.0000      -0.671565       -18.2742
 191   2.0000      -0.662512       -18.0279
 192   2.0000      -0.661613       -18.0034
 193   2.0000      -0.656561       -17.8659
 194   2.0000      -0.650776       -17.7085
 195   2.0000      -0.644189       -17.5293
 196   2.0000      -0.641970       -17.4689
 197   2.0000      -0.634009       -17.2523
 198   2.0000      -0.632748       -17.2179
 199   2.0000      -0.628354       -17.0984
 200   2.0000      -0.622723       -16.9452
 201   2.0000      -0.621389       -16.9089
 202   2.0000      -0.615172       -16.7397
 203   2.0000      -0.608086       -16.5469
 204   2.0000      -0.606181       -16.4950
 205   2.0000      -0.601930       -16.3793
 206   2.0000      -0.598133       -16.2760
 207   2.0000      -0.597263       -16.2524
 208   2.0000      -0.585987       -15.9455
 209   2.0000      -0.579114       -15.7585
 210   2.0000      -0.573655       -15.6099
 211   2.0000      -0.572366       -15.5749
 212   2.0000      -0.568413       -15.4673
 213   2.0000      -0.567864       -15.4524
 214   2.0000      -0.561608       -15.2821
 215   2.0000      -0.556673       -15.1478
 216   2.0000      -0.554568       -15.0906
 217   2.0000      -0.553046       -15.0491
 218   2.0000      -0.547500       -14.8982
 219   2.0000      -0.546668       -14.8756
 220   2.0000      -0.544142       -14.8069
 221   2.0000      -0.539669       -14.6851
 222   2.0000      -0.536454       -14.5976
 223   2.0000      -0.530659       -14.4400
 224   2.0000      -0.529021       -14.3954
 225   2.0000      -0.527312       -14.3489
 226   2.0000      -0.525058       -14.2876
 227   2.0000      -0.521679       -14.1956
 228   2.0000      -0.521414       -14.1884
 229   2.0000      -0.518007       -14.0957
 230   2.0000      -0.516599       -14.0574
 231   2.0000      -0.515277       -14.0214
 232   2.0000      -0.513061       -13.9611
 233   2.0000      -0.512456       -13.9446
 234   2.0000      -0.508694       -13.8423
 235   2.0000      -0.506104       -13.7718
 236   2.0000      -0.505534       -13.7563
 237   2.0000      -0.503230       -13.6936
 238   2.0000      -0.499371       -13.5886
 239   2.0000      -0.499284       -13.5862
 240   2.0000      -0.497496       -13.5376
 241   2.0000      -0.497089       -13.5265
 242   2.0000      -0.493000       -13.4152
 243   2.0000      -0.488285       -13.2869
 244   2.0000      -0.486608       -13.2413
 245   2.0000      -0.485376       -13.2077
 246   2.0000      -0.481620       -13.1056
 247   2.0000      -0.480583       -13.0773
 248   2.0000      -0.478595       -13.0232
 249   2.0000      -0.475651       -12.9431
 250   2.0000      -0.474078       -12.9003
 251   2.0000      -0.473117       -12.8742
 252   2.0000      -0.470930       -12.8147
 253   2.0000      -0.465433       -12.6651
 254   2.0000      -0.464111       -12.6291
 255   2.0000      -0.462033       -12.5725
 256   2.0000      -0.460838       -12.5400
 257   2.0000      -0.459872       -12.5137
 258   2.0000      -0.456893       -12.4327
 259   2.0000      -0.455234       -12.3875
 260   2.0000      -0.452472       -12.3124
 261   2.0000      -0.452026       -12.3002
 262   2.0000      -0.450784       -12.2664
 263   2.0000      -0.447335       -12.1726
 264   2.0000      -0.445964       -12.1353
 265   2.0000      -0.443080       -12.0568
 266   2.0000      -0.442519       -12.0416
 267   2.0000      -0.440085       -11.9753
 268   2.0000      -0.437276       -11.8989
 269   2.0000      -0.435239       -11.8435
 270   2.0000      -0.433056       -11.7841
 271   2.0000      -0.432404       -11.7663
 272   2.0000      -0.429680       -11.6922
 273   2.0000      -0.428995       -11.6735
 274   2.0000      -0.427143       -11.6231
 275   2.0000      -0.426775       -11.6131
 276   2.0000      -0.425275       -11.5723
 277   2.0000      -0.422691       -11.5020
 278   2.0000      -0.421055       -11.4575
 279   2.0000      -0.419449       -11.4138
 280   2.0000      -0.419099       -11.4043
 281   2.0000      -0.415402       -11.3037
 282   2.0000      -0.414659       -11.2835
 283   2.0000      -0.411570       -11.1994
 284   2.0000      -0.408233       -11.1086
 285   2.0000      -0.406550       -11.0628
 286   2.0000      -0.402214       -10.9448
 287   2.0000      -0.399382       -10.8677
 288   2.0000      -0.395375       -10.7587
 289   2.0000      -0.393765       -10.7149
 290   2.0000      -0.392144       -10.6708
 291   2.0000      -0.390661       -10.6304
 292   2.0000      -0.382190       -10.3999
 293   2.0000      -0.381927       -10.3928
 294   2.0000      -0.379123       -10.3165
 295   2.0000      -0.372865       -10.1462
 296   2.0000      -0.370507       -10.0820
 297   2.0000      -0.363949        -9.9035
 298   2.0000      -0.362019        -9.8510
 299   2.0000      -0.360673        -9.8144
 300   2.0000      -0.358227        -9.7479
 301   2.0000      -0.351178        -9.5561
 302   2.0000      -0.348262        -9.4767
 303   2.0000      -0.342592        -9.3224
 304   2.0000      -0.337843        -9.1932
 305   2.0000      -0.332047        -9.0355
 306   2.0000      -0.323375        -8.7995
 307   2.0000      -0.320050        -8.7090
 308   2.0000      -0.316917        -8.6237
 309   2.0000      -0.315196        -8.5769
 310   2.0000      -0.306411        -8.3379
 311   2.0000      -0.299712        -8.1556
 312   2.0000      -0.292644        -7.9632
 313   2.0000      -0.291958        -7.9446
 314   2.0000      -0.279939        -7.6175
 315   2.0000      -0.266862        -7.2617
 316   2.0000      -0.264685        -7.2024
 317   2.0000      -0.219715        -5.9787
 318   0.0000      -0.097183        -2.6445
 319   0.0000      -0.084724        -2.3055
 320   0.0000      -0.071563        -1.9473
 321   0.0000      -0.042928        -1.1681
 322   0.0000      -0.040242        -1.0950

MULLIKEN ATOMIC CHARGES
-----------------------
   0 C :    0.294998
   1 C :   -0.345974
   2 C :   -0.181847
   3 N :    0.150701
   4 C :   -0.212494
   5 N :    0.168605
   6 C :    0.018122
   7 C :   -0.013507
   8 C :   -0.075204
   9 C :    0.118215
  10 C :   -0.090275
  11 C :   -0.021735
  12 S :    0.187795
  13 C :   -0.123714
  14 C :    0.038363
  15 Br:    0.023971
  16 C :    0.164982
  17 O :   -0.154821
  18 C :   -0.095163
  19 C :    0.007667
  20 C :   -0.191444
  21 S :    0.145640
  22 C :   -0.105518
  23 C :   -0.093777
  24 C :    0.114881
  25 C :    0.166226
  26 C :    0.019042
  27 C :    0.002547
  28 C :    0.011273
  29 C :    0.057965
  30 C :   -0.104997
  31 N :   -0.037002
  32 C :   -0.046580
  33 C :   -0.056326
  34 S :    0.128718
  35 C :   -0.137116
  36 C :    0.102913
  37 C :   -0.175625
  38 C :    0.053482
  39 C :    0.034717
  40 C :    0.044262
  41 C :    0.030812
  42 N :   -0.242541
  43 C :    0.083834
  44 S :   -0.005009
  45 C :    0.141973
  46 C :   -0.108697
  47 C :    0.047891
  48 C :    0.005062
  49 C :   -0.010095
  50 S :    0.122838
  51 C :   -0.074713
  52 C :    0.043677
  53 C :    0.047984
  54 C :   -0.039250
  55 S :    0.119825
  56 C :   -0.002187
  57 C :    0.022726
  58 C :   -0.148834
  59 C :    0.284871
  60 C :   -0.383321
  61 C :   -0.171883
  62 N :    0.122604
  63 C :   -0.211162
  64 N :    0.153006
  65 C :    0.014874
  66 C :    0.007278
  67 C :    0.129361
  68 O :   -0.157911
  69 C :   -0.086828
  70 C :    0.112567
  71 C :   -0.084471
  72 C :   -0.045337
  73 S :    0.159371
  74 C :   -0.126132
  75 C :    0.037843
  76 Br:    0.003755
  77 H :   -0.015132
  78 H :   -0.005027
  79 H :   -0.004494
  80 H :    0.030090
  81 H :    0.027415
  82 H :    0.011906
  83 H :    0.036763
  84 H :    0.037067
  85 H :   -0.006734
  86 H :    0.007776
  87 H :    0.011441
  88 H :   -0.007665
  89 H :    0.070061
  90 H :    0.027963
  91 H :    0.018011
  92 H :   -0.014514
  93 H :    0.013978
  94 H :    0.021110
  95 H :    0.018851
  96 H :   -0.007078
  97 H :    0.024642
  98 H :    0.010242
  99 H :    0.021524
 100 H :    0.020533
 101 H :    0.067887
 102 H :    0.068796
 103 H :    0.013534
 104 H :   -0.010009
 105 H :   -0.008868
 106 H :   -0.016435
 107 H :   -0.012625
 108 H :   -0.009394
 109 H :    0.017744
 110 H :   -0.018177
 111 H :   -0.018424
 112 H :   -0.008503
Sum of atomic charges:   -0.0000000

LOEWDIN ATOMIC CHARGES
----------------------
   0 C :    0.075724
   1 C :   -0.141604
   2 C :   -0.018656
   3 N :   -0.052138
   4 C :   -0.027355
   5 N :   -0.049938
   6 C :   -0.021659
   7 C :   -0.047448
   8 C :    0.018843
   9 C :   -0.032828
  10 C :   -0.144663
  11 C :   -0.008845
  12 S :    0.434162
  13 C :   -0.271536
  14 C :   -0.071649
  15 Br:    0.137391
  16 C :    0.084875
  17 O :   -0.134863
  18 C :   -0.098169
  19 C :    0.052053
  20 C :   -0.182769
  21 S :    0.456382
  22 C :   -0.167574
  23 C :   -0.055660
  24 C :   -0.043239
  25 C :   -0.016539
  26 C :    0.012966
  27 C :   -0.028542
  28 C :    0.009961
  29 C :   -0.058593
  30 C :   -0.110923
  31 N :   -0.090865
  32 C :   -0.026727
  33 C :   -0.225673
  34 S :    0.416153
  35 C :   -0.131571
  36 C :    0.033279
  37 C :   -0.042546
  38 C :   -0.022025
  39 C :   -0.052199
  40 C :   -0.030631
  41 C :   -0.056611
  42 N :   -0.027752
  43 C :   -0.048332
  44 S :    0.229879
  45 C :    0.048556
  46 C :   -0.215412
  47 C :   -0.013502
  48 C :   -0.049315
  49 C :   -0.130237
  50 S :    0.406032
  51 C :   -0.220781
  52 C :   -0.018301
  53 C :   -0.046372
  54 C :   -0.111605
  55 S :    0.472474
  56 C :   -0.081337
  57 C :    0.033846
  58 C :   -0.124018
  59 C :    0.033975
  60 C :   -0.181918
  61 C :   -0.020234
  62 N :   -0.089967
  63 C :   -0.028306
  64 N :   -0.070402
  65 C :   -0.009082
  66 C :   -0.052777
  67 C :    0.081689
  68 O :   -0.157986
  69 C :    0.016892
  70 C :   -0.043842
  71 C :   -0.145707
  72 C :   -0.027991
  73 S :    0.412853
  74 C :   -0.280778
  75 C :   -0.069436
  76 Br:    0.120693
  77 H :    0.038969
  78 H :    0.041386
  79 H :    0.038218
  80 H :    0.045848
  81 H :    0.027049
  82 H :    0.034660
  83 H :    0.039631
  84 H :    0.038482
  85 H :    0.029916
  86 H :    0.032658
  87 H :    0.037366
  88 H :    0.028040
  89 H :    0.028886
  90 H :    0.021957
  91 H :    0.026419
  92 H :    0.017802
  93 H :    0.024130
  94 H :    0.024470
  95 H :    0.028433
  96 H :    0.020313
  97 H :    0.031503
  98 H :    0.017116
  99 H :    0.032794
 100 H :    0.028245
 101 H :    0.027708
 102 H :    0.019328
 103 H :    0.034885
 104 H :    0.032874
 105 H :    0.034516
 106 H :    0.031504
 107 H :    0.034281
 108 H :    0.037798
 109 H :    0.043247
 110 H :    0.037689
 111 H :    0.036049
 112 H :    0.036576

  Mayer bond orders larger than 0.100000
B(  0-C ,  1-C ) :   1.6448 B(  0-C ,  6-C ) :   1.0049 B(  0-C , 18-C ) :   1.0621
B(  1-C ,  2-C ) :   1.1377 B(  1-C ,  4-C ) :   1.1439 B(  2-C ,  3-N ) :   2.9745
B(  4-C ,  5-N ) :   2.9998 B(  6-C ,  7-C ) :   1.2719 B(  6-C , 11-C ) :   1.4113
B(  7-C ,  8-C ) :   1.4268 B(  7-C , 16-C ) :   0.9461 B(  8-C ,  9-C ) :   1.2447
B(  8-C , 77-H ) :   1.0159 B(  9-C , 10-C ) :   1.3066 B(  9-C , 14-C ) :   1.1636
B( 10-C , 11-C ) :   1.3296 B( 10-C , 12-S ) :   1.0851 B( 11-C , 78-H ) :   0.9804
B( 12-S , 13-C ) :   1.0887 B( 13-C , 14-C ) :   1.6157 B( 13-C , 15-Br) :   1.0189
B( 14-C , 79-H ) :   1.0002 B( 16-C , 17-O ) :   2.1768 B( 16-C , 18-C ) :   0.9615
B( 18-C , 19-C ) :   1.5967 B( 19-C , 20-C ) :   1.1817 B( 19-C , 80-H ) :   0.9332
B( 20-C , 21-S ) :   1.1160 B( 20-C , 25-C ) :   1.4160 B( 21-S , 22-C ) :   1.1755
B( 22-C , 23-C ) :   1.5532 B( 22-C , 81-H ) :   0.9666 B( 23-C , 24-C ) :   1.0950
B( 23-C , 25-C ) :   1.2685 B( 24-C , 82-H ) :   0.9497 B( 24-C , 83-H ) :   0.9427
B( 24-C , 84-H ) :   0.9446 B( 25-C , 26-C ) :   1.0881 B( 26-C , 27-C ) :   1.7480
B( 26-C , 85-H ) :   0.9320 B( 27-C , 28-C ) :   1.1157 B( 27-C , 86-H ) :   0.9710
B( 28-C , 29-C ) :   1.7247 B( 28-C , 87-H ) :   0.9773 B( 29-C , 30-C ) :   1.0947
B( 29-C , 88-H ) :   0.9428 B( 30-C , 31-N ) :   1.6797 B( 30-C , 34-S ) :   1.0862
B( 31-N , 32-C ) :   1.3647 B( 32-C , 33-C ) :   1.5552 B( 32-C , 37-C ) :   0.9591
B( 33-C , 34-S ) :   1.1060 B( 33-C , 35-C ) :   1.0443 B( 35-C , 36-C ) :   0.9709
B( 35-C , 44-S ) :   1.0002 B( 35-C , 89-H ) :   0.8783 B( 36-C , 37-C ) :   0.9917
B( 36-C , 42-N ) :   0.9527 B( 36-C , 90-H ) :   0.9230 B( 37-C , 38-C ) :   1.0142
B( 37-C , 40-C ) :   1.0229 B( 38-C , 39-C ) :   1.1176 B( 38-C , 91-H ) :   0.9290
B( 38-C , 92-H ) :   0.9356 B( 39-C , 93-H ) :   0.9620 B( 39-C , 94-H ) :   0.9566
B( 39-C , 95-H ) :   0.9640 B( 40-C , 41-C ) :   1.1190 B( 40-C , 96-H ) :   0.9353
B( 40-C , 97-H ) :   0.9243 B( 41-C , 98-H ) :   0.9589 B( 41-C , 99-H ) :   0.9570
B( 41-C ,100-H ) :   0.9513 B( 42-N , 43-C ) :   0.9525 B( 42-N , 45-C ) :   1.2629
B( 43-C , 44-S ) :   1.0083 B( 43-C ,101-H ) :   0.9425 B( 43-C ,102-H ) :   0.9462
B( 45-C , 46-C ) :   1.5387 B( 45-C ,103-H ) :   0.9406 B( 46-C , 47-C ) :   1.1530
B( 46-C , 50-S ) :   1.0193 B( 47-C , 48-C ) :   1.5768 B( 47-C ,104-H ) :   0.9928
B( 48-C , 49-C ) :   1.2134 B( 48-C ,105-H ) :   0.9937 B( 49-C , 50-S ) :   1.1234
B( 49-C , 51-C ) :   1.4246 B( 51-C , 52-C ) :   1.2327 B( 51-C , 55-S ) :   1.0377
B( 52-C , 53-C ) :   1.5361 B( 52-C ,106-H ) :   0.9898 B( 53-C , 54-C ) :   1.2029
B( 53-C ,107-H ) :   0.9960 B( 54-C , 55-S ) :   1.1347 B( 54-C , 56-C ) :   1.3888
B( 56-C , 57-C ) :   1.3914 B( 56-C ,108-H ) :   0.9540 B( 57-C , 58-C ) :   1.4082
B( 57-C ,109-H ) :   0.9312 B( 58-C , 59-C ) :   1.1731 B( 58-C , 67-C ) :   0.9721
B( 59-C , 60-C ) :   1.5120 B( 59-C , 65-C ) :   1.0013 B( 60-C , 61-C ) :   1.1494
B( 60-C , 63-C ) :   1.1716 B( 61-C , 62-N ) :   2.9628 B( 63-C , 64-N ) :   3.0067
B( 65-C , 66-C ) :   1.2802 B( 65-C , 72-C ) :   1.4375 B( 66-C , 67-C ) :   0.9116
B( 66-C , 69-C ) :   1.4363 B( 67-C , 68-O ) :   2.2479 B( 69-C , 70-C ) :   1.2379
B( 69-C ,110-H ) :   1.0164 B( 70-C , 71-C ) :   1.3329 B( 70-C , 75-C ) :   1.1559
B( 71-C , 72-C ) :   1.3016 B( 71-C , 73-S ) :   1.0768 B( 72-C ,111-H ) :   0.9829
B( 73-S , 74-C ) :   1.0806 B( 74-C , 75-C ) :   1.6271 B( 74-C , 76-Br) :   1.0071
B( 75-C ,112-H ) :   1.0006

-----------------------------------------------------------------------------
         ABSORPTION SPECTRUM VIA TRANSITION ELECTRIC DIPOLE MOMENTS
-----------------------------------------------------------------------------
State   Energy  Wavelength   fosc         T2         TX        TY        TZ
        (cm-1)    (nm)                  (au**2)     (au)      (au)      (au)
-----------------------------------------------------------------------------
   0   13766.1    726.4   0.662635302  15.84672  -1.51381  -3.62771  -0.62832
   1   18994.3    526.5   0.326558378   5.65995   1.98454  -1.30559  -0.13035
   2   19823.5    504.5   0.026555564   0.44101   0.55424  -0.30304  -0.20493
   3   21701.2    460.8   0.091822276   1.39297   0.32221  -1.11666   0.20546
   4   23808.7    420.0   0.095482951   1.32028   0.35262  -1.07711  -0.18912
   5   24145.6    414.2   0.191609547   2.61249   0.87362   0.28242  -1.33024
   6   24377.2    410.2   0.152516097   2.05971   0.06316  -0.97943   1.04711
   7   25054.5    399.1   0.003902321   0.05128   0.07393   0.18375  -0.10976
   8   25875.5    386.5   0.014807760   0.18840  -0.03109   0.36985  -0.22504
   9   27419.1    364.7   0.220923860   2.65256  -0.16218   0.82741   1.39343
  10   28087.0    356.0   0.956363750  11.20968   1.66113  -2.29103   1.78928
  11   28244.7    354.0   0.128101435   1.49311  -0.80699  -0.65353   0.64404
  12   29033.2    344.4   0.013945175   0.15813   0.19034  -0.34071   0.07627
  13   29543.3    338.5   0.040330545   0.44942   0.11420   0.05063   0.65864
  14   29737.1    336.3   0.017156565   0.18994   0.15859  -0.13299  -0.38354
  15   30065.8    332.6   0.004663446   0.05106   0.05307  -0.21965   0.00083
  16   30259.9    330.5   0.135661008   1.47592   0.22834   0.18385   1.17897
  17   30288.2    330.2   0.017549131   0.19075   0.12208  -0.03894   0.41752
  18   30341.0    329.6   0.016814425   0.18244  -0.17246   0.38251  -0.07991
  19   31449.9    318.0   0.709861510   7.43071   0.71622  -1.32187   2.27385
  20   31774.1    314.7   0.394623233   4.08870  -0.82441   0.10468  -1.84339
  21   32298.1    309.6   0.340882246   3.47459   0.87155  -0.04469   1.64712
  22   32461.3    308.1   0.096649526   0.98019  -0.24120   0.28448  -0.91711
  23   32618.1    306.6   0.127935052   1.29124   0.10053  -0.00005  -1.13187
  24   32769.1    305.2   0.638758427   6.41723   1.31313   0.48002   2.11246
  25   32814.9    304.7   0.061125313   0.61323   0.20934   0.25890   0.70879
  26   32940.6    303.6   0.002060994   0.02060   0.02863   0.13766  -0.02877
  27   33399.2    299.4   0.325958931   3.21294  -0.42847   0.13821  -1.73501
  28   33689.9    296.8   0.011880891   0.11610  -0.32823  -0.05352  -0.07416
  29   34417.5    290.5   0.076122882   0.72813   0.04666  -0.81736   0.24057
  30   35190.1    284.2   0.072169553   0.67516  -0.10272   0.31594   0.75153
  31   35572.0    281.1   0.015984359   0.14793  -0.17081  -0.18946   0.28786
  32   35710.2    280.0   0.034457269   0.31766   0.50251  -0.00561  -0.25518
  33   35726.9    279.9   0.136120130   1.25430  -0.90474   0.04897   0.65830
  34   35752.9    279.7   0.001813885   0.01670  -0.09147   0.06117   0.06778
  35   36973.8    270.5   0.010382444   0.09244   0.16209  -0.08136   0.24403
  36   37297.2    268.1   0.009259306   0.08173  -0.10793  -0.09488  -0.24714
  37   37346.4    267.8   0.028177490   0.24839   0.00778   0.49123  -0.08377
  38   37376.0    267.6   0.024585059   0.21655   0.14536   0.00257  -0.44206
  39   37671.3    265.5   0.025519442   0.22302   0.33243   0.33498  -0.01722
  40   37763.4    264.8   0.032453135   0.28292   0.38406   0.32325   0.17584
  41   38144.9    262.2   0.006647257   0.05737   0.12295   0.20477   0.01792
  42   38252.1    261.4   0.003692711   0.03178   0.14258   0.08969   0.05838
  43   38633.6    258.8   0.053346577   0.45459   0.14608   0.55344   0.35630
  44   38727.6    258.2   0.263485569   2.23981  -0.09917   1.20303   0.88470
  45   39320.6    254.3   0.002457227   0.02057   0.01998   0.11882  -0.07782
  46   39457.3    253.4   0.036391966   0.30364  -0.04927  -0.46233   0.29574
  47   39811.7    251.2   0.005296218   0.04380   0.19586  -0.04868  -0.05536
  48   40037.9    249.8   0.111993216   0.92086   0.36408   0.15901  -0.87351

FINAL SINGLE POINT ENERGY    -10717.705635557500

DIPOLE MOMENT
-------------
                                X             Y             Z
Electronic contribution:    -71.19895      27.82655      -1.73816
Nuclear contribution   :     75.25875     -22.10987       1.67088
                        -----------------------------------------
Total Dipole Moment    :      4.05980       5.71668      -0.06728
                        -----------------------------------------
Magnitude (a.u.)       :      7.01191
Magnitude (Debye)      :     17.82287

Rotational constants in cm-1:     0.000728     0.000227     0.000196
Rotational constants in MHz :    21.819061     6.809052     5.888031

                             ****ORCA TERMINATED NORMALLY****
TOTAL RUN TIME: 0 days 0 hours 12 minutes 55 seconds 286 msec
