                         Program Version 4.2.0 -  RELEASE  -
|  1> # ORCA input file
|  2> # SCF done       -180.204043969486          0.000922233963
|  3> ! CAM-B3LYP def2-SVP def2/J RIJCOSX Grid4 TightSCF
|  4> %maxcore 5000
|  5> %tddft
|  6>     Mode sTDDFT
|  7>     Ethresh 5.0
|  8>     maxcore 5000
|  9> end
| 10>
| 11> %pal
| 12>   nprocs 6
| 13>   end
| 14> * xyz 0 1
| 15>    C       -6.02838        -1.23524        -5.47341
| 16>    C       -6.60312        -2.43076        -5.13667
| 17>    C       -6.92766        -3.43593        -6.07248
| 18>    N       -7.20801        -4.28749        -6.78880
| 19>    C       -7.02534        -2.79105        -3.83787
| 20>    N       -7.43735        -3.13889        -2.82482
| 21>    C       -5.74390        -0.77886        -6.82617
| 22>    C       -5.41540         0.59826        -6.77867
| 23>    C       -5.11039         1.33144        -7.90091
| 24>    C       -5.12379         0.66575        -9.13073
| 25>    C       -5.44498        -0.71406        -9.16950
| 26>    C       -5.75825        -1.45131        -8.03488
| 27>    S       -5.38995        -1.33633       -10.79055
| 28>    C       -4.94506         0.24550       -11.38343
| 29>    C       -4.84351         1.19151       -10.42189
| 30>   Br       -4.64750         0.48843       -13.21794
| 31>    C       -5.47280         1.07460        -5.38496
| 32>    O       -5.40198         2.22874        -5.03079
| 33>    C       -5.68442        -0.15320        -4.55864
| 34>    C       -5.45823        -0.32166        -3.22527
| 35>    C       -5.03347         0.64759        -2.28531
| 36>    O       -4.89778         1.95592        -2.60670
| 37>    C       -4.67528         0.50238        -0.95334
| 38>    C       -4.50586        -0.46940         0.13808
| 39>    O       -4.66625        -1.65945         0.17027
| 40>    N       -4.07398         0.31476         1.20454
| 41>    C       -3.92640         1.67576         0.92836
| 42>    O       -3.55802         2.50436         1.71944
| 43>    C       -4.31458         1.78380        -0.47863
| 44>    C       -4.46421         2.66299        -1.54327
| 45>    C       -4.24539         4.05825        -1.69575
| 46>    C       -4.48355         4.64978        -2.89170
| 47>    C       -4.30036         6.03272        -3.17224
| 48>    C       -4.58365         6.61150        -4.35703
| 49>    C       -5.11548         5.90565        -5.55414
| 50>    C       -4.38921         8.09440        -4.56864
| 51>    N       -4.35173         8.87621        -3.35642
| 52>    C       -3.25388         9.29320        -2.70996
| 53>    C       -1.96574         9.09384        -3.12232
| 54>    C       -0.84003         9.65267        -2.50836
| 55>    C        0.42185         9.49603        -3.04290
| 56>    C        1.64583        10.09730        -2.68445
| 57>    C        2.67616         9.83211        -3.54857
| 58>    C        2.30963         8.99471        -4.61751
| 59>    S        0.64608         8.51214        -4.47870
| 60>    C        2.99192         8.59320        -5.76413
| 61>    C        4.22362         8.95213        -6.32320
| 62>    C        4.39965         8.48428        -7.60292
| 63>    C        3.31738         7.73310        -8.11008
| 64>    S        2.10197         7.58034        -6.87589
| 65>    C        3.25556         7.15734        -9.37137
| 66>    C        2.26248         6.40892       -10.00141
| 67>    S        2.78574         5.52573       -11.42763
| 68>    C        1.28480         4.72034       -11.60637
| 69>    C        0.37936         5.10961       -10.65547
| 70>    C        0.89362         6.11654        -9.74822
| 71>    C        0.00366         6.70839        -8.86225
| 72>    C       -1.30057         6.25363        -8.73389
| 73>    N       -2.18590         6.95480        -7.89319
| 74>    O       -1.72564         7.64553        -6.99075
| 75>    O       -3.38918         6.86714        -8.11778
| 76>    C       -1.75385         5.16659        -9.53917
| 77>    N       -2.99762         4.49353        -9.28537
| 78>    O       -3.28823         4.25924        -8.13247
| 79>    O       -3.63153         4.11054       -10.24766
| 80>    C       -0.94551         4.63672       -10.50258
| 81>    H       -4.85762         2.37855        -7.83054
| 82>    H       -5.99068        -2.50019        -8.11406
| 83>    H       -4.58393         2.21946       -10.60743
| 84>    H       -5.55710        -1.31106        -2.79676
| 85>    H       -3.87309        -0.07663         2.11378
| 86>    H       -3.88757         4.59438        -0.82981
| 87>    H       -4.84849         4.01759        -3.68737
| 88>    H       -3.91010         6.63791        -2.36274
| 89>    H       -4.95268         4.83421        -5.51814
| 90>    H       -4.65173         6.29457        -6.45975
| 91>    H       -6.18807         6.08513        -5.64197
| 92>    H       -5.21151         8.46816        -5.18789
| 93>    H       -3.46696         8.25000        -5.13753
| 94>    H       -5.24109         8.99762        -2.89655
| 95>    H       -3.44327         9.86549        -1.81007
| 96>    H       -1.78442         8.49989        -4.00630
| 97>    H       -0.95699        10.26363        -1.62321
| 98>    H        1.73177        10.73419        -1.82119
| 99>    H        3.67109        10.22794        -3.44754
|100>    H        4.93794         9.56297        -5.80024
|101>    H        5.27217         8.68414        -8.19975
|102>    H        4.17262         7.24786        -9.94311
|103>    H        1.14319         4.01956       -12.40399
|104>    H        0.26966         7.57769        -8.28800
|105>    H       -1.29887         3.82550       -11.12085
|106> *
|107>
|108>                          ****END OF INPUT****

CARTESIAN COORDINATES (ANGSTROEM)
---------------------------------
  C     -6.028380   -1.235240   -5.473410
  C     -6.603120   -2.430760   -5.136670
  C     -6.927660   -3.435930   -6.072480
  N     -7.208010   -4.287490   -6.788800
  C     -7.025340   -2.791050   -3.837870
  N     -7.437350   -3.138890   -2.824820
  C     -5.743900   -0.778860   -6.826170
  C     -5.415400    0.598260   -6.778670
  C     -5.110390    1.331440   -7.900910
  C     -5.123790    0.665750   -9.130730
  C     -5.444980   -0.714060   -9.169500
  C     -5.758250   -1.451310   -8.034880
  S     -5.389950   -1.336330  -10.790550
  C     -4.945060    0.245500  -11.383430
  C     -4.843510    1.191510  -10.421890
  Br    -4.647500    0.488430  -13.217940
  C     -5.472800    1.074600   -5.384960
  O     -5.401980    2.228740   -5.030790
  C     -5.684420   -0.153200   -4.558640
  C     -5.458230   -0.321660   -3.225270
  C     -5.033470    0.647590   -2.285310
  O     -4.897780    1.955920   -2.606700
  C     -4.675280    0.502380   -0.953340
  C     -4.505860   -0.469400    0.138080
  O     -4.666250   -1.659450    0.170270
  N     -4.073980    0.314760    1.204540
  C     -3.926400    1.675760    0.928360
  O     -3.558020    2.504360    1.719440
  C     -4.314580    1.783800   -0.478630
  C     -4.464210    2.662990   -1.543270
  C     -4.245390    4.058250   -1.695750
  C     -4.483550    4.649780   -2.891700
  C     -4.300360    6.032720   -3.172240
  C     -4.583650    6.611500   -4.357030
  C     -5.115480    5.905650   -5.554140
  C     -4.389210    8.094400   -4.568640
  N     -4.351730    8.876210   -3.356420
  C     -3.253880    9.293200   -2.709960
  C     -1.965740    9.093840   -3.122320
  C     -0.840030    9.652670   -2.508360
  C      0.421850    9.496030   -3.042900
  C      1.645830   10.097300   -2.684450
  C      2.676160    9.832110   -3.548570
  C      2.309630    8.994710   -4.617510
  S      0.646080    8.512140   -4.478700
  C      2.991920    8.593200   -5.764130
  C      4.223620    8.952130   -6.323200
  C      4.399650    8.484280   -7.602920
  C      3.317380    7.733100   -8.110080
  S      2.101970    7.580340   -6.875890
  C      3.255560    7.157340   -9.371370
  C      2.262480    6.408920  -10.001410
  S      2.785740    5.525730  -11.427630
  C      1.284800    4.720340  -11.606370
  C      0.379360    5.109610  -10.655470
  C      0.893620    6.116540   -9.748220
  C      0.003660    6.708390   -8.862250
  C     -1.300570    6.253630   -8.733890
  N     -2.185900    6.954800   -7.893190
  O     -1.725640    7.645530   -6.990750
  O     -3.389180    6.867140   -8.117780
  C     -1.753850    5.166590   -9.539170
  N     -2.997620    4.493530   -9.285370
  O     -3.288230    4.259240   -8.132470
  O     -3.631530    4.110540  -10.247660
  C     -0.945510    4.636720  -10.502580
  H     -4.857620    2.378550   -7.830540
  H     -5.990680   -2.500190   -8.114060
  H     -4.583930    2.219460  -10.607430
  H     -5.557100   -1.311060   -2.796760
  H     -3.873090   -0.076630    2.113780
  H     -3.887570    4.594380   -0.829810
  H     -4.848490    4.017590   -3.687370
  H     -3.910100    6.637910   -2.362740
  H     -4.952680    4.834210   -5.518140
  H     -4.651730    6.294570   -6.459750
  H     -6.188070    6.085130   -5.641970
  H     -5.211510    8.468160   -5.187890
  H     -3.466960    8.250000   -5.137530
  H     -5.241090    8.997620   -2.896550
  H     -3.443270    9.865490   -1.810070
  H     -1.784420    8.499890   -4.006300
  H     -0.956990   10.263630   -1.623210
  H      1.731770   10.734190   -1.821190
  H      3.671090   10.227940   -3.447540
  H      4.937940    9.562970   -5.800240
  H      5.272170    8.684140   -8.199750
  H      4.172620    7.247860   -9.943110
  H      1.143190    4.019560  -12.403990
  H      0.269660    7.577690   -8.288000
  H     -1.298870    3.825500  -11.120850

 Total Charge           Charge          ....    0
 Multiplicity           Mult            ....    1
 Number of Electrons    NEL             ....  512
 Basis Dimension        Dim             .... 1083

ORBITAL ENERGIES
----------------

  NO   OCC          E(Eh)            E(eV)
   0   2.0000    -482.875554    -13139.7118
   1   2.0000     -88.968243     -2420.9490
   2   2.0000     -88.964445     -2420.8456
   3   2.0000     -88.949902     -2420.4499
   4   2.0000     -88.949318     -2420.4340
   5   2.0000     -62.553236     -1702.1601
   6   2.0000     -56.387169     -1534.3729
   7   2.0000     -56.384476     -1534.2996
   8   2.0000     -56.384461     -1534.2992
   9   2.0000     -19.301337      -525.2161
  10   2.0000     -19.254751      -523.9484
  11   2.0000     -19.253578      -523.9165
  12   2.0000     -19.238951      -523.5185
  13   2.0000     -19.238680      -523.5111
  14   2.0000     -19.212014      -522.7855
  15   2.0000     -19.209275      -522.7109
  16   2.0000     -19.206163      -522.6263
  17   2.0000     -14.657719      -398.8568
  18   2.0000     -14.643884      -398.4803
  19   2.0000     -14.467774      -393.6881
  20   2.0000     -14.450286      -393.2123
  21   2.0000     -14.409352      -392.0984
  22   2.0000     -14.407630      -392.0516
  23   2.0000     -10.398139      -282.9477
  24   2.0000     -10.395904      -282.8869
  25   2.0000     -10.365060      -282.0476
  26   2.0000     -10.363410      -282.0027
  27   2.0000     -10.358367      -281.8655
  28   2.0000     -10.348800      -281.6052
  29   2.0000     -10.346110      -281.5320
  30   2.0000     -10.342405      -281.4311
  31   2.0000     -10.337364      -281.2940
  32   2.0000     -10.335861      -281.2531
  33   2.0000     -10.330041      -281.0947
  34   2.0000     -10.325814      -280.9797
  35   2.0000     -10.324910      -280.9551
  36   2.0000     -10.320246      -280.8282
  37   2.0000     -10.319209      -280.8000
  38   2.0000     -10.317216      -280.7457
  39   2.0000     -10.315819      -280.7077
  40   2.0000     -10.311969      -280.6029
  41   2.0000     -10.309544      -280.5370
  42   2.0000     -10.308915      -280.5198
  43   2.0000     -10.308822      -280.5173
  44   2.0000     -10.307312      -280.4762
  45   2.0000     -10.303404      -280.3699
  46   2.0000     -10.302221      -280.3377
  47   2.0000     -10.302164      -280.3361
  48   2.0000     -10.300657      -280.2951
  49   2.0000     -10.300104      -280.2801
  50   2.0000     -10.299087      -280.2524
  51   2.0000     -10.298445      -280.2349
  52   2.0000     -10.297987      -280.2225
  53   2.0000     -10.296785      -280.1898
  54   2.0000     -10.296193      -280.1737
  55   2.0000     -10.295683      -280.1598
  56   2.0000     -10.293699      -280.1058
  57   2.0000     -10.292564      -280.0749
  58   2.0000     -10.287597      -279.9397
  59   2.0000     -10.287026      -279.9242
  60   2.0000     -10.286539      -279.9109
  61   2.0000     -10.283975      -279.8412
  62   2.0000     -10.282638      -279.8048
  63   2.0000     -10.280712      -279.7524
  64   2.0000     -10.280675      -279.7514
  65   2.0000     -10.278540      -279.6933
  66   2.0000     -10.278465      -279.6913
  67   2.0000     -10.275053      -279.5984
  68   2.0000     -10.269115      -279.4368
  69   2.0000     -10.251005      -278.9440
  70   2.0000      -8.782641      -238.9878
  71   2.0000      -8.064137      -219.4363
  72   2.0000      -8.060459      -219.3362
  73   2.0000      -8.046298      -218.9509
  74   2.0000      -8.045572      -218.9312
  75   2.0000      -6.618841      -180.1078
  76   2.0000      -6.604454      -179.7163
  77   2.0000      -6.604211      -179.7097
  78   2.0000      -6.033307      -164.1746
  79   2.0000      -6.030140      -164.0885
  80   2.0000      -6.029025      -164.0581
  81   2.0000      -6.026564      -163.9911
  82   2.0000      -6.025903      -163.9731
  83   2.0000      -6.021679      -163.8582
  84   2.0000      -6.015888      -163.7006
  85   2.0000      -6.015155      -163.6807
  86   2.0000      -6.011732      -163.5876
  87   2.0000      -6.010924      -163.5656
  88   2.0000      -6.007497      -163.4723
  89   2.0000      -6.006917      -163.4565
  90   2.0000      -2.734749       -74.4163
  91   2.0000      -2.730689       -74.3058
  92   2.0000      -2.730541       -74.3018
  93   2.0000      -2.719084       -73.9900
  94   2.0000      -2.719077       -73.9899
  95   2.0000      -1.333551       -36.2878
  96   2.0000      -1.311786       -35.6955
  97   2.0000      -1.227439       -33.4003
  98   2.0000      -1.152371       -31.3576
  99   2.0000      -1.151460       -31.3328
 100   2.0000      -1.131784       -30.7974
 101   2.0000      -1.128483       -30.7076
 102   2.0000      -1.128431       -30.7062
 103   2.0000      -1.062818       -28.9207
 104   2.0000      -1.039278       -28.2802
 105   2.0000      -1.014681       -27.6109
 106   2.0000      -1.011170       -27.5153
 107   2.0000      -1.004036       -27.3212
 108   2.0000      -1.001977       -27.2652
 109   2.0000      -0.987073       -26.8596
 110   2.0000      -0.982447       -26.7337
 111   2.0000      -0.979551       -26.6550
 112   2.0000      -0.972816       -26.4717
 113   2.0000      -0.939441       -25.5635
 114   2.0000      -0.929688       -25.2981
 115   2.0000      -0.921500       -25.0753
 116   2.0000      -0.918217       -24.9859
 117   2.0000      -0.912516       -24.8308
 118   2.0000      -0.908601       -24.7243
 119   2.0000      -0.900038       -24.4913
 120   2.0000      -0.892986       -24.2994
 121   2.0000      -0.887290       -24.1444
 122   2.0000      -0.880191       -23.9512
 123   2.0000      -0.874734       -23.8027
 124   2.0000      -0.863845       -23.5064
 125   2.0000      -0.860259       -23.4088
 126   2.0000      -0.844626       -22.9834
 127   2.0000      -0.835692       -22.7403
 128   2.0000      -0.826137       -22.4803
 129   2.0000      -0.822206       -22.3733
 130   2.0000      -0.817525       -22.2460
 131   2.0000      -0.803967       -21.8771
 132   2.0000      -0.791172       -21.5289
 133   2.0000      -0.783717       -21.3260
 134   2.0000      -0.778518       -21.1845
 135   2.0000      -0.770273       -20.9602
 136   2.0000      -0.760685       -20.6993
 137   2.0000      -0.759017       -20.6539
 138   2.0000      -0.752096       -20.4656
 139   2.0000      -0.746579       -20.3154
 140   2.0000      -0.730920       -19.8894
 141   2.0000      -0.712582       -19.3903
 142   2.0000      -0.707792       -19.2600
 143   2.0000      -0.700625       -19.0650
 144   2.0000      -0.696932       -18.9645
 145   2.0000      -0.686410       -18.6782
 146   2.0000      -0.680553       -18.5188
 147   2.0000      -0.671736       -18.2789
 148   2.0000      -0.669521       -18.2186
 149   2.0000      -0.665177       -18.1004
 150   2.0000      -0.663110       -18.0442
 151   2.0000      -0.656912       -17.8755
 152   2.0000      -0.648107       -17.6359
 153   2.0000      -0.641756       -17.4631
 154   2.0000      -0.638119       -17.3641
 155   2.0000      -0.634655       -17.2698
 156   2.0000      -0.628215       -17.0946
 157   2.0000      -0.623977       -16.9793
 158   2.0000      -0.623452       -16.9650
 159   2.0000      -0.620403       -16.8820
 160   2.0000      -0.617929       -16.8147
 161   2.0000      -0.611646       -16.6437
 162   2.0000      -0.607878       -16.5412
 163   2.0000      -0.604895       -16.4600
 164   2.0000      -0.600688       -16.3456
 165   2.0000      -0.597933       -16.2706
 166   2.0000      -0.590497       -16.0682
 167   2.0000      -0.588508       -16.0141
 168   2.0000      -0.583637       -15.8816
 169   2.0000      -0.583299       -15.8724
 170   2.0000      -0.580710       -15.8019
 171   2.0000      -0.575599       -15.6628
 172   2.0000      -0.571022       -15.5383
 173   2.0000      -0.564340       -15.3565
 174   2.0000      -0.554149       -15.0792
 175   2.0000      -0.552030       -15.0215
 176   2.0000      -0.551136       -14.9972
 177   2.0000      -0.546258       -14.8644
 178   2.0000      -0.542028       -14.7493
 179   2.0000      -0.539292       -14.6749
 180   2.0000      -0.536097       -14.5879
 181   2.0000      -0.530659       -14.4400
 182   2.0000      -0.528979       -14.3943
 183   2.0000      -0.526551       -14.3282
 184   2.0000      -0.524744       -14.2790
 185   2.0000      -0.523186       -14.2366
 186   2.0000      -0.521250       -14.1839
 187   2.0000      -0.514465       -13.9993
 188   2.0000      -0.512995       -13.9593
 189   2.0000      -0.510916       -13.9027
 190   2.0000      -0.508906       -13.8480
 191   2.0000      -0.508195       -13.8287
 192   2.0000      -0.501768       -13.6538
 193   2.0000      -0.500315       -13.6143
 194   2.0000      -0.498619       -13.5681
 195   2.0000      -0.497835       -13.5468
 196   2.0000      -0.493041       -13.4163
 197   2.0000      -0.491100       -13.3635
 198   2.0000      -0.486470       -13.2375
 199   2.0000      -0.484839       -13.1931
 200   2.0000      -0.482351       -13.1254
 201   2.0000      -0.479013       -13.0346
 202   2.0000      -0.473846       -12.8940
 203   2.0000      -0.471021       -12.8171
 204   2.0000      -0.468801       -12.7567
 205   2.0000      -0.466441       -12.6925
 206   2.0000      -0.463876       -12.6227
 207   2.0000      -0.462315       -12.5802
 208   2.0000      -0.458294       -12.4708
 209   2.0000      -0.453134       -12.3304
 210   2.0000      -0.450216       -12.2510
 211   2.0000      -0.446982       -12.1630
 212   2.0000      -0.441775       -12.0213
 213   2.0000      -0.441408       -12.0113
 214   2.0000      -0.438242       -11.9252
 215   2.0000      -0.435894       -11.8613
 216   2.0000      -0.434434       -11.8216
 217   2.0000      -0.432878       -11.7792
 218   2.0000      -0.430794       -11.7225
 219   2.0000      -0.429776       -11.6948
 220   2.0000      -0.428709       -11.6658
 221   2.0000      -0.427106       -11.6222
 222   2.0000      -0.420716       -11.4483
 223   2.0000      -0.419455       -11.4140
 224   2.0000      -0.416423       -11.3314
 225   2.0000      -0.408257       -11.1093
 226   2.0000      -0.403827       -10.9887
 227   2.0000      -0.402416       -10.9503
 228   2.0000      -0.400874       -10.9083
 229   2.0000      -0.397552       -10.8179
 230   2.0000      -0.391753       -10.6601
 231   2.0000      -0.387935       -10.5562
 232   2.0000      -0.385019       -10.4769
 233   2.0000      -0.383654       -10.4398
 234   2.0000      -0.380221       -10.3463
 235   2.0000      -0.376458       -10.2439
 236   2.0000      -0.371222       -10.1015
 237   2.0000      -0.369884       -10.0651
 238   2.0000      -0.366550        -9.9743
 239   2.0000      -0.364882        -9.9289
 240   2.0000      -0.362563        -9.8658
 241   2.0000      -0.357599        -9.7308
 242   2.0000      -0.352059        -9.5800
 243   2.0000      -0.348295        -9.4776
 244   2.0000      -0.342020        -9.3068
 245   2.0000      -0.341049        -9.2804
 246   2.0000      -0.330573        -8.9953
 247   2.0000      -0.330444        -8.9918
 248   2.0000      -0.321204        -8.7404
 249   2.0000      -0.315588        -8.5876
 250   2.0000      -0.306598        -8.3429
 251   2.0000      -0.305298        -8.3076
 252   2.0000      -0.283366        -7.7108
 253   2.0000      -0.266674        -7.2566
 254   2.0000      -0.259130        -7.0513
 255   2.0000      -0.205565        -5.5937
 256   0.0000      -0.092396        -2.5142
 257   0.0000      -0.090458        -2.4615
 258   0.0000      -0.055681        -1.5152
 259   0.0000      -0.053500        -1.4558
 260   0.0000      -0.049712        -1.3527

MULLIKEN ATOMIC CHARGES
-----------------------
   0 C :    0.281921
   1 C :   -0.338509
   2 C :   -0.184037
   3 N :    0.148418
   4 C :   -0.203886
   5 N :    0.173831
   6 C :    0.025038
   7 C :   -0.008390
   8 C :   -0.071473
   9 C :    0.110125
  10 C :   -0.087878
  11 C :   -0.023777
  12 S :    0.174978
  13 C :   -0.126167
  14 C :    0.042977
  15 Br:    0.012963
  16 C :    0.143983
  17 O :   -0.122761
  18 C :   -0.065259
  19 C :   -0.038255
  20 C :    0.066188
  21 O :   -0.175328
  22 C :   -0.012474
  23 C :    0.167914
  24 O :   -0.128761
  25 N :   -0.169119
  26 C :    0.163236
  27 O :   -0.142982
  28 C :   -0.045475
  29 C :    0.104275
  30 C :   -0.053785
  31 C :    0.045950
  32 C :    0.002049
  33 C :   -0.190590
  34 C :    0.074444
  35 C :    0.188475
  36 N :   -0.131936
  37 C :    0.082913
  38 C :   -0.077886
  39 C :    0.047157
  40 C :   -0.063912
  41 C :    0.059306
  42 C :    0.006482
  43 C :   -0.009531
  44 S :    0.079791
  45 C :   -0.064130
  46 C :    0.049029
  47 C :    0.005324
  48 C :   -0.015602
  49 S :    0.060593
  50 C :   -0.011340
  51 C :   -0.117036
  52 S :    0.140592
  53 C :   -0.126029
  54 C :    0.094334
  55 C :    0.137853
  56 C :   -0.072686
  57 C :    0.101901
  58 N :    0.278512
  59 O :   -0.260471
  60 O :   -0.263199
  61 C :    0.078725
  62 N :    0.276351
  63 O :   -0.213425
  64 O :   -0.236898
  65 C :   -0.032736
  66 H :   -0.015832
  67 H :   -0.006977
  68 H :   -0.008945
  69 H :    0.033574
  70 H :    0.138676
  71 H :   -0.001381
  72 H :    0.028704
  73 H :   -0.032884
  74 H :    0.041788
  75 H :    0.034471
  76 H :    0.025121
  77 H :    0.026991
  78 H :    0.060250
  79 H :    0.135866
  80 H :    0.015110
  81 H :    0.038963
  82 H :   -0.010001
  83 H :   -0.008875
  84 H :   -0.015176
  85 H :   -0.012233
  86 H :   -0.017078
  87 H :   -0.021330
  88 H :    0.022827
  89 H :    0.012686
  90 H :   -0.004221
Sum of atomic charges:   -0.0000000

LOEWDIN ATOMIC CHARGES
----------------------
   0 C :    0.073876
   1 C :   -0.136058
   2 C :   -0.017215
   3 N :   -0.051978
   4 C :   -0.029146
   5 N :   -0.040171
   6 C :   -0.023209
   7 C :   -0.054778
   8 C :    0.028193
   9 C :   -0.030641
  10 C :   -0.143080
  11 C :   -0.013186
  12 S :    0.422558
  13 C :   -0.275378
  14 C :   -0.067074
  15 Br:    0.128730
  16 C :    0.085300
  17 O :   -0.131053
  18 C :   -0.074059
  19 C :    0.042187
  20 C :    0.038545
  21 O :    0.045888
  22 C :   -0.060822
  23 C :    0.083550
  24 O :   -0.144792
  25 N :   -0.007889
  26 C :    0.085214
  27 O :   -0.161355
  28 C :   -0.114377
  29 C :    0.096027
  30 C :   -0.067719
  31 C :    0.038064
  32 C :   -0.072270
  33 C :    0.006688
  34 C :   -0.054314
  35 C :    0.041765
  36 N :    0.037289
  37 C :    0.074747
  38 C :   -0.131822
  39 C :    0.013990
  40 C :   -0.191780
  41 C :   -0.004695
  42 C :   -0.064890
  43 C :   -0.140386
  44 S :    0.411820
  45 C :   -0.220150
  46 C :   -0.016508
  47 C :   -0.067035
  48 C :   -0.128816
  49 S :    0.426589
  50 C :   -0.129807
  51 C :   -0.128921
  52 S :    0.466108
  53 C :   -0.202863
  54 C :   -0.050072
  55 C :   -0.078055
  56 C :    0.034333
  57 C :   -0.078115
  58 N :    0.293889
  59 O :   -0.235158
  60 O :   -0.225249
  61 C :   -0.030224
  62 N :    0.294565
  63 O :   -0.185210
  64 O :   -0.196706
  65 C :    0.021366
  66 H :    0.036450
  67 H :    0.039981
  68 H :    0.032553
  69 H :    0.059381
  70 H :    0.094822
  71 H :    0.039011
  72 H :    0.037052
  73 H :    0.020589
  74 H :    0.036494
  75 H :    0.032490
  76 H :    0.040725
  77 H :    0.038596
  78 H :    0.044687
  79 H :    0.088041
  80 H :    0.033999
  81 H :    0.024680
  82 H :    0.034975
  83 H :    0.034693
  84 H :    0.031272
  85 H :    0.033549
  86 H :    0.030028
  87 H :    0.030575
  88 H :    0.026035
  89 H :    0.020694
  90 H :    0.044373

  Mayer bond orders larger than 0.100000
B(  0-C ,  1-C ) :   1.6535 B(  0-C ,  6-C ) :   1.0141 B(  0-C , 18-C ) :   1.0427
B(  1-C ,  2-C ) :   1.1393 B(  1-C ,  4-C ) :   1.1332 B(  2-C ,  3-N ) :   2.9777
B(  4-C ,  5-N ) :   3.0054 B(  6-C ,  7-C ) :   1.2644 B(  6-C , 11-C ) :   1.4070
B(  7-C ,  8-C ) :   1.4067 B(  7-C , 16-C ) :   0.9450 B(  8-C ,  9-C ) :   1.2580
B(  8-C , 66-H ) :   1.0094 B(  9-C , 10-C ) :   1.2912 B(  9-C , 14-C ) :   1.1704
B( 10-C , 11-C ) :   1.3360 B( 10-C , 12-S ) :   1.0862 B( 11-C , 67-H ) :   0.9814
B( 12-S , 13-C ) :   1.0750 B( 13-C , 14-C ) :   1.6080 B( 13-C , 15-Br) :   1.0154
B( 14-C , 68-H ) :   0.9852 B( 16-C , 17-O ) :   2.1929 B( 16-C , 18-C ) :   0.9213
B( 18-C , 19-C ) :   1.5785 B( 19-C , 20-C ) :   1.2115 B( 19-C , 69-H ) :   0.9371
B( 20-C , 21-O ) :   1.1504 B( 20-C , 22-C ) :   1.3755 B( 21-O , 29-C ) :   1.1974
B( 22-C , 23-C ) :   0.8653 B( 22-C , 28-C ) :   1.3129 B( 23-C , 24-O ) :   2.2695
B( 23-C , 25-N ) :   1.0845 B( 25-N , 26-C ) :   1.0687 B( 25-N , 70-H ) :   0.9140
B( 26-C , 27-O ) :   2.2761 B( 26-C , 28-C ) :   0.8831 B( 28-C , 29-C ) :   1.3251
B( 29-C , 30-C ) :   1.1713 B( 30-C , 31-C ) :   1.6267 B( 30-C , 71-H ) :   0.9748
B( 31-C , 32-C ) :   1.1102 B( 31-C , 72-H ) :   0.9701 B( 32-C , 33-C ) :   1.7355
B( 32-C , 73-H ) :   0.9692 B( 33-C , 34-C ) :   1.0894 B( 33-C , 35-C ) :   1.0125
B( 34-C , 74-H ) :   0.9412 B( 34-C , 75-H ) :   0.9281 B( 34-C , 76-H ) :   0.9299
B( 35-C , 36-N ) :   0.9859 B( 35-C , 77-H ) :   0.9368 B( 35-C , 78-H ) :   0.8969
B( 36-N , 37-C ) :   1.2983 B( 36-N , 79-H ) :   0.9375 B( 37-C , 38-C ) :   1.5189
B( 37-C , 80-H ) :   0.9698 B( 38-C , 39-C ) :   1.2362 B( 38-C , 81-H ) :   0.9530
B( 39-C , 40-C ) :   1.4952 B( 39-C , 82-H ) :   0.9864 B( 40-C , 41-C ) :   1.1986
B( 40-C , 44-S ) :   1.0264 B( 41-C , 42-C ) :   1.5214 B( 41-C , 83-H ) :   0.9971
B( 42-C , 43-C ) :   1.2457 B( 42-C , 84-H ) :   0.9977 B( 43-C , 44-S ) :   1.1170
B( 43-C , 45-C ) :   1.3741 B( 45-C , 46-C ) :   1.2716 B( 45-C , 49-S ) :   1.0398
B( 46-C , 47-C ) :   1.4984 B( 46-C , 85-H ) :   0.9936 B( 47-C , 48-C ) :   1.2209
B( 47-C , 86-H ) :   0.9981 B( 48-C , 49-S ) :   1.0784 B( 48-C , 50-C ) :   1.4703
B( 50-C , 51-C ) :   1.2919 B( 50-C , 87-H ) :   0.9377 B( 51-C , 52-S ) :   1.1720
B( 51-C , 55-C ) :   1.2390 B( 52-S , 53-C ) :   1.1304 B( 53-C , 54-C ) :   1.4926
B( 53-C , 88-H ) :   0.9708 B( 54-C , 55-C ) :   1.1513 B( 54-C , 65-C ) :   1.1107
B( 55-C , 56-C ) :   1.2340 B( 56-C , 57-C ) :   1.4615 B( 56-C , 89-H ) :   0.9574
B( 57-C , 58-N ) :   0.9531 B( 57-C , 61-C ) :   1.1712 B( 58-N , 59-O ) :   1.4838
B( 58-N , 60-O ) :   1.4688 B( 59-O , 60-O ) :   0.2299 B( 61-C , 62-N ) :   0.8716
B( 61-C , 65-C ) :   1.5866 B( 62-N , 63-O ) :   1.5435 B( 62-N , 64-O ) :   1.4959
B( 63-O , 64-O ) :   0.2579 B( 65-C , 90-H ) :   1.0053

-----------------------------------------------------------------------------
         ABSORPTION SPECTRUM VIA TRANSITION ELECTRIC DIPOLE MOMENTS
-----------------------------------------------------------------------------
State   Energy  Wavelength   fosc         T2         TX        TY        TZ
        (cm-1)    (nm)                  (au**2)     (au)      (au)      (au)
-----------------------------------------------------------------------------
   0    9740.8   1026.6   0.345384811  11.67306   0.36202  -1.46388  -3.06579
   1   14971.6    667.9   0.013521747   0.29733  -0.19801  -0.43126  -0.26859
   2   16777.9    596.0   0.044842519   0.87989  -0.70194   0.12736   0.60906
   3   18409.1    543.2   0.352835158   6.30978   2.11325  -0.13572  -1.35112
   4   20400.3    490.2   0.715106512  11.54010   1.14557   2.48625   2.01155
   5   22444.9    445.5   0.587944380   8.62372  -2.58486   0.02659   1.39339
   6   22901.3    436.7   0.003603438   0.05180   0.14893   0.14251  -0.09649
   7   23796.2    420.2   0.015652966   0.21655  -0.22130  -0.40848  -0.02689
   8   24347.2    410.7   0.032730587   0.44257  -0.48773   0.36285   0.27023
   9   25521.6    391.8   0.257138631   3.31692  -1.67961  -0.68954   0.14264
  10   25615.2    390.4   0.109790088   1.41104  -0.16926  -0.38081   1.11237
  11   27342.0    365.7   0.009707199   0.11688  -0.11040  -0.00116  -0.32356
  12   27586.0    362.5   0.012042301   0.14371  -0.26423  -0.15408   0.22396
  13   27705.4    360.9   0.060564687   0.71967   0.05858   0.08720  -0.84180
  14   28657.7    348.9   0.035165504   0.40397  -0.24745  -0.47487   0.34240
  15   28846.7    346.7   0.016949837   0.19344  -0.22246   0.22722   0.30385
  16   29677.8    337.0   0.123127121   1.36583  -0.45641  -0.63362  -0.86951
  17   30193.8    331.2   0.134567762   1.46723   1.00578   0.60847  -0.29223
  18   30739.2    325.3   0.244512090   2.61869   0.50957   1.48924  -0.37576
  19   31024.8    322.3   0.129663188   1.37589   0.74601  -0.89857   0.10920
  20   31290.9    319.6   0.010513700   0.11061   0.22252   0.05416   0.24117
  21   31517.2    317.3   0.127997363   1.33699  -0.87557  -0.26196  -0.70834
  22   31880.5    313.7   0.019494753   0.20131   0.08840   0.19369  -0.39495
  23   32089.6    311.6   0.082861042   0.85008   0.85189   0.35158   0.02758
  24   32274.7    309.8   0.689243783   7.03051  -0.48206  -1.41304   2.19122
  25   32558.3    307.1   0.003613756   0.03654   0.10744   0.15748   0.01403
  26   32728.9    305.5   0.267432068   2.69003  -0.08575   0.67595  -1.49190
  27   33142.2    301.7   0.015975982   0.15869   0.32454   0.21032   0.09555
  28   33254.0    300.7   0.078757072   0.77969  -0.41529   0.32921   0.70629
  29   33321.4    300.1   0.013358403   0.13198   0.10737   0.06703   0.34053
  30   33462.3    298.8   0.013602357   0.13382   0.05709  -0.05662   0.35687
  31   33691.8    296.8   0.500137199   4.88699   0.65204  -0.41103   2.07193
  32   35156.6    284.4   0.014780201   0.13840   0.11135   0.24579  -0.25612
  33   35406.3    282.4   0.046769404   0.43487   0.55008   0.27216  -0.24126
  34   36093.1    277.1   0.044210543   0.40325   0.15610   0.05189   0.61335
  35   36255.4    275.8   0.079752036   0.72418  -0.81292  -0.24664  -0.04999
  36   36458.8    274.3   0.043680750   0.39442   0.52890   0.29928   0.15848
  37   36701.6    272.5   0.084111926   0.75448   0.07148   0.65102   0.57057
  38   36872.7    271.2   0.006086144   0.05434   0.20381  -0.01316   0.11238
  39   36972.8    270.5   0.151577375   1.34967  -0.23156  -0.65725  -0.92955
  40   36998.3    270.3   0.009886803   0.08797  -0.14869  -0.19924  -0.16177
  41   37223.3    268.6   0.250506876   2.21554   0.31844  -0.75804  -1.24077
  42   37720.0    265.1   0.038831513   0.33891  -0.56393   0.01378   0.14390
  43   37946.6    263.5   0.079416397   0.68899  -0.71255   0.05324   0.42240
  44   38619.8    258.9   0.000697112   0.00594  -0.03210  -0.06986  -0.00559
  45   38668.6    258.6   0.109887965   0.93555  -0.17846  -0.85949   0.40619
  46   39239.7    254.8   0.008237957   0.06911   0.00346  -0.24669   0.09080
  47   39406.0    253.8   0.059299832   0.49541  -0.45146   0.44154   0.31087
  48   39617.3    252.4   0.075871102   0.63047   0.15409   0.56725  -0.53381
  49   39740.2    251.6   0.005765064   0.04776  -0.07654  -0.18683  -0.08363
  50   39904.4    250.6   0.079666265   0.65725   0.06283   0.38996  -0.70798
  51   39975.3    250.2   0.023667068   0.19491  -0.10946  -0.02020  -0.42722
  52   40169.4    248.9   0.017522586   0.14361   0.03145  -0.14815   0.34738
  53   40306.3    248.1   0.001156765   0.00945   0.06276   0.03287   0.06655

FINAL SINGLE POINT ENERGY     -6898.936740455884

DIPOLE MOMENT
-------------
                                X             Y             Z
Electronic contribution:    -28.16768     -77.92231     -89.69746
Nuclear contribution   :     30.91169      83.32781      89.62366
                        -----------------------------------------
Total Dipole Moment    :      2.74401       5.40550      -0.07380
                        -----------------------------------------
Magnitude (a.u.)       :      6.06255
Magnitude (Debye)      :     15.40977

Rotational constants in cm-1:     0.000914     0.000650     0.000427
Rotational constants in MHz :    27.398010    19.487219    12.797411

                             ****ORCA TERMINATED NORMALLY****
TOTAL RUN TIME: 0 days 0 hours 9 minutes 58 seconds 721 msec
