                         Program Version 4.2.0 -  RELEASE  -
|  1> # ORCA input file
|  2> # SCF done       -194.939557994403          0.000561890067
|  3> ! CAM-B3LYP def2-SVP def2/J RIJCOSX Grid4 TightSCF
|  4> %maxcore 5000
|  5> %tddft
|  6>     Mode sTDDFT
|  7>     Ethresh 5.0
|  8>     maxcore 5000
|  9> end
| 10>
| 11> %pal
| 12>   nprocs 6
| 13>   end
| 14> * xyz 0 1
| 15>    C      -14.00664        -2.47577        -2.21526
| 16>    C      -14.97230        -1.59446        -2.66850
| 17>    C      -14.60389        -0.61951        -3.60227
| 18>    C      -15.57377         0.28886        -4.09025
| 19>    N      -16.35017         1.03015        -4.48969
| 20>    C      -13.28198        -0.52348        -4.07184
| 21>    C      -12.91063         0.43761        -5.03826
| 22>    N      -12.54544         1.18420        -5.82841
| 23>    C      -12.30681        -1.40252        -3.59329
| 24>    C      -12.68552        -2.36331        -2.68377
| 25>    C      -11.85405        -3.41945        -2.06339
| 26>    O      -10.63568        -3.49734        -2.19030
| 27>    C      -12.75398        -4.21411        -1.24293
| 28>    C      -14.06563        -3.61935        -1.29873
| 29>    C      -15.21258        -4.06383        -0.68223
| 30>    C      -16.45714        -3.41038        -0.77568
| 31>    N      -17.49182        -2.91288        -0.80873
| 32>    C      -15.32236        -5.22790         0.10480
| 33>    N      -15.50690        -6.17116         0.73428
| 34>    C      -12.41557        -5.28104        -0.40845
| 35>    C      -11.32422        -6.14400        -0.47858
| 36>    C      -10.49370        -6.30784        -1.58733
| 37>    C       -9.44734        -7.19631        -1.67273
| 38>    C       -9.21817        -8.21899        -0.64387
| 39>    C       -9.89570        -8.27043         0.52477
| 40>    S      -11.11223        -7.14765         0.97094
| 41>    C       -8.22510        -9.07940        -1.18624
| 42>    C       -7.83470        -8.62356        -2.45302
| 43>    C       -6.83617        -9.44256        -3.02956
| 44>    C       -6.50647       -10.47402        -2.21273
| 45>    S       -7.38110       -10.49459        -0.71301
| 46>    C       -8.54358        -7.42131        -2.75892
| 47>    C       -8.35147        -6.59321        -3.88058
| 48>    C       -8.69872        -5.27073        -3.86811
| 49>    C       -8.76180        -4.36119        -4.93690
| 50>    N       -9.25037        -3.09712        -4.66558
| 51>    C       -9.35827        -2.41807        -5.83079
| 52>    C       -9.77092        -1.22730        -6.40141
| 53>    C       -9.52785        -1.35393        -7.78514
| 54>    N       -8.97065        -2.58630        -8.04336
| 55>    C       -8.86739        -3.26460        -6.87531
| 56>    C       -8.49989        -4.47857        -6.31627
| 57>    C       -9.78297        -0.40954        -8.80595
| 58>    C      -10.42318         0.77209        -8.58136
| 59>    C      -10.68863         1.81065        -9.51220
| 60>    C      -10.28972         1.83545       -10.84109
| 61>    C      -10.51428         2.88137       -11.72164
| 62>    C      -11.28342         4.05455       -11.30513
| 63>    C      -11.78023         4.24310       -10.05779
| 64>    S      -11.57098         3.13178        -8.78071
| 65>    C      -11.38759         4.88951       -12.45188
| 66>    C      -10.73181         4.29522       -13.52473
| 67>    C      -10.79769         5.08526       -14.69233
| 68>    C      -11.49089         6.23484       -14.47644
| 69>    S      -12.08493         6.40580       -12.86058
| 70>    C      -10.15376         3.03992       -13.09977
| 71>    C       -9.41856         2.24885       -13.97698
| 72>    C       -8.69830         1.09381       -13.73090
| 73>    C       -8.05137         0.40840       -14.74607
| 74>    C       -7.33950        -0.78184       -14.63569
| 75>    C       -6.33514        -1.13780       -15.65052
| 76>    O       -6.12604        -0.59538       -16.71432
| 77>    C       -5.59073        -2.29461       -15.07814
| 78>    C       -4.51329        -2.97773       -15.59344
| 79>    C       -3.97704        -4.02884       -14.84162
| 80>    C       -4.53875        -4.36669       -13.59769
| 81>    C       -5.64173        -3.67238       -13.09099
| 82>    C       -6.16223        -2.63262       -13.83691
| 83>    C       -7.31405        -1.75715       -13.60169
| 84>    C       -8.28110        -2.00062       -12.64110
| 85>    C       -9.56691        -1.43047       -12.63349
| 86>    N      -10.64580        -1.03970       -12.55901
| 87>    C       -8.14658        -2.87559       -11.56212
| 88>    N       -8.12080        -3.49440       -10.58904
| 89>    C       -3.98761        -5.42774       -12.84005
| 90>    N       -3.55896        -6.28153       -12.20800
| 91>    C       -2.86696        -4.75465       -15.33297
| 92>    N       -1.96756        -5.33222       -15.74507
| 93>    H      -15.99576        -1.63445        -2.33200
| 94>    H      -11.28903        -1.32836        -3.94205
| 95>    H      -13.08944        -5.46793         0.41894
| 96>    H      -10.74920        -5.72764        -2.45876
| 97>    H       -9.70576        -9.02391         1.27287
| 98>    H       -6.39033        -9.28011        -3.99368
| 99>    H       -5.78581       -11.24833        -2.38906
|100>    H       -7.88365        -7.02666        -4.75363
|101>    H       -8.98417        -4.84085        -2.91818
|102>    H       -9.60038        -2.85291        -3.74636
|103>    H      -10.18372        -0.36340        -5.92178
|104>    H       -8.69525        -2.93579        -8.95977
|105>    H       -8.09628        -5.33995        -6.80789
|106>    H       -9.45435        -0.67913        -9.80019
|107>    H      -10.78848         0.96641        -7.58199
|108>    H       -9.79041         0.95157       -11.19906
|109>    H      -12.34286         5.12486        -9.79397
|110>    H      -10.36352         4.82851       -15.64134
|111>    H      -11.69883         7.01699       -15.18018
|112>    H       -9.41915         2.59355       -15.00526
|113>    H       -8.59691         0.73492       -12.72074
|114>    H       -8.01306         0.86787       -15.72796
|115>    H       -4.09288        -2.71234       -16.55148
|116>    H       -6.05068        -3.95930       -12.13450
|117> *
|118>
|119>                          ****END OF INPUT****

CARTESIAN COORDINATES (ANGSTROEM)
---------------------------------
  C    -14.006640   -2.475770   -2.215260
  C    -14.972300   -1.594460   -2.668500
  C    -14.603890   -0.619510   -3.602270
  C    -15.573770    0.288860   -4.090250
  N    -16.350170    1.030150   -4.489690
  C    -13.281980   -0.523480   -4.071840
  C    -12.910630    0.437610   -5.038260
  N    -12.545440    1.184200   -5.828410
  C    -12.306810   -1.402520   -3.593290
  C    -12.685520   -2.363310   -2.683770
  C    -11.854050   -3.419450   -2.063390
  O    -10.635680   -3.497340   -2.190300
  C    -12.753980   -4.214110   -1.242930
  C    -14.065630   -3.619350   -1.298730
  C    -15.212580   -4.063830   -0.682230
  C    -16.457140   -3.410380   -0.775680
  N    -17.491820   -2.912880   -0.808730
  C    -15.322360   -5.227900    0.104800
  N    -15.506900   -6.171160    0.734280
  C    -12.415570   -5.281040   -0.408450
  C    -11.324220   -6.144000   -0.478580
  C    -10.493700   -6.307840   -1.587330
  C     -9.447340   -7.196310   -1.672730
  C     -9.218170   -8.218990   -0.643870
  C     -9.895700   -8.270430    0.524770
  S    -11.112230   -7.147650    0.970940
  C     -8.225100   -9.079400   -1.186240
  C     -7.834700   -8.623560   -2.453020
  C     -6.836170   -9.442560   -3.029560
  C     -6.506470  -10.474020   -2.212730
  S     -7.381100  -10.494590   -0.713010
  C     -8.543580   -7.421310   -2.758920
  C     -8.351470   -6.593210   -3.880580
  C     -8.698720   -5.270730   -3.868110
  C     -8.761800   -4.361190   -4.936900
  N     -9.250370   -3.097120   -4.665580
  C     -9.358270   -2.418070   -5.830790
  C     -9.770920   -1.227300   -6.401410
  C     -9.527850   -1.353930   -7.785140
  N     -8.970650   -2.586300   -8.043360
  C     -8.867390   -3.264600   -6.875310
  C     -8.499890   -4.478570   -6.316270
  C     -9.782970   -0.409540   -8.805950
  C    -10.423180    0.772090   -8.581360
  C    -10.688630    1.810650   -9.512200
  C    -10.289720    1.835450  -10.841090
  C    -10.514280    2.881370  -11.721640
  C    -11.283420    4.054550  -11.305130
  C    -11.780230    4.243100  -10.057790
  S    -11.570980    3.131780   -8.780710
  C    -11.387590    4.889510  -12.451880
  C    -10.731810    4.295220  -13.524730
  C    -10.797690    5.085260  -14.692330
  C    -11.490890    6.234840  -14.476440
  S    -12.084930    6.405800  -12.860580
  C    -10.153760    3.039920  -13.099770
  C     -9.418560    2.248850  -13.976980
  C     -8.698300    1.093810  -13.730900
  C     -8.051370    0.408400  -14.746070
  C     -7.339500   -0.781840  -14.635690
  C     -6.335140   -1.137800  -15.650520
  O     -6.126040   -0.595380  -16.714320
  C     -5.590730   -2.294610  -15.078140
  C     -4.513290   -2.977730  -15.593440
  C     -3.977040   -4.028840  -14.841620
  C     -4.538750   -4.366690  -13.597690
  C     -5.641730   -3.672380  -13.090990
  C     -6.162230   -2.632620  -13.836910
  C     -7.314050   -1.757150  -13.601690
  C     -8.281100   -2.000620  -12.641100
  C     -9.566910   -1.430470  -12.633490
  N    -10.645800   -1.039700  -12.559010
  C     -8.146580   -2.875590  -11.562120
  N     -8.120800   -3.494400  -10.589040
  C     -3.987610   -5.427740  -12.840050
  N     -3.558960   -6.281530  -12.208000
  C     -2.866960   -4.754650  -15.332970
  N     -1.967560   -5.332220  -15.745070
  H    -15.995760   -1.634450   -2.332000
  H    -11.289030   -1.328360   -3.942050
  H    -13.089440   -5.467930    0.418940
  H    -10.749200   -5.727640   -2.458760
  H     -9.705760   -9.023910    1.272870
  H     -6.390330   -9.280110   -3.993680
  H     -5.785810  -11.248330   -2.389060
  H     -7.883650   -7.026660   -4.753630
  H     -8.984170   -4.840850   -2.918180
  H     -9.600380   -2.852910   -3.746360
  H    -10.183720   -0.363400   -5.921780
  H     -8.695250   -2.935790   -8.959770
  H     -8.096280   -5.339950   -6.807890
  H     -9.454350   -0.679130   -9.800190
  H    -10.788480    0.966410   -7.581990
  H     -9.790410    0.951570  -11.199060
  H    -12.342860    5.124860   -9.793970
  H    -10.363520    4.828510  -15.641340
  H    -11.698830    7.016990  -15.180180
  H     -9.419150    2.593550  -15.005260
  H     -8.596910    0.734920  -12.720740
  H     -8.013060    0.867870  -15.727960
  H     -4.092880   -2.712340  -16.551480
  H     -6.050680   -3.959300  -12.134500

 Total Charge           Charge          ....    0
 Multiplicity           Mult            ....    1
 Number of Electrons    NEL             ....  546
 Basis Dimension        Dim             .... 1228

ORBITAL ENERGIES
----------------

  NO   OCC          E(Eh)            E(eV)
   0   2.0000     -88.998239     -2421.7652
   1   2.0000     -88.978095     -2421.2171
   2   2.0000     -88.977137     -2421.1910
   3   2.0000     -88.968796     -2420.9640
   4   2.0000     -19.234533      -523.3983
   5   2.0000     -19.215704      -522.8859
   6   2.0000     -14.459860      -393.4728
   7   2.0000     -14.455872      -393.3643
   8   2.0000     -14.441518      -392.9737
   9   2.0000     -14.432473      -392.7276
  10   2.0000     -14.428461      -392.6184
  11   2.0000     -14.420795      -392.4098
  12   2.0000     -14.419288      -392.3688
  13   2.0000     -14.419057      -392.3625
  14   2.0000     -14.418752      -392.3542
  15   2.0000     -14.416527      -392.2936
  16   2.0000     -10.384221      -282.5690
  17   2.0000     -10.366448      -282.0854
  18   2.0000     -10.359184      -281.8877
  19   2.0000     -10.358687      -281.8742
  20   2.0000     -10.349574      -281.6262
  21   2.0000     -10.348418      -281.5948
  22   2.0000     -10.348303      -281.5916
  23   2.0000     -10.347402      -281.5671
  24   2.0000     -10.346990      -281.5559
  25   2.0000     -10.344250      -281.4813
  26   2.0000     -10.342758      -281.4407
  27   2.0000     -10.341683      -281.4115
  28   2.0000     -10.340687      -281.3844
  29   2.0000     -10.340284      -281.3734
  30   2.0000     -10.337524      -281.2983
  31   2.0000     -10.335289      -281.2375
  32   2.0000     -10.334399      -281.2133
  33   2.0000     -10.329602      -281.0828
  34   2.0000     -10.329109      -281.0693
  35   2.0000     -10.325149      -280.9616
  36   2.0000     -10.325100      -280.9603
  37   2.0000     -10.324321      -280.9390
  38   2.0000     -10.322507      -280.8897
  39   2.0000     -10.322402      -280.8868
  40   2.0000     -10.321965      -280.8749
  41   2.0000     -10.321847      -280.8717
  42   2.0000     -10.321751      -280.8691
  43   2.0000     -10.321648      -280.8663
  44   2.0000     -10.321585      -280.8646
  45   2.0000     -10.321152      -280.8528
  46   2.0000     -10.320673      -280.8398
  47   2.0000     -10.319262      -280.8014
  48   2.0000     -10.319099      -280.7970
  49   2.0000     -10.318266      -280.7743
  50   2.0000     -10.318025      -280.7677
  51   2.0000     -10.316473      -280.7255
  52   2.0000     -10.315438      -280.6973
  53   2.0000     -10.315002      -280.6855
  54   2.0000     -10.311652      -280.5943
  55   2.0000     -10.311250      -280.5834
  56   2.0000     -10.310830      -280.5720
  57   2.0000     -10.310003      -280.5495
  58   2.0000     -10.309962      -280.5483
  59   2.0000     -10.309701      -280.5412
  60   2.0000     -10.308957      -280.5210
  61   2.0000     -10.308721      -280.5145
  62   2.0000     -10.308200      -280.5004
  63   2.0000     -10.303466      -280.3716
  64   2.0000     -10.301139      -280.3082
  65   2.0000     -10.299884      -280.2741
  66   2.0000     -10.299350      -280.2596
  67   2.0000     -10.296294      -280.1764
  68   2.0000     -10.295415      -280.1525
  69   2.0000     -10.295041      -280.1423
  70   2.0000     -10.293333      -280.0958
  71   2.0000     -10.292244      -280.0662
  72   2.0000     -10.287502      -279.9372
  73   2.0000     -10.286589      -279.9123
  74   2.0000     -10.284065      -279.8436
  75   2.0000     -10.283978      -279.8413
  76   2.0000     -10.281288      -279.7681
  77   2.0000     -10.278138      -279.6823
  78   2.0000      -8.093413      -220.2330
  79   2.0000      -8.073675      -219.6959
  80   2.0000      -8.072854      -219.6735
  81   2.0000      -8.064164      -219.4370
  82   2.0000      -6.062574      -164.9710
  83   2.0000      -6.057918      -164.8443
  84   2.0000      -6.056133      -164.7958
  85   2.0000      -6.043097      -164.4410
  86   2.0000      -6.042566      -164.4266
  87   2.0000      -6.038779      -164.3235
  88   2.0000      -6.038069      -164.3042
  89   2.0000      -6.035714      -164.2401
  90   2.0000      -6.034260      -164.2006
  91   2.0000      -6.033634      -164.1835
  92   2.0000      -6.029339      -164.0667
  93   2.0000      -6.026181      -163.9807
  94   2.0000      -1.146207       -31.1899
  95   2.0000      -1.129509       -30.7355
  96   2.0000      -1.099597       -29.9215
  97   2.0000      -1.061616       -28.8880
  98   2.0000      -1.040577       -28.3155
  99   2.0000      -1.032516       -28.0962
 100   2.0000      -1.026806       -27.9408
 101   2.0000      -1.024221       -27.8705
 102   2.0000      -1.023589       -27.8533
 103   2.0000      -1.023386       -27.8477
 104   2.0000      -1.014290       -27.6002
 105   2.0000      -1.006777       -27.3958
 106   2.0000      -1.004872       -27.3440
 107   2.0000      -0.999746       -27.2045
 108   2.0000      -0.999126       -27.1876
 109   2.0000      -0.997606       -27.1462
 110   2.0000      -0.991056       -26.9680
 111   2.0000      -0.987603       -26.8741
 112   2.0000      -0.974619       -26.5207
 113   2.0000      -0.966177       -26.2910
 114   2.0000      -0.949282       -25.8313
 115   2.0000      -0.947688       -25.7879
 116   2.0000      -0.928877       -25.2760
 117   2.0000      -0.923268       -25.1234
 118   2.0000      -0.918342       -24.9894
 119   2.0000      -0.914605       -24.8877
 120   2.0000      -0.912863       -24.8403
 121   2.0000      -0.904713       -24.6185
 122   2.0000      -0.900724       -24.5099
 123   2.0000      -0.893500       -24.3134
 124   2.0000      -0.891844       -24.2683
 125   2.0000      -0.879985       -23.9456
 126   2.0000      -0.876177       -23.8420
 127   2.0000      -0.872788       -23.7498
 128   2.0000      -0.868618       -23.6363
 129   2.0000      -0.859632       -23.3918
 130   2.0000      -0.854449       -23.2507
 131   2.0000      -0.842462       -22.9246
 132   2.0000      -0.830454       -22.5978
 133   2.0000      -0.820393       -22.3240
 134   2.0000      -0.815701       -22.1964
 135   2.0000      -0.806903       -21.9569
 136   2.0000      -0.802431       -21.8353
 137   2.0000      -0.796307       -21.6686
 138   2.0000      -0.787112       -21.4184
 139   2.0000      -0.769500       -20.9392
 140   2.0000      -0.760105       -20.6835
 141   2.0000      -0.751128       -20.4392
 142   2.0000      -0.748955       -20.3801
 143   2.0000      -0.743712       -20.2374
 144   2.0000      -0.741083       -20.1659
 145   2.0000      -0.728224       -19.8160
 146   2.0000      -0.717823       -19.5330
 147   2.0000      -0.711300       -19.3555
 148   2.0000      -0.702341       -19.1117
 149   2.0000      -0.701059       -19.0768
 150   2.0000      -0.694934       -18.9101
 151   2.0000      -0.691706       -18.8223
 152   2.0000      -0.686534       -18.6815
 153   2.0000      -0.682992       -18.5851
 154   2.0000      -0.677535       -18.4367
 155   2.0000      -0.674433       -18.3523
 156   2.0000      -0.668809       -18.1992
 157   2.0000      -0.665167       -18.1001
 158   2.0000      -0.653891       -17.7933
 159   2.0000      -0.652422       -17.7533
 160   2.0000      -0.646881       -17.6025
 161   2.0000      -0.644215       -17.5300
 162   2.0000      -0.640866       -17.4389
 163   2.0000      -0.634940       -17.2776
 164   2.0000      -0.632721       -17.2172
 165   2.0000      -0.623229       -16.9589
 166   2.0000      -0.617636       -16.8067
 167   2.0000      -0.614863       -16.7313
 168   2.0000      -0.608555       -16.5596
 169   2.0000      -0.599673       -16.3179
 170   2.0000      -0.596919       -16.2430
 171   2.0000      -0.594556       -16.1787
 172   2.0000      -0.588653       -16.0181
 173   2.0000      -0.587846       -15.9961
 174   2.0000      -0.584183       -15.8964
 175   2.0000      -0.579008       -15.7556
 176   2.0000      -0.573672       -15.6104
 177   2.0000      -0.570792       -15.5320
 178   2.0000      -0.568722       -15.4757
 179   2.0000      -0.566508       -15.4155
 180   2.0000      -0.561368       -15.2756
 181   2.0000      -0.557885       -15.1808
 182   2.0000      -0.555372       -15.1125
 183   2.0000      -0.553251       -15.0547
 184   2.0000      -0.547777       -14.9058
 185   2.0000      -0.545545       -14.8450
 186   2.0000      -0.543253       -14.7827
 187   2.0000      -0.540796       -14.7158
 188   2.0000      -0.538027       -14.6405
 189   2.0000      -0.535171       -14.5627
 190   2.0000      -0.533787       -14.5251
 191   2.0000      -0.531836       -14.4720
 192   2.0000      -0.527893       -14.3647
 193   2.0000      -0.527625       -14.3574
 194   2.0000      -0.525593       -14.3021
 195   2.0000      -0.522273       -14.2118
 196   2.0000      -0.518852       -14.1187
 197   2.0000      -0.517211       -14.0740
 198   2.0000      -0.515821       -14.0362
 199   2.0000      -0.513033       -13.9603
 200   2.0000      -0.511987       -13.9319
 201   2.0000      -0.509554       -13.8657
 202   2.0000      -0.505238       -13.7482
 203   2.0000      -0.501500       -13.6465
 204   2.0000      -0.500877       -13.6295
 205   2.0000      -0.494993       -13.4694
 206   2.0000      -0.490996       -13.3607
 207   2.0000      -0.489421       -13.3178
 208   2.0000      -0.486759       -13.2454
 209   2.0000      -0.482202       -13.1214
 210   2.0000      -0.481078       -13.0908
 211   2.0000      -0.479067       -13.0361
 212   2.0000      -0.477716       -12.9993
 213   2.0000      -0.474262       -12.9053
 214   2.0000      -0.472596       -12.8600
 215   2.0000      -0.471607       -12.8331
 216   2.0000      -0.467485       -12.7209
 217   2.0000      -0.465992       -12.6803
 218   2.0000      -0.461098       -12.5471
 219   2.0000      -0.459675       -12.5084
 220   2.0000      -0.457602       -12.4520
 221   2.0000      -0.454190       -12.3591
 222   2.0000      -0.452643       -12.3170
 223   2.0000      -0.452115       -12.3027
 224   2.0000      -0.451481       -12.2854
 225   2.0000      -0.450925       -12.2703
 226   2.0000      -0.449414       -12.2292
 227   2.0000      -0.448577       -12.2064
 228   2.0000      -0.448510       -12.2046
 229   2.0000      -0.447160       -12.1678
 230   2.0000      -0.447140       -12.1673
 231   2.0000      -0.446779       -12.1575
 232   2.0000      -0.445009       -12.1093
 233   2.0000      -0.443833       -12.0773
 234   2.0000      -0.442364       -12.0373
 235   2.0000      -0.440248       -11.9798
 236   2.0000      -0.438468       -11.9313
 237   2.0000      -0.436401       -11.8751
 238   2.0000      -0.435946       -11.8627
 239   2.0000      -0.433162       -11.7869
 240   2.0000      -0.431475       -11.7410
 241   2.0000      -0.430086       -11.7032
 242   2.0000      -0.429729       -11.6935
 243   2.0000      -0.426351       -11.6016
 244   2.0000      -0.425062       -11.5665
 245   2.0000      -0.422911       -11.5080
 246   2.0000      -0.422355       -11.4929
 247   2.0000      -0.421554       -11.4711
 248   2.0000      -0.420956       -11.4548
 249   2.0000      -0.418902       -11.3989
 250   2.0000      -0.411938       -11.2094
 251   2.0000      -0.409171       -11.1341
 252   2.0000      -0.403550       -10.9811
 253   2.0000      -0.389822       -10.6076
 254   2.0000      -0.386998       -10.5307
 255   2.0000      -0.377992       -10.2857
 256   2.0000      -0.369994       -10.0680
 257   2.0000      -0.363023        -9.8784
 258   2.0000      -0.358815        -9.7638
 259   2.0000      -0.357316        -9.7231
 260   2.0000      -0.353018        -9.6061
 261   2.0000      -0.347771        -9.4633
 262   2.0000      -0.340993        -9.2789
 263   2.0000      -0.333812        -9.0835
 264   2.0000      -0.331236        -9.0134
 265   2.0000      -0.322644        -8.7796
 266   2.0000      -0.311421        -8.4742
 267   2.0000      -0.302278        -8.2254
 268   2.0000      -0.296965        -8.0808
 269   2.0000      -0.291832        -7.9411
 270   2.0000      -0.268821        -7.3150
 271   2.0000      -0.250090        -6.8053
 272   2.0000      -0.223914        -6.0930
 273   0.0000      -0.120358        -3.2751
 274   0.0000      -0.103519        -2.8169
 275   0.0000      -0.097871        -2.6632
 276   0.0000      -0.084863        -2.3092
 277   0.0000      -0.062749        -1.7075

MULLIKEN ATOMIC CHARGES
-----------------------
   0 C :    0.049162
   1 C :   -0.040273
   2 C :   -0.059854
   3 C :   -0.178365
   4 N :    0.194882
   5 C :   -0.061710
   6 C :   -0.132305
   7 N :    0.151729
   8 C :   -0.047658
   9 C :    0.016473
  10 C :    0.171266
  11 O :   -0.229881
  12 C :   -0.128027
  13 C :    0.308933
  14 C :   -0.349664
  15 C :   -0.185937
  16 N :    0.150874
  17 C :   -0.210278
  18 N :    0.163251
  19 C :    0.050291
  20 C :   -0.117073
  21 C :    0.018313
  22 C :    0.001590
  23 C :    0.063870
  24 C :   -0.120704
  25 S :    0.137873
  26 C :   -0.087975
  27 C :    0.042975
  28 C :    0.026982
  29 C :   -0.069594
  30 S :    0.151865
  31 C :    0.115453
  32 C :   -0.040020
  33 C :   -0.017105
  34 C :    0.097478
  35 N :   -0.049522
  36 C :    0.140921
  37 C :   -0.202028
  38 C :    0.102411
  39 N :   -0.023940
  40 C :    0.126752
  41 C :   -0.148853
  42 C :    0.058183
  43 C :    0.019169
  44 C :   -0.061905
  45 C :   -0.021208
  46 C :    0.106558
  47 C :    0.045190
  48 C :   -0.131200
  49 S :    0.220722
  50 C :   -0.111281
  51 C :    0.060349
  52 C :    0.007101
  53 C :   -0.064251
  54 S :    0.140637
  55 C :    0.095688
  56 C :   -0.013542
  57 C :    0.006244
  58 C :    0.016293
  59 C :   -0.135253
  60 C :    0.144790
  61 O :   -0.141085
  62 C :    0.001258
  63 C :   -0.037955
  64 C :   -0.071194
  65 C :   -0.064624
  66 C :   -0.054515
  67 C :    0.040372
  68 C :    0.310058
  69 C :   -0.389286
  70 C :   -0.241355
  71 N :    0.161740
  72 C :   -0.076824
  73 N :    0.044401
  74 C :   -0.172904
  75 N :    0.187224
  76 C :   -0.175847
  77 N :    0.187661
  78 H :    0.019000
  79 H :   -0.033672
  80 H :    0.026534
  81 H :    0.010641
  82 H :    0.041481
  83 H :   -0.007060
  84 H :    0.037601
  85 H :   -0.010724
  86 H :    0.027049
  87 H :    0.133510
  88 H :   -0.021992
  89 H :    0.112787
  90 H :   -0.019689
  91 H :   -0.022857
  92 H :   -0.000759
  93 H :   -0.042011
  94 H :    0.045157
  95 H :   -0.011561
  96 H :    0.033139
  97 H :   -0.008557
  98 H :   -0.011501
  99 H :    0.010688
 100 H :    0.011067
 101 H :    0.009744
Sum of atomic charges:   -0.0000000

LOEWDIN ATOMIC CHARGES
----------------------
   0 C :    0.012813
   1 C :    0.031115
   2 C :   -0.027115
   3 C :   -0.031385
   4 N :   -0.017856
   5 C :   -0.038721
   6 C :   -0.006316
   7 N :   -0.044430
   8 C :    0.033661
   9 C :   -0.023221
  10 C :    0.081759
  11 O :   -0.187412
  12 C :   -0.134626
  13 C :    0.065725
  14 C :   -0.142377
  15 C :   -0.022374
  16 N :   -0.052123
  17 C :   -0.026551
  18 N :   -0.047887
  19 C :    0.036389
  20 C :   -0.190043
  21 C :    0.051493
  22 C :   -0.037407
  23 C :   -0.068294
  24 C :   -0.129466
  25 S :    0.442744
  26 C :   -0.165850
  27 C :   -0.053317
  28 C :   -0.051318
  29 C :   -0.157125
  30 S :    0.441258
  31 C :    0.021666
  32 C :   -0.039324
  33 C :    0.006864
  34 C :    0.001228
  35 N :    0.070393
  36 C :   -0.005672
  37 C :   -0.093205
  38 C :    0.010823
  39 N :    0.079475
  40 C :   -0.000070
  41 C :   -0.066710
  42 C :    0.013643
  43 C :   -0.061125
  44 C :   -0.122399
  45 C :   -0.018131
  46 C :    0.038301
  47 C :   -0.040444
  48 C :   -0.149535
  49 S :    0.538619
  50 C :   -0.209035
  51 C :   -0.032297
  52 C :   -0.062425
  53 C :   -0.157426
  54 S :    0.430621
  55 C :   -0.070799
  56 C :    0.060891
  57 C :   -0.060182
  58 C :    0.067017
  59 C :   -0.135665
  60 C :    0.077551
  61 O :   -0.145900
  62 C :   -0.024486
  63 C :    0.042272
  64 C :   -0.035093
  65 C :   -0.030610
  66 C :    0.019442
  67 C :    0.006650
  68 C :    0.068295
  69 C :   -0.189555
  70 C :   -0.026826
  71 N :   -0.067199
  72 C :    0.022291
  73 N :   -0.098094
  74 C :   -0.029832
  75 N :   -0.025053
  76 C :   -0.031638
  77 N :   -0.023421
  78 H :    0.052363
  79 H :    0.041317
  80 H :    0.040790
  81 H :    0.044883
  82 H :    0.038862
  83 H :    0.035720
  84 H :    0.028023
  85 H :    0.032305
  86 H :    0.038244
  87 H :    0.068719
  88 H :    0.021956
  89 H :    0.062602
  90 H :    0.030978
  91 H :    0.033019
  92 H :    0.027661
  93 H :    0.035526
  94 H :    0.040449
  95 H :    0.031887
  96 H :    0.026411
  97 H :    0.038374
  98 H :    0.023432
  99 H :    0.041611
 100 H :    0.051967
 101 H :    0.047268

  Mayer bond orders larger than 0.100000
B(  0-C ,  1-C ) :   1.3739 B(  0-C ,  9-C ) :   1.3268 B(  0-C , 13-C ) :   0.9359
B(  1-C ,  2-C ) :   1.3691 B(  1-C , 78-H ) :   0.9856 B(  2-C ,  3-C ) :   1.0886
B(  2-C ,  5-C ) :   1.4082 B(  3-C ,  4-N ) :   3.0374 B(  5-C ,  6-C ) :   1.0928
B(  5-C ,  8-C ) :   1.3705 B(  6-C ,  7-N ) :   2.9710 B(  8-C ,  9-C ) :   1.3780
B(  8-C , 79-H ) :   1.0099 B(  9-C , 10-C ) :   0.9222 B( 10-C , 11-O ) :   1.9927
B( 10-C , 12-C ) :   1.0781 B( 12-C , 13-C ) :   1.1580 B( 12-C , 19-C ) :   1.3428
B( 13-C , 14-C ) :   1.5960 B( 14-C , 15-C ) :   1.1555 B( 14-C , 17-C ) :   1.1459
B( 15-C , 16-N ) :   2.9515 B( 17-C , 18-N ) :   2.9853 B( 19-C , 20-C ) :   1.3885
B( 19-C , 80-H ) :   0.9267 B( 20-C , 21-C ) :   1.3250 B( 20-C , 25-S ) :   1.0179
B( 21-C , 22-C ) :   1.4436 B( 21-C , 81-H ) :   0.9577 B( 22-C , 23-C ) :   1.0366
B( 22-C , 31-C ) :   1.2137 B( 23-C , 24-C ) :   1.6084 B( 23-C , 26-C ) :   1.1854
B( 24-C , 25-S ) :   1.1494 B( 24-C , 82-H ) :   0.9435 B( 26-C , 27-C ) :   1.3955
B( 26-C , 30-S ) :   1.1105 B( 27-C , 28-C ) :   1.2067 B( 27-C , 31-C ) :   1.1396
B( 28-C , 29-C ) :   1.6107 B( 28-C , 83-H ) :   0.9998 B( 29-C , 30-S ) :   1.1321
B( 29-C , 84-H ) :   0.9662 B( 31-C , 32-C ) :   1.2599 B( 32-C , 33-C ) :   1.5156
B( 32-C , 85-H ) :   0.9663 B( 33-C , 34-C ) :   1.1806 B( 33-C , 86-H ) :   0.9529
B( 34-C , 35-N ) :   1.1753 B( 34-C , 41-C ) :   1.3307 B( 35-N , 36-C ) :   1.1869
B( 35-N , 87-H ) :   0.8926 B( 36-C , 37-C ) :   1.2870 B( 36-C , 40-C ) :   1.2387
B( 37-C , 38-C ) :   1.3465 B( 37-C , 88-H ) :   1.0171 B( 38-C , 39-N ) :   1.2037
B( 38-C , 42-C ) :   1.1636 B( 39-N , 40-C ) :   1.1937 B( 39-N , 89-H ) :   0.8748
B( 40-C , 41-C ) :   1.3112 B( 41-C , 90-H ) :   1.0346 B( 42-C , 43-C ) :   1.6225
B( 42-C , 91-H ) :   0.9574 B( 43-C , 44-C ) :   1.1586 B( 43-C , 92-H ) :   0.9492
B( 44-C , 45-C ) :   1.4111 B( 44-C , 49-S ) :   1.1425 B( 45-C , 46-C ) :   1.3637
B( 45-C , 93-H ) :   0.9619 B( 46-C , 47-C ) :   1.1041 B( 46-C , 55-C ) :   1.1877
B( 47-C , 48-C ) :   1.5622 B( 47-C , 50-C ) :   1.1671 B( 48-C , 49-S ) :   1.1697
B( 48-C , 94-H ) :   0.9416 B( 50-C , 51-C ) :   1.4595 B( 50-C , 54-S ) :   1.0773
B( 51-C , 52-C ) :   1.2316 B( 51-C , 55-C ) :   1.0741 B( 52-C , 53-C ) :   1.5834
B( 52-C , 95-H ) :   0.9966 B( 53-C , 54-S ) :   1.1624 B( 53-C , 96-H ) :   0.9657
B( 55-C , 56-C ) :   1.3410 B( 56-C , 57-C ) :   1.3551 B( 56-C , 97-H ) :   0.9718
B( 57-C , 58-C ) :   1.3790 B( 57-C , 98-H ) :   0.9662 B( 58-C , 59-C ) :   1.3127
B( 58-C , 99-H ) :   0.9645 B( 59-C , 60-C ) :   0.9840 B( 59-C , 68-C ) :   1.2165
B( 60-C , 61-O ) :   2.2651 B( 60-C , 62-C ) :   0.8876 B( 62-C , 63-C ) :   1.3904
B( 62-C , 67-C ) :   1.3314 B( 63-C , 64-C ) :   1.3448 B( 63-C ,100-H ) :   1.0134
B( 64-C , 65-C ) :   1.4209 B( 64-C , 76-C ) :   1.0871 B( 65-C , 66-C ) :   1.3762
B( 65-C , 74-C ) :   1.0835 B( 66-C , 67-C ) :   1.3774 B( 66-C ,101-H ) :   0.9871
B( 67-C , 68-C ) :   0.9704 B( 68-C , 69-C ) :   1.4635 B( 69-C , 70-C ) :   1.1963
B( 69-C , 72-C ) :   1.1857 B( 70-C , 71-N ) :   2.9554 B( 72-C , 73-N ) :   2.7697
B( 73-N , 89-H ) :   0.1458 B( 74-C , 75-N ) :   3.0446 B( 76-C , 77-N ) :   3.0428

-----------------------------------------------------------------------------
         ABSORPTION SPECTRUM VIA TRANSITION ELECTRIC DIPOLE MOMENTS
-----------------------------------------------------------------------------
State   Energy  Wavelength   fosc         T2         TX        TY        TZ
        (cm-1)    (nm)                  (au**2)     (au)      (au)      (au)
-----------------------------------------------------------------------------
   0    7994.6   1250.9   0.674689384  27.78338  -2.08125  -1.53122   4.59425
   1   11852.0    843.7   0.039557260   1.09878   0.56902   0.03935   0.87946
   2   12136.5    824.0   0.032241886   0.87459   0.01455   0.12547   0.92662
   3   15865.6    630.3   0.040929458   0.84929   0.25084  -0.81686  -0.34512
   4   17412.2    574.3   0.241957489   4.57467   0.14087  -1.56005   1.45639
   5   17962.2    556.7   1.182120440  21.66591  -2.32704   3.88761  -1.06645
   6   20038.9    499.0   0.015097608   0.24803   0.25826   0.36808  -0.21414
   7   20365.0    491.0   0.236646150   3.82552   0.14155  -1.60625   1.10701
   8   20844.9    479.7   0.201282367   3.17893  -0.72281   1.36870  -0.88495
   9   22234.9    449.7   0.062551840   0.92615   0.40449  -0.61053   0.62434
  10   22488.5    444.7   0.347167443   5.08223  -1.36504   1.79308  -0.06131
  11   22677.5    441.0   0.118892525   1.72598  -0.59216   1.14765   0.24127
  12   23130.9    432.3   0.060576136   0.86215  -0.03758   0.36777  -0.85175
  13   23707.4    421.8   0.483730048   6.71731  -1.16791   2.29066  -0.32584
  14   23985.2    416.9   0.330852534   4.54115  -0.79705   1.80225  -0.81103
  15   24425.0    409.4   0.052838655   0.71218  -0.39013  -0.31099   0.68064
  16   25071.8    398.9   0.055945867   0.73461   0.32066  -0.76791   0.20519
  17   25613.8    390.4   0.006987529   0.08981  -0.10666   0.25774   0.10956
  18   26835.0    372.6   0.017383964   0.21327   0.08975  -0.37331  -0.25661
  19   26890.9    371.9   0.056038264   0.68605  -0.57723   0.14842   0.57518
  20   27427.2    364.6   0.034110656   0.40943   0.20729   0.14130  -0.58864
  21   27844.3    359.1   0.066702454   0.78864  -0.62322   0.09728   0.62513
  22   27982.6    357.4   0.078099871   0.91884  -0.69256   0.14793   0.64600
  23   28124.1    355.6   0.002423796   0.02837  -0.13003   0.07721  -0.07418
  24   28280.3    353.6   0.058235635   0.67792  -0.11757  -0.69977   0.41764
  25   28465.7    351.3   0.118270041   1.36782   0.40695  -1.00728   0.43313
  26   28799.4    347.2   0.051979583   0.59419  -0.06184  -0.52241   0.56343
  27   29514.7    338.8   0.016425940   0.18322  -0.18788   0.07566   0.37709
  28   29755.9    336.1   0.055196691   0.61068  -0.31849   0.62330  -0.34748
  29   30085.6    332.4   0.091022808   0.99602   0.91023  -0.40085  -0.08263
  30   30392.9    329.0   0.006914872   0.07490   0.04220   0.21113  -0.16895
  31   31199.1    320.5   0.022455810   0.23695   0.25790  -0.40632   0.07310
  32   31492.0    317.5   0.001927789   0.02015   0.07896  -0.11774  -0.00734
  33   31616.3    316.3   0.050265750   0.52340   0.32228  -0.62788   0.15907
  34   31867.6    313.8   0.024357510   0.25163   0.37270   0.27504  -0.19255
  35   32152.9    311.0   0.067080715   0.68684   0.53421  -0.53632  -0.33736
  36   32484.6    307.8   0.007325584   0.07424  -0.08336   0.25630   0.03999
  37   32601.3    306.7   0.114935381   1.16063   0.84721  -0.30164  -0.59320
  38   32711.9    305.7   0.122298440   1.23081   0.63610  -0.89911  -0.13338
  39   33036.5    302.7   0.168423820   1.67836   1.03089  -0.54605  -0.56343
  40   33297.6    300.3   0.017409344   0.17213   0.36197  -0.09362  -0.17983
  41   33454.9    298.9   0.019203544   0.18897  -0.18755   0.21555   0.32762
  42   33558.9    298.0   0.257707446   2.52810  -1.11862  -0.64133   0.93031
  43   33800.2    295.9   0.027529650   0.26814   0.11977   0.32234  -0.38716
  44   34076.2    293.5   0.019031537   0.18386  -0.26845   0.16404   0.29136
  45   34437.4    290.4   0.013279326   0.12695  -0.28152   0.15464  -0.15421
  46   34678.3    288.4   0.239843935   2.27691   0.23545  -1.30041   0.72829
  47   35157.6    284.4   0.063625902   0.59579  -0.27589   0.70100  -0.16813
  48   35352.3    282.9   0.094098604   0.87628  -0.53307  -0.07186   0.76612
  49   35643.8    280.6   0.088688764   0.81914   0.58263   0.29990  -0.62430
  50   35863.5    278.8   0.340157367   3.12251   1.29767  -1.00311  -0.65751
  51   36021.2    277.6   0.001845220   0.01686   0.00131   0.07686   0.10467
  52   36298.8    275.5   0.086928564   0.78840   0.27288  -0.77536   0.33577
  53   36420.0    274.6   0.136470554   1.23360  -0.81316   0.07107   0.75321
  54   36827.5    271.5   0.002791578   0.02495  -0.10495   0.09738   0.06676
  55   36859.2    271.3   0.061378997   0.54821  -0.12731  -0.32291   0.65402
  56   36970.1    270.5   0.082629737   0.73580  -0.76053  -0.14555   0.36907
  57   37104.1    269.5   0.026513537   0.23525  -0.18509   0.43903   0.09078
  58   37241.6    268.5   0.070792240   0.62580  -0.44943   0.06153   0.64809
  59   37440.3    267.1   0.029060016   0.25552  -0.15680   0.44793  -0.17407
  60   37501.6    266.7   0.198720918   1.74449   0.26911  -1.06638   0.73138
  61   37610.3    265.9   0.087914273   0.76953  -0.61072   0.58351   0.23679
  62   37981.3    263.3   0.021711775   0.18819   0.09893  -0.41556   0.07561
  63   38051.1    262.8   0.208624142   1.80498   1.03259  -0.06874  -0.85675
  64   38213.5    261.7   0.082020916   0.70662  -0.72990  -0.25169   0.33244
  65   38265.7    261.3   0.046974010   0.40413  -0.37818   0.26417   0.43741
  66   38565.5    259.3   0.150015855   1.28060  -0.68050  -0.21129   0.87913
  67   38835.4    257.5   0.072521105   0.61477  -0.62482  -0.41723   0.22424
  68   39223.3    255.0   0.092909935   0.77982   0.38112  -0.09342  -0.79110
  69   39315.5    254.4   0.079138614   0.66267  -0.56667   0.49751   0.30667
  70   39480.9    253.3   0.207258740   1.72823  -0.91344   0.84273  -0.42856
  71   39664.9    252.1   0.035851587   0.29756  -0.34613   0.20509  -0.36837
  72   39901.6    250.6   0.324924386   2.68082  -1.16842   1.14490  -0.06925
  73   40048.8    249.7   0.366032364   3.00889  -0.41138  -0.82842   1.46744
  74   40259.2    248.4   0.141514778   1.15721   0.25800   0.11575  -1.03790

FINAL SINGLE POINT ENERGY     -4663.163745502084

DIPOLE MOMENT
-------------
                                X             Y             Z
Electronic contribution:     -9.34248      -3.60456      11.79198
Nuclear contribution   :     10.66407       4.93685     -10.43382
                        -----------------------------------------
Total Dipole Moment    :      1.32159       1.33229       1.35816
                        -----------------------------------------
Magnitude (a.u.)       :      2.31651
Magnitude (Debye)      :      5.88809

Rotational constants in cm-1:     0.000849     0.000383     0.000271
Rotational constants in MHz :    25.460338    11.481049     8.116814

                             ****ORCA TERMINATED NORMALLY****
TOTAL RUN TIME: 0 days 0 hours 18 minutes 28 seconds 327 msec
