                         Program Version 4.2.0 -  RELEASE  -
|  1> # ORCA input file
|  2> # SCF done       -199.093343051033          0.000680928932
|  3> ! CAM-B3LYP def2-SVP def2/J RIJCOSX Grid4 TightSCF
|  4> %maxcore 5000
|  5> %tddft
|  6>     Mode sTDDFT
|  7>     Ethresh 5.0
|  8>     maxcore 5000
|  9> end
| 10>
| 11> %pal
| 12>   nprocs 6
| 13>   end
| 14> * xyz 0 1
| 15>    C      -10.16204        -9.92513         7.09679
| 16>    C       -9.53062       -11.13005         7.37113
| 17>    C       -8.18971       -11.32220         7.07235
| 18>    C       -7.43681       -10.30890         6.49775
| 19>    C       -8.05810        -9.10468         6.21544
| 20>    C       -9.42675        -8.90848         6.50962
| 21>    C       -9.81201        -7.56442         6.09154
| 22>    C      -11.04247        -6.98659         6.27906
| 23>    C      -12.12397        -7.61617         6.92796
| 24>    N      -13.04550        -8.06613         7.44492
| 25>    C      -11.39355        -5.67979         5.88618
| 26>    N      -11.74402        -4.62451         5.59539
| 27>    C       -8.65905        -6.98754         5.42350
| 28>    C       -7.52914        -7.86530         5.67315
| 29>    C       -6.20643        -7.49285         5.67350
| 30>    C       -5.78820        -6.15400         5.52706
| 31>    N       -5.41774        -5.06796         5.47694
| 32>    C       -5.12491        -8.37148         5.84665
| 33>    N       -4.18699        -9.03331         5.91179
| 34>    C       -8.68661        -5.87735         4.61176
| 35>    C       -7.76938        -5.54276         3.60185
| 36>    S       -6.75843        -6.72940         2.81490
| 37>    C       -5.99730        -5.51438         1.83532
| 38>    C       -6.54169        -4.26295         2.07738
| 39>    C       -7.54868        -4.27999         3.05435
| 40>    C       -8.22338        -3.04901         3.56006
| 41>    C       -7.94790        -1.85180         2.65469
| 42>    C       -6.46151        -1.79026         2.32309
| 43>    C       -6.07725        -2.98395         1.45157
| 44>    C       -4.87650        -5.92061         1.02589
| 45>    C       -4.10306        -6.97551         1.45934
| 46>    C       -2.94312        -7.34505         0.75879
| 47>    C       -1.98906        -8.31540         1.03552
| 48>    C       -2.07179        -9.29758         2.15493
| 49>    C       -1.65312       -10.72638         1.77302
| 50>    N       -2.17473       -11.10296         0.46172
| 51>    C       -1.24894        -8.81287         3.36833
| 52>    N       -1.41053        -9.73441         4.47517
| 53>    C       -0.97919        -8.19451         0.01117
| 54>    C        0.19393        -8.82653        -0.17579
| 55>    C        1.00322        -8.62357        -1.40552
| 56>    C        0.54644        -7.49360        -2.27923
| 57>    C       -0.59098        -6.81654        -2.04173
| 58>    C       -1.39840        -7.13730        -0.92412
| 59>    C       -2.58176        -6.61337        -0.44705
| 60>    C       -3.43015        -5.57819        -0.90509
| 61>    C       -4.53505        -5.24295        -0.19125
| 62>    C        0.93590        -9.87818        -2.25276
| 63>    C       -0.06535       -10.75495        -2.14380
| 64>    C       -0.24931       -11.96809        -2.88825
| 65>    S       -1.88672       -12.54515        -2.99635
| 66>    C       -1.39456       -13.98236        -3.86799
| 67>    C       -0.02053       -13.96160        -4.06715
| 68>    C        0.62079       -12.85000        -3.49380
| 69>    C        2.10907       -12.83028        -3.58540
| 70>    C        2.52618       -13.05019        -5.04676
| 71>    C        1.79802       -14.23718        -5.70777
| 72>    C        0.82658       -14.96427        -4.76366
| 73>    C       -2.29286       -14.94589        -4.36633
| 74>    C       -3.58702       -15.19029        -3.99065
| 75>    C       -4.57346       -15.86017        -4.82615
| 76>    C       -4.33860       -16.64304        -5.92650
| 77>    C       -3.06385       -16.98405        -6.42303
| 78>    N       -2.05683       -17.30109        -6.87667
| 79>    C       -5.35098       -17.25294        -6.69625
| 80>    N       -6.12133       -17.77774        -7.36639
| 81>    C       -5.88215       -15.52844        -4.27519
| 82>    C       -5.70383       -14.80581        -3.07327
| 83>    C       -6.79447       -14.35221        -2.35098
| 84>    C       -8.06601       -14.62146        -2.83466
| 85>    C       -8.24455       -15.33870        -4.00899
| 86>    C       -7.15931       -15.80031        -4.73939
| 87>    C       -4.27908       -14.72478        -2.79811
| 88>    C       -3.71356       -14.52968        -1.56505
| 89>    C       -4.41168       -14.05967        -0.43693
| 90>    N       -4.90747       -13.63377         0.50749
| 91>    C       -2.36938       -14.84285        -1.27215
| 92>    N       -1.30271       -15.14586        -0.97417
| 93>    H      -11.20432        -9.79603         7.33791
| 94>    H      -10.09654       -11.93006         7.82372
| 95>    H       -7.72383       -12.27135         7.28925
| 96>    H       -6.39542       -10.46622         6.26581
| 97>    H       -9.53299        -5.20932         4.70117
| 98>    H       -7.84166        -2.84264         4.56525
| 99>    H       -9.29919        -3.22013         3.65463
|100>    H       -8.26659        -0.93729         3.15617
|101>    H       -8.52259        -1.94632         1.73044
|102>    H       -5.88240        -1.81247         3.24807
|103>    H       -6.22554        -0.86503         1.79517
|104>    H       -4.99558        -3.01582         1.30578
|105>    H       -6.54703        -2.87080         0.46852
|106>    H       -4.35767        -7.48729         2.37658
|107>    H       -3.11914        -9.34081         2.47592
|108>    H       -1.99055       -11.38927         2.58145
|109>    H       -0.56498       -10.80484         1.72994
|110>    H       -3.18794       -11.02208         0.46391
|111>    H       -1.95918       -12.08141         0.29104
|112>    H       -1.56208        -7.78005         3.60218
|113>    H       -0.18938        -8.78642         3.09543
|114>    H       -2.35966        -9.69073         4.83713
|115>    H       -0.78859        -9.48486         5.23578
|116>    H        0.56704        -9.56357         0.51809
|117>    H        2.05569        -8.46791        -1.12967
|118>    H        1.16461        -7.27332        -3.13611
|119>    H       -0.89984        -6.01434        -2.69663
|120>    H       -3.19213        -5.06113        -1.82315
|121>    H       -5.19873        -4.47519        -0.55342
|122>    H        1.71007        -9.97646        -2.99902
|123>    H       -0.85755       -10.56023        -1.42745
|124>    H        2.49427       -13.65395        -2.97655
|125>    H        2.53663       -11.90703        -3.20259
|126>    H        3.60524       -13.20437        -5.08013
|127>    H        2.30985       -12.13768        -5.60532
|128>    H        2.52102       -14.96211        -6.08166
|129>    H        1.22623       -13.87813        -6.56498
|130>    H        1.39520       -15.51897        -4.01142
|131>    H        0.23356       -15.68495        -5.32636
|132>    H       -1.91329       -15.50695        -5.21007
|133>    H       -6.66421       -13.79093        -1.43964
|134>    H       -8.92695       -14.26760        -2.28823
|135>    H       -9.24344       -15.54108        -4.36422
|136>    H       -7.31861       -16.35471        -5.64955
|137> *
|138>
|139>                          ****END OF INPUT****

CARTESIAN COORDINATES (ANGSTROEM)
---------------------------------
  C    -10.162040   -9.925130    7.096790
  C     -9.530620  -11.130050    7.371130
  C     -8.189710  -11.322200    7.072350
  C     -7.436810  -10.308900    6.497750
  C     -8.058100   -9.104680    6.215440
  C     -9.426750   -8.908480    6.509620
  C     -9.812010   -7.564420    6.091540
  C    -11.042470   -6.986590    6.279060
  C    -12.123970   -7.616170    6.927960
  N    -13.045500   -8.066130    7.444920
  C    -11.393550   -5.679790    5.886180
  N    -11.744020   -4.624510    5.595390
  C     -8.659050   -6.987540    5.423500
  C     -7.529140   -7.865300    5.673150
  C     -6.206430   -7.492850    5.673500
  C     -5.788200   -6.154000    5.527060
  N     -5.417740   -5.067960    5.476940
  C     -5.124910   -8.371480    5.846650
  N     -4.186990   -9.033310    5.911790
  C     -8.686610   -5.877350    4.611760
  C     -7.769380   -5.542760    3.601850
  S     -6.758430   -6.729400    2.814900
  C     -5.997300   -5.514380    1.835320
  C     -6.541690   -4.262950    2.077380
  C     -7.548680   -4.279990    3.054350
  C     -8.223380   -3.049010    3.560060
  C     -7.947900   -1.851800    2.654690
  C     -6.461510   -1.790260    2.323090
  C     -6.077250   -2.983950    1.451570
  C     -4.876500   -5.920610    1.025890
  C     -4.103060   -6.975510    1.459340
  C     -2.943120   -7.345050    0.758790
  C     -1.989060   -8.315400    1.035520
  C     -2.071790   -9.297580    2.154930
  C     -1.653120  -10.726380    1.773020
  N     -2.174730  -11.102960    0.461720
  C     -1.248940   -8.812870    3.368330
  N     -1.410530   -9.734410    4.475170
  C     -0.979190   -8.194510    0.011170
  C      0.193930   -8.826530   -0.175790
  C      1.003220   -8.623570   -1.405520
  C      0.546440   -7.493600   -2.279230
  C     -0.590980   -6.816540   -2.041730
  C     -1.398400   -7.137300   -0.924120
  C     -2.581760   -6.613370   -0.447050
  C     -3.430150   -5.578190   -0.905090
  C     -4.535050   -5.242950   -0.191250
  C      0.935900   -9.878180   -2.252760
  C     -0.065350  -10.754950   -2.143800
  C     -0.249310  -11.968090   -2.888250
  S     -1.886720  -12.545150   -2.996350
  C     -1.394560  -13.982360   -3.867990
  C     -0.020530  -13.961600   -4.067150
  C      0.620790  -12.850000   -3.493800
  C      2.109070  -12.830280   -3.585400
  C      2.526180  -13.050190   -5.046760
  C      1.798020  -14.237180   -5.707770
  C      0.826580  -14.964270   -4.763660
  C     -2.292860  -14.945890   -4.366330
  C     -3.587020  -15.190290   -3.990650
  C     -4.573460  -15.860170   -4.826150
  C     -4.338600  -16.643040   -5.926500
  C     -3.063850  -16.984050   -6.423030
  N     -2.056830  -17.301090   -6.876670
  C     -5.350980  -17.252940   -6.696250
  N     -6.121330  -17.777740   -7.366390
  C     -5.882150  -15.528440   -4.275190
  C     -5.703830  -14.805810   -3.073270
  C     -6.794470  -14.352210   -2.350980
  C     -8.066010  -14.621460   -2.834660
  C     -8.244550  -15.338700   -4.008990
  C     -7.159310  -15.800310   -4.739390
  C     -4.279080  -14.724780   -2.798110
  C     -3.713560  -14.529680   -1.565050
  C     -4.411680  -14.059670   -0.436930
  N     -4.907470  -13.633770    0.507490
  C     -2.369380  -14.842850   -1.272150
  N     -1.302710  -15.145860   -0.974170
  H    -11.204320   -9.796030    7.337910
  H    -10.096540  -11.930060    7.823720
  H     -7.723830  -12.271350    7.289250
  H     -6.395420  -10.466220    6.265810
  H     -9.532990   -5.209320    4.701170
  H     -7.841660   -2.842640    4.565250
  H     -9.299190   -3.220130    3.654630
  H     -8.266590   -0.937290    3.156170
  H     -8.522590   -1.946320    1.730440
  H     -5.882400   -1.812470    3.248070
  H     -6.225540   -0.865030    1.795170
  H     -4.995580   -3.015820    1.305780
  H     -6.547030   -2.870800    0.468520
  H     -4.357670   -7.487290    2.376580
  H     -3.119140   -9.340810    2.475920
  H     -1.990550  -11.389270    2.581450
  H     -0.564980  -10.804840    1.729940
  H     -3.187940  -11.022080    0.463910
  H     -1.959180  -12.081410    0.291040
  H     -1.562080   -7.780050    3.602180
  H     -0.189380   -8.786420    3.095430
  H     -2.359660   -9.690730    4.837130
  H     -0.788590   -9.484860    5.235780
  H      0.567040   -9.563570    0.518090
  H      2.055690   -8.467910   -1.129670
  H      1.164610   -7.273320   -3.136110
  H     -0.899840   -6.014340   -2.696630
  H     -3.192130   -5.061130   -1.823150
  H     -5.198730   -4.475190   -0.553420
  H      1.710070   -9.976460   -2.999020
  H     -0.857550  -10.560230   -1.427450
  H      2.494270  -13.653950   -2.976550
  H      2.536630  -11.907030   -3.202590
  H      3.605240  -13.204370   -5.080130
  H      2.309850  -12.137680   -5.605320
  H      2.521020  -14.962110   -6.081660
  H      1.226230  -13.878130   -6.564980
  H      1.395200  -15.518970   -4.011420
  H      0.233560  -15.684950   -5.326360
  H     -1.913290  -15.506950   -5.210070
  H     -6.664210  -13.790930   -1.439640
  H     -8.926950  -14.267600   -2.288230
  H     -9.243440  -15.541080   -4.364220
  H     -7.318610  -16.354710   -5.649550

 Total Charge           Charge          ....    0
 Multiplicity           Mult            ....    1
 Number of Electrons    NEL             ....  542
 Basis Dimension        Dim             .... 1320

ORBITAL ENERGIES
----------------

  NO   OCC          E(Eh)            E(eV)
   0   2.0000     -88.963152     -2420.8104
   1   2.0000     -88.961696     -2420.7708
   2   2.0000     -14.426217      -392.5573
   3   2.0000     -14.425001      -392.5242
   4   2.0000     -14.423019      -392.4703
   5   2.0000     -14.418589      -392.3498
   6   2.0000     -14.418432      -392.3455
   7   2.0000     -14.417545      -392.3213
   8   2.0000     -14.414586      -392.2408
   9   2.0000     -14.413881      -392.2216
  10   2.0000     -14.380414      -391.3110
  11   2.0000     -14.360055      -390.7570
  12   2.0000     -10.349431      -281.6223
  13   2.0000     -10.347234      -281.5625
  14   2.0000     -10.346665      -281.5471
  15   2.0000     -10.345942      -281.5274
  16   2.0000     -10.343921      -281.4724
  17   2.0000     -10.342788      -281.4416
  18   2.0000     -10.342225      -281.4263
  19   2.0000     -10.341807      -281.4149
  20   2.0000     -10.330528      -281.1080
  21   2.0000     -10.327624      -281.0289
  22   2.0000     -10.327559      -281.0272
  23   2.0000     -10.325658      -280.9754
  24   2.0000     -10.323279      -280.9107
  25   2.0000     -10.321322      -280.8575
  26   2.0000     -10.321189      -280.8538
  27   2.0000     -10.320984      -280.8482
  28   2.0000     -10.320693      -280.8403
  29   2.0000     -10.319765      -280.8151
  30   2.0000     -10.317597      -280.7561
  31   2.0000     -10.317124      -280.7432
  32   2.0000     -10.313064      -280.6327
  33   2.0000     -10.312535      -280.6183
  34   2.0000     -10.312142      -280.6077
  35   2.0000     -10.311809      -280.5986
  36   2.0000     -10.307988      -280.4946
  37   2.0000     -10.307642      -280.4852
  38   2.0000     -10.307480      -280.4808
  39   2.0000     -10.307264      -280.4749
  40   2.0000     -10.303457      -280.3713
  41   2.0000     -10.300947      -280.3030
  42   2.0000     -10.300335      -280.2864
  43   2.0000     -10.300223      -280.2833
  44   2.0000     -10.300011      -280.2775
  45   2.0000     -10.299998      -280.2772
  46   2.0000     -10.299838      -280.2728
  47   2.0000     -10.298669      -280.2410
  48   2.0000     -10.297827      -280.2181
  49   2.0000     -10.297452      -280.2079
  50   2.0000     -10.296447      -280.1806
  51   2.0000     -10.296077      -280.1705
  52   2.0000     -10.294838      -280.1368
  53   2.0000     -10.291797      -280.0540
  54   2.0000     -10.285115      -279.8722
  55   2.0000     -10.284729      -279.8617
  56   2.0000     -10.282094      -279.7900
  57   2.0000     -10.281952      -279.7861
  58   2.0000     -10.281500      -279.7738
  59   2.0000     -10.279989      -279.7327
  60   2.0000     -10.276925      -279.6493
  61   2.0000     -10.275976      -279.6235
  62   2.0000     -10.275845      -279.6200
  63   2.0000     -10.275580      -279.6127
  64   2.0000     -10.275191      -279.6022
  65   2.0000     -10.274686      -279.5884
  66   2.0000     -10.274378      -279.5800
  67   2.0000     -10.274290      -279.5776
  68   2.0000     -10.273997      -279.5697
  69   2.0000     -10.273471      -279.5554
  70   2.0000     -10.272908      -279.5400
  71   2.0000     -10.267295      -279.3873
  72   2.0000     -10.266760      -279.3727
  73   2.0000     -10.265705      -279.3440
  74   2.0000     -10.265368      -279.3349
  75   2.0000     -10.265348      -279.3343
  76   2.0000     -10.264739      -279.3178
  77   2.0000     -10.264198      -279.3030
  78   2.0000      -8.058295      -219.2773
  79   2.0000      -8.056510      -219.2288
  80   2.0000      -6.027711      -164.0224
  81   2.0000      -6.025921      -163.9737
  82   2.0000      -6.023454      -163.9065
  83   2.0000      -6.021758      -163.8604
  84   2.0000      -6.020216      -163.8184
  85   2.0000      -6.018424      -163.7697
  86   2.0000      -1.035942       -28.1894
  87   2.0000      -1.032559       -28.0974
  88   2.0000      -1.018614       -27.7179
  89   2.0000      -1.016214       -27.6526
  90   2.0000      -1.008094       -27.4316
  91   2.0000      -1.006416       -27.3860
  92   2.0000      -1.005359       -27.3572
  93   2.0000      -1.003558       -27.3082
  94   2.0000      -0.998258       -27.1640
  95   2.0000      -0.997686       -27.1484
  96   2.0000      -0.994976       -27.0747
  97   2.0000      -0.994220       -27.0541
  98   2.0000      -0.986207       -26.8361
  99   2.0000      -0.961163       -26.1546
 100   2.0000      -0.958628       -26.0856
 101   2.0000      -0.955618       -26.0037
 102   2.0000      -0.951364       -25.8879
 103   2.0000      -0.941621       -25.6228
 104   2.0000      -0.939524       -25.5658
 105   2.0000      -0.935565       -25.4580
 106   2.0000      -0.927355       -25.2346
 107   2.0000      -0.923878       -25.1400
 108   2.0000      -0.918665       -24.9982
 109   2.0000      -0.908268       -24.7152
 110   2.0000      -0.895340       -24.3634
 111   2.0000      -0.893108       -24.3027
 112   2.0000      -0.888279       -24.1713
 113   2.0000      -0.878220       -23.8976
 114   2.0000      -0.866131       -23.5686
 115   2.0000      -0.865633       -23.5551
 116   2.0000      -0.862272       -23.4636
 117   2.0000      -0.856393       -23.3036
 118   2.0000      -0.848054       -23.0767
 119   2.0000      -0.841531       -22.8992
 120   2.0000      -0.834315       -22.7029
 121   2.0000      -0.832601       -22.6562
 122   2.0000      -0.826186       -22.4817
 123   2.0000      -0.822000       -22.3677
 124   2.0000      -0.811858       -22.0918
 125   2.0000      -0.804269       -21.8853
 126   2.0000      -0.790714       -21.5164
 127   2.0000      -0.787078       -21.4175
 128   2.0000      -0.775885       -21.1129
 129   2.0000      -0.761000       -20.7079
 130   2.0000      -0.758114       -20.6293
 131   2.0000      -0.738576       -20.0977
 132   2.0000      -0.734717       -19.9927
 133   2.0000      -0.722522       -19.6608
 134   2.0000      -0.717432       -19.5223
 135   2.0000      -0.714810       -19.4510
 136   2.0000      -0.714037       -19.4299
 137   2.0000      -0.712680       -19.3930
 138   2.0000      -0.710552       -19.3351
 139   2.0000      -0.707214       -19.2443
 140   2.0000      -0.698556       -19.0087
 141   2.0000      -0.690263       -18.7830
 142   2.0000      -0.687034       -18.6952
 143   2.0000      -0.679927       -18.5017
 144   2.0000      -0.670340       -18.2409
 145   2.0000      -0.669440       -18.2164
 146   2.0000      -0.665919       -18.1206
 147   2.0000      -0.665229       -18.1018
 148   2.0000      -0.661224       -17.9928
 149   2.0000      -0.654303       -17.8045
 150   2.0000      -0.654091       -17.7987
 151   2.0000      -0.646490       -17.5919
 152   2.0000      -0.644605       -17.5406
 153   2.0000      -0.635956       -17.3052
 154   2.0000      -0.621715       -16.9177
 155   2.0000      -0.617811       -16.8115
 156   2.0000      -0.611902       -16.6507
 157   2.0000      -0.607333       -16.5264
 158   2.0000      -0.600767       -16.3477
 159   2.0000      -0.598771       -16.2934
 160   2.0000      -0.589762       -16.0483
 161   2.0000      -0.585515       -15.9327
 162   2.0000      -0.581474       -15.8227
 163   2.0000      -0.581166       -15.8143
 164   2.0000      -0.577120       -15.7042
 165   2.0000      -0.575259       -15.6536
 166   2.0000      -0.573583       -15.6080
 167   2.0000      -0.563128       -15.3235
 168   2.0000      -0.558026       -15.1847
 169   2.0000      -0.553413       -15.0591
 170   2.0000      -0.547012       -14.8850
 171   2.0000      -0.544139       -14.8068
 172   2.0000      -0.541951       -14.7472
 173   2.0000      -0.541179       -14.7262
 174   2.0000      -0.540766       -14.7150
 175   2.0000      -0.537233       -14.6189
 176   2.0000      -0.536391       -14.5959
 177   2.0000      -0.534264       -14.5381
 178   2.0000      -0.530975       -14.4486
 179   2.0000      -0.526925       -14.3384
 180   2.0000      -0.526118       -14.3164
 181   2.0000      -0.524473       -14.2716
 182   2.0000      -0.522511       -14.2183
 183   2.0000      -0.521913       -14.2020
 184   2.0000      -0.521470       -14.1899
 185   2.0000      -0.518764       -14.1163
 186   2.0000      -0.513837       -13.9822
 187   2.0000      -0.513306       -13.9678
 188   2.0000      -0.509944       -13.8763
 189   2.0000      -0.509341       -13.8599
 190   2.0000      -0.506234       -13.7753
 191   2.0000      -0.504643       -13.7320
 192   2.0000      -0.501541       -13.6476
 193   2.0000      -0.501279       -13.6405
 194   2.0000      -0.497861       -13.5475
 195   2.0000      -0.495958       -13.4957
 196   2.0000      -0.492611       -13.4046
 197   2.0000      -0.489745       -13.3266
 198   2.0000      -0.487437       -13.2638
 199   2.0000      -0.486030       -13.2255
 200   2.0000      -0.484986       -13.1971
 201   2.0000      -0.483558       -13.1583
 202   2.0000      -0.479408       -13.0454
 203   2.0000      -0.477843       -13.0028
 204   2.0000      -0.475869       -12.9491
 205   2.0000      -0.469927       -12.7874
 206   2.0000      -0.469654       -12.7799
 207   2.0000      -0.464945       -12.6518
 208   2.0000      -0.463693       -12.6177
 209   2.0000      -0.460820       -12.5395
 210   2.0000      -0.459652       -12.5078
 211   2.0000      -0.458620       -12.4797
 212   2.0000      -0.457021       -12.4362
 213   2.0000      -0.455541       -12.3959
 214   2.0000      -0.453911       -12.3515
 215   2.0000      -0.453413       -12.3380
 216   2.0000      -0.450945       -12.2708
 217   2.0000      -0.449280       -12.2255
 218   2.0000      -0.448154       -12.1949
 219   2.0000      -0.446932       -12.1616
 220   2.0000      -0.446004       -12.1364
 221   2.0000      -0.443586       -12.0706
 222   2.0000      -0.441833       -12.0229
 223   2.0000      -0.441392       -12.0109
 224   2.0000      -0.439242       -11.9524
 225   2.0000      -0.437006       -11.8915
 226   2.0000      -0.436876       -11.8880
 227   2.0000      -0.432598       -11.7716
 228   2.0000      -0.430640       -11.7183
 229   2.0000      -0.429784       -11.6950
 230   2.0000      -0.429216       -11.6796
 231   2.0000      -0.427913       -11.6441
 232   2.0000      -0.427476       -11.6322
 233   2.0000      -0.426907       -11.6167
 234   2.0000      -0.425099       -11.5675
 235   2.0000      -0.420244       -11.4354
 236   2.0000      -0.419729       -11.4214
 237   2.0000      -0.417153       -11.3513
 238   2.0000      -0.415817       -11.3150
 239   2.0000      -0.414938       -11.2910
 240   2.0000      -0.413685       -11.2570
 241   2.0000      -0.411388       -11.1944
 242   2.0000      -0.410898       -11.1811
 243   2.0000      -0.408570       -11.1178
 244   2.0000      -0.407543       -11.0898
 245   2.0000      -0.403632       -10.9834
 246   2.0000      -0.402841       -10.9619
 247   2.0000      -0.400177       -10.8894
 248   2.0000      -0.398401       -10.8410
 249   2.0000      -0.397574       -10.8185
 250   2.0000      -0.394784       -10.7426
 251   2.0000      -0.387741       -10.5510
 252   2.0000      -0.384246       -10.4559
 253   2.0000      -0.381081       -10.3697
 254   2.0000      -0.380119       -10.3436
 255   2.0000      -0.366911        -9.9842
 256   2.0000      -0.364020        -9.9055
 257   2.0000      -0.347936        -9.4678
 258   2.0000      -0.334803        -9.1105
 259   2.0000      -0.333788        -9.0828
 260   2.0000      -0.331062        -9.0086
 261   2.0000      -0.324160        -8.8208
 262   2.0000      -0.319254        -8.6874
 263   2.0000      -0.316945        -8.6245
 264   2.0000      -0.310506        -8.4493
 265   2.0000      -0.308421        -8.3926
 266   2.0000      -0.301882        -8.2146
 267   2.0000      -0.281941        -7.6720
 268   2.0000      -0.271449        -7.3865
 269   2.0000      -0.268925        -7.3178
 270   2.0000      -0.224344        -6.1047
 271   0.0000      -0.099321        -2.7027
 272   0.0000      -0.096581        -2.6281
 273   0.0000      -0.087404        -2.3784
 274   0.0000      -0.085097        -2.3156
 275   0.0000      -0.068857        -1.8737

MULLIKEN ATOMIC CHARGES
-----------------------
   0 C :   -0.033852
   1 C :    0.045725
   2 C :    0.049955
   3 C :   -0.039853
   4 C :    0.015325
   5 C :    0.006350
   6 C :    0.305098
   7 C :   -0.357463
   8 C :   -0.187752
   9 N :    0.154127
  10 C :   -0.180936
  11 N :    0.146680
  12 C :   -0.077257
  13 C :    0.218019
  14 C :   -0.353056
  15 C :   -0.186136
  16 N :    0.168980
  17 C :   -0.145513
  18 N :    0.141918
  19 C :    0.034524
  20 C :   -0.186758
  21 S :    0.130053
  22 C :   -0.091702
  23 C :   -0.076149
  24 C :   -0.016024
  25 C :    0.108259
  26 C :    0.019125
  27 C :    0.015489
  28 C :    0.100963
  29 C :    0.084178
  30 C :   -0.092233
  31 C :    0.040238
  32 C :    0.001777
  33 C :   -0.102756
  34 C :    0.139929
  35 N :   -0.209180
  36 C :    0.159677
  37 N :   -0.219982
  38 C :    0.126611
  39 C :   -0.132892
  40 C :    0.135640
  41 C :   -0.025056
  42 C :    0.017594
  43 C :    0.014526
  44 C :    0.036178
  45 C :   -0.001101
  46 C :   -0.014554
  47 C :   -0.104870
  48 C :    0.065804
  49 C :   -0.116930
  50 S :    0.136087
  51 C :   -0.175139
  52 C :   -0.027380
  53 C :   -0.065595
  54 C :    0.163660
  55 C :    0.007986
  56 C :    0.002032
  57 C :    0.157842
  58 C :    0.033653
  59 C :   -0.075193
  60 C :    0.298222
  61 C :   -0.349949
  62 C :   -0.182858
  63 N :    0.151536
  64 C :   -0.191041
  65 N :    0.158119
  66 C :    0.007466
  67 C :    0.011758
  68 C :   -0.034165
  69 C :    0.048851
  70 C :    0.045409
  71 C :   -0.030877
  72 C :    0.218675
  73 C :   -0.334815
  74 C :   -0.173371
  75 N :    0.150031
  76 C :   -0.204780
  77 N :    0.176899
  78 H :    0.004760
  79 H :    0.002569
  80 H :    0.002917
  81 H :    0.003547
  82 H :    0.017148
  83 H :    0.036803
  84 H :    0.040903
  85 H :    0.007794
  86 H :    0.003845
  87 H :    0.019855
  88 H :    0.001487
  89 H :    0.027613
  90 H :    0.022330
  91 H :   -0.020085
  92 H :   -0.016841
  93 H :    0.012240
  94 H :   -0.015337
  95 H :    0.101344
  96 H :    0.105663
  97 H :   -0.012587
  98 H :   -0.022375
  99 H :    0.087964
 100 H :    0.089434
 101 H :   -0.003573
 102 H :    0.027033
 103 H :   -0.012887
 104 H :   -0.037043
 105 H :   -0.035853
 106 H :   -0.028908
 107 H :    0.008547
 108 H :    0.027923
 109 H :    0.012481
 110 H :   -0.012793
 111 H :    0.006410
 112 H :    0.003383
 113 H :    0.010705
 114 H :    0.010650
 115 H :    0.025850
 116 H :    0.018362
 117 H :    0.008652
 118 H :    0.004167
 119 H :    0.003391
 120 H :    0.003332
 121 H :    0.005381
Sum of atomic charges:   -0.0000000

LOEWDIN ATOMIC CHARGES
----------------------
   0 C :    0.004376
   1 C :   -0.000575
   2 C :    0.003122
   3 C :   -0.001419
   4 C :   -0.010061
   5 C :   -0.013121
   6 C :    0.080340
   7 C :   -0.142600
   8 C :   -0.019570
   9 N :   -0.053315
  10 C :   -0.018598
  11 N :   -0.055332
  12 C :   -0.082521
  13 C :    0.064638
  14 C :   -0.154036
  15 C :   -0.030735
  16 N :   -0.054430
  17 C :    0.000173
  18 N :   -0.059773
  19 C :    0.052530
  20 C :   -0.200583
  21 S :    0.470056
  22 C :   -0.108946
  23 C :   -0.064376
  24 C :    0.012276
  25 C :   -0.026966
  26 C :   -0.027784
  27 C :   -0.026859
  28 C :   -0.027532
  29 C :   -0.054437
  30 C :    0.002592
  31 C :   -0.028321
  32 C :   -0.006387
  33 C :   -0.043557
  34 C :    0.028398
  35 N :   -0.109590
  36 C :    0.030459
  37 N :   -0.122352
  38 C :   -0.013438
  39 C :    0.083885
  40 C :   -0.030520
  41 C :   -0.028151
  42 C :   -0.018501
  43 C :   -0.033517
  44 C :   -0.031397
  45 C :   -0.004436
  46 C :   -0.031052
  47 C :    0.015419
  48 C :   -0.054359
  49 C :   -0.125125
  50 S :    0.463875
  51 C :   -0.198240
  52 C :    0.006787
  53 C :   -0.062582
  54 C :   -0.022736
  55 C :   -0.029267
  56 C :   -0.027099
  57 C :   -0.023041
  58 C :    0.053976
  59 C :   -0.077378
  60 C :    0.081636
  61 C :   -0.141016
  62 C :   -0.018489
  63 N :   -0.053714
  64 C :   -0.019934
  65 N :   -0.050537
  66 C :   -0.013145
  67 C :   -0.009184
  68 C :   -0.000554
  69 C :    0.003541
  70 C :    0.000535
  71 C :    0.005339
  72 C :    0.065121
  73 C :   -0.145039
  74 C :   -0.018306
  75 N :   -0.056950
  76 C :   -0.037637
  77 N :   -0.050187
  78 H :    0.041245
  79 H :    0.036945
  80 H :    0.037116
  81 H :    0.039827
  82 H :    0.047093
  83 H :    0.045467
  84 H :    0.041486
  85 H :    0.027903
  86 H :    0.021948
  87 H :    0.028069
  88 H :    0.024845
  89 H :    0.036037
  90 H :    0.030256
  91 H :    0.017498
  92 H :    0.023805
  93 H :    0.013493
  94 H :    0.010560
  95 H :    0.055863
  96 H :    0.053519
  97 H :    0.000457
  98 H :    0.011154
  99 H :    0.040222
 100 H :    0.054751
 101 H :    0.031780
 102 H :    0.053002
 103 H :    0.023460
 104 H :    0.029583
 105 H :    0.028118
 106 H :    0.027486
 107 H :    0.023334
 108 H :    0.030867
 109 H :    0.036383
 110 H :    0.025323
 111 H :    0.025912
 112 H :    0.024558
 113 H :    0.028973
 114 H :    0.027683
 115 H :    0.043924
 116 H :    0.036303
 117 H :    0.047892
 118 H :    0.040072
 119 H :    0.037153
 120 H :    0.037321
 121 H :    0.041550

  Mayer bond orders larger than 0.100000
B(  0-C ,  1-C ) :   1.3663 B(  0-C ,  5-C ) :   1.3881 B(  0-C , 78-H ) :   0.9831
B(  1-C ,  2-C ) :   1.3825 B(  1-C , 79-H ) :   0.9851 B(  2-C ,  3-C ) :   1.3640
B(  2-C , 80-H ) :   0.9856 B(  3-C ,  4-C ) :   1.3826 B(  3-C , 81-H ) :   0.9872
B(  4-C ,  5-C ) :   1.3129 B(  4-C , 13-C ) :   1.0252 B(  5-C ,  6-C ) :   0.9960
B(  6-C ,  7-C ) :   1.6185 B(  6-C , 12-C ) :   1.0811 B(  7-C ,  8-C ) :   1.1494
B(  7-C , 10-C ) :   1.1447 B(  8-C ,  9-N ) :   2.9738 B( 10-C , 11-N ) :   2.9736
B( 12-C , 13-C ) :   1.0452 B( 12-C , 19-C ) :   1.5122 B( 13-C , 14-C ) :   1.6040
B( 14-C , 15-C ) :   1.1575 B( 14-C , 17-C ) :   1.1587 B( 15-C , 16-N ) :   3.0005
B( 17-C , 18-N ) :   2.9201 B( 19-C , 20-C ) :   1.2490 B( 19-C , 82-H ) :   0.9263
B( 20-C , 21-S ) :   1.0808 B( 20-C , 24-C ) :   1.3766 B( 21-S , 22-C ) :   1.1492
B( 22-C , 23-C ) :   1.4854 B( 22-C , 29-C ) :   1.0516 B( 23-C , 24-C ) :   1.3564
B( 23-C , 28-C ) :   1.0453 B( 24-C , 25-C ) :   1.0720 B( 25-C , 26-C ) :   1.0886
B( 25-C , 83-H ) :   0.9044 B( 25-C , 84-H ) :   0.9007 B( 26-C , 27-C ) :   1.0681
B( 26-C , 85-H ) :   0.9341 B( 26-C , 86-H ) :   0.9472 B( 27-C , 28-C ) :   1.0867
B( 27-C , 87-H ) :   0.9470 B( 27-C , 88-H ) :   0.9343 B( 28-C , 89-H ) :   0.9178
B( 28-C , 90-H ) :   0.9084 B( 29-C , 30-C ) :   1.4958 B( 29-C , 46-C ) :   1.1316
B( 30-C , 31-C ) :   1.1634 B( 30-C , 91-H ) :   0.9760 B( 31-C , 32-C ) :   1.4901
B( 31-C , 44-C ) :   1.1139 B( 32-C , 33-C ) :   1.0147 B( 32-C , 38-C ) :   1.0940
B( 33-C , 34-C ) :   1.0365 B( 33-C , 36-C ) :   1.0607 B( 33-C , 92-H ) :   0.8821
B( 34-C , 35-N ) :   1.0824 B( 34-C , 93-H ) :   0.9329 B( 34-C , 94-H ) :   0.9307
B( 35-N , 95-H ) :   0.9629 B( 35-N , 96-H ) :   0.9543 B( 35-N ,108-H ) :   0.1369
B( 36-C , 37-N ) :   1.1048 B( 36-C , 97-H ) :   0.9426 B( 36-C , 98-H ) :   0.9284
B( 37-N , 99-H ) :   0.9559 B( 37-N ,100-H ) :   0.9663 B( 38-C , 39-C ) :   1.6396
B( 38-C , 43-C ) :   1.0629 B( 39-C , 40-C ) :   1.0017 B( 39-C ,101-H ) :   0.9733
B( 40-C , 41-C ) :   0.9780 B( 40-C , 47-C ) :   0.9559 B( 40-C ,102-H ) :   0.8735
B( 41-C , 42-C ) :   1.7421 B( 41-C ,103-H ) :   0.9650 B( 42-C , 43-C ) :   1.1264
B( 42-C ,104-H ) :   0.9875 B( 43-C , 44-C ) :   1.4405 B( 44-C , 45-C ) :   1.1372
B( 45-C , 46-C ) :   1.6039 B( 45-C ,105-H ) :   0.9919 B( 46-C ,106-H ) :   0.9850
B( 47-C , 48-C ) :   1.8350 B( 47-C ,107-H ) :   0.9720 B( 48-C , 49-C ) :   1.0612
B( 48-C ,108-H ) :   0.8961 B( 49-C , 50-S ) :   1.1477 B( 49-C , 53-C ) :   1.5118
B( 50-S , 51-C ) :   1.0782 B( 51-C , 52-C ) :   1.4190 B( 51-C , 58-C ) :   1.2147
B( 52-C , 53-C ) :   1.3113 B( 52-C , 57-C ) :   1.0962 B( 53-C , 54-C ) :   1.0821
B( 54-C , 55-C ) :   1.1203 B( 54-C ,109-H ) :   0.8862 B( 54-C ,110-H ) :   0.9149
B( 55-C , 56-C ) :   1.0819 B( 55-C ,111-H ) :   0.9353 B( 55-C ,112-H ) :   0.9375
B( 56-C , 57-C ) :   1.1143 B( 56-C ,113-H ) :   0.9353 B( 56-C ,114-H ) :   0.9394
B( 57-C ,115-H ) :   0.8821 B( 57-C ,116-H ) :   0.9075 B( 58-C , 59-C ) :   1.5605
B( 58-C ,117-H ) :   0.9310 B( 59-C , 60-C ) :   1.0686 B( 59-C , 72-C ) :   1.0237
B( 60-C , 61-C ) :   1.6274 B( 60-C , 66-C ) :   1.0006 B( 61-C , 62-C ) :   1.1416
B( 61-C , 64-C ) :   1.1479 B( 62-C , 63-N ) :   2.9812 B( 64-C , 65-N ) :   2.9768
B( 66-C , 67-C ) :   1.3114 B( 66-C , 71-C ) :   1.3851 B( 67-C , 68-C ) :   1.3844
B( 67-C , 72-C ) :   1.0213 B( 68-C , 69-C ) :   1.3628 B( 68-C ,118-H ) :   0.9863
B( 69-C , 70-C ) :   1.3790 B( 69-C ,119-H ) :   0.9868 B( 70-C , 71-C ) :   1.3685
B( 70-C ,120-H ) :   0.9865 B( 71-C ,121-H ) :   0.9836 B( 72-C , 73-C ) :   1.6320
B( 73-C , 74-C ) :   1.1524 B( 73-C , 76-C ) :   1.1562 B( 74-C , 75-N ) :   2.9541
B( 76-C , 77-N ) :   3.0097

-----------------------------------------------------------------------------
         ABSORPTION SPECTRUM VIA TRANSITION ELECTRIC DIPOLE MOMENTS
-----------------------------------------------------------------------------
State   Energy  Wavelength   fosc         T2         TX        TY        TZ
        (cm-1)    (nm)                  (au**2)     (au)      (au)      (au)
-----------------------------------------------------------------------------
   0   11990.4    834.0   0.088433450   2.42805   1.11223  -0.49716  -0.97151
   1   14608.3    684.5   0.058085736   1.30902  -0.44188  -1.00727  -0.31491
   2   15574.4    642.1   0.267223818   5.64859  -1.12656  -0.29085   2.07240
   3   17868.0    559.7   0.192246722   3.54207   1.49137  -0.09262  -1.14425
   4   18919.7    528.5   0.019140828   0.33306  -0.12679  -0.39047  -0.40561
   5   19569.6    511.0   0.113104044   1.90271  -0.34086  -0.25253   1.31253
   6   20062.4    498.4   0.406769043   6.67484  -1.86892  -1.70709   0.51751
   7   22835.6    437.9   0.303861409   4.38065  -0.65186  -1.44241  -1.36938
   8   23337.1    428.5   0.023984199   0.33834   0.57219  -0.10349   0.01528
   9   23505.5    425.4   0.244114793   3.41900  -1.77394   0.01478   0.52147
  10   25515.7    391.9   0.000916404   0.01182   0.01994   0.03346   0.10152
  11   26118.0    382.9   0.075983159   0.95775   0.78825  -0.04011  -0.57862
  12   26389.2    378.9   0.182334270   2.27466   1.23076   0.36788  -0.79029
  13   27308.9    366.2   0.008977551   0.10823   0.19789   0.18980  -0.18176
  14   27389.6    365.1   0.031589076   0.37969   0.34613   0.35510  -0.36577
  15   28063.6    356.3   0.264836660   3.10678  -1.16544  -1.31492   0.13978
  16   28211.3    354.5   0.121905048   1.42257   1.03521   0.14562   0.57420
  17   28423.4    351.8   0.038025538   0.44043  -0.36033   0.51633  -0.20974
  18   28511.0    350.7   0.018798718   0.21707   0.15501   0.34594  -0.27086
  19   29202.4    342.4   0.023739253   0.26762  -0.47046   0.21290  -0.03102
  20   30029.8    333.0   0.365488397   4.00679   1.86881  -0.42424  -0.57823
  21   30217.3    330.9   0.062628399   0.68233  -0.68540   0.39470   0.23825
  22   30374.9    329.2   0.088033732   0.95413   0.23478  -0.57644  -0.75281
  23   30639.7    326.4   0.047673221   0.51223  -0.52241   0.23115   0.43115
  24   30843.9    324.2   0.282845528   3.01894  -0.42446  -0.84498  -1.45766
  25   30895.4    323.7   0.042122020   0.44884   0.02010  -0.37809  -0.55271
  26   30904.2    323.6   0.010309544   0.10982  -0.09141   0.00027  -0.31854
  27   31032.4    322.2   0.003489471   0.03702   0.10164  -0.14404  -0.07706
  28   31830.2    314.2   0.017492451   0.18092   0.12128  -0.37866   0.15109
  29   32262.7    310.0   0.221101004   2.25614  -1.25933   0.77304   0.26952
  30   32692.2    305.9   0.002156426   0.02172   0.14082  -0.02768  -0.03344
  31   32916.8    303.8   0.127103512   1.27120  -0.75702  -0.74121   0.38565
  32   32992.9    303.1   0.011139565   0.11115  -0.31962  -0.07152   0.06229
  33   33708.7    296.7   0.210733142   2.05810   0.04656  -0.59240  -1.30575
  34   33823.3    295.7   0.455955975   4.43795   1.96238   0.10874   0.75841
  35   34030.3    293.9   0.023796022   0.23020  -0.40219   0.25663   0.05088
  36   34191.5    292.5   0.010183167   0.09805  -0.04630  -0.21049   0.22715
  37   34571.5    289.3   0.058497606   0.55705  -0.04170  -0.54001   0.51352
  38   34721.9    288.0   0.343424360   3.25614  -1.53396   0.79134   0.52620
  39   35051.3    285.3   0.435229859   4.08781   0.40736  -1.90983   0.52387
  40   35339.6    283.0   0.006758873   0.06296  -0.14706   0.09772  -0.17829
  41   35561.9    281.2   0.000912442   0.00845  -0.06019   0.05995  -0.03507
  42   35965.4    278.0   0.009827992   0.08996   0.08280  -0.28825  -0.00376
  43   36173.2    276.4   0.054841308   0.49911   0.39093  -0.58809  -0.02097
  44   36557.7    273.5   0.181110391   1.63095   1.21056  -0.29676  -0.27826
  45   37053.9    269.9   0.025187670   0.22378   0.40936  -0.05689  -0.23017
  46   37322.8    267.9   0.035677849   0.31470   0.45058  -0.02511  -0.33324
  47   37640.3    265.7   0.006684744   0.05847  -0.16889   0.06973  -0.15836
  48   37746.6    264.9   0.018035064   0.15730  -0.30838   0.08420   0.23475
  49   38066.8    262.7   0.050220695   0.43432  -0.57857   0.31552   0.00483
  50   38141.0    262.2   0.007281857   0.06285  -0.09341  -0.23082   0.02912
  51   38792.6    257.8   0.044339555   0.37629   0.51346  -0.26088  -0.21117
  52   39017.1    256.3   0.020737493   0.17498   0.35529  -0.02198  -0.21969
  53   39290.9    254.5   0.159833259   1.33922   1.07213  -0.43114  -0.06225
  54   39505.4    253.1   0.256284750   2.13571   0.53605  -1.30869  -0.36836
  55   39850.3    250.9   0.170295475   1.40685  -0.41986  -1.03230  -0.40609
  56   40069.2    249.6   0.054533246   0.44805  -0.33182  -0.07707   0.57620

FINAL SINGLE POINT ENERGY     -3880.947074697609

DIPOLE MOMENT
-------------
                                X             Y             Z
Electronic contribution:    -50.10049     -26.87378      10.35702
Nuclear contribution   :     52.20584      28.06582     -11.69281
                        -----------------------------------------
Total Dipole Moment    :      2.10535       1.19204      -1.33579
                        -----------------------------------------
Magnitude (a.u.)       :      2.76365
Magnitude (Debye)      :      7.02465

Rotational constants in cm-1:     0.001174     0.000419     0.000359
Rotational constants in MHz :    35.188578    12.555542    10.764391

                             ****ORCA TERMINATED NORMALLY****
TOTAL RUN TIME: 0 days 0 hours 19 minutes 55 seconds 548 msec
