                         Program Version 4.2.0 -  RELEASE  -
|  1> # ORCA input file
|  2> # SCF done       -205.459764938614          0.000457133183
|  3> ! CAM-B3LYP def2-SVP def2/J RIJCOSX Grid4 TightSCF
|  4> %maxcore 5000
|  5> %tddft
|  6>     Mode sTDDFT
|  7>     Ethresh 5.0
|  8>     maxcore 5000
|  9> end
| 10>
| 11> %pal
| 12>   nprocs 6
| 13>   end
| 14> * xyz 0 1
| 15>    C       -8.36381        -4.88464        -5.14932
| 16>    C       -7.04137        -4.52095        -5.04859
| 17>    C       -6.30254        -3.93465        -6.09404
| 18>    N       -5.64073        -3.48512        -6.91796
| 19>    C       -6.29088        -4.59739        -3.86072
| 20>    N       -5.64957        -4.57529        -2.90802
| 21>    C       -9.25435        -4.51058        -6.24910
| 22>    C      -10.58633        -4.68693        -5.83333
| 23>    C      -11.64937        -4.37061        -6.65251
| 24>    C      -11.37808        -3.87639        -7.92330
| 25>    C      -10.05682        -3.70878        -8.34780
| 26>    C       -8.98658        -4.01918        -7.51473
| 27>   Cl       -9.73593        -3.10765        -9.92498
| 28>   Cl      -12.67615        -3.47168        -8.97391
| 29>    C      -10.60132        -5.24155        -4.45970
| 30>    O      -11.56629        -5.48490        -3.77065
| 31>    C       -9.17824        -5.48042        -4.12250
| 32>    C       -8.87444        -6.19452        -2.99069
| 33>    C       -7.68572        -6.84009        -2.62266
| 34>    C       -6.62767        -7.36044        -3.39192
| 35>    C       -6.55411        -7.46026        -4.78921
| 36>    C       -5.38941        -7.90677        -5.36313
| 37>    C       -4.30252        -8.30861        -4.58272
| 38>    C       -4.36908        -8.36434        -3.20193
| 39>    C       -5.55171        -7.85683        -2.58209
| 40>    C       -5.81635        -7.69890        -1.23372
| 41>    S       -7.34815        -7.04566        -0.92668
| 42>    C       -3.25871        -8.90967        -2.45607
| 43>    C       -3.35382        -9.57509        -1.29098
| 44>    C       -2.26424       -10.02627        -0.45942
| 45>    C       -2.56147       -10.42015         0.82547
| 46>    C       -1.53472       -10.71437         1.74790
| 47>    C       -1.56173       -11.03035         3.09924
| 48>    C       -2.71561       -11.24108         4.02716
| 49>    C       -3.35613        -9.90892         4.47211
| 50>    N       -3.90010        -9.16403         3.35000
| 51>    C       -3.77269       -12.19791         3.45567
| 52>    N       -3.15387       -13.47989         3.15710
| 53>    C       -0.18306       -11.11230         3.52814
| 54>    C        0.35153       -11.28083         4.75033
| 55>    C        1.82712       -11.23059         4.96963
| 56>    C        2.63872       -11.13715         3.71929
| 57>    C        2.08728       -10.94653         2.50669
| 58>    C        0.67995       -10.88866         2.36091
| 59>    C       -0.14971       -10.63791         1.28914
| 60>    C        0.12174       -10.30839        -0.06078
| 61>    C       -0.89877       -10.00346        -0.89893
| 62>    C        2.22485       -12.34245         5.90141
| 63>    C        2.95768       -13.40857         5.56810
| 64>    C        3.32607       -14.43703         6.49085
| 65>    C        4.13176       -15.55465         6.25934
| 66>    C        4.74403       -15.93772         5.05152
| 67>    C        5.51462       -17.07029         5.01682
| 68>    C        5.71153       -17.85513         6.15862
| 69>    C        5.13811       -17.53929         7.38007
| 70>    C        4.31871       -16.35978         7.43862
| 71>    C        3.64946       -15.83833         8.51904
| 72>    S        2.80926       -14.40267         8.13955
| 73>    C        5.33503       -18.32309         8.55863
| 74>    C        6.12334       -19.42514         8.68807
| 75>    C        6.23720       -20.08623         9.92810
| 76>    C        7.01213       -21.18954        10.17060
| 77>    C        7.16132       -21.87997        11.43568
| 78>    C        6.56535       -21.56559        12.63037
| 79>    C        6.76124       -22.28606        13.82775
| 80>    N        6.87521       -22.82459        14.83504
| 81>    C        5.67947       -20.49064        12.85211
| 82>    N        4.95392       -19.64098        13.11935
| 83>    C        8.08297       -22.99477        11.22221
| 84>    C        8.49151       -22.99794         9.87749
| 85>    C        7.84693       -21.87626         9.15916
| 86>    O        7.98872       -21.59854         7.98682
| 87>    C        9.36759       -23.94248         9.38412
| 88>    C        9.85139       -24.91127        10.25447
| 89>    C        9.45130       -24.91604        11.59500
| 90>    C        8.56752       -23.96208        12.08768
| 91>   Cl       10.05700       -26.11824        12.66194
| 92>   Cl       10.94409       -26.10495         9.68005
| 93>    H      -12.66462        -4.50258        -6.31344
| 94>    H       -7.98025        -3.87757        -7.87391
| 95>    H       -9.69930        -6.28288        -2.28875
| 96>    H       -7.40672        -7.20523        -5.39802
| 97>    H       -5.30959        -7.95789        -6.43876
| 98>    H       -3.40367        -8.64729        -5.07675
| 99>    H       -5.15829        -7.88065        -0.40776
|100>    H       -2.29288        -8.77824        -2.92529
|101>    H       -4.33801        -9.78074        -0.89054
|102>    H       -3.58986       -10.43422         1.15197
|103>    H       -2.32490       -11.72031         4.93048
|104>    H       -2.59850        -9.33899         5.03770
|105>    H       -4.18202       -10.13770         5.15132
|106>    H       -3.14365        -8.79341         2.78375
|107>    H       -4.44738        -8.37917         3.68560
|108>    H       -4.26756       -11.73141         2.59431
|109>    H       -4.53432       -12.37135         4.22178
|110>    H       -2.43524       -13.35805         2.45002
|111>    H       -3.84383       -14.12665         2.79112
|112>    H       -0.25903       -11.43391         5.62975
|113>    H        2.00815       -10.29473         5.53169
|114>    H        3.71005       -11.17043         3.84860
|115>    H        2.70916       -10.83741         1.62975
|116>    H        1.14618       -10.28584        -0.40316
|117>    H       -0.69078        -9.74248        -1.92478
|118>    H        1.85207       -12.24839         6.91352
|119>    H        3.31934       -13.52213         4.55597
|120>    H        4.60306       -15.34181         4.16317
|121>    H        5.98534       -17.36996         4.09265
|122>    H        6.32905       -18.73506         6.07421
|123>    H        3.59424       -16.20520         9.52396
|124>    H        4.80607       -17.99166         9.44310
|125>    H        6.68913       -19.81775         7.85854
|126>    H        5.66271       -19.67156        10.74650
|127>    H        9.66747       -23.92612         8.34824
|128>    H        8.28272       -23.99926        13.12623
|129> *
|130>
|131>                          ****END OF INPUT****

CARTESIAN COORDINATES (ANGSTROEM)
---------------------------------
  C     -8.363810   -4.884640   -5.149320
  C     -7.041370   -4.520950   -5.048590
  C     -6.302540   -3.934650   -6.094040
  N     -5.640730   -3.485120   -6.917960
  C     -6.290880   -4.597390   -3.860720
  N     -5.649570   -4.575290   -2.908020
  C     -9.254350   -4.510580   -6.249100
  C    -10.586330   -4.686930   -5.833330
  C    -11.649370   -4.370610   -6.652510
  C    -11.378080   -3.876390   -7.923300
  C    -10.056820   -3.708780   -8.347800
  C     -8.986580   -4.019180   -7.514730
  Cl    -9.735930   -3.107650   -9.924980
  Cl   -12.676150   -3.471680   -8.973910
  C    -10.601320   -5.241550   -4.459700
  O    -11.566290   -5.484900   -3.770650
  C     -9.178240   -5.480420   -4.122500
  C     -8.874440   -6.194520   -2.990690
  C     -7.685720   -6.840090   -2.622660
  C     -6.627670   -7.360440   -3.391920
  C     -6.554110   -7.460260   -4.789210
  C     -5.389410   -7.906770   -5.363130
  C     -4.302520   -8.308610   -4.582720
  C     -4.369080   -8.364340   -3.201930
  C     -5.551710   -7.856830   -2.582090
  C     -5.816350   -7.698900   -1.233720
  S     -7.348150   -7.045660   -0.926680
  C     -3.258710   -8.909670   -2.456070
  C     -3.353820   -9.575090   -1.290980
  C     -2.264240  -10.026270   -0.459420
  C     -2.561470  -10.420150    0.825470
  C     -1.534720  -10.714370    1.747900
  C     -1.561730  -11.030350    3.099240
  C     -2.715610  -11.241080    4.027160
  C     -3.356130   -9.908920    4.472110
  N     -3.900100   -9.164030    3.350000
  C     -3.772690  -12.197910    3.455670
  N     -3.153870  -13.479890    3.157100
  C     -0.183060  -11.112300    3.528140
  C      0.351530  -11.280830    4.750330
  C      1.827120  -11.230590    4.969630
  C      2.638720  -11.137150    3.719290
  C      2.087280  -10.946530    2.506690
  C      0.679950  -10.888660    2.360910
  C     -0.149710  -10.637910    1.289140
  C      0.121740  -10.308390   -0.060780
  C     -0.898770  -10.003460   -0.898930
  C      2.224850  -12.342450    5.901410
  C      2.957680  -13.408570    5.568100
  C      3.326070  -14.437030    6.490850
  C      4.131760  -15.554650    6.259340
  C      4.744030  -15.937720    5.051520
  C      5.514620  -17.070290    5.016820
  C      5.711530  -17.855130    6.158620
  C      5.138110  -17.539290    7.380070
  C      4.318710  -16.359780    7.438620
  C      3.649460  -15.838330    8.519040
  S      2.809260  -14.402670    8.139550
  C      5.335030  -18.323090    8.558630
  C      6.123340  -19.425140    8.688070
  C      6.237200  -20.086230    9.928100
  C      7.012130  -21.189540   10.170600
  C      7.161320  -21.879970   11.435680
  C      6.565350  -21.565590   12.630370
  C      6.761240  -22.286060   13.827750
  N      6.875210  -22.824590   14.835040
  C      5.679470  -20.490640   12.852110
  N      4.953920  -19.640980   13.119350
  C      8.082970  -22.994770   11.222210
  C      8.491510  -22.997940    9.877490
  C      7.846930  -21.876260    9.159160
  O      7.988720  -21.598540    7.986820
  C      9.367590  -23.942480    9.384120
  C      9.851390  -24.911270   10.254470
  C      9.451300  -24.916040   11.595000
  C      8.567520  -23.962080   12.087680
  Cl    10.057000  -26.118240   12.661940
  Cl    10.944090  -26.104950    9.680050
  H    -12.664620   -4.502580   -6.313440
  H     -7.980250   -3.877570   -7.873910
  H     -9.699300   -6.282880   -2.288750
  H     -7.406720   -7.205230   -5.398020
  H     -5.309590   -7.957890   -6.438760
  H     -3.403670   -8.647290   -5.076750
  H     -5.158290   -7.880650   -0.407760
  H     -2.292880   -8.778240   -2.925290
  H     -4.338010   -9.780740   -0.890540
  H     -3.589860  -10.434220    1.151970
  H     -2.324900  -11.720310    4.930480
  H     -2.598500   -9.338990    5.037700
  H     -4.182020  -10.137700    5.151320
  H     -3.143650   -8.793410    2.783750
  H     -4.447380   -8.379170    3.685600
  H     -4.267560  -11.731410    2.594310
  H     -4.534320  -12.371350    4.221780
  H     -2.435240  -13.358050    2.450020
  H     -3.843830  -14.126650    2.791120
  H     -0.259030  -11.433910    5.629750
  H      2.008150  -10.294730    5.531690
  H      3.710050  -11.170430    3.848600
  H      2.709160  -10.837410    1.629750
  H      1.146180  -10.285840   -0.403160
  H     -0.690780   -9.742480   -1.924780
  H      1.852070  -12.248390    6.913520
  H      3.319340  -13.522130    4.555970
  H      4.603060  -15.341810    4.163170
  H      5.985340  -17.369960    4.092650
  H      6.329050  -18.735060    6.074210
  H      3.594240  -16.205200    9.523960
  H      4.806070  -17.991660    9.443100
  H      6.689130  -19.817750    7.858540
  H      5.662710  -19.671560   10.746500
  H      9.667470  -23.926120    8.348240
  H      8.282720  -23.999260   13.126230

 Total Charge           Charge          ....    0
 Multiplicity           Mult            ....    1
 Number of Electrons    NEL             ....  578
 Basis Dimension        Dim             .... 1296

ORBITAL ENERGIES
----------------

  NO   OCC          E(Eh)            E(eV)
   0   2.0000    -101.601049     -2764.7051
   1   2.0000    -101.598979     -2764.6488
   2   2.0000    -101.595525     -2764.5548
   3   2.0000    -101.594943     -2764.5389
   4   2.0000     -88.983308     -2421.3589
   5   2.0000     -88.976210     -2421.1658
   6   2.0000     -19.222203      -523.0627
   7   2.0000     -19.213335      -522.8214
   8   2.0000     -14.420682      -392.4067
   9   2.0000     -14.417022      -392.3071
  10   2.0000     -14.411273      -392.1507
  11   2.0000     -14.408538      -392.0762
  12   2.0000     -14.385842      -391.4587
  13   2.0000     -14.369345      -391.0097
  14   2.0000     -10.372957      -282.2625
  15   2.0000     -10.364225      -282.0249
  16   2.0000     -10.356686      -281.8198
  17   2.0000     -10.356154      -281.8053
  18   2.0000     -10.351182      -281.6700
  19   2.0000     -10.350043      -281.6390
  20   2.0000     -10.346145      -281.5329
  21   2.0000     -10.345308      -281.5101
  22   2.0000     -10.337826      -281.3065
  23   2.0000     -10.335970      -281.2560
  24   2.0000     -10.323491      -280.9165
  25   2.0000     -10.321385      -280.8592
  26   2.0000     -10.319807      -280.8162
  27   2.0000     -10.318790      -280.7886
  28   2.0000     -10.317216      -280.7457
  29   2.0000     -10.315972      -280.7119
  30   2.0000     -10.314454      -280.6706
  31   2.0000     -10.314303      -280.6665
  32   2.0000     -10.312584      -280.6197
  33   2.0000     -10.311467      -280.5893
  34   2.0000     -10.310411      -280.5605
  35   2.0000     -10.309729      -280.5420
  36   2.0000     -10.309096      -280.5248
  37   2.0000     -10.308984      -280.5217
  38   2.0000     -10.307847      -280.4908
  39   2.0000     -10.304433      -280.3979
  40   2.0000     -10.304387      -280.3966
  41   2.0000     -10.303562      -280.3742
  42   2.0000     -10.303417      -280.3702
  43   2.0000     -10.301650      -280.3222
  44   2.0000     -10.298703      -280.2420
  45   2.0000     -10.298156      -280.2271
  46   2.0000     -10.298126      -280.2262
  47   2.0000     -10.297172      -280.2003
  48   2.0000     -10.295747      -280.1615
  49   2.0000     -10.295532      -280.1557
  50   2.0000     -10.294331      -280.1230
  51   2.0000     -10.294037      -280.1150
  52   2.0000     -10.292722      -280.0792
  53   2.0000     -10.292269      -280.0669
  54   2.0000     -10.291951      -280.0582
  55   2.0000     -10.291792      -280.0539
  56   2.0000     -10.291023      -280.0330
  57   2.0000     -10.288106      -279.9536
  58   2.0000     -10.288059      -279.9523
  59   2.0000     -10.286084      -279.8986
  60   2.0000     -10.285256      -279.8761
  61   2.0000     -10.282492      -279.8008
  62   2.0000     -10.281698      -279.7792
  63   2.0000     -10.281043      -279.7614
  64   2.0000     -10.279939      -279.7314
  65   2.0000     -10.279660      -279.7238
  66   2.0000     -10.279557      -279.7210
  67   2.0000     -10.277138      -279.6551
  68   2.0000     -10.277002      -279.6514
  69   2.0000     -10.275068      -279.5988
  70   2.0000     -10.274440      -279.5817
  71   2.0000     -10.271331      -279.4971
  72   2.0000     -10.270378      -279.4712
  73   2.0000     -10.269675      -279.4521
  74   2.0000     -10.267871      -279.4030
  75   2.0000     -10.267248      -279.3860
  76   2.0000     -10.266536      -279.3666
  77   2.0000     -10.265822      -279.3472
  78   2.0000      -9.556014      -260.0324
  79   2.0000      -9.554023      -259.9782
  80   2.0000      -9.550550      -259.8837
  81   2.0000      -9.549937      -259.8670
  82   2.0000      -8.078831      -219.8362
  83   2.0000      -8.071606      -219.6396
  84   2.0000      -7.326412      -199.3618
  85   2.0000      -7.324434      -199.3080
  86   2.0000      -7.320936      -199.2128
  87   2.0000      -7.320315      -199.1959
  88   2.0000      -7.316288      -199.0863
  89   2.0000      -7.315543      -199.0660
  90   2.0000      -7.314258      -199.0311
  91   2.0000      -7.313549      -199.0118
  92   2.0000      -7.310788      -198.9367
  93   2.0000      -7.310212      -198.9210
  94   2.0000      -7.310118      -198.9184
  95   2.0000      -7.309482      -198.9011
  96   2.0000      -6.047663      -164.5653
  97   2.0000      -6.043416      -164.4497
  98   2.0000      -6.042002      -164.4112
  99   2.0000      -6.040472      -164.3696
 100   2.0000      -6.036214      -164.2537
 101   2.0000      -6.034780      -164.2147
 102   2.0000      -1.136465       -30.9248
 103   2.0000      -1.128116       -30.6976
 104   2.0000      -1.031584       -28.0708
 105   2.0000      -1.026109       -27.9218
 106   2.0000      -1.017914       -27.6989
 107   2.0000      -1.014958       -27.6184
 108   2.0000      -1.006882       -27.3987
 109   2.0000      -1.005989       -27.3744
 110   2.0000      -0.997364       -27.1397
 111   2.0000      -0.991768       -26.9874
 112   2.0000      -0.989127       -26.9155
 113   2.0000      -0.987938       -26.8832
 114   2.0000      -0.984954       -26.8020
 115   2.0000      -0.968216       -26.3465
 116   2.0000      -0.962010       -26.1776
 117   2.0000      -0.957003       -26.0414
 118   2.0000      -0.954954       -25.9856
 119   2.0000      -0.950746       -25.8711
 120   2.0000      -0.948549       -25.8113
 121   2.0000      -0.945950       -25.7406
 122   2.0000      -0.936631       -25.4870
 123   2.0000      -0.929098       -25.2820
 124   2.0000      -0.922632       -25.1061
 125   2.0000      -0.920085       -25.0368
 126   2.0000      -0.903288       -24.5797
 127   2.0000      -0.899369       -24.4731
 128   2.0000      -0.894515       -24.3410
 129   2.0000      -0.887797       -24.1582
 130   2.0000      -0.876325       -23.8460
 131   2.0000      -0.873021       -23.7561
 132   2.0000      -0.864357       -23.5204
 133   2.0000      -0.861145       -23.4329
 134   2.0000      -0.855432       -23.2775
 135   2.0000      -0.847099       -23.0507
 136   2.0000      -0.842150       -22.9161
 137   2.0000      -0.840695       -22.8765
 138   2.0000      -0.837257       -22.7829
 139   2.0000      -0.834338       -22.7035
 140   2.0000      -0.826107       -22.4795
 141   2.0000      -0.813280       -22.1305
 142   2.0000      -0.802930       -21.8488
 143   2.0000      -0.781249       -21.2589
 144   2.0000      -0.775275       -21.0963
 145   2.0000      -0.769639       -20.9430
 146   2.0000      -0.766227       -20.8501
 147   2.0000      -0.764775       -20.8106
 148   2.0000      -0.756395       -20.5826
 149   2.0000      -0.743573       -20.2337
 150   2.0000      -0.734917       -19.9981
 151   2.0000      -0.719968       -19.5913
 152   2.0000      -0.718902       -19.5623
 153   2.0000      -0.714544       -19.4437
 154   2.0000      -0.709556       -19.3080
 155   2.0000      -0.702751       -19.1228
 156   2.0000      -0.696821       -18.9615
 157   2.0000      -0.696120       -18.9424
 158   2.0000      -0.691308       -18.8114
 159   2.0000      -0.685533       -18.6543
 160   2.0000      -0.684514       -18.6266
 161   2.0000      -0.682764       -18.5790
 162   2.0000      -0.674043       -18.3416
 163   2.0000      -0.672764       -18.3068
 164   2.0000      -0.663743       -18.0614
 165   2.0000      -0.657319       -17.8866
 166   2.0000      -0.653741       -17.7892
 167   2.0000      -0.649528       -17.6746
 168   2.0000      -0.642268       -17.4770
 169   2.0000      -0.629622       -17.1329
 170   2.0000      -0.621341       -16.9076
 171   2.0000      -0.618073       -16.8186
 172   2.0000      -0.616874       -16.7860
 173   2.0000      -0.612165       -16.6579
 174   2.0000      -0.609418       -16.5831
 175   2.0000      -0.596676       -16.2364
 176   2.0000      -0.593177       -16.1412
 177   2.0000      -0.590755       -16.0753
 178   2.0000      -0.590428       -16.0664
 179   2.0000      -0.586564       -15.9612
 180   2.0000      -0.583626       -15.8813
 181   2.0000      -0.577319       -15.7097
 182   2.0000      -0.571627       -15.5548
 183   2.0000      -0.569274       -15.4907
 184   2.0000      -0.567788       -15.4503
 185   2.0000      -0.564656       -15.3651
 186   2.0000      -0.562226       -15.2990
 187   2.0000      -0.559097       -15.2138
 188   2.0000      -0.557518       -15.1708
 189   2.0000      -0.554508       -15.0889
 190   2.0000      -0.548570       -14.9274
 191   2.0000      -0.545964       -14.8564
 192   2.0000      -0.545915       -14.8551
 193   2.0000      -0.543448       -14.7880
 194   2.0000      -0.538885       -14.6638
 195   2.0000      -0.537896       -14.6369
 196   2.0000      -0.535755       -14.5786
 197   2.0000      -0.535560       -14.5733
 198   2.0000      -0.532540       -14.4912
 199   2.0000      -0.528282       -14.3753
 200   2.0000      -0.526944       -14.3389
 201   2.0000      -0.524377       -14.2690
 202   2.0000      -0.523485       -14.2447
 203   2.0000      -0.522404       -14.2153
 204   2.0000      -0.517235       -14.0747
 205   2.0000      -0.516104       -14.0439
 206   2.0000      -0.514203       -13.9922
 207   2.0000      -0.510823       -13.9002
 208   2.0000      -0.509550       -13.8656
 209   2.0000      -0.509271       -13.8580
 210   2.0000      -0.508225       -13.8295
 211   2.0000      -0.503317       -13.6960
 212   2.0000      -0.501890       -13.6571
 213   2.0000      -0.500261       -13.6128
 214   2.0000      -0.499270       -13.5858
 215   2.0000      -0.498521       -13.5655
 216   2.0000      -0.497478       -13.5371
 217   2.0000      -0.496936       -13.5223
 218   2.0000      -0.493492       -13.4286
 219   2.0000      -0.491111       -13.3638
 220   2.0000      -0.484996       -13.1974
 221   2.0000      -0.483359       -13.1529
 222   2.0000      -0.480631       -13.0786
 223   2.0000      -0.475969       -12.9518
 224   2.0000      -0.474178       -12.9030
 225   2.0000      -0.468744       -12.7552
 226   2.0000      -0.465748       -12.6736
 227   2.0000      -0.463831       -12.6215
 228   2.0000      -0.461936       -12.5699
 229   2.0000      -0.454334       -12.3631
 230   2.0000      -0.452698       -12.3185
 231   2.0000      -0.451186       -12.2774
 232   2.0000      -0.450521       -12.2593
 233   2.0000      -0.448377       -12.2009
 234   2.0000      -0.446646       -12.1539
 235   2.0000      -0.445746       -12.1294
 236   2.0000      -0.445293       -12.1170
 237   2.0000      -0.441645       -12.0178
 238   2.0000      -0.440625       -11.9900
 239   2.0000      -0.440289       -11.9809
 240   2.0000      -0.438793       -11.9402
 241   2.0000      -0.438735       -11.9386
 242   2.0000      -0.437111       -11.8944
 243   2.0000      -0.433765       -11.8034
 244   2.0000      -0.431741       -11.7483
 245   2.0000      -0.430561       -11.7162
 246   2.0000      -0.430209       -11.7066
 247   2.0000      -0.429409       -11.6848
 248   2.0000      -0.428611       -11.6631
 249   2.0000      -0.424933       -11.5630
 250   2.0000      -0.423918       -11.5354
 251   2.0000      -0.422914       -11.5081
 252   2.0000      -0.422665       -11.5013
 253   2.0000      -0.422262       -11.4903
 254   2.0000      -0.420257       -11.4358
 255   2.0000      -0.416328       -11.3289
 256   2.0000      -0.413137       -11.2420
 257   2.0000      -0.412479       -11.2241
 258   2.0000      -0.407967       -11.1013
 259   2.0000      -0.407447       -11.0872
 260   2.0000      -0.404661       -11.0114
 261   2.0000      -0.400132       -10.8882
 262   2.0000      -0.396444       -10.7878
 263   2.0000      -0.393788       -10.7155
 264   2.0000      -0.391015       -10.6401
 265   2.0000      -0.384339       -10.4584
 266   2.0000      -0.381965       -10.3938
 267   2.0000      -0.381681       -10.3861
 268   2.0000      -0.377450       -10.2709
 269   2.0000      -0.371886       -10.1195
 270   2.0000      -0.362400        -9.8614
 271   2.0000      -0.354428        -9.6445
 272   2.0000      -0.341041        -9.2802
 273   2.0000      -0.340965        -9.2781
 274   2.0000      -0.339688        -9.2434
 275   2.0000      -0.337803        -9.1921
 276   2.0000      -0.332885        -9.0583
 277   2.0000      -0.327342        -8.9074
 278   2.0000      -0.326920        -8.8960
 279   2.0000      -0.324302        -8.8247
 280   2.0000      -0.315219        -8.5775
 281   2.0000      -0.313892        -8.5414
 282   2.0000      -0.304132        -8.2759
 283   2.0000      -0.297848        -8.1049
 284   2.0000      -0.291123        -7.9219
 285   2.0000      -0.287963        -7.8359
 286   2.0000      -0.261024        -7.1028
 287   2.0000      -0.254371        -6.9218
 288   2.0000      -0.227815        -6.1992
 289   0.0000      -0.100354        -2.7308
 290   0.0000      -0.092525        -2.5177
 291   0.0000      -0.072566        -1.9746
 292   0.0000      -0.070078        -1.9069
 293   0.0000      -0.061401        -1.6708

MULLIKEN ATOMIC CHARGES
-----------------------
   0 C :    0.254159
   1 C :   -0.344640
   2 C :   -0.188722
   3 N :    0.154726
   4 C :   -0.187369
   5 N :    0.164351
   6 C :    0.028213
   7 C :    0.007073
   8 C :   -0.043316
   9 C :    0.062403
  10 C :    0.051044
  11 C :   -0.029191
  12 Cl:   -0.041203
  13 Cl:   -0.049686
  14 C :    0.135931
  15 O :   -0.144747
  16 C :   -0.152027
  17 C :    0.066827
  18 C :   -0.193810
  19 C :    0.117522
  20 C :    0.003693
  21 C :    0.028224
  22 C :   -0.028623
  23 C :    0.117778
  24 C :    0.077720
  25 C :   -0.108527
  26 S :    0.202587
  27 C :   -0.027667
  28 C :   -0.017539
  29 C :    0.123806
  30 C :   -0.134976
  31 C :    0.031578
  32 C :   -0.092771
  33 C :    0.000827
  34 C :    0.145753
  35 N :   -0.235375
  36 C :    0.134309
  37 N :   -0.223670
  38 C :    0.093927
  39 C :   -0.111703
  40 C :    0.184450
  41 C :   -0.065743
  42 C :    0.021477
  43 C :    0.012382
  44 C :    0.036762
  45 C :   -0.001624
  46 C :   -0.005372
  47 C :   -0.121180
  48 C :    0.047492
  49 C :   -0.122151
  50 C :    0.107648
  51 C :   -0.010812
  52 C :    0.033247
  53 C :   -0.038383
  54 C :    0.127350
  55 C :    0.086914
  56 C :   -0.160726
  57 S :    0.155462
  58 C :    0.010194
  59 C :    0.006683
  60 C :   -0.034837
  61 C :   -0.077008
  62 C :    0.332395
  63 C :   -0.349300
  64 C :   -0.190012
  65 N :    0.156622
  66 C :   -0.185990
  67 N :    0.141765
  68 C :    0.027030
  69 C :   -0.013399
  70 C :    0.147234
  71 O :   -0.149152
  72 C :   -0.029627
  73 C :    0.060056
  74 C :    0.047639
  75 C :   -0.013040
  76 Cl:   -0.036197
  77 Cl:   -0.044034
  78 H :   -0.001907
  79 H :   -0.000608
  80 H :    0.022947
  81 H :   -0.012924
  82 H :   -0.000995
  83 H :   -0.021167
  84 H :    0.044560
  85 H :   -0.003264
  86 H :   -0.007467
  87 H :   -0.022623
  88 H :   -0.021080
  89 H :   -0.019537
  90 H :   -0.005825
  91 H :    0.105704
  92 H :    0.095320
  93 H :   -0.005919
  94 H :   -0.014980
  95 H :    0.096914
  96 H :    0.088688
  97 H :   -0.005553
  98 H :    0.049326
  99 H :   -0.006629
 100 H :   -0.035379
 101 H :   -0.037843
 102 H :   -0.030940
 103 H :    0.001848
 104 H :   -0.003200
 105 H :   -0.018594
 106 H :   -0.010368
 107 H :   -0.008044
 108 H :    0.030042
 109 H :   -0.009057
 110 H :    0.025416
 111 H :    0.004362
 112 H :   -0.002328
 113 H :   -0.000003
Sum of atomic charges:   -0.0000000

LOEWDIN ATOMIC CHARGES
----------------------
   0 C :    0.054831
   1 C :   -0.139312
   2 C :   -0.020994
   3 N :   -0.056659
   4 C :   -0.012636
   5 N :   -0.055577
   6 C :   -0.010355
   7 C :   -0.046789
   8 C :   -0.000182
   9 C :   -0.138196
  10 C :   -0.130909
  11 C :   -0.019302
  12 Cl:    0.157614
  13 Cl:    0.153164
  14 C :    0.082377
  15 O :   -0.144916
  16 C :   -0.114625
  17 C :    0.044750
  18 C :   -0.198586
  19 C :   -0.021647
  20 C :   -0.025336
  21 C :    0.003321
  22 C :   -0.024571
  23 C :    0.006546
  24 C :   -0.042674
  25 C :   -0.142467
  26 S :    0.523708
  27 C :   -0.028153
  28 C :   -0.007375
  29 C :   -0.030881
  30 C :   -0.017878
  31 C :   -0.030112
  32 C :   -0.038793
  33 C :   -0.039811
  34 C :    0.028723
  35 N :   -0.117519
  36 C :    0.028019
  37 N :   -0.124357
  38 C :   -0.017551
  39 C :    0.070521
  40 C :   -0.031500
  41 C :   -0.035897
  42 C :   -0.014631
  43 C :   -0.036057
  44 C :   -0.030965
  45 C :   -0.007339
  46 C :   -0.026305
  47 C :   -0.018634
  48 C :   -0.039563
  49 C :   -0.177476
  50 C :   -0.049146
  51 C :    0.008935
  52 C :   -0.031223
  53 C :    0.013809
  54 C :   -0.036452
  55 C :   -0.041242
  56 C :   -0.201529
  57 S :    0.497102
  58 C :    0.049777
  59 C :   -0.031967
  60 C :    0.073196
  61 C :   -0.104903
  62 C :    0.075451
  63 C :   -0.138550
  64 C :   -0.020411
  65 N :   -0.049002
  66 C :   -0.018522
  67 N :   -0.053908
  68 C :   -0.013665
  69 C :   -0.042971
  70 C :    0.084925
  71 O :   -0.144580
  72 C :   -0.000172
  73 C :   -0.134316
  74 C :   -0.130810
  75 C :   -0.012367
  76 Cl:    0.161056
  77 Cl:    0.158117
  78 H :    0.045220
  79 H :    0.043282
  80 H :    0.045199
  81 H :    0.031688
  82 H :    0.036007
  83 H :    0.030162
  84 H :    0.031808
  85 H :    0.030394
  86 H :    0.029183
  87 H :    0.023480
  88 H :    0.027221
  89 H :   -0.001415
  90 H :    0.016552
  91 H :    0.055103
  92 H :    0.056639
  93 H :   -0.000469
  94 H :    0.015776
  95 H :    0.050556
  96 H :    0.053183
  97 H :    0.029879
  98 H :    0.068964
  99 H :    0.025293
 100 H :    0.029912
 101 H :    0.027235
 102 H :    0.024621
 103 H :    0.016840
 104 H :    0.034137
 105 H :    0.031264
 106 H :    0.032798
 107 H :    0.035441
 108 H :    0.023955
 109 H :    0.034061
 110 H :    0.031516
 111 H :    0.041217
 112 H :    0.045236
 113 H :    0.044387

  Mayer bond orders larger than 0.100000
B(  0-C ,  1-C ) :   1.6181 B(  0-C ,  6-C ) :   1.0001 B(  0-C , 16-C ) :   1.0836
B(  1-C ,  2-C ) :   1.1414 B(  1-C ,  4-C ) :   1.1681 B(  2-C ,  3-N ) :   2.9826
B(  4-C ,  5-N ) :   3.0072 B(  6-C ,  7-C ) :   1.3339 B(  6-C , 11-C ) :   1.3491
B(  7-C ,  8-C ) :   1.3483 B(  7-C , 14-C ) :   0.9154 B(  8-C ,  9-C ) :   1.3348
B(  8-C , 78-H ) :   1.0190 B(  9-C , 10-C ) :   1.4181 B(  9-C , 13-Cl) :   1.0401
B( 10-C , 11-C ) :   1.3478 B( 10-C , 12-Cl) :   1.0677 B( 11-C , 79-H ) :   0.9906
B( 14-C , 15-O ) :   2.2658 B( 14-C , 16-C ) :   0.9573 B( 16-C , 17-C ) :   1.5785
B( 17-C , 18-C ) :   1.2088 B( 17-C , 80-H ) :   0.9278 B( 18-C , 19-C ) :   1.2736
B( 18-C , 26-S ) :   1.1376 B( 19-C , 20-C ) :   1.2676 B( 19-C , 24-C ) :   1.2204
B( 20-C , 21-C ) :   1.4723 B( 20-C , 81-H ) :   0.9790 B( 21-C , 22-C ) :   1.2425
B( 21-C , 82-H ) :   0.9868 B( 22-C , 23-C ) :   1.4741 B( 22-C , 83-H ) :   0.9949
B( 23-C , 24-C ) :   1.1673 B( 23-C , 27-C ) :   1.0666 B( 24-C , 25-C ) :   1.4054
B( 25-C , 26-S ) :   1.2616 B( 25-C , 84-H ) :   0.9499 B( 27-C , 28-C ) :   1.7091
B( 27-C , 85-H ) :   0.9606 B( 28-C , 29-C ) :   1.0731 B( 28-C , 86-H ) :   0.9816
B( 29-C , 30-C ) :   1.4945 B( 29-C , 46-C ) :   1.1229 B( 30-C , 31-C ) :   1.1072
B( 30-C , 87-H ) :   1.0000 B( 31-C , 32-C ) :   1.4700 B( 31-C , 44-C ) :   1.1239
B( 32-C , 33-C ) :   1.0417 B( 32-C , 38-C ) :   1.1146 B( 33-C , 34-C ) :   1.0422
B( 33-C , 36-C ) :   1.0341 B( 33-C , 88-H ) :   0.8754 B( 34-C , 35-N ) :   1.0968
B( 34-C , 89-H ) :   0.9405 B( 34-C , 90-H ) :   0.9381 B( 35-N , 91-H ) :   0.9560
B( 35-N , 92-H ) :   0.9681 B( 36-C , 37-N ) :   1.0888 B( 36-C , 93-H ) :   0.9418
B( 36-C , 94-H ) :   0.9350 B( 37-N , 95-H ) :   0.9705 B( 37-N , 96-H ) :   0.9683
B( 38-C , 39-C ) :   1.6885 B( 38-C , 43-C ) :   1.0510 B( 39-C , 40-C ) :   0.9627
B( 39-C , 97-H ) :   0.9628 B( 40-C , 41-C ) :   1.0067 B( 40-C , 47-C ) :   0.9559
B( 40-C , 98-H ) :   0.8339 B( 41-C , 42-C ) :   1.7121 B( 41-C , 99-H ) :   0.9687
B( 42-C , 43-C ) :   1.1230 B( 42-C ,100-H ) :   0.9906 B( 43-C , 44-C ) :   1.4455
B( 44-C , 45-C ) :   1.1355 B( 45-C , 46-C ) :   1.6232 B( 45-C ,101-H ) :   0.9894
B( 46-C ,102-H ) :   0.9817 B( 47-C , 48-C ) :   1.8402 B( 47-C ,103-H ) :   0.9679
B( 48-C , 49-C ) :   1.1251 B( 48-C ,104-H ) :   0.9505 B( 49-C , 50-C ) :   1.3513
B( 49-C , 56-C ) :   0.1077 B( 49-C , 57-S ) :   1.1830 B( 50-C , 51-C ) :   1.2122
B( 50-C , 55-C ) :   1.1880 B( 51-C , 52-C ) :   1.5134 B( 51-C ,105-H ) :   0.9910
B( 52-C , 53-C ) :   1.2374 B( 52-C ,106-H ) :   0.9816 B( 53-C , 54-C ) :   1.4808
B( 53-C ,107-H ) :   0.9888 B( 54-C , 55-C ) :   1.1160 B( 54-C , 58-C ) :   1.0924
B( 55-C , 56-C ) :   1.4793 B( 56-C , 57-S ) :   1.1888 B( 56-C ,108-H ) :   0.9553
B( 58-C , 59-C ) :   1.5656 B( 58-C ,109-H ) :   0.9888 B( 59-C , 60-C ) :   1.1764
B( 59-C ,110-H ) :   0.9760 B( 60-C , 61-C ) :   1.5066 B( 60-C ,111-H ) :   0.9636
B( 61-C , 62-C ) :   1.0747 B( 61-C , 70-C ) :   0.9532 B( 62-C , 63-C ) :   1.6293
B( 62-C , 68-C ) :   0.9893 B( 63-C , 64-C ) :   1.1401 B( 63-C , 66-C ) :   1.1481
B( 64-C , 65-N ) :   2.9707 B( 66-C , 67-N ) :   2.9579 B( 68-C , 69-C ) :   1.3301
B( 68-C , 75-C ) :   1.3428 B( 69-C , 70-C ) :   0.9431 B( 69-C , 72-C ) :   1.3476
B( 70-C , 71-O ) :   2.2005 B( 72-C , 73-C ) :   1.3406 B( 72-C ,112-H ) :   1.0161
B( 73-C , 74-C ) :   1.4091 B( 73-C , 77-Cl) :   1.0459 B( 74-C , 75-C ) :   1.3590
B( 74-C , 76-Cl) :   1.0754 B( 75-C ,113-H ) :   0.9849

-----------------------------------------------------------------------------
         ABSORPTION SPECTRUM VIA TRANSITION ELECTRIC DIPOLE MOMENTS
-----------------------------------------------------------------------------
State   Energy  Wavelength   fosc         T2         TX        TY        TZ
        (cm-1)    (nm)                  (au**2)     (au)      (au)      (au)
-----------------------------------------------------------------------------
   0   15149.5    660.1   0.109037928   2.36948  -0.01970  -0.93402   1.22340
   1   16858.3    593.2   0.704753957  13.76256  -2.46193   2.02688  -1.89557
   2   17474.1    572.3   0.627799181  11.82771  -1.19360   2.45274  -2.09455
   3   19158.2    522.0   0.077259709   1.32762  -0.12329   0.83569  -0.78360
   4   20171.5    495.7   0.245468974   4.00620   0.77607  -1.39384   1.20877
   5   24404.7    409.8   0.186385358   2.51428  -1.29298   0.53377  -0.74670
   6   24879.0    401.9   0.036854873   0.48768   0.49480  -0.44030  -0.22133
   7   25123.7    398.0   0.024549362   0.32169   0.19552  -0.25584   0.46691
   8   25795.8    387.7   0.024178144   0.30857   0.31459   0.16213   0.42816
   9   26065.6    383.6   0.077072228   0.97343   0.60304  -0.33161   0.70697
  10   26563.6    376.5   0.021216279   0.26294   0.46395   0.21221  -0.05154
  11   26841.9    372.6   0.037423905   0.45900  -0.21355  -0.34748   0.54097
  12   27278.0    366.6   0.411005057   4.96033   0.60295  -1.39386   1.62909
  13   27792.1    359.8   0.054269886   0.64285  -0.27625   0.08215  -0.74819
  14   28707.5    348.3   0.064780929   0.74290  -0.57397   0.42011  -0.48678
  15   28975.5    345.1   0.002905772   0.03301   0.14443  -0.03694   0.10388
  16   28985.8    345.0   0.146562234   1.66461  -0.95683   0.34411  -0.79416
  17   29143.3    343.1   0.003086997   0.03487   0.12957  -0.12285  -0.05469
  18   29338.5    340.8   0.254805065   2.85921   1.32507  -0.50602   0.92052
  19   29589.0    338.0   0.035704900   0.39726   0.17116  -0.58545   0.15876
  20   29770.1    335.9   0.113768531   1.25811  -0.41131   1.01362  -0.24803
  21   30052.6    332.8   0.224901892   2.46370   1.02959  -1.17319  -0.16517
  22   31018.4    322.4   0.069501844   0.73765  -0.77211   0.09766  -0.36328
  23   31588.0    316.6   0.012525501   0.13054  -0.01461   0.18219  -0.31167
  24   31699.8    315.5   0.000073060   0.00076   0.00116   0.02435   0.01283
  25   31834.1    314.1   0.139316924   1.44074  -0.04225  -0.08434   1.19660
  26   31919.4    313.3   0.078189146   0.80643  -0.36677   0.55897  -0.59955
  27   32123.2    311.3   0.029924623   0.30668   0.53936   0.00577   0.12546
  28   32442.2    308.2   0.094868281   0.96269   0.45131  -0.50306   0.71129
  29   32597.5    306.8   0.001304548   0.01318  -0.06827   0.03431  -0.08565
  30   32721.4    305.6   0.034564831   0.34776   0.28058  -0.25440  -0.45201
  31   33258.8    300.7   0.049049304   0.48551  -0.48619   0.48377   0.12289
  32   33576.3    297.8   0.292583403   2.86875  -1.07547   1.21361   0.48916
  33   34427.3    290.5   0.448618956   4.28993   1.90708  -0.05355   0.80629
  34   34541.0    289.5   0.027306017   0.26026   0.50121  -0.02279   0.09230
  35   34671.5    288.4   0.251666883   2.38962   0.99698  -1.00292  -0.62434
  36   34889.1    286.6   0.095551744   0.90162  -0.76810   0.16474  -0.53339
  37   35420.3    282.3   0.351589227   3.26783   0.47369  -0.09198  -1.74212
  38   35908.8    278.5   0.485755649   4.45341   1.57199  -0.47666   1.32478
  39   36264.3    275.8   0.371927050   3.37640   0.45374  -0.76090   1.60983
  40   36318.6    275.3   0.003112693   0.02822   0.15152  -0.05296   0.04953
  41   36446.9    274.4   0.124810985   1.12737   0.78471  -0.28554   0.65580
  42   36761.8    272.0   0.025866702   0.23164  -0.17817   0.21167  -0.39382
  43   36788.4    271.8   0.013517213   0.12096   0.20128  -0.14914   0.24126
  44   37215.0    268.7   0.034796483   0.30782   0.03340  -0.18415   0.52229
  45   37397.9    267.4   0.148104478   1.30376  -0.78577   0.68602  -0.46443
  46   37717.4    265.1   0.012584112   0.10984   0.09973   0.17819  -0.26104
  47   38204.4    261.8   0.008412144   0.07249  -0.08387   0.22894  -0.11419
  48   38854.3    257.4   0.126018560   1.06775   0.46644  -0.56412   0.72935
  49   39131.1    255.6   0.003067002   0.02580   0.10864  -0.09670   0.06818
  50   39237.8    254.9   0.066260513   0.55594   0.48823  -0.54686   0.13608
  51   39329.7    254.3   0.015134932   0.12669  -0.04087  -0.20976  -0.28464
  52   39667.4    252.1   0.004310905   0.03578   0.09257   0.11510  -0.11815
  53   39788.6    251.3   0.028429731   0.23523  -0.25699  -0.04727   0.40860
  54   39898.8    250.6   0.050306389   0.41509   0.03018  -0.18203   0.61729
  55   39982.4    250.1   0.113530614   0.93480  -0.87604  -0.03479  -0.40762
  56   40069.2    249.6   0.055535270   0.45628   0.25175  -0.01713   0.62659
  57   40158.0    249.0   0.000221309   0.00181   0.01003   0.02683  -0.03152
  58   40214.8    248.7   0.166989988   1.36704  -0.23882   0.34953  -1.08988

FINAL SINGLE POINT ENERGY     -5571.897263596907

DIPOLE MOMENT
-------------
                                X             Y             Z
Electronic contribution:      3.64848     -28.43745     -16.51246
Nuclear contribution   :     -2.85087      28.10482      15.84753
                        -----------------------------------------
Total Dipole Moment    :      0.79760      -0.33263      -0.66493
                        -----------------------------------------
Magnitude (a.u.)       :      1.09039
Magnitude (Debye)      :      2.77154

Rotational constants in cm-1:     0.002687     0.000102     0.000101
Rotational constants in MHz :    80.540893     3.059004     3.029008

                             ****ORCA TERMINATED NORMALLY****
TOTAL RUN TIME: 0 days 0 hours 13 minutes 6 seconds 281 msec
