                         Program Version 4.2.0 -  RELEASE  -
|  1> # ORCA input file
|  2> # SCF done       -280.926534058471          0.000903992541
|  3> ! CAM-B3LYP def2-SVP def2/J RIJCOSX Grid4 TightSCF
|  4> %maxcore 5000
|  5> %tddft
|  6>     Mode sTDDFT
|  7>     Ethresh 5.0
|  8>     maxcore 5000
|  9> end
| 10>
| 11> %pal
| 12>   nprocs 6
| 13>   end
| 14> * xyz 0 1
| 15>    C        4.99322         0.31894         3.57610
| 16>    C        5.00153         1.26115         2.46757
| 17>    C        4.17091         1.19593         1.34729
| 18>    C        4.26201         2.11618         0.30962
| 19>    C        5.19367         3.14806         0.37207
| 20>    C        6.01227         3.26056         1.49399
| 21>    C        5.90211         2.33380         2.52275
| 22>    F        6.68502         2.46558         3.59008
| 23>    F        6.88978         4.25753         1.57774
| 24>    F        5.28924         4.02558        -0.62205
| 25>    F        3.45246         2.00815        -0.74506
| 26>    F        3.21761         0.25614         1.26223
| 27>    C        4.82364        -1.01282         3.51149
| 28>    C        4.83045        -1.83148         4.73414
| 29>    C        4.26497        -1.38750         5.93377
| 30>    C        4.22894        -2.19083         7.06680
| 31>    C        4.77565        -3.47070         7.03522
| 32>    C        5.35275        -3.93359         5.85732
| 33>    C        5.36944        -3.11987         4.73109
| 34>    F        5.93685        -3.60390         3.61768
| 35>    F        5.88016        -5.15647         5.80496
| 36>    F        4.74035        -4.24427         8.11681
| 37>    F        3.66107        -1.73986         8.18488
| 38>    F        3.70122        -0.18237         6.00694
| 39>    C        4.62290        -1.75934         2.25384
| 40>    C        3.49443        -2.55841         2.07514
| 41>    C        2.35388        -2.79770         2.99442
| 42>    O        2.21526        -2.40751         4.12967
| 43>    N        1.46048        -3.59623         2.29102
| 44>    C        1.93801        -3.93197         1.01187
| 45>    O        1.35793        -4.62617         0.22493
| 46>    C        3.24700        -3.24791         0.88554
| 47>    C        4.12225        -3.20782        -0.18124
| 48>    C        5.26711        -2.43896        -0.00149
| 49>    C        5.51929        -1.72757         1.17355
| 50>    C        6.80681        -1.00248         1.16365
| 51>    O        7.28536        -0.33083         2.03128
| 52>    S        7.61620        -1.24943        -0.41425
| 53>    C        6.30551        -2.30987        -1.04294
| 54>    O        6.31609        -2.80154        -2.12781
| 55>    C        0.20429        -4.02550         2.70857
| 56>    C       -0.37992        -3.68244         3.86664
| 57>    C       -1.69441        -4.07514         4.25737
| 58>    N       -2.21909        -3.61470         5.44411
| 59>    C       -3.49023        -4.07921         5.56466
| 60>    C       -4.62248        -4.06057         6.36455
| 61>    C       -5.58484        -4.83450         5.69399
| 62>    N       -5.04343        -5.32166         4.52093
| 63>    C       -3.76852        -4.87311         4.41774
| 64>    C       -2.64045        -4.86832         3.60093
| 65>    C       -6.91728        -5.04378         6.11120
| 66>    C       -7.84169        -5.78263         5.44486
| 67>    C       -9.19221        -6.00572         5.84777
| 68>    C       -9.83346        -7.20967         5.48244
| 69>    C       -9.31879        -8.31913         4.65267
| 70>    O       -8.25521        -8.42396         4.09211
| 71>    N      -10.33986        -9.27918         4.62596
| 72>    C      -11.46066        -8.87928         5.37119
| 73>    O      -12.45980        -9.53037         5.50231
| 74>    C      -11.11490        -7.54735         5.91431
| 75>    C      -11.86177        -6.71770         6.72880
| 76>    C      -11.28120        -5.49216         7.03458
| 77>    C      -10.01076        -5.11620         6.59865
| 78>    C       -9.70930        -3.69827         6.86529
| 79>    O       -8.80596        -3.02480         6.46855
| 80>    S      -11.02889        -2.98376         7.87547
| 81>    C      -12.00728        -4.47583         7.82813
| 82>    O      -13.07123        -4.59670         8.35445
| 83>    C      -10.32493       -10.51226         3.99754
| 84>    C       -9.30654       -11.00793         3.28879
| 85>    C       -9.32616       -12.31972         2.67673
| 86>    C      -10.63416       -12.88431         2.28746
| 87>    C      -10.98020       -14.19856         2.60317
| 88>    C      -12.21367       -14.73730         2.25217
| 89>    C      -13.13511       -13.95956         1.55625
| 90>    C      -12.80995       -12.64802         1.22003
| 91>    C      -11.57491       -12.12633         1.58845
| 92>    F      -11.28241       -10.87304         1.22966
| 93>    F      -13.67909       -11.89830         0.54365
| 94>    F      -14.31495       -14.46693         1.21074
| 95>    F      -12.51401       -15.99376         2.57778
| 96>    F      -10.11994       -14.96339         3.28001
| 97>    C       -8.19835       -13.01025         2.40328
| 98>    C       -6.85669       -12.60242         2.79109
| 99>    C       -6.54183       -12.07005         4.04616
|100>    C       -5.24696       -11.68292         4.37202
|101>    C       -4.21893       -11.83530         3.44652
|102>    C       -4.49497       -12.40085         2.20350
|103>    C       -5.79452       -12.78030         1.89672
|104>    F       -6.04738       -13.31150         0.69685
|105>    F       -3.51420       -12.56844         1.31591
|106>    F       -2.97923       -11.45294         3.75052
|107>    F       -4.98686       -11.16833         5.57551
|108>    F       -7.48136       -11.97356         4.99189
|109>    H        5.22751         0.76966         4.52961
|110>    H        3.93997        -3.73684        -1.10301
|111>    H       -0.27438        -4.65718         1.97441
|112>    H        0.14843        -3.04521         4.56043
|113>    H       -1.73430        -3.01064         6.08584
|114>    H       -4.77676        -3.55477         7.29603
|115>    H       -5.52327        -5.92061         3.87187
|116>    H       -2.50345        -5.36068         2.66039
|117>    H       -7.17170        -4.57230         7.04771
|118>    H       -7.53990        -6.34722         4.57450
|119>    H      -12.84445        -6.97957         7.08519
|120>    H      -11.24125       -11.06291         4.17359
|121>    H       -8.40143       -10.43286         3.17423
|122>    H       -8.25005       -13.91832         1.81984
|123> *
|124>
|125>                          ****END OF INPUT****

CARTESIAN COORDINATES (ANGSTROEM)
---------------------------------
  C      4.993220    0.318940    3.576100
  C      5.001530    1.261150    2.467570
  C      4.170910    1.195930    1.347290
  C      4.262010    2.116180    0.309620
  C      5.193670    3.148060    0.372070
  C      6.012270    3.260560    1.493990
  C      5.902110    2.333800    2.522750
  F      6.685020    2.465580    3.590080
  F      6.889780    4.257530    1.577740
  F      5.289240    4.025580   -0.622050
  F      3.452460    2.008150   -0.745060
  F      3.217610    0.256140    1.262230
  C      4.823640   -1.012820    3.511490
  C      4.830450   -1.831480    4.734140
  C      4.264970   -1.387500    5.933770
  C      4.228940   -2.190830    7.066800
  C      4.775650   -3.470700    7.035220
  C      5.352750   -3.933590    5.857320
  C      5.369440   -3.119870    4.731090
  F      5.936850   -3.603900    3.617680
  F      5.880160   -5.156470    5.804960
  F      4.740350   -4.244270    8.116810
  F      3.661070   -1.739860    8.184880
  F      3.701220   -0.182370    6.006940
  C      4.622900   -1.759340    2.253840
  C      3.494430   -2.558410    2.075140
  C      2.353880   -2.797700    2.994420
  O      2.215260   -2.407510    4.129670
  N      1.460480   -3.596230    2.291020
  C      1.938010   -3.931970    1.011870
  O      1.357930   -4.626170    0.224930
  C      3.247000   -3.247910    0.885540
  C      4.122250   -3.207820   -0.181240
  C      5.267110   -2.438960   -0.001490
  C      5.519290   -1.727570    1.173550
  C      6.806810   -1.002480    1.163650
  O      7.285360   -0.330830    2.031280
  S      7.616200   -1.249430   -0.414250
  C      6.305510   -2.309870   -1.042940
  O      6.316090   -2.801540   -2.127810
  C      0.204290   -4.025500    2.708570
  C     -0.379920   -3.682440    3.866640
  C     -1.694410   -4.075140    4.257370
  N     -2.219090   -3.614700    5.444110
  C     -3.490230   -4.079210    5.564660
  C     -4.622480   -4.060570    6.364550
  C     -5.584840   -4.834500    5.693990
  N     -5.043430   -5.321660    4.520930
  C     -3.768520   -4.873110    4.417740
  C     -2.640450   -4.868320    3.600930
  C     -6.917280   -5.043780    6.111200
  C     -7.841690   -5.782630    5.444860
  C     -9.192210   -6.005720    5.847770
  C     -9.833460   -7.209670    5.482440
  C     -9.318790   -8.319130    4.652670
  O     -8.255210   -8.423960    4.092110
  N    -10.339860   -9.279180    4.625960
  C    -11.460660   -8.879280    5.371190
  O    -12.459800   -9.530370    5.502310
  C    -11.114900   -7.547350    5.914310
  C    -11.861770   -6.717700    6.728800
  C    -11.281200   -5.492160    7.034580
  C    -10.010760   -5.116200    6.598650
  C     -9.709300   -3.698270    6.865290
  O     -8.805960   -3.024800    6.468550
  S    -11.028890   -2.983760    7.875470
  C    -12.007280   -4.475830    7.828130
  O    -13.071230   -4.596700    8.354450
  C    -10.324930  -10.512260    3.997540
  C     -9.306540  -11.007930    3.288790
  C     -9.326160  -12.319720    2.676730
  C    -10.634160  -12.884310    2.287460
  C    -10.980200  -14.198560    2.603170
  C    -12.213670  -14.737300    2.252170
  C    -13.135110  -13.959560    1.556250
  C    -12.809950  -12.648020    1.220030
  C    -11.574910  -12.126330    1.588450
  F    -11.282410  -10.873040    1.229660
  F    -13.679090  -11.898300    0.543650
  F    -14.314950  -14.466930    1.210740
  F    -12.514010  -15.993760    2.577780
  F    -10.119940  -14.963390    3.280010
  C     -8.198350  -13.010250    2.403280
  C     -6.856690  -12.602420    2.791090
  C     -6.541830  -12.070050    4.046160
  C     -5.246960  -11.682920    4.372020
  C     -4.218930  -11.835300    3.446520
  C     -4.494970  -12.400850    2.203500
  C     -5.794520  -12.780300    1.896720
  F     -6.047380  -13.311500    0.696850
  F     -3.514200  -12.568440    1.315910
  F     -2.979230  -11.452940    3.750520
  F     -4.986860  -11.168330    5.575510
  F     -7.481360  -11.973560    4.991890
  H      5.227510    0.769660    4.529610
  H      3.939970   -3.736840   -1.103010
  H     -0.274380   -4.657180    1.974410
  H      0.148430   -3.045210    4.560430
  H     -1.734300   -3.010640    6.085840
  H     -4.776760   -3.554770    7.296030
  H     -5.523270   -5.920610    3.871870
  H     -2.503450   -5.360680    2.660390
  H     -7.171700   -4.572300    7.047710
  H     -7.539900   -6.347220    4.574500
  H    -12.844450   -6.979570    7.085190
  H    -11.241250  -11.062910    4.173590
  H     -8.401430  -10.432860    3.174230
  H     -8.250050  -13.918320    1.819840

 Total Charge           Charge          ....    0
 Multiplicity           Mult            ....    1
 Number of Electrons    NEL             ....  678
 Basis Dimension        Dim             .... 1394

ORBITAL ENERGIES
----------------

  NO   OCC          E(Eh)            E(eV)
   0   2.0000     -88.963767     -2420.8272
   1   2.0000     -88.947521     -2420.3851
   2   2.0000     -24.825079      -675.5247
   3   2.0000     -24.821330      -675.4227
   4   2.0000     -24.820962      -675.4127
   5   2.0000     -24.818186      -675.3372
   6   2.0000     -24.817702      -675.3240
   7   2.0000     -24.817060      -675.3065
   8   2.0000     -24.816113      -675.2808
   9   2.0000     -24.815294      -675.2585
  10   2.0000     -24.813455      -675.2084
  11   2.0000     -24.812031      -675.1697
  12   2.0000     -24.812029      -675.1696
  13   2.0000     -24.811782      -675.1629
  14   2.0000     -24.808842      -675.0829
  15   2.0000     -24.807834      -675.0555
  16   2.0000     -24.807530      -675.0472
  17   2.0000     -24.807466      -675.0455
  18   2.0000     -24.807203      -675.0383
  19   2.0000     -24.807107      -675.0357
  20   2.0000     -24.806582      -675.0214
  21   2.0000     -24.806127      -675.0090
  22   2.0000     -19.256174      -523.9871
  23   2.0000     -19.255124      -523.9586
  24   2.0000     -19.248074      -523.7667
  25   2.0000     -19.247581      -523.7533
  26   2.0000     -19.239853      -523.5430
  27   2.0000     -19.239046      -523.5211
  28   2.0000     -19.237713      -523.4848
  29   2.0000     -19.237598      -523.4817
  30   2.0000     -14.497983      -394.5102
  31   2.0000     -14.485676      -394.1753
  32   2.0000     -14.464282      -393.5931
  33   2.0000     -14.460570      -393.4921
  34   2.0000     -10.428333      -283.7694
  35   2.0000     -10.425730      -283.6985
  36   2.0000     -10.418956      -283.5142
  37   2.0000     -10.417331      -283.4700
  38   2.0000     -10.417085      -283.4633
  39   2.0000     -10.414533      -283.3939
  40   2.0000     -10.404730      -283.1271
  41   2.0000     -10.403699      -283.0990
  42   2.0000     -10.402751      -283.0733
  43   2.0000     -10.401065      -283.0274
  44   2.0000     -10.400132      -283.0020
  45   2.0000     -10.399027      -282.9719
  46   2.0000     -10.399022      -282.9718
  47   2.0000     -10.397597      -282.9330
  48   2.0000     -10.396269      -282.8969
  49   2.0000     -10.395009      -282.8626
  50   2.0000     -10.394331      -282.8441
  51   2.0000     -10.393751      -282.8283
  52   2.0000     -10.393488      -282.8212
  53   2.0000     -10.392343      -282.7900
  54   2.0000     -10.390341      -282.7356
  55   2.0000     -10.390057      -282.7278
  56   2.0000     -10.389046      -282.7003
  57   2.0000     -10.388751      -282.6923
  58   2.0000     -10.387991      -282.6716
  59   2.0000     -10.387950      -282.6705
  60   2.0000     -10.387847      -282.6677
  61   2.0000     -10.386947      -282.6432
  62   2.0000     -10.350961      -281.6640
  63   2.0000     -10.340141      -281.3695
  64   2.0000     -10.339129      -281.3420
  65   2.0000     -10.336752      -281.2773
  66   2.0000     -10.335425      -281.2412
  67   2.0000     -10.334969      -281.2288
  68   2.0000     -10.332216      -281.1539
  69   2.0000     -10.331890      -281.1450
  70   2.0000     -10.330013      -281.0939
  71   2.0000     -10.329247      -281.0731
  72   2.0000     -10.327383      -281.0224
  73   2.0000     -10.325839      -280.9804
  74   2.0000     -10.322961      -280.9021
  75   2.0000     -10.321219      -280.8547
  76   2.0000     -10.320742      -280.8417
  77   2.0000     -10.319746      -280.8146
  78   2.0000     -10.319636      -280.8116
  79   2.0000     -10.319338      -280.8035
  80   2.0000     -10.316015      -280.7131
  81   2.0000     -10.315616      -280.7022
  82   2.0000     -10.313906      -280.6557
  83   2.0000     -10.311819      -280.5989
  84   2.0000     -10.306513      -280.4545
  85   2.0000     -10.301330      -280.3135
  86   2.0000     -10.297991      -280.2226
  87   2.0000     -10.296307      -280.1767
  88   2.0000     -10.295359      -280.1510
  89   2.0000     -10.290553      -280.0202
  90   2.0000     -10.281086      -279.7626
  91   2.0000     -10.274607      -279.5863
  92   2.0000     -10.274519      -279.5839
  93   2.0000     -10.267588      -279.3953
  94   2.0000      -8.062924      -219.4033
  95   2.0000      -8.046804      -218.9647
  96   2.0000      -6.031779      -164.1331
  97   2.0000      -6.028533      -164.0447
  98   2.0000      -6.023977      -163.9208
  99   2.0000      -6.015624      -163.6934
 100   2.0000      -6.012439      -163.6068
 101   2.0000      -6.007872      -163.4825
 102   2.0000      -1.349843       -36.7311
 103   2.0000      -1.345885       -36.6234
 104   2.0000      -1.343965       -36.5712
 105   2.0000      -1.340589       -36.4793
 106   2.0000      -1.339573       -36.4516
 107   2.0000      -1.338561       -36.4241
 108   2.0000      -1.338365       -36.4188
 109   2.0000      -1.334849       -36.3231
 110   2.0000      -1.331991       -36.2453
 111   2.0000      -1.331281       -36.2260
 112   2.0000      -1.327707       -36.1287
 113   2.0000      -1.326451       -36.0946
 114   2.0000      -1.325726       -36.0748
 115   2.0000      -1.324049       -36.0292
 116   2.0000      -1.322721       -35.9931
 117   2.0000      -1.318765       -35.8854
 118   2.0000      -1.316564       -35.8255
 119   2.0000      -1.316052       -35.8116
 120   2.0000      -1.312739       -35.7214
 121   2.0000      -1.311664       -35.6922
 122   2.0000      -1.194353       -32.5000
 123   2.0000      -1.183767       -32.2119
 124   2.0000      -1.180880       -32.1334
 125   2.0000      -1.176785       -32.0220
 126   2.0000      -1.170690       -31.8561
 127   2.0000      -1.165171       -31.7059
 128   2.0000      -1.161138       -31.5962
 129   2.0000      -1.160423       -31.5767
 130   2.0000      -1.095119       -29.7997
 131   2.0000      -1.087082       -29.5810
 132   2.0000      -1.075918       -29.2772
 133   2.0000      -1.058693       -28.8085
 134   2.0000      -1.028624       -27.9903
 135   2.0000      -1.009789       -27.4777
 136   2.0000      -1.007920       -27.4269
 137   2.0000      -1.004065       -27.3220
 138   2.0000      -1.000919       -27.2364
 139   2.0000      -0.996005       -27.1027
 140   2.0000      -0.968296       -26.3487
 141   2.0000      -0.956485       -26.0273
 142   2.0000      -0.955136       -25.9906
 143   2.0000      -0.940699       -25.5977
 144   2.0000      -0.921210       -25.0674
 145   2.0000      -0.914572       -24.8868
 146   2.0000      -0.908809       -24.7300
 147   2.0000      -0.897095       -24.4112
 148   2.0000      -0.893532       -24.3142
 149   2.0000      -0.888727       -24.1835
 150   2.0000      -0.888399       -24.1746
 151   2.0000      -0.878492       -23.9050
 152   2.0000      -0.876108       -23.8401
 153   2.0000      -0.871005       -23.7012
 154   2.0000      -0.866795       -23.5867
 155   2.0000      -0.865364       -23.5478
 156   2.0000      -0.864705       -23.5298
 157   2.0000      -0.857182       -23.3251
 158   2.0000      -0.850358       -23.1394
 159   2.0000      -0.848058       -23.0768
 160   2.0000      -0.831773       -22.6337
 161   2.0000      -0.815149       -22.1813
 162   2.0000      -0.807644       -21.9771
 163   2.0000      -0.794675       -21.6242
 164   2.0000      -0.791872       -21.5479
 165   2.0000      -0.789385       -21.4803
 166   2.0000      -0.777078       -21.1454
 167   2.0000      -0.767780       -20.8924
 168   2.0000      -0.763953       -20.7882
 169   2.0000      -0.760668       -20.6988
 170   2.0000      -0.757797       -20.6207
 171   2.0000      -0.754773       -20.5384
 172   2.0000      -0.750489       -20.4219
 173   2.0000      -0.749783       -20.4026
 174   2.0000      -0.747562       -20.3422
 175   2.0000      -0.744313       -20.2538
 176   2.0000      -0.740912       -20.1612
 177   2.0000      -0.725757       -19.7489
 178   2.0000      -0.710673       -19.3384
 179   2.0000      -0.704980       -19.1835
 180   2.0000      -0.699897       -19.0452
 181   2.0000      -0.697847       -18.9894
 182   2.0000      -0.697029       -18.9671
 183   2.0000      -0.695803       -18.9338
 184   2.0000      -0.691471       -18.8159
 185   2.0000      -0.690326       -18.7847
 186   2.0000      -0.688342       -18.7307
 187   2.0000      -0.687674       -18.7126
 188   2.0000      -0.685765       -18.6606
 189   2.0000      -0.684878       -18.6365
 190   2.0000      -0.679419       -18.4879
 191   2.0000      -0.677124       -18.4255
 192   2.0000      -0.676369       -18.4049
 193   2.0000      -0.667402       -18.1609
 194   2.0000      -0.664887       -18.0925
 195   2.0000      -0.660891       -17.9838
 196   2.0000      -0.656338       -17.8599
 197   2.0000      -0.653864       -17.7926
 198   2.0000      -0.648507       -17.6468
 199   2.0000      -0.643174       -17.5017
 200   2.0000      -0.640893       -17.4396
 201   2.0000      -0.636793       -17.3280
 202   2.0000      -0.636669       -17.3247
 203   2.0000      -0.635980       -17.3059
 204   2.0000      -0.635022       -17.2798
 205   2.0000      -0.633615       -17.2415
 206   2.0000      -0.630241       -17.1497
 207   2.0000      -0.629592       -17.1321
 208   2.0000      -0.629085       -17.1183
 209   2.0000      -0.627133       -17.0652
 210   2.0000      -0.625727       -17.0269
 211   2.0000      -0.624866       -17.0035
 212   2.0000      -0.623882       -16.9767
 213   2.0000      -0.620799       -16.8928
 214   2.0000      -0.619851       -16.8670
 215   2.0000      -0.618867       -16.8402
 216   2.0000      -0.615447       -16.7472
 217   2.0000      -0.615090       -16.7374
 218   2.0000      -0.613281       -16.6882
 219   2.0000      -0.609498       -16.5853
 220   2.0000      -0.609009       -16.5720
 221   2.0000      -0.604547       -16.4506
 222   2.0000      -0.602824       -16.4037
 223   2.0000      -0.601516       -16.3681
 224   2.0000      -0.596403       -16.2290
 225   2.0000      -0.593546       -16.1512
 226   2.0000      -0.590985       -16.0815
 227   2.0000      -0.590523       -16.0690
 228   2.0000      -0.586807       -15.9678
 229   2.0000      -0.584939       -15.9170
 230   2.0000      -0.584084       -15.8937
 231   2.0000      -0.582748       -15.8574
 232   2.0000      -0.579920       -15.7804
 233   2.0000      -0.579168       -15.7600
 234   2.0000      -0.577132       -15.7045
 235   2.0000      -0.576528       -15.6881
 236   2.0000      -0.572884       -15.5890
 237   2.0000      -0.568216       -15.4619
 238   2.0000      -0.566894       -15.4260
 239   2.0000      -0.566564       -15.4170
 240   2.0000      -0.564046       -15.3485
 241   2.0000      -0.563734       -15.3400
 242   2.0000      -0.561684       -15.2842
 243   2.0000      -0.560940       -15.2639
 244   2.0000      -0.557617       -15.1735
 245   2.0000      -0.556742       -15.1497
 246   2.0000      -0.554868       -15.0987
 247   2.0000      -0.554104       -15.0779
 248   2.0000      -0.553287       -15.0557
 249   2.0000      -0.552685       -15.0393
 250   2.0000      -0.552554       -15.0358
 251   2.0000      -0.549498       -14.9526
 252   2.0000      -0.549034       -14.9400
 253   2.0000      -0.547928       -14.9099
 254   2.0000      -0.547253       -14.8915
 255   2.0000      -0.546059       -14.8590
 256   2.0000      -0.543508       -14.7896
 257   2.0000      -0.542257       -14.7556
 258   2.0000      -0.539922       -14.6920
 259   2.0000      -0.539071       -14.6689
 260   2.0000      -0.536452       -14.5976
 261   2.0000      -0.535799       -14.5798
 262   2.0000      -0.534611       -14.5475
 263   2.0000      -0.533468       -14.5164
 264   2.0000      -0.532389       -14.4870
 265   2.0000      -0.528056       -14.3691
 266   2.0000      -0.527899       -14.3649
 267   2.0000      -0.527322       -14.3492
 268   2.0000      -0.526574       -14.3288
 269   2.0000      -0.526037       -14.3142
 270   2.0000      -0.522758       -14.2250
 271   2.0000      -0.522181       -14.2093
 272   2.0000      -0.521978       -14.2037
 273   2.0000      -0.519743       -14.1429
 274   2.0000      -0.515481       -14.0270
 275   2.0000      -0.514176       -13.9914
 276   2.0000      -0.510099       -13.8805
 277   2.0000      -0.508420       -13.8348
 278   2.0000      -0.506406       -13.7800
 279   2.0000      -0.505509       -13.7556
 280   2.0000      -0.503827       -13.7098
 281   2.0000      -0.502437       -13.6720
 282   2.0000      -0.500358       -13.6154
 283   2.0000      -0.499122       -13.5818
 284   2.0000      -0.496749       -13.5172
 285   2.0000      -0.494502       -13.4561
 286   2.0000      -0.493222       -13.4212
 287   2.0000      -0.487274       -13.2594
 288   2.0000      -0.486416       -13.2361
 289   2.0000      -0.485168       -13.2021
 290   2.0000      -0.482248       -13.1226
 291   2.0000      -0.480127       -13.0649
 292   2.0000      -0.477296       -12.9879
 293   2.0000      -0.476473       -12.9655
 294   2.0000      -0.475250       -12.9322
 295   2.0000      -0.473557       -12.8861
 296   2.0000      -0.469188       -12.7672
 297   2.0000      -0.466886       -12.7046
 298   2.0000      -0.466331       -12.6895
 299   2.0000      -0.463718       -12.6184
 300   2.0000      -0.457419       -12.4470
 301   2.0000      -0.455880       -12.4051
 302   2.0000      -0.454474       -12.3669
 303   2.0000      -0.448909       -12.2154
 304   2.0000      -0.446413       -12.1475
 305   2.0000      -0.442616       -12.0442
 306   2.0000      -0.439888       -11.9700
 307   2.0000      -0.435827       -11.8594
 308   2.0000      -0.428374       -11.6566
 309   2.0000      -0.411515       -11.1979
 310   2.0000      -0.404894       -11.0177
 311   2.0000      -0.396363       -10.7856
 312   2.0000      -0.396021       -10.7763
 313   2.0000      -0.387436       -10.5427
 314   2.0000      -0.384083       -10.4514
 315   2.0000      -0.382527       -10.4091
 316   2.0000      -0.378551       -10.3009
 317   2.0000      -0.374059       -10.1787
 318   2.0000      -0.371391       -10.1061
 319   2.0000      -0.371000       -10.0954
 320   2.0000      -0.366776        -9.9805
 321   2.0000      -0.364347        -9.9144
 322   2.0000      -0.361623        -9.8403
 323   2.0000      -0.355676        -9.6784
 324   2.0000      -0.352115        -9.5815
 325   2.0000      -0.349468        -9.5095
 326   2.0000      -0.347463        -9.4549
 327   2.0000      -0.345068        -9.3898
 328   2.0000      -0.341849        -9.3022
 329   2.0000      -0.337718        -9.1898
 330   2.0000      -0.332835        -9.0569
 331   2.0000      -0.331146        -9.0109
 332   2.0000      -0.327593        -8.9143
 333   2.0000      -0.327160        -8.9025
 334   2.0000      -0.309819        -8.4306
 335   2.0000      -0.305523        -8.3137
 336   2.0000      -0.294387        -8.0107
 337   2.0000      -0.284082        -7.7303
 338   2.0000      -0.232411        -6.3242
 339   0.0000      -0.106849        -2.9075
 340   0.0000      -0.092161        -2.5078
 341   0.0000      -0.077446        -2.1074
 342   0.0000      -0.066195        -1.8013
 343   0.0000      -0.046867        -1.2753

MULLIKEN ATOMIC CHARGES
-----------------------
   0 C :    0.047464
   1 C :   -0.104988
   2 C :    0.183216
   3 C :    0.175906
   4 C :    0.134841
   5 C :    0.171259
   6 C :    0.193844
   7 F :   -0.150064
   8 F :   -0.152071
   9 F :   -0.147236
  10 F :   -0.156358
  11 F :   -0.169422
  12 C :    0.035111
  13 C :   -0.032658
  14 C :    0.187241
  15 C :    0.164376
  16 C :    0.132685
  17 C :    0.172499
  18 C :    0.157585
  19 F :   -0.170201
  20 F :   -0.155729
  21 F :   -0.150113
  22 F :   -0.157971
  23 F :   -0.159083
  24 C :   -0.051709
  25 C :   -0.012423
  26 C :    0.210973
  27 O :   -0.159705
  28 N :   -0.226030
  29 C :    0.192781
  30 O :   -0.123911
  31 C :    0.026948
  32 C :   -0.072718
  33 C :    0.050762
  34 C :    0.056618
  35 C :    0.043476
  36 O :   -0.127764
  37 S :    0.023144
  38 C :    0.043405
  39 O :   -0.109730
  40 C :    0.062178
  41 C :    0.008065
  42 C :    0.098282
  43 N :   -0.032856
  44 C :    0.114302
  45 C :   -0.147013
  46 C :    0.042049
  47 N :   -0.031600
  48 C :    0.114943
  49 C :   -0.162116
  50 C :    0.121168
  51 C :   -0.101364
  52 C :    0.079384
  53 C :   -0.038856
  54 C :    0.220518
  55 O :   -0.167242
  56 N :   -0.235562
  57 C :    0.196429
  58 O :   -0.130755
  59 C :    0.012205
  60 C :   -0.080587
  61 C :    0.047089
  62 C :    0.010386
  63 C :    0.023250
  64 O :   -0.124694
  65 S :    0.004553
  66 C :    0.051634
  67 O :   -0.122511
  68 C :    0.092903
  69 C :   -0.023824
  70 C :    0.052278
  71 C :   -0.107201
  72 C :    0.176617
  73 C :    0.169371
  74 C :    0.132952
  75 C :    0.172466
  76 C :    0.175323
  77 F :   -0.156982
  78 F :   -0.156434
  79 F :   -0.150167
  80 F :   -0.155420
  81 F :   -0.158790
  82 C :    0.004356
  83 C :   -0.084943
  84 C :    0.168112
  85 C :    0.184153
  86 C :    0.125416
  87 C :    0.172819
  88 C :    0.168689
  89 F :   -0.160557
  90 F :   -0.157558
  91 F :   -0.154329
  92 F :   -0.158736
  93 F :   -0.158507
  94 H :    0.019178
  95 H :    0.021053
  96 H :    0.030734
  97 H :    0.004885
  98 H :    0.124865
  99 H :   -0.029113
 100 H :    0.132378
 101 H :   -0.033587
 102 H :   -0.013833
 103 H :   -0.013275
 104 H :    0.014468
 105 H :    0.036689
 106 H :    0.033115
 107 H :    0.014909
Sum of atomic charges:   -0.0000000

LOEWDIN ATOMIC CHARGES
----------------------
   0 C :    0.028419
   1 C :   -0.083669
   2 C :    0.057527
   3 C :    0.025736
   4 C :    0.044014
   5 C :    0.028777
   6 C :    0.074359
   7 F :   -0.027203
   8 F :   -0.031379
   9 F :   -0.025386
  10 F :   -0.036308
  11 F :   -0.039685
  12 C :   -0.013191
  13 C :   -0.067607
  14 C :    0.072600
  15 C :    0.028907
  16 C :    0.041606
  17 C :    0.026601
  18 C :    0.058583
  19 F :   -0.042178
  20 F :   -0.035920
  21 F :   -0.028581
  22 F :   -0.036556
  23 F :   -0.029888
  24 C :    0.029271
  25 C :   -0.027585
  26 C :    0.103902
  27 O :   -0.138699
  28 N :   -0.006598
  29 C :    0.100350
  30 O :   -0.121396
  31 C :   -0.026705
  32 C :    0.046128
  33 C :   -0.049512
  34 C :   -0.056247
  35 C :   -0.047487
  36 O :   -0.112559
  37 S :    0.308860
  38 C :   -0.044401
  39 O :   -0.102564
  40 C :    0.022432
  41 C :   -0.048889
  42 C :    0.008272
  43 N :    0.074219
  44 C :   -0.030132
  45 C :   -0.063814
  46 C :   -0.013465
  47 N :    0.074048
  48 C :   -0.002855
  49 C :   -0.099930
  50 C :    0.034539
  51 C :   -0.087264
  52 C :    0.041578
  53 C :   -0.046682
  54 C :    0.111316
  55 O :   -0.142966
  56 N :   -0.013371
  57 C :    0.101254
  58 O :   -0.127779
  59 C :   -0.030650
  60 C :    0.022326
  61 C :   -0.046871
  62 C :   -0.072721
  63 C :   -0.042756
  64 O :   -0.112877
  65 S :    0.293630
  66 C :   -0.050708
  67 O :   -0.114240
  68 C :    0.039234
  69 C :   -0.048258
  70 C :   -0.002659
  71 C :   -0.074379
  72 C :    0.064215
  73 C :    0.025083
  74 C :    0.041217
  75 C :    0.025945
  76 C :    0.064591
  77 F :   -0.035621
  78 F :   -0.035312
  79 F :   -0.028451
  80 F :   -0.035514
  81 F :   -0.036840
  82 C :   -0.012634
  83 C :   -0.078834
  84 C :    0.063213
  85 C :    0.027554
  86 C :    0.039337
  87 C :    0.024173
  88 C :    0.065481
  89 F :   -0.040392
  90 F :   -0.037314
  91 F :   -0.032137
  92 F :   -0.037995
  93 F :   -0.031239
  94 H :    0.041401
  95 H :    0.053621
  96 H :    0.034344
  97 H :    0.032133
  98 H :    0.091460
  99 H :    0.028364
 100 H :    0.092689
 101 H :    0.024646
 102 H :    0.035045
 103 H :    0.022914
 104 H :    0.049417
 105 H :    0.033457
 106 H :    0.031846
 107 H :    0.036224

  Mayer bond orders larger than 0.100000
B(  0-C ,  1-C ) :   1.0278 B(  0-C , 12-C ) :   1.8404 B(  0-C , 94-H ) :   0.9482
B(  1-C ,  2-C ) :   1.3118 B(  1-C ,  4-C ) :   0.1107 B(  1-C ,  6-C ) :   1.3118
B(  2-C ,  3-C ) :   1.2857 B(  2-C , 11-F ) :   1.1351 B(  3-C ,  4-C ) :   1.2789
B(  3-C , 10-F ) :   1.1768 B(  4-C ,  5-C ) :   1.2680 B(  4-C ,  9-F ) :   1.1818
B(  5-C ,  6-C ) :   1.2905 B(  5-C ,  8-F ) :   1.1795 B(  6-C ,  7-F ) :   1.1852
B( 12-C , 13-C ) :   1.0061 B( 12-C , 24-C ) :   0.9875 B( 13-C , 14-C ) :   1.3081
B( 13-C , 16-C ) :   0.1065 B( 13-C , 18-C ) :   1.3235 B( 14-C , 15-C ) :   1.3021
B( 14-C , 23-F ) :   1.1574 B( 15-C , 16-C ) :   1.2725 B( 15-C , 22-F ) :   1.1694
B( 16-C , 17-C ) :   1.2798 B( 16-C , 21-F ) :   1.1829 B( 17-C , 18-C ) :   1.2866
B( 17-C , 20-F ) :   1.1757 B( 18-C , 19-F ) :   1.1410 B( 24-C , 25-C ) :   1.4344
B( 24-C , 34-C ) :   1.3948 B( 25-C , 26-C ) :   0.8936 B( 25-C , 31-C ) :   1.3876
B( 26-C , 27-O ) :   2.1090 B( 26-C , 28-N ) :   1.0707 B( 28-N , 29-C ) :   1.0141
B( 28-N , 40-C ) :   1.0047 B( 29-C , 30-O ) :   2.2465 B( 29-C , 31-C ) :   0.8680
B( 31-C , 32-C ) :   1.3280 B( 32-C , 33-C ) :   1.3239 B( 32-C , 95-H ) :   1.0252
B( 33-C , 34-C ) :   1.3462 B( 33-C , 38-C ) :   0.8328 B( 34-C , 35-C ) :   0.8468
B( 35-C , 36-O ) :   2.1595 B( 35-C , 37-S ) :   1.0370 B( 36-O , 37-S ) :   0.1080
B( 37-S , 38-C ) :   1.0194 B( 37-S , 39-O ) :   0.1069 B( 38-C , 39-O ) :   2.2326
B( 40-C , 41-C ) :   1.7288 B( 40-C , 96-H ) :   0.9717 B( 41-C , 42-C ) :   1.0811
B( 41-C , 97-H ) :   0.9504 B( 42-C , 43-N ) :   1.1955 B( 42-C , 49-C ) :   1.4194
B( 43-N , 44-C ) :   1.1539 B( 43-N , 98-H ) :   0.9356 B( 44-C , 45-C ) :   1.2667
B( 44-C , 48-C ) :   1.3020 B( 45-C , 46-C ) :   1.3314 B( 45-C , 99-H ) :   1.0407
B( 46-C , 47-N ) :   1.1835 B( 46-C , 50-C ) :   1.2282 B( 47-N , 48-C ) :   1.1857
B( 47-N ,100-H ) :   0.9303 B( 48-C , 49-C ) :   1.2608 B( 49-C ,101-H ) :   1.0278
B( 50-C , 51-C ) :   1.5600 B( 50-C ,102-H ) :   0.9427 B( 51-C , 52-C ) :   1.1955
B( 51-C ,103-H ) :   0.9421 B( 52-C , 53-C ) :   1.3238 B( 52-C , 62-C ) :   1.2783
B( 53-C , 54-C ) :   0.9228 B( 53-C , 59-C ) :   1.3880 B( 54-C , 55-O ) :   2.0946
B( 54-C , 56-N ) :   1.0443 B( 56-N , 57-C ) :   1.0158 B( 56-N , 68-C ) :   1.0279
B( 57-C , 58-O ) :   2.2407 B( 57-C , 59-C ) :   0.8752 B( 59-C , 60-C ) :   1.3288
B( 60-C , 61-C ) :   1.3366 B( 60-C ,104-H ) :   1.0284 B( 61-C , 62-C ) :   1.3580
B( 61-C , 66-C ) :   0.8390 B( 62-C , 63-C ) :   0.8630 B( 63-C , 64-O ) :   2.1846
B( 63-C , 65-S ) :   1.0121 B( 64-O , 65-S ) :   0.1015 B( 65-S , 66-C ) :   1.0311
B( 65-S , 67-O ) :   0.1093 B( 66-C , 67-O ) :   2.2154 B( 68-C , 69-C ) :   1.7502
B( 68-C ,105-H ) :   0.9629 B( 69-C , 70-C ) :   1.1026 B( 69-C ,106-H ) :   0.9319
B( 70-C , 71-C ) :   0.9583 B( 70-C , 82-C ) :   1.7886 B( 71-C , 72-C ) :   1.3435
B( 71-C , 74-C ) :   0.1067 B( 71-C , 76-C ) :   1.3248 B( 72-C , 73-C ) :   1.2802
B( 72-C , 81-F ) :   1.1672 B( 73-C , 74-C ) :   1.2748 B( 73-C , 80-F ) :   1.1737
B( 74-C , 75-C ) :   1.2737 B( 74-C , 79-F ) :   1.1796 B( 75-C , 76-C ) :   1.2812
B( 75-C , 78-F ) :   1.1737 B( 76-C , 77-F ) :   1.1682 B( 82-C , 83-C ) :   1.0193
B( 82-C ,107-H ) :   0.9615 B( 83-C , 84-C ) :   1.3187 B( 83-C , 86-C ) :   0.1075
B( 83-C , 88-C ) :   1.3203 B( 84-C , 85-C ) :   1.2763 B( 84-C , 93-F ) :   1.1528
B( 85-C , 86-C ) :   1.2814 B( 85-C , 92-F ) :   1.1731 B( 86-C , 87-C ) :   1.2661
B( 86-C , 91-F ) :   1.1738 B( 87-C , 88-C ) :   1.2858 B( 87-C , 90-F ) :   1.1740
B( 88-C , 89-F ) :   1.1811

-----------------------------------------------------------------------------
         ABSORPTION SPECTRUM VIA TRANSITION ELECTRIC DIPOLE MOMENTS
-----------------------------------------------------------------------------
State   Energy  Wavelength   fosc         T2         TX        TY        TZ
        (cm-1)    (nm)                  (au**2)     (au)      (au)      (au)
-----------------------------------------------------------------------------
   0   14200.9    704.2   0.005262982   0.12201  -0.31549  -0.14232  -0.04711
   1   14565.8    686.5   0.052000590   1.17530  -0.84635   0.44462   0.51118
   2   19379.7    516.0   1.479369688  25.13070  -4.61130  -1.61085   1.12771
   3   22813.9    438.3   0.008041622   0.11604  -0.21878  -0.08944  -0.24532
   4   23692.7    422.1   0.017128139   0.23800  -0.38639  -0.00473   0.29778
   5   24607.2    406.4   0.001739382   0.02327   0.09652   0.11707  -0.01575
   6   27495.4    363.7   0.006694069   0.08015   0.12989   0.24360   0.06275
   7   28300.5    353.4   0.128784324   1.49812  -1.03667   0.02737   0.65014
   8   28613.5    349.5   0.000364892   0.00420   0.03012   0.05563   0.01402
   9   28641.7    349.1   0.015257075   0.17537  -0.38746  -0.11783   0.10658
  10   29223.6    342.2   0.071157514   0.80161   0.88614  -0.04380  -0.12017
  11   29655.2    337.2   0.003621893   0.04021   0.16414   0.08308  -0.07978
  12   29725.0    336.4   0.012023836   0.13317   0.07267  -0.26223  -0.24315
  13   30617.8    326.6   0.011085191   0.11919  -0.22237  -0.26176  -0.03495
  14   30728.3    325.4   0.061052704   0.65410  -0.02300   0.80635   0.05801
  15   30893.0    323.7   0.008651253   0.09219   0.29236   0.01580  -0.08043
  16   31008.0    322.5   0.046793096   0.49680   0.16926   0.65897  -0.18415
  17   31109.1    321.4   0.036978820   0.39133   0.59303  -0.08611  -0.17951
  18   31630.8    316.1   0.015413597   0.16042  -0.08124  -0.38407  -0.07947
  19   31659.8    315.9   0.095937477   0.99760  -0.61914   0.77379   0.12456
  20   31976.1    312.7   0.013067338   0.13454  -0.26545   0.08765   0.23746
  21   32052.8    312.0   0.381813447   3.92157  -1.14528   1.33136   0.91509
  22   32200.0    310.6   0.028432722   0.29070  -0.16185  -0.51426   0.00573
  23   33129.1    301.8   0.010556737   0.10490  -0.17467  -0.00156   0.27275
  24   33196.5    301.2   0.006220575   0.06169   0.06428   0.23400  -0.05295
  25   33568.9    297.9   0.056898949   0.55801   0.48468  -0.51790  -0.23426
  26   33662.6    297.1   0.074724745   0.73079   0.62495  -0.42558  -0.39889
  27   33820.0    295.7   0.005721531   0.05569   0.12383   0.04482   0.19584
  28   34576.2    289.2   0.287730180   2.73958   1.43311   0.39654  -0.72701
  29   35263.4    283.6   0.364537661   3.40325   1.84112  -0.09070   0.07287
  30   35487.8    281.8   0.234017057   2.17092  -1.41001  -0.07415   0.42107
  31   35823.0    279.2   0.022126472   0.20334  -0.19836   0.03218   0.40368
  32   35995.0    277.8   0.015184866   0.13888  -0.02536   0.07908   0.36330
  33   36086.6    277.1   0.002044796   0.01865  -0.11495  -0.05651  -0.04741
  34   36505.4    273.9   0.009204123   0.08300   0.10616  -0.06787  -0.25909
  35   36844.7    271.4   0.002066213   0.01846  -0.04808  -0.11241  -0.05928
  36   37491.7    266.7   0.008982794   0.07888   0.20386   0.01077  -0.19288
  37   37713.1    265.2   0.001826567   0.01594   0.00765  -0.09040   0.08783
  38   38180.3    261.9   0.001139270   0.00982  -0.00865  -0.08338  -0.05288
  39   38310.1    261.0   0.035751478   0.30722   0.46796   0.29173  -0.05591
  40   38373.2    260.6   0.033275249   0.28548   0.43768   0.30633  -0.00874
  41   39197.0    255.1   0.023701521   0.19907   0.24335  -0.14303  -0.34553
  42   39410.7    253.7   0.115529380   0.96506   0.04093  -0.76225   0.61835
  43   39480.2    253.3   0.012938108   0.10789  -0.05363  -0.30358  -0.11334
  44   39882.7    250.7   0.446000070   3.68151   0.14633   1.37181  -1.33351
  45   40163.5    249.0   0.053329282   0.43713  -0.18806   0.59120  -0.22859

FINAL SINGLE POINT ENERGY     -5902.687110799399

DIPOLE MOMENT
-------------
                                X             Y             Z
Electronic contribution:     38.16754     -13.26156     -15.47201
Nuclear contribution   :    -36.76152      13.92789      15.56201
                        -----------------------------------------
Total Dipole Moment    :      1.40602       0.66633       0.09000
                        -----------------------------------------
Magnitude (a.u.)       :      1.55852
Magnitude (Debye)      :      3.96144

Rotational constants in cm-1:     0.000859     0.000164     0.000153
Rotational constants in MHz :    25.754078     4.931149     4.575747

                             ****ORCA TERMINATED NORMALLY****
TOTAL RUN TIME: 0 days 0 hours 12 minutes 50 seconds 260 msec
