                         Program Version 4.2.0 -  RELEASE  -
|  1> # ORCA input file
|  2> # SCF done       -199.089295185483          0.000756324391
|  3> ! CAM-B3LYP def2-SVP def2/J RIJCOSX Grid4 TightSCF
|  4> %maxcore 5000
|  5> %tddft
|  6>     Mode sTDDFT
|  7>     Ethresh 5.0
|  8>     maxcore 5000
|  9> end
| 10>
| 11> %pal
| 12>   nprocs 6
| 13>   end
| 14> * xyz 0 1
| 15>    C       -7.73855         5.52744        -7.58063
| 16>    C       -7.80160         6.34086        -8.68591
| 17>    C       -8.08863         5.88214        -9.98725
| 18>    N       -8.32070         5.58058       -11.07143
| 19>    C       -7.55805         7.72910        -8.71175
| 20>    N       -7.35752         8.85354        -8.84017
| 21>    C       -7.90673         4.07730        -7.60191
| 22>    C       -7.63845         3.57493        -6.29887
| 23>    C       -7.70954         2.24416        -6.00872
| 24>    C       -8.06496         1.33372        -7.02975
| 25>    C       -8.34244         1.82866        -8.33561
| 26>    C       -8.25691         3.21419        -8.60589
| 27>    C       -8.70248         0.91366        -9.34575
| 28>    C       -8.78407        -0.42621        -9.08101
| 29>    C       -8.50953        -0.91269        -7.79445
| 30>    C       -8.15732        -0.05129        -6.79108
| 31>    C       -7.31081         4.69659        -5.39272
| 32>    O       -7.03174         4.59728        -4.21727
| 33>    C       -7.43578         5.92041        -6.22060
| 34>    C       -7.38052         7.21915        -5.78249
| 35>    C       -7.05299         7.72675        -4.51960
| 36>    O       -6.59531         7.00635        -3.47073
| 37>    C       -6.36241         7.83550        -2.44562
| 38>    C       -6.67198         9.14391        -2.81138
| 39>    C       -7.11052         9.08236        -4.13236
| 40>    O       -7.53068        10.06928        -4.93751
| 41>    C       -5.86199         7.27200        -1.23932
| 42>    C       -5.55252         7.98705        -0.13520
| 43>    C       -5.02252         7.47828         1.10003
| 44>    C       -4.69260         8.37337         2.09495
| 45>    C       -4.13309         7.92209         3.30570
| 46>    C       -3.70059         8.61772         4.42465
| 47>    C       -3.74766        10.09649         4.62050
| 48>    C       -4.45806        10.49392         5.92747
| 49>    N       -5.14283        11.76082         5.73876
| 50>    C       -2.33449        10.70113         4.53561
| 51>    N       -1.84697        10.58897         3.17311
| 52>    C       -3.16925         7.63610         5.34266
| 53>    C       -2.57874         7.75925         6.54523
| 54>    C       -2.07677         6.57244         7.30063
| 55>    C       -2.32367         5.25863         6.63713
| 56>    C       -2.89790         5.15149         5.42567
| 57>    C       -3.32836         6.30689         4.72909
| 58>    C       -3.91167         6.49345         3.49492
| 59>    C       -4.28455         5.59385         2.46671
| 60>    C       -4.81724         6.07170         1.31640
| 61>    C       -2.61608         6.66755         8.70288
| 62>    C       -3.50310         5.82786         9.24591
| 63>    C       -3.98835         5.98622        10.58195
| 64>    O       -3.60489         7.03683        11.33455
| 65>    C       -4.19983         6.93530        12.54492
| 66>    C       -4.98690         5.79044        12.57864
| 67>    C       -4.85491         5.18328        11.32425
| 68>    O       -5.42236         4.04715        10.86655
| 69>    C       -3.96983         7.92546        13.52774
| 70>    C       -3.18554         9.01784        13.30904
| 71>    C       -2.97068        10.00085        14.29416
| 72>    C       -2.21765        11.13178        14.11847
| 73>    C       -1.97067        12.16745        15.10138
| 74>    C       -2.40679        12.19571        16.40269
| 75>    C       -2.12545        13.23854        17.30924
| 76>    N       -1.93636        14.05033        18.09957
| 77>    C       -3.18675        11.20594        17.03430
| 78>    N       -3.81944        10.45092        17.62617
| 79>    C       -1.15379        13.19836        14.46771
| 80>    C       -0.88369        12.80340        13.12700
| 81>    C       -1.52972        11.50607        12.85870
| 82>    O       -1.49780        10.89179        11.81017
| 83>    C       -0.13632        13.57322        12.28370
| 84>    C        0.38415        14.80146        12.74939
| 85>    C        0.11566        15.20636        14.08818
| 86>    C       -0.65965        14.38545        14.93954
| 87>    C        0.63490        16.43561        14.54240
| 88>    C        1.38364        17.22809        13.71546
| 89>    C        1.64870        16.82753        12.39758
| 90>    C        1.15966        15.63993        11.92502
| 91>    H       -7.49913         1.88911        -5.01059
| 92>    H       -8.47787         3.55624        -9.60426
| 93>    H       -8.91195         1.29347       -10.33513
| 94>    H       -9.06077        -1.11898        -9.86188
| 95>    H       -8.57901        -1.97320        -7.60229
| 96>    H       -7.94510        -0.42013        -5.79794
| 97>    H       -7.63450         8.00584        -6.48159
| 98>    H       -6.58781        10.01782        -2.19768
| 99>    H       -7.47021        10.91968        -4.48612
|100>    H       -5.73849         6.20042        -1.28057
|101>    H       -5.69380         9.06002        -0.16333
|102>    H       -4.84337         9.43208         1.94136
|103>    H       -4.32992        10.53120         3.80384
|104>    H       -3.73327        10.51410         6.75824
|105>    H       -5.21867         9.74462         6.16437
|106>    H       -4.47599        12.49815         5.53699
|107>    H       -5.65046        12.02109         6.57678
|108>    H       -1.68301        10.20614         5.27651
|109>    H       -2.37573        11.76712         4.77985
|110>    H       -1.83449         9.61447         2.88918
|111>    H       -0.90316        10.95133         3.09807
|112>    H       -2.44535         8.71704         7.02716
|113>    H       -0.98261         6.69848         7.38804
|114>    H       -1.98542         4.38721         7.17690
|115>    H       -3.03938         4.18382         4.96635
|116>    H       -4.13500         4.53361         2.60984
|117>    H       -5.10040         5.38555         0.53480
|118>    H       -2.26107         7.50873         9.28245
|119>    H       -3.89583         4.97806         8.70894
|120>    H       -5.57545         5.45111        13.40765
|121>    H       -5.98190         3.66461        11.55238
|122>    H       -4.45928         7.78110        14.48116
|123>    H       -2.71402         9.14308        12.34611
|124>    H       -3.44733         9.83574        15.25177
|125>    H        0.05482        13.24975        11.27114
|126>    H       -0.84314        14.72186        15.94722
|127>    H        0.42891        16.73910        15.55828
|128>    H        1.77634        18.16826        14.07265
|129>    H        2.24144        17.46496        11.75852
|130>    H        1.35995        15.32676        10.91071
|131> *
|132>
|133>                          ****END OF INPUT****

CARTESIAN COORDINATES (ANGSTROEM)
---------------------------------
  C     -7.738550    5.527440   -7.580630
  C     -7.801600    6.340860   -8.685910
  C     -8.088630    5.882140   -9.987250
  N     -8.320700    5.580580  -11.071430
  C     -7.558050    7.729100   -8.711750
  N     -7.357520    8.853540   -8.840170
  C     -7.906730    4.077300   -7.601910
  C     -7.638450    3.574930   -6.298870
  C     -7.709540    2.244160   -6.008720
  C     -8.064960    1.333720   -7.029750
  C     -8.342440    1.828660   -8.335610
  C     -8.256910    3.214190   -8.605890
  C     -8.702480    0.913660   -9.345750
  C     -8.784070   -0.426210   -9.081010
  C     -8.509530   -0.912690   -7.794450
  C     -8.157320   -0.051290   -6.791080
  C     -7.310810    4.696590   -5.392720
  O     -7.031740    4.597280   -4.217270
  C     -7.435780    5.920410   -6.220600
  C     -7.380520    7.219150   -5.782490
  C     -7.052990    7.726750   -4.519600
  O     -6.595310    7.006350   -3.470730
  C     -6.362410    7.835500   -2.445620
  C     -6.671980    9.143910   -2.811380
  C     -7.110520    9.082360   -4.132360
  O     -7.530680   10.069280   -4.937510
  C     -5.861990    7.272000   -1.239320
  C     -5.552520    7.987050   -0.135200
  C     -5.022520    7.478280    1.100030
  C     -4.692600    8.373370    2.094950
  C     -4.133090    7.922090    3.305700
  C     -3.700590    8.617720    4.424650
  C     -3.747660   10.096490    4.620500
  C     -4.458060   10.493920    5.927470
  N     -5.142830   11.760820    5.738760
  C     -2.334490   10.701130    4.535610
  N     -1.846970   10.588970    3.173110
  C     -3.169250    7.636100    5.342660
  C     -2.578740    7.759250    6.545230
  C     -2.076770    6.572440    7.300630
  C     -2.323670    5.258630    6.637130
  C     -2.897900    5.151490    5.425670
  C     -3.328360    6.306890    4.729090
  C     -3.911670    6.493450    3.494920
  C     -4.284550    5.593850    2.466710
  C     -4.817240    6.071700    1.316400
  C     -2.616080    6.667550    8.702880
  C     -3.503100    5.827860    9.245910
  C     -3.988350    5.986220   10.581950
  O     -3.604890    7.036830   11.334550
  C     -4.199830    6.935300   12.544920
  C     -4.986900    5.790440   12.578640
  C     -4.854910    5.183280   11.324250
  O     -5.422360    4.047150   10.866550
  C     -3.969830    7.925460   13.527740
  C     -3.185540    9.017840   13.309040
  C     -2.970680   10.000850   14.294160
  C     -2.217650   11.131780   14.118470
  C     -1.970670   12.167450   15.101380
  C     -2.406790   12.195710   16.402690
  C     -2.125450   13.238540   17.309240
  N     -1.936360   14.050330   18.099570
  C     -3.186750   11.205940   17.034300
  N     -3.819440   10.450920   17.626170
  C     -1.153790   13.198360   14.467710
  C     -0.883690   12.803400   13.127000
  C     -1.529720   11.506070   12.858700
  O     -1.497800   10.891790   11.810170
  C     -0.136320   13.573220   12.283700
  C      0.384150   14.801460   12.749390
  C      0.115660   15.206360   14.088180
  C     -0.659650   14.385450   14.939540
  C      0.634900   16.435610   14.542400
  C      1.383640   17.228090   13.715460
  C      1.648700   16.827530   12.397580
  C      1.159660   15.639930   11.925020
  H     -7.499130    1.889110   -5.010590
  H     -8.477870    3.556240   -9.604260
  H     -8.911950    1.293470  -10.335130
  H     -9.060770   -1.118980   -9.861880
  H     -8.579010   -1.973200   -7.602290
  H     -7.945100   -0.420130   -5.797940
  H     -7.634500    8.005840   -6.481590
  H     -6.587810   10.017820   -2.197680
  H     -7.470210   10.919680   -4.486120
  H     -5.738490    6.200420   -1.280570
  H     -5.693800    9.060020   -0.163330
  H     -4.843370    9.432080    1.941360
  H     -4.329920   10.531200    3.803840
  H     -3.733270   10.514100    6.758240
  H     -5.218670    9.744620    6.164370
  H     -4.475990   12.498150    5.536990
  H     -5.650460   12.021090    6.576780
  H     -1.683010   10.206140    5.276510
  H     -2.375730   11.767120    4.779850
  H     -1.834490    9.614470    2.889180
  H     -0.903160   10.951330    3.098070
  H     -2.445350    8.717040    7.027160
  H     -0.982610    6.698480    7.388040
  H     -1.985420    4.387210    7.176900
  H     -3.039380    4.183820    4.966350
  H     -4.135000    4.533610    2.609840
  H     -5.100400    5.385550    0.534800
  H     -2.261070    7.508730    9.282450
  H     -3.895830    4.978060    8.708940
  H     -5.575450    5.451110   13.407650
  H     -5.981900    3.664610   11.552380
  H     -4.459280    7.781100   14.481160
  H     -2.714020    9.143080   12.346110
  H     -3.447330    9.835740   15.251770
  H      0.054820   13.249750   11.271140
  H     -0.843140   14.721860   15.947220
  H      0.428910   16.739100   15.558280
  H      1.776340   18.168260   14.072650
  H      2.241440   17.464960   11.758520
  H      1.359950   15.326760   10.910710

 Total Charge           Charge          ....    0
 Multiplicity           Mult            ....    1
 Number of Electrons    NEL             ....  514
 Basis Dimension        Dim             .... 1264

ORBITAL ENERGIES
----------------

  NO   OCC          E(Eh)            E(eV)
   0   2.0000     -19.305871      -525.3395
   1   2.0000     -19.289111      -524.8834
   2   2.0000     -19.272228      -524.4240
   3   2.0000     -19.269499      -524.3497
   4   2.0000     -19.213836      -522.8351
   5   2.0000     -19.188043      -522.1332
   6   2.0000     -14.414470      -392.2377
   7   2.0000     -14.411261      -392.1504
   8   2.0000     -14.394983      -391.7074
   9   2.0000     -14.393062      -391.6551
  10   2.0000     -14.380131      -391.3033
  11   2.0000     -14.377877      -391.2419
  12   2.0000     -10.364629      -282.0359
  13   2.0000     -10.356070      -281.8030
  14   2.0000     -10.352339      -281.7015
  15   2.0000     -10.350681      -281.6564
  16   2.0000     -10.350156      -281.6421
  17   2.0000     -10.343369      -281.4574
  18   2.0000     -10.342341      -281.4294
  19   2.0000     -10.337876      -281.3079
  20   2.0000     -10.337302      -281.2923
  21   2.0000     -10.327895      -281.0363
  22   2.0000     -10.318752      -280.7875
  23   2.0000     -10.317776      -280.7609
  24   2.0000     -10.316363      -280.7225
  25   2.0000     -10.314730      -280.6781
  26   2.0000     -10.312587      -280.6198
  27   2.0000     -10.312539      -280.6185
  28   2.0000     -10.307939      -280.4933
  29   2.0000     -10.302483      -280.3448
  30   2.0000     -10.301235      -280.3108
  31   2.0000     -10.300766      -280.2981
  32   2.0000     -10.298731      -280.2427
  33   2.0000     -10.297935      -280.2211
  34   2.0000     -10.297479      -280.2086
  35   2.0000     -10.296882      -280.1924
  36   2.0000     -10.296395      -280.1792
  37   2.0000     -10.295343      -280.1505
  38   2.0000     -10.294840      -280.1368
  39   2.0000     -10.293907      -280.1114
  40   2.0000     -10.291466      -280.0450
  41   2.0000     -10.291077      -280.0344
  42   2.0000     -10.289088      -279.9803
  43   2.0000     -10.286832      -279.9189
  44   2.0000     -10.286602      -279.9127
  45   2.0000     -10.286553      -279.9113
  46   2.0000     -10.286040      -279.8974
  47   2.0000     -10.285422      -279.8806
  48   2.0000     -10.285118      -279.8723
  49   2.0000     -10.284895      -279.8662
  50   2.0000     -10.284397      -279.8527
  51   2.0000     -10.282989      -279.8143
  52   2.0000     -10.282398      -279.7983
  53   2.0000     -10.282143      -279.7913
  54   2.0000     -10.280940      -279.7586
  55   2.0000     -10.280567      -279.7485
  56   2.0000     -10.280421      -279.7445
  57   2.0000     -10.278742      -279.6988
  58   2.0000     -10.278003      -279.6787
  59   2.0000     -10.277247      -279.6581
  60   2.0000     -10.277235      -279.6578
  61   2.0000     -10.275709      -279.6163
  62   2.0000     -10.274295      -279.5778
  63   2.0000     -10.273776      -279.5637
  64   2.0000     -10.272491      -279.5287
  65   2.0000     -10.272413      -279.5266
  66   2.0000     -10.271650      -279.5058
  67   2.0000     -10.271219      -279.4941
  68   2.0000     -10.270707      -279.4802
  69   2.0000     -10.269750      -279.4541
  70   2.0000     -10.268117      -279.4097
  71   2.0000     -10.267682      -279.3978
  72   2.0000     -10.266525      -279.3664
  73   2.0000     -10.266485      -279.3653
  74   2.0000     -10.265566      -279.3403
  75   2.0000     -10.264854      -279.3209
  76   2.0000      -1.227526       -33.4027
  77   2.0000      -1.217124       -33.1196
  78   2.0000      -1.165837       -31.7240
  79   2.0000      -1.162366       -31.6296
  80   2.0000      -1.127328       -30.6762
  81   2.0000      -1.103840       -30.0370
  82   2.0000      -1.015505       -27.6333
  83   2.0000      -0.997030       -27.1306
  84   2.0000      -0.996752       -27.1230
  85   2.0000      -0.991035       -26.9674
  86   2.0000      -0.988358       -26.8946
  87   2.0000      -0.978952       -26.6386
  88   2.0000      -0.972789       -26.4709
  89   2.0000      -0.970010       -26.3953
  90   2.0000      -0.968109       -26.3436
  91   2.0000      -0.953498       -25.9460
  92   2.0000      -0.953288       -25.9403
  93   2.0000      -0.951780       -25.8993
  94   2.0000      -0.938020       -25.5248
  95   2.0000      -0.927901       -25.2495
  96   2.0000      -0.920629       -25.0516
  97   2.0000      -0.912522       -24.8310
  98   2.0000      -0.909199       -24.7405
  99   2.0000      -0.905760       -24.6470
 100   2.0000      -0.900339       -24.4995
 101   2.0000      -0.898012       -24.4361
 102   2.0000      -0.886464       -24.1219
 103   2.0000      -0.879803       -23.9407
 104   2.0000      -0.879781       -23.9401
 105   2.0000      -0.872914       -23.7532
 106   2.0000      -0.865315       -23.5464
 107   2.0000      -0.862194       -23.4615
 108   2.0000      -0.854114       -23.2416
 109   2.0000      -0.842381       -22.9224
 110   2.0000      -0.833569       -22.6826
 111   2.0000      -0.831426       -22.6242
 112   2.0000      -0.827158       -22.5081
 113   2.0000      -0.816384       -22.2149
 114   2.0000      -0.810800       -22.0630
 115   2.0000      -0.802124       -21.8269
 116   2.0000      -0.782904       -21.3039
 117   2.0000      -0.769330       -20.9345
 118   2.0000      -0.762453       -20.7474
 119   2.0000      -0.759649       -20.6711
 120   2.0000      -0.746180       -20.3046
 121   2.0000      -0.740992       -20.1634
 122   2.0000      -0.737343       -20.0641
 123   2.0000      -0.729299       -19.8452
 124   2.0000      -0.724675       -19.7194
 125   2.0000      -0.718961       -19.5639
 126   2.0000      -0.705408       -19.1951
 127   2.0000      -0.702923       -19.1275
 128   2.0000      -0.700579       -19.0637
 129   2.0000      -0.694831       -18.9073
 130   2.0000      -0.688196       -18.7268
 131   2.0000      -0.685784       -18.6611
 132   2.0000      -0.685321       -18.6485
 133   2.0000      -0.679703       -18.4956
 134   2.0000      -0.674764       -18.3613
 135   2.0000      -0.666988       -18.1497
 136   2.0000      -0.665065       -18.0973
 137   2.0000      -0.660912       -17.9843
 138   2.0000      -0.659650       -17.9500
 139   2.0000      -0.654572       -17.8118
 140   2.0000      -0.644452       -17.5364
 141   2.0000      -0.639579       -17.4038
 142   2.0000      -0.635380       -17.2896
 143   2.0000      -0.628347       -17.0982
 144   2.0000      -0.622239       -16.9320
 145   2.0000      -0.618204       -16.8222
 146   2.0000      -0.617393       -16.8001
 147   2.0000      -0.607293       -16.5253
 148   2.0000      -0.605537       -16.4775
 149   2.0000      -0.598990       -16.2994
 150   2.0000      -0.596431       -16.2297
 151   2.0000      -0.589169       -16.0321
 152   2.0000      -0.584704       -15.9106
 153   2.0000      -0.581076       -15.8119
 154   2.0000      -0.578505       -15.7419
 155   2.0000      -0.577680       -15.7195
 156   2.0000      -0.574132       -15.6229
 157   2.0000      -0.569524       -15.4975
 158   2.0000      -0.567889       -15.4530
 159   2.0000      -0.565605       -15.3909
 160   2.0000      -0.560816       -15.2606
 161   2.0000      -0.555234       -15.1087
 162   2.0000      -0.551613       -15.0101
 163   2.0000      -0.550003       -14.9664
 164   2.0000      -0.547380       -14.8950
 165   2.0000      -0.545725       -14.8499
 166   2.0000      -0.540173       -14.6988
 167   2.0000      -0.535955       -14.5841
 168   2.0000      -0.534584       -14.5468
 169   2.0000      -0.530636       -14.4393
 170   2.0000      -0.529656       -14.4127
 171   2.0000      -0.528906       -14.3923
 172   2.0000      -0.527715       -14.3599
 173   2.0000      -0.522204       -14.2099
 174   2.0000      -0.518169       -14.1001
 175   2.0000      -0.517703       -14.0874
 176   2.0000      -0.515168       -14.0184
 177   2.0000      -0.513908       -13.9841
 178   2.0000      -0.513516       -13.9735
 179   2.0000      -0.512987       -13.9591
 180   2.0000      -0.510649       -13.8955
 181   2.0000      -0.507012       -13.7965
 182   2.0000      -0.505267       -13.7490
 183   2.0000      -0.503460       -13.6998
 184   2.0000      -0.500359       -13.6155
 185   2.0000      -0.499869       -13.6021
 186   2.0000      -0.498205       -13.5569
 187   2.0000      -0.497823       -13.5465
 188   2.0000      -0.494796       -13.4641
 189   2.0000      -0.493529       -13.4296
 190   2.0000      -0.491492       -13.3742
 191   2.0000      -0.490734       -13.3536
 192   2.0000      -0.490016       -13.3340
 193   2.0000      -0.487408       -13.2631
 194   2.0000      -0.485131       -13.2011
 195   2.0000      -0.484722       -13.1900
 196   2.0000      -0.480821       -13.0838
 197   2.0000      -0.476665       -12.9707
 198   2.0000      -0.471715       -12.8360
 199   2.0000      -0.471347       -12.8260
 200   2.0000      -0.470208       -12.7950
 201   2.0000      -0.466063       -12.6822
 202   2.0000      -0.465458       -12.6658
 203   2.0000      -0.461931       -12.5698
 204   2.0000      -0.461424       -12.5560
 205   2.0000      -0.450042       -12.2463
 206   2.0000      -0.447345       -12.1729
 207   2.0000      -0.446797       -12.1580
 208   2.0000      -0.444465       -12.0945
 209   2.0000      -0.442838       -12.0502
 210   2.0000      -0.439604       -11.9622
 211   2.0000      -0.438496       -11.9321
 212   2.0000      -0.437392       -11.9020
 213   2.0000      -0.435962       -11.8631
 214   2.0000      -0.433323       -11.7913
 215   2.0000      -0.432380       -11.7657
 216   2.0000      -0.432361       -11.7651
 217   2.0000      -0.430962       -11.7271
 218   2.0000      -0.429450       -11.6859
 219   2.0000      -0.426217       -11.5979
 220   2.0000      -0.423790       -11.5319
 221   2.0000      -0.422290       -11.4911
 222   2.0000      -0.417833       -11.3698
 223   2.0000      -0.416776       -11.3411
 224   2.0000      -0.416096       -11.3225
 225   2.0000      -0.412634       -11.2283
 226   2.0000      -0.411552       -11.1989
 227   2.0000      -0.406911       -11.0726
 228   2.0000      -0.403645       -10.9837
 229   2.0000      -0.401843       -10.9347
 230   2.0000      -0.400987       -10.9114
 231   2.0000      -0.399003       -10.8574
 232   2.0000      -0.395465       -10.7611
 233   2.0000      -0.391102       -10.6424
 234   2.0000      -0.386462       -10.5162
 235   2.0000      -0.381064       -10.3693
 236   2.0000      -0.379852       -10.3363
 237   2.0000      -0.373420       -10.1613
 238   2.0000      -0.368438       -10.0257
 239   2.0000      -0.361712        -9.8427
 240   2.0000      -0.356349        -9.6968
 241   2.0000      -0.344712        -9.3801
 242   2.0000      -0.342528        -9.3207
 243   2.0000      -0.333143        -9.0653
 244   2.0000      -0.331621        -9.0239
 245   2.0000      -0.321513        -8.7488
 246   2.0000      -0.312356        -8.4996
 247   2.0000      -0.309688        -8.4270
 248   2.0000      -0.307425        -8.3655
 249   2.0000      -0.304428        -8.2839
 250   2.0000      -0.299807        -8.1582
 251   2.0000      -0.295528        -8.0417
 252   2.0000      -0.293016        -7.9734
 253   2.0000      -0.278335        -7.5739
 254   2.0000      -0.256549        -6.9811
 255   2.0000      -0.251306        -6.8384
 256   2.0000      -0.225044        -6.1238
 257   0.0000      -0.099460        -2.7065
 258   0.0000      -0.083540        -2.2732
 259   0.0000      -0.063787        -1.7357
 260   0.0000      -0.057157        -1.5553
 261   0.0000      -0.036234        -0.9860

MULLIKEN ATOMIC CHARGES
-----------------------
   0 C :    0.327161
   1 C :   -0.368759
   2 C :   -0.184445
   3 N :    0.132815
   4 C :   -0.202898
   5 N :    0.148177
   6 C :    0.047332
   7 C :   -0.006745
   8 C :   -0.091030
   9 C :    0.100418
  10 C :    0.094644
  11 C :   -0.088304
  12 C :   -0.018790
  13 C :    0.033596
  14 C :    0.032760
  15 C :   -0.018258
  16 C :    0.131575
  17 O :   -0.142490
  18 C :   -0.085082
  19 C :   -0.061883
  20 C :    0.075239
  21 O :   -0.149938
  22 C :    0.211429
  23 C :   -0.157711
  24 C :    0.178291
  25 O :   -0.156207
  26 C :    0.007219
  27 C :    0.000899
  28 C :    0.119199
  29 C :   -0.095422
  30 C :    0.050653
  31 C :   -0.075297
  32 C :   -0.033113
  33 C :    0.126284
  34 N :   -0.211295
  35 C :    0.163301
  36 N :   -0.228758
  37 C :    0.093278
  38 C :   -0.125364
  39 C :    0.187436
  40 C :   -0.058500
  41 C :    0.019207
  42 C :    0.007309
  43 C :    0.038670
  44 C :   -0.000730
  45 C :   -0.005086
  46 C :   -0.104094
  47 C :    0.005644
  48 C :    0.111064
  49 O :   -0.198572
  50 C :    0.183041
  51 C :   -0.097301
  52 C :    0.134562
  53 O :   -0.183892
  54 C :    0.013859
  55 C :   -0.000594
  56 C :   -0.034229
  57 C :   -0.073435
  58 C :    0.340085
  59 C :   -0.361222
  60 C :   -0.183063
  61 N :    0.142163
  62 C :   -0.187944
  63 N :    0.139092
  64 C :    0.044099
  65 C :    0.000606
  66 C :    0.146015
  67 O :   -0.162453
  68 C :   -0.084271
  69 C :    0.100457
  70 C :    0.093199
  71 C :   -0.083877
  72 C :   -0.017592
  73 C :    0.036306
  74 C :    0.034124
  75 C :   -0.017536
  76 H :   -0.022195
  77 H :   -0.011738
  78 H :   -0.013632
  79 H :   -0.010264
  80 H :   -0.010792
  81 H :   -0.024120
  82 H :    0.022802
  83 H :   -0.021473
  84 H :    0.197973
  85 H :    0.016178
  86 H :   -0.017755
  87 H :   -0.029249
  88 H :   -0.010861
  89 H :   -0.016235
  90 H :    0.004677
  91 H :    0.086132
  92 H :    0.091446
  93 H :   -0.028273
  94 H :   -0.018415
  95 H :    0.098991
  96 H :    0.090623
  97 H :   -0.002776
  98 H :    0.046687
  99 H :   -0.006346
 100 H :   -0.035901
 101 H :   -0.035679
 102 H :   -0.024040
 103 H :    0.020236
 104 H :    0.013996
 105 H :   -0.017489
 106 H :    0.192513
 107 H :    0.012607
 108 H :    0.031839
 109 H :    0.007289
 110 H :   -0.020119
 111 H :   -0.009597
 112 H :   -0.009388
 113 H :   -0.006203
 114 H :   -0.005368
 115 H :   -0.021108
Sum of atomic charges:   -0.0000000

LOEWDIN ATOMIC CHARGES
----------------------
   0 C :    0.077336
   1 C :   -0.157207
   2 C :   -0.016965
   3 N :   -0.070778
   4 C :   -0.024999
   5 N :   -0.063667
   6 C :   -0.024939
   7 C :   -0.051357
   8 C :    0.022644
   9 C :   -0.009589
  10 C :   -0.008974
  11 C :    0.014767
  12 C :   -0.006684
  13 C :   -0.019969
  14 C :   -0.017991
  15 C :   -0.013092
  16 C :    0.072102
  17 O :   -0.150875
  18 C :   -0.114483
  19 C :    0.053522
  20 C :   -0.028756
  21 O :    0.049276
  22 C :    0.080798
  23 C :   -0.119917
  24 C :    0.056181
  25 O :   -0.021227
  26 C :   -0.052517
  27 C :    0.020335
  28 C :   -0.034017
  29 C :    0.004225
  30 C :   -0.026114
  31 C :   -0.030449
  32 C :   -0.039163
  33 C :    0.026826
  34 N :   -0.116621
  35 C :    0.027238
  36 N :   -0.120596
  37 C :   -0.020030
  38 C :    0.069115
  39 C :   -0.031236
  40 C :   -0.034485
  41 C :   -0.014432
  42 C :   -0.035806
  43 C :   -0.031042
  44 C :   -0.007199
  45 C :   -0.022813
  46 C :    0.001456
  47 C :   -0.040504
  48 C :    0.014256
  49 O :    0.026118
  50 C :    0.027149
  51 C :   -0.075824
  52 C :    0.006218
  53 O :   -0.048171
  54 C :    0.014994
  55 C :   -0.032361
  56 C :    0.066397
  57 C :   -0.098838
  58 C :    0.075914
  59 C :   -0.145299
  60 C :   -0.017213
  61 N :   -0.059117
  62 C :   -0.019343
  63 N :   -0.060199
  64 C :   -0.025174
  65 C :   -0.054391
  66 C :    0.084116
  67 O :   -0.154996
  68 C :    0.027938
  69 C :   -0.009021
  70 C :   -0.007075
  71 C :    0.018451
  72 C :   -0.005209
  73 C :   -0.014584
  74 C :   -0.013677
  75 C :   -0.011399
  76 H :    0.035030
  77 H :    0.037533
  78 H :    0.033134
  79 H :    0.030769
  80 H :    0.030136
  81 H :    0.029262
  82 H :    0.054777
  83 H :    0.028998
  84 H :    0.109293
  85 H :    0.042703
  86 H :    0.030052
  87 H :    0.028361
  88 H :    0.031000
  89 H :   -0.003335
  90 H :    0.021417
  91 H :    0.048752
  92 H :    0.055226
  93 H :   -0.005015
  94 H :    0.010051
  95 H :    0.052809
  96 H :    0.054491
  97 H :    0.026635
  98 H :    0.065660
  99 H :    0.025818
 100 H :    0.030346
 101 H :    0.028059
 102 H :    0.027714
 103 H :    0.030222
 104 H :    0.041951
 105 H :    0.033391
 106 H :    0.103320
 107 H :    0.043931
 108 H :    0.034404
 109 H :    0.040805
 110 H :    0.036295
 111 H :    0.038776
 112 H :    0.034673
 113 H :    0.032749
 114 H :    0.032350
 115 H :    0.030471

  Mayer bond orders larger than 0.100000
B(  0-C ,  1-C ) :   1.5968 B(  0-C ,  6-C ) :   0.9796 B(  0-C , 18-C ) :   1.1027
B(  1-C ,  2-C ) :   1.1528 B(  1-C ,  4-C ) :   1.1459 B(  2-C ,  3-N ) :   2.9591
B(  4-C ,  5-N ) :   2.9765 B(  6-C ,  7-C ) :   1.2189 B(  6-C , 11-C ) :   1.4547
B(  7-C ,  8-C ) :   1.4827 B(  7-C , 16-C ) :   0.9315 B(  8-C ,  9-C ) :   1.1734
B(  8-C , 76-H ) :   1.0147 B(  9-C , 10-C ) :   1.2623 B(  9-C , 15-C ) :   1.2458
B( 10-C , 11-C ) :   1.2011 B( 10-C , 12-C ) :   1.2419 B( 11-C , 77-H ) :   0.9884
B( 12-C , 13-C ) :   1.4892 B( 12-C , 78-H ) :   0.9962 B( 13-C , 14-C ) :   1.2605
B( 13-C , 79-H ) :   0.9875 B( 14-C , 15-C ) :   1.4885 B( 14-C , 80-H ) :   0.9885
B( 15-C , 81-H ) :   0.9967 B( 16-C , 17-O ) :   2.2670 B( 16-C , 18-C ) :   0.9424
B( 18-C , 19-C ) :   1.4514 B( 19-C , 20-C ) :   1.2934 B( 19-C , 82-H ) :   0.9282
B( 20-C , 21-O ) :   1.1101 B( 20-C , 24-C ) :   1.2823 B( 21-O , 22-C ) :   1.2154
B( 22-C , 23-C ) :   1.3679 B( 22-C , 26-C ) :   1.1211 B( 23-C , 24-C ) :   1.2561
B( 23-C , 83-H ) :   1.0119 B( 24-C , 25-O ) :   1.2595 B( 25-O , 84-H ) :   0.9546
B( 26-C , 27-C ) :   1.6269 B( 26-C , 85-H ) :   0.9629 B( 27-C , 28-C ) :   1.1072
B( 27-C , 86-H ) :   0.9853 B( 28-C , 29-C ) :   1.4864 B( 28-C , 45-C ) :   1.1124
B( 29-C , 30-C ) :   1.1288 B( 29-C , 87-H ) :   1.0044 B( 30-C , 31-C ) :   1.4964
B( 30-C , 43-C ) :   1.1089 B( 31-C , 32-C ) :   1.0503 B( 31-C , 37-C ) :   1.0777
B( 32-C , 33-C ) :   1.0311 B( 32-C , 35-C ) :   1.0342 B( 32-C , 88-H ) :   0.8741
B( 33-C , 34-N ) :   1.1047 B( 33-C , 89-H ) :   0.9265 B( 33-C , 90-H ) :   0.9464
B( 34-N , 91-H ) :   0.9703 B( 34-N , 92-H ) :   0.9672 B( 35-C , 36-N ) :   1.0898
B( 35-C , 93-H ) :   0.9299 B( 35-C , 94-H ) :   0.9330 B( 36-N , 95-H ) :   0.9687
B( 36-N , 96-H ) :   0.9659 B( 37-C , 38-C ) :   1.6833 B( 37-C , 42-C ) :   1.0526
B( 38-C , 39-C ) :   0.9621 B( 38-C , 97-H ) :   0.9583 B( 39-C , 40-C ) :   1.0089
B( 39-C , 46-C ) :   0.9375 B( 39-C , 98-H ) :   0.8414 B( 40-C , 41-C ) :   1.7189
B( 40-C , 99-H ) :   0.9669 B( 41-C , 42-C ) :   1.1244 B( 41-C ,100-H ) :   0.9920
B( 42-C , 43-C ) :   1.4526 B( 43-C , 44-C ) :   1.1294 B( 44-C , 45-C ) :   1.6312
B( 44-C ,101-H ) :   0.9906 B( 45-C ,102-H ) :   0.9821 B( 46-C , 47-C ) :   1.8024
B( 46-C ,103-H ) :   0.9759 B( 47-C , 48-C ) :   1.1132 B( 47-C ,104-H ) :   0.9521
B( 48-C , 49-O ) :   1.1457 B( 48-C , 50-C ) :   0.1044 B( 48-C , 52-C ) :   1.3866
B( 49-O , 50-C ) :   1.1477 B( 50-C , 51-C ) :   1.3600 B( 50-C , 54-C ) :   1.1569
B( 51-C , 52-C ) :   1.2239 B( 51-C ,105-H ) :   1.0182 B( 52-C , 53-O ) :   1.2363
B( 53-O ,106-H ) :   0.9606 B( 54-C , 55-C ) :   1.5277 B( 54-C ,107-H ) :   0.9745
B( 55-C , 56-C ) :   1.1763 B( 55-C ,108-H ) :   0.9864 B( 56-C , 57-C ) :   1.5119
B( 56-C ,109-H ) :   0.9596 B( 57-C , 58-C ) :   1.0758 B( 57-C , 66-C ) :   0.9503
B( 58-C , 59-C ) :   1.6134 B( 58-C , 64-C ) :   0.9832 B( 59-C , 60-C ) :   1.1482
B( 59-C , 62-C ) :   1.1492 B( 60-C , 61-N ) :   2.9593 B( 62-C , 63-N ) :   2.9569
B( 64-C , 65-C ) :   1.2177 B( 64-C , 71-C ) :   1.4513 B( 65-C , 66-C ) :   0.9439
B( 65-C , 68-C ) :   1.4721 B( 66-C , 67-O ) :   2.1944 B( 68-C , 69-C ) :   1.1769
B( 68-C ,110-H ) :   1.0154 B( 69-C , 70-C ) :   1.2599 B( 69-C , 75-C ) :   1.2430
B( 70-C , 71-C ) :   1.2032 B( 70-C , 72-C ) :   1.2410 B( 71-C ,111-H ) :   0.9888
B( 72-C , 73-C ) :   1.4879 B( 72-C ,112-H ) :   0.9972 B( 73-C , 74-C ) :   1.2610
B( 73-C ,113-H ) :   0.9887 B( 74-C , 75-C ) :   1.4883 B( 74-C ,114-H ) :   0.9886
B( 75-C ,115-H ) :   0.9975

-----------------------------------------------------------------------------
         ABSORPTION SPECTRUM VIA TRANSITION ELECTRIC DIPOLE MOMENTS
-----------------------------------------------------------------------------
State   Energy  Wavelength   fosc         T2         TX        TY        TZ
        (cm-1)    (nm)                  (au**2)     (au)      (au)      (au)
-----------------------------------------------------------------------------
   0   14535.1    688.0   0.187902083   4.25588   0.31155   1.39267   1.48973
   1   17056.6    586.3   0.070042822   1.35191   0.30897   0.70764   0.86931
   2   18660.2    535.9   2.137709942  37.71453  -1.78315  -3.29455  -4.86630
   3   19600.0    510.2   0.451192949   7.57847   0.66155  -0.67968   2.58435
   4   22281.2    448.8   0.161377799   2.38441  -0.29571  -0.70503  -1.34160
   5   24788.6    403.4   0.037682056   0.50045  -0.23136  -0.59738   0.30009
   6   25975.5    385.0   0.007043497   0.08927  -0.26553   0.10134  -0.09216
   7   26122.7    382.8   0.024361697   0.30702  -0.17723  -0.51557   0.09899
   8   26756.7    373.7   0.013329095   0.16400  -0.35059  -0.09269  -0.18026
   9   26921.8    371.4   0.054619804   0.66792   0.65027   0.45007   0.20614
  10   27029.4    370.0   0.051492443   0.62717   0.15852  -0.21906   0.74435
  11   27148.0    368.4   0.000057795   0.00070   0.00956   0.01511  -0.01952
  12   27487.8    363.8   0.023629311   0.28300   0.31587   0.03588   0.42654
  13   27836.3    359.2   0.032463296   0.38393   0.25177   0.43339  -0.36431
  14   28318.0    353.1   0.173314105   2.01487   0.19668   1.33513   0.44003
  15   28701.4    348.4   0.046626963   0.53482  -0.12322  -0.72079  -0.01025
  16   28930.1    345.7   0.044549187   0.50695   0.33367   0.31050  -0.54700
  17   29982.3    333.5   0.080783478   0.88702   0.00351  -0.92266   0.18897
  18   30320.2    329.8   0.113264021   1.22980  -0.47948  -0.02688  -0.99959
  19   31046.0    322.1   0.010527649   0.11164  -0.09524   0.12404   0.29526
  20   31430.5    318.2   0.028432567   0.29781   0.05195  -0.20284   0.50395
  21   31822.1    314.2   0.008439609   0.08731   0.09379   0.27714   0.04130
  22   32298.5    309.6   0.040936057   0.41725  -0.03715   0.59941  -0.23787
  23   32533.1    307.4   0.015714383   0.15902  -0.08466  -0.04238  -0.38737
  24   32695.6    305.9   0.506343863   5.09838  -0.78374   0.47122  -2.06448
  25   32839.8    304.5   0.000389823   0.00391   0.02271   0.00647   0.05788
  26   33206.2    301.1   0.115501441   1.14510  -0.19873  -1.04290  -0.13404
  27   33379.5    299.6   0.056578294   0.55802  -0.19705  -0.68683  -0.21784
  28   33578.5    297.8   0.942920913   9.24463  -1.63145  -2.32478   1.08555
  29   33769.0    296.1   0.071131250   0.69345   0.57197   0.54256  -0.26821
  30   34460.8    290.2   0.829602940   7.92539   0.18203   2.45920  -1.35815
  31   34682.2    288.3   0.064908457   0.61613   0.10756   0.57748  -0.52065
  32   34983.2    285.9   0.230428633   2.16846  -0.93719   0.34207   1.08311
  33   35471.4    281.9   0.023622945   0.21925   0.09169   0.41896  -0.18793
  34   35834.4    279.1   0.072083171   0.66223  -0.02011   0.81309   0.02653
  35   36062.5    277.3   0.057431834   0.52429   0.07505  -0.69447   0.19072
  36   36180.7    276.4   0.107070314   0.97424   0.05674  -0.85673   0.48686
  37   36603.5    273.2   0.022303796   0.20060  -0.03173  -0.33819   0.29193
  38   37202.6    268.8   0.039546375   0.34995   0.15060  -0.48217   0.30787
  39   37881.5    264.0   0.011491759   0.09987   0.07951   0.04940  -0.30184
  40   38247.2    261.5   0.203736191   1.75365  -0.20428   0.41664  -1.24029
  41   38546.8    259.4   0.283452029   2.42084  -0.30718   0.03442   1.52489
  42   38632.0    258.9   0.091858362   0.78279  -0.26970   0.80972  -0.23326
  43   38797.4    257.7   0.012357103   0.10486  -0.09715  -0.19091   0.24284
  44   39099.7    255.8   0.112118202   0.94401   0.39830  -0.54424   0.69941
  45   39233.1    254.9   0.004642931   0.03896  -0.04479  -0.10673   0.15988
  46   39262.5    254.7   0.055960042   0.46922  -0.06940  -0.35323   0.58278
  47   39909.4    250.6   0.037939422   0.31296   0.20230   0.48927   0.18071
  48   40212.9    248.7   0.038686693   0.31672  -0.09585   0.27984  -0.47877

FINAL SINGLE POINT ENERGY     -3238.490946271098

DIPOLE MOMENT
-------------
                                X             Y             Z
Electronic contribution:    -15.21114      -6.82733     -13.06098
Nuclear contribution   :     16.67498       6.24137      16.72853
                        -----------------------------------------
Total Dipole Moment    :      1.46383      -0.58596       3.66755
                        -----------------------------------------
Magnitude (a.u.)       :      3.99213
Magnitude (Debye)      :     10.14718

Rotational constants in cm-1:     0.001763     0.000179     0.000166
Rotational constants in MHz :    52.861283     5.368637     4.985550

                             ****ORCA TERMINATED NORMALLY****
TOTAL RUN TIME: 0 days 0 hours 11 minutes 6 seconds 161 msec
