                         Program Version 4.2.0 -  RELEASE  -
|  1> # ORCA input file
|  2> # SCF done       -199.119321264618          0.000869577492
|  3> ! CAM-B3LYP def2-SVP def2/J RIJCOSX Grid4 TightSCF
|  4> %maxcore 5000
|  5> %tddft
|  6>     Mode sTDDFT
|  7>     Ethresh 5.0
|  8>     maxcore 5000
|  9> end
| 10>
| 11> %pal
| 12>   nprocs 6
| 13>   end
| 14> * xyz 0 1
| 15>    C        0.38215        -0.63987        -1.12334
| 16>    S        0.39082         1.05282        -0.88702
| 17>    C        2.12496         1.06820        -0.75252
| 18>    C        2.63994        -0.19931        -0.89023
| 19>    C        1.63498        -1.17507        -1.11213
| 20>    C        1.91579        -2.62600        -1.36373
| 21>    C        3.38610        -2.98410        -1.15785
| 22>    N        3.65079        -3.32307         0.27779
| 23>    O        4.70767        -2.97831         0.74307
| 24>    O        2.80191        -3.95137         0.85118
| 25>    C        4.33297        -1.87586        -1.61198
| 26>    N        4.18895        -1.67654        -3.08980
| 27>    O        4.54756        -0.62031        -3.53642
| 28>    O        3.75240        -2.60029        -3.73030
| 29>    C        4.09351        -0.55925        -0.87764
| 30>    C        2.80646         2.33260        -0.55854
| 31>    C        3.99270         2.43381         0.15741
| 32>    C        4.63173         3.65811         0.31115
| 33>    N        5.88595         3.64033         1.01475
| 34>    O        6.14172         2.65689         1.67832
| 35>    O        6.63019         4.59483         0.90085
| 36>    C        4.10135         4.84188        -0.23224
| 37>    C        2.89523         4.72122        -0.93619
| 38>    C        2.26701         3.50998        -1.09661
| 39>    C        4.71633         6.13946        -0.04657
| 40>    C        4.67351         7.10023        -0.99043
| 41>    C        5.23687         8.41020        -0.97396
| 42>    N        6.14114         8.97482        -0.11190
| 43>    C        6.78518         8.38640         1.03848
| 44>    C        5.94191         8.54935         2.30186
| 45>    C        6.46668        10.30323        -0.49048
| 46>    O        7.27360        10.98106         0.10352
| 47>    C        5.66340        10.54562        -1.66986
| 48>    C        4.94199         9.36032        -1.94628
| 49>    C        4.17521         9.57394        -3.14797
| 50>    O        3.39370         8.86754        -3.75191
| 51>    N        4.52435        10.88131        -3.55751
| 52>    C        3.83255        11.47963        -4.67484
| 53>    C        2.93200        12.63535        -4.25073
| 54>    C        5.40447        11.47112        -2.67407
| 55>    C        6.00290        12.76141        -2.72939
| 56>    C        6.20786        13.53056        -3.82427
| 57>    C        6.85992        14.79414        -3.79379
| 58>    C        7.18231        15.64798        -2.76424
| 59>    C        6.91986        15.72550        -1.32206
| 60>    O        6.33766        14.97224        -0.58174
| 61>    N        7.46984        16.94153        -0.92944
| 62>    C        7.42105        17.42334         0.42850
| 63>    C        8.03252        17.66631        -1.96359
| 64>    O        8.52750        18.76202        -1.82221
| 65>    C        7.85914        16.83414        -3.16571
| 66>    C        8.07901        16.92148        -4.52180
| 67>    S        7.40929        15.49720        -5.29998
| 68>    C        8.68989        17.88674        -5.38399
| 69>    S        8.07171        18.00181        -7.01432
| 70>    C        9.25563        19.15981        -7.42617
| 71>    C       10.08840        19.44588        -6.38625
| 72>    C        9.76912        18.72775        -5.20760
| 73>    C       10.57935        18.83838        -3.95985
| 74>    C       11.59510        19.96896        -4.01001
| 75>    N       10.95495        21.29447        -3.72884
| 76>    O       11.72312        22.20176        -3.51431
| 77>    O        9.76040        21.37689        -3.77818
| 78>    C       12.26125        20.12841        -5.37922
| 79>    N       13.04603        18.89718        -5.71779
| 80>    O       13.30993        18.14030        -4.81932
| 81>    O       13.38063        18.77190        -6.86615
| 82>    C       11.23565        20.40694        -6.47478
| 83>    H       -0.54739        -1.15381        -1.26463
| 84>    H        1.63504        -2.87217        -2.39153
| 85>    H        1.30558        -3.24839        -0.70384
| 86>    H        3.60330        -3.90714        -1.71133
| 87>    H        5.37410        -2.18640        -1.45465
| 88>    H        4.68055         0.22903        -1.35404
| 89>    H        4.45679        -0.67447         0.14767
| 90>    H        4.43863         1.57381         0.62939
| 91>    H        2.44193         5.61160        -1.34231
| 92>    H        1.34134         3.45779        -1.64987
| 93>    H        5.22823         6.29961         0.88730
| 94>    H        4.16006         6.89779        -1.92285
| 95>    H        7.72518         8.93122         1.16872
| 96>    H        7.01403         7.33806         0.83616
| 97>    H        5.83453         9.60520         2.53798
| 98>    H        6.43137         8.05390         3.13562
| 99>    H        4.94823         8.12492         2.17286
|100>    H        3.22386        10.67306        -5.09650
|101>    H        4.54654        11.79865        -5.43900
|102>    H        2.20075        12.28956        -3.52419
|103>    H        2.40368        13.02292        -5.11747
|104>    H        3.50961        13.44072        -3.80361
|105>    H        6.37590        13.10058        -1.77152
|106>    H        5.93718        13.18519        -4.81117
|107>    H        6.66226        16.85212         0.96021
|108>    H        7.17134        18.48379         0.42496
|109>    H        8.38780        17.28690         0.91654
|110>    H        9.28178        19.57023        -8.41588
|111>    H       11.10665        17.89755        -3.77744
|112>    H        9.91067        19.00774        -3.10971
|113>    H       12.36079        19.82740        -3.24019
|114>    H       12.99659        20.94352        -5.34056
|115>    H       11.71661        20.32359        -7.45194
|116>    H       10.86853        21.43272        -6.37724
|117> *
|118>
|119>                          ****END OF INPUT****

CARTESIAN COORDINATES (ANGSTROEM)
---------------------------------
  C      0.382150   -0.639870   -1.123340
  S      0.390820    1.052820   -0.887020
  C      2.124960    1.068200   -0.752520
  C      2.639940   -0.199310   -0.890230
  C      1.634980   -1.175070   -1.112130
  C      1.915790   -2.626000   -1.363730
  C      3.386100   -2.984100   -1.157850
  N      3.650790   -3.323070    0.277790
  O      4.707670   -2.978310    0.743070
  O      2.801910   -3.951370    0.851180
  C      4.332970   -1.875860   -1.611980
  N      4.188950   -1.676540   -3.089800
  O      4.547560   -0.620310   -3.536420
  O      3.752400   -2.600290   -3.730300
  C      4.093510   -0.559250   -0.877640
  C      2.806460    2.332600   -0.558540
  C      3.992700    2.433810    0.157410
  C      4.631730    3.658110    0.311150
  N      5.885950    3.640330    1.014750
  O      6.141720    2.656890    1.678320
  O      6.630190    4.594830    0.900850
  C      4.101350    4.841880   -0.232240
  C      2.895230    4.721220   -0.936190
  C      2.267010    3.509980   -1.096610
  C      4.716330    6.139460   -0.046570
  C      4.673510    7.100230   -0.990430
  C      5.236870    8.410200   -0.973960
  N      6.141140    8.974820   -0.111900
  C      6.785180    8.386400    1.038480
  C      5.941910    8.549350    2.301860
  C      6.466680   10.303230   -0.490480
  O      7.273600   10.981060    0.103520
  C      5.663400   10.545620   -1.669860
  C      4.941990    9.360320   -1.946280
  C      4.175210    9.573940   -3.147970
  O      3.393700    8.867540   -3.751910
  N      4.524350   10.881310   -3.557510
  C      3.832550   11.479630   -4.674840
  C      2.932000   12.635350   -4.250730
  C      5.404470   11.471120   -2.674070
  C      6.002900   12.761410   -2.729390
  C      6.207860   13.530560   -3.824270
  C      6.859920   14.794140   -3.793790
  C      7.182310   15.647980   -2.764240
  C      6.919860   15.725500   -1.322060
  O      6.337660   14.972240   -0.581740
  N      7.469840   16.941530   -0.929440
  C      7.421050   17.423340    0.428500
  C      8.032520   17.666310   -1.963590
  O      8.527500   18.762020   -1.822210
  C      7.859140   16.834140   -3.165710
  C      8.079010   16.921480   -4.521800
  S      7.409290   15.497200   -5.299980
  C      8.689890   17.886740   -5.383990
  S      8.071710   18.001810   -7.014320
  C      9.255630   19.159810   -7.426170
  C     10.088400   19.445880   -6.386250
  C      9.769120   18.727750   -5.207600
  C     10.579350   18.838380   -3.959850
  C     11.595100   19.968960   -4.010010
  N     10.954950   21.294470   -3.728840
  O     11.723120   22.201760   -3.514310
  O      9.760400   21.376890   -3.778180
  C     12.261250   20.128410   -5.379220
  N     13.046030   18.897180   -5.717790
  O     13.309930   18.140300   -4.819320
  O     13.380630   18.771900   -6.866150
  C     11.235650   20.406940   -6.474780
  H     -0.547390   -1.153810   -1.264630
  H      1.635040   -2.872170   -2.391530
  H      1.305580   -3.248390   -0.703840
  H      3.603300   -3.907140   -1.711330
  H      5.374100   -2.186400   -1.454650
  H      4.680550    0.229030   -1.354040
  H      4.456790   -0.674470    0.147670
  H      4.438630    1.573810    0.629390
  H      2.441930    5.611600   -1.342310
  H      1.341340    3.457790   -1.649870
  H      5.228230    6.299610    0.887300
  H      4.160060    6.897790   -1.922850
  H      7.725180    8.931220    1.168720
  H      7.014030    7.338060    0.836160
  H      5.834530    9.605200    2.537980
  H      6.431370    8.053900    3.135620
  H      4.948230    8.124920    2.172860
  H      3.223860   10.673060   -5.096500
  H      4.546540   11.798650   -5.439000
  H      2.200750   12.289560   -3.524190
  H      2.403680   13.022920   -5.117470
  H      3.509610   13.440720   -3.803610
  H      6.375900   13.100580   -1.771520
  H      5.937180   13.185190   -4.811170
  H      6.662260   16.852120    0.960210
  H      7.171340   18.483790    0.424960
  H      8.387800   17.286900    0.916540
  H      9.281780   19.570230   -8.415880
  H     11.106650   17.897550   -3.777440
  H      9.910670   19.007740   -3.109710
  H     12.360790   19.827400   -3.240190
  H     12.996590   20.943520   -5.340560
  H     11.716610   20.323590   -7.451940
  H     10.868530   21.432720   -6.377240

 Total Charge           Charge          ....    0
 Multiplicity           Mult            ....    1
 Number of Electrons    NEL             ....  508
 Basis Dimension        Dim             .... 1134

ORBITAL ENERGIES
----------------

  NO   OCC          E(Eh)            E(eV)
   0   2.0000     -88.977835     -2421.2100
   1   2.0000     -88.968127     -2420.9458
   2   2.0000     -88.965798     -2420.8824
   3   2.0000     -19.266887      -524.2787
   4   2.0000     -19.266172      -524.2592
   5   2.0000     -19.265427      -524.2389
   6   2.0000     -19.265357      -524.2370
   7   2.0000     -19.261381      -524.1288
   8   2.0000     -19.259920      -524.0891
   9   2.0000     -19.256474      -523.9953
  10   2.0000     -19.252854      -523.8968
  11   2.0000     -19.251046      -523.8476
  12   2.0000     -19.250531      -523.8336
  13   2.0000     -19.214140      -522.8433
  14   2.0000     -19.212153      -522.7893
  15   2.0000     -19.188216      -522.1379
  16   2.0000     -19.186153      -522.0818
  17   2.0000     -14.665780      -399.0762
  18   2.0000     -14.664820      -399.0500
  19   2.0000     -14.660029      -398.9197
  20   2.0000     -14.658035      -398.8654
  21   2.0000     -14.651372      -398.6841
  22   2.0000     -14.458250      -393.4290
  23   2.0000     -14.450672      -393.2228
  24   2.0000     -14.450149      -393.2085
  25   2.0000     -10.397583      -282.9326
  26   2.0000     -10.394640      -282.8525
  27   2.0000     -10.371401      -282.2202
  28   2.0000     -10.370136      -282.1858
  29   2.0000     -10.356536      -281.8157
  30   2.0000     -10.356236      -281.8075
  31   2.0000     -10.353274      -281.7269
  32   2.0000     -10.344259      -281.4816
  33   2.0000     -10.341902      -281.4175
  34   2.0000     -10.340371      -281.3758
  35   2.0000     -10.340192      -281.3709
  36   2.0000     -10.336063      -281.2586
  37   2.0000     -10.332229      -281.1542
  38   2.0000     -10.318579      -280.7828
  39   2.0000     -10.314607      -280.6747
  40   2.0000     -10.313273      -280.6384
  41   2.0000     -10.312722      -280.6234
  42   2.0000     -10.305139      -280.4171
  43   2.0000     -10.304685      -280.4047
  44   2.0000     -10.303122      -280.3622
  45   2.0000     -10.303070      -280.3608
  46   2.0000     -10.302710      -280.3510
  47   2.0000     -10.302025      -280.3324
  48   2.0000     -10.301740      -280.3246
  49   2.0000     -10.301166      -280.3090
  50   2.0000     -10.300865      -280.3008
  51   2.0000     -10.300456      -280.2896
  52   2.0000     -10.300352      -280.2868
  53   2.0000     -10.299477      -280.2630
  54   2.0000     -10.299121      -280.2533
  55   2.0000     -10.299017      -280.2505
  56   2.0000     -10.295761      -280.1619
  57   2.0000     -10.295287      -280.1490
  58   2.0000     -10.295108      -280.1441
  59   2.0000     -10.294103      -280.1168
  60   2.0000     -10.293091      -280.0892
  61   2.0000     -10.293022      -280.0874
  62   2.0000     -10.289570      -279.9934
  63   2.0000     -10.278582      -279.6944
  64   2.0000     -10.260796      -279.2104
  65   2.0000     -10.260619      -279.2056
  66   2.0000     -10.258105      -279.1372
  67   2.0000     -10.257587      -279.1231
  68   2.0000      -8.073467      -219.6902
  69   2.0000      -8.063938      -219.4309
  70   2.0000      -8.061867      -219.3745
  71   2.0000      -6.042861      -164.4346
  72   2.0000      -6.038506      -164.3161
  73   2.0000      -6.035455      -164.2331
  74   2.0000      -6.033141      -164.1701
  75   2.0000      -6.031132      -164.1155
  76   2.0000      -6.028881      -164.0542
  77   2.0000      -6.026850      -163.9989
  78   2.0000      -6.026342      -163.9851
  79   2.0000      -6.024067      -163.9232
  80   2.0000      -1.349735       -36.7282
  81   2.0000      -1.347815       -36.6759
  82   2.0000      -1.343473       -36.5578
  83   2.0000      -1.336324       -36.3632
  84   2.0000      -1.332651       -36.2633
  85   2.0000      -1.171085       -31.8669
  86   2.0000      -1.169540       -31.8248
  87   2.0000      -1.165064       -31.7030
  88   2.0000      -1.160901       -31.5897
  89   2.0000      -1.157524       -31.4978
  90   2.0000      -1.150485       -31.3063
  91   2.0000      -1.136568       -30.9276
  92   2.0000      -1.129878       -30.7455
  93   2.0000      -1.122924       -30.5563
  94   2.0000      -1.059568       -28.8323
  95   2.0000      -1.051551       -28.6142
  96   2.0000      -1.050326       -28.5808
  97   2.0000      -1.014430       -27.6040
  98   2.0000      -1.014239       -27.5988
  99   2.0000      -0.998615       -27.1737
 100   2.0000      -0.997732       -27.1497
 101   2.0000      -0.979039       -26.6410
 102   2.0000      -0.973961       -26.5028
 103   2.0000      -0.926428       -25.2094
 104   2.0000      -0.923952       -25.1420
 105   2.0000      -0.917133       -24.9565
 106   2.0000      -0.912054       -24.8183
 107   2.0000      -0.907419       -24.6921
 108   2.0000      -0.901079       -24.5196
 109   2.0000      -0.894401       -24.3379
 110   2.0000      -0.879739       -23.9389
 111   2.0000      -0.872354       -23.7380
 112   2.0000      -0.869728       -23.6665
 113   2.0000      -0.866231       -23.5713
 114   2.0000      -0.862699       -23.4752
 115   2.0000      -0.843842       -22.9621
 116   2.0000      -0.835851       -22.7447
 117   2.0000      -0.817185       -22.2367
 118   2.0000      -0.813171       -22.1275
 119   2.0000      -0.801096       -21.7989
 120   2.0000      -0.800063       -21.7708
 121   2.0000      -0.796434       -21.6721
 122   2.0000      -0.782152       -21.2834
 123   2.0000      -0.775337       -21.0980
 124   2.0000      -0.767002       -20.8712
 125   2.0000      -0.764754       -20.8100
 126   2.0000      -0.757017       -20.5995
 127   2.0000      -0.745346       -20.2819
 128   2.0000      -0.731797       -19.9132
 129   2.0000      -0.712129       -19.3780
 130   2.0000      -0.709615       -19.3096
 131   2.0000      -0.705709       -19.2033
 132   2.0000      -0.703422       -19.1411
 133   2.0000      -0.701335       -19.0843
 134   2.0000      -0.698551       -19.0085
 135   2.0000      -0.685901       -18.6643
 136   2.0000      -0.683405       -18.5964
 137   2.0000      -0.678507       -18.4631
 138   2.0000      -0.676716       -18.4144
 139   2.0000      -0.675693       -18.3865
 140   2.0000      -0.672086       -18.2884
 141   2.0000      -0.664457       -18.0808
 142   2.0000      -0.662732       -18.0339
 143   2.0000      -0.654945       -17.8220
 144   2.0000      -0.653631       -17.7862
 145   2.0000      -0.648709       -17.6523
 146   2.0000      -0.646456       -17.5910
 147   2.0000      -0.643252       -17.5038
 148   2.0000      -0.639884       -17.4121
 149   2.0000      -0.637826       -17.3561
 150   2.0000      -0.631814       -17.1925
 151   2.0000      -0.623829       -16.9753
 152   2.0000      -0.621449       -16.9105
 153   2.0000      -0.611478       -16.6392
 154   2.0000      -0.609903       -16.5963
 155   2.0000      -0.608619       -16.5614
 156   2.0000      -0.605446       -16.4750
 157   2.0000      -0.604286       -16.4435
 158   2.0000      -0.601958       -16.3801
 159   2.0000      -0.597375       -16.2554
 160   2.0000      -0.596131       -16.2216
 161   2.0000      -0.593662       -16.1544
 162   2.0000      -0.588731       -16.0202
 163   2.0000      -0.585332       -15.9277
 164   2.0000      -0.582142       -15.8409
 165   2.0000      -0.580204       -15.7881
 166   2.0000      -0.579668       -15.7736
 167   2.0000      -0.574856       -15.6426
 168   2.0000      -0.572050       -15.5663
 169   2.0000      -0.561293       -15.2736
 170   2.0000      -0.556140       -15.1333
 171   2.0000      -0.547490       -14.8980
 172   2.0000      -0.546207       -14.8630
 173   2.0000      -0.545373       -14.8404
 174   2.0000      -0.542944       -14.7743
 175   2.0000      -0.539843       -14.6899
 176   2.0000      -0.538240       -14.6463
 177   2.0000      -0.535233       -14.5644
 178   2.0000      -0.534627       -14.5479
 179   2.0000      -0.530974       -14.4485
 180   2.0000      -0.528715       -14.3871
 181   2.0000      -0.523854       -14.2548
 182   2.0000      -0.522886       -14.2285
 183   2.0000      -0.518002       -14.0955
 184   2.0000      -0.517121       -14.0716
 185   2.0000      -0.514761       -14.0074
 186   2.0000      -0.513405       -13.9705
 187   2.0000      -0.507045       -13.7974
 188   2.0000      -0.505038       -13.7428
 189   2.0000      -0.504214       -13.7204
 190   2.0000      -0.503386       -13.6978
 191   2.0000      -0.501515       -13.6469
 192   2.0000      -0.500024       -13.6064
 193   2.0000      -0.498131       -13.5548
 194   2.0000      -0.492628       -13.4051
 195   2.0000      -0.489318       -13.3150
 196   2.0000      -0.484384       -13.1808
 197   2.0000      -0.483328       -13.1520
 198   2.0000      -0.477712       -12.9992
 199   2.0000      -0.475574       -12.9410
 200   2.0000      -0.472547       -12.8587
 201   2.0000      -0.471754       -12.8371
 202   2.0000      -0.467244       -12.7144
 203   2.0000      -0.465135       -12.6570
 204   2.0000      -0.461512       -12.5584
 205   2.0000      -0.459190       -12.4952
 206   2.0000      -0.456617       -12.4252
 207   2.0000      -0.455526       -12.3955
 208   2.0000      -0.453014       -12.3271
 209   2.0000      -0.451370       -12.2824
 210   2.0000      -0.448357       -12.2004
 211   2.0000      -0.445890       -12.1333
 212   2.0000      -0.444718       -12.1014
 213   2.0000      -0.438616       -11.9354
 214   2.0000      -0.436250       -11.8710
 215   2.0000      -0.433409       -11.7937
 216   2.0000      -0.430480       -11.7140
 217   2.0000      -0.427213       -11.6251
 218   2.0000      -0.424397       -11.5484
 219   2.0000      -0.420578       -11.4445
 220   2.0000      -0.418902       -11.3989
 221   2.0000      -0.412693       -11.2300
 222   2.0000      -0.408025       -11.1029
 223   2.0000      -0.405464       -11.0332
 224   2.0000      -0.403497       -10.9797
 225   2.0000      -0.400231       -10.8908
 226   2.0000      -0.399950       -10.8832
 227   2.0000      -0.399178       -10.8622
 228   2.0000      -0.398094       -10.8327
 229   2.0000      -0.393942       -10.7197
 230   2.0000      -0.390566       -10.6278
 231   2.0000      -0.389648       -10.6029
 232   2.0000      -0.388973       -10.5845
 233   2.0000      -0.388556       -10.5731
 234   2.0000      -0.386005       -10.5037
 235   2.0000      -0.384435       -10.4610
 236   2.0000      -0.378988       -10.3128
 237   2.0000      -0.376503       -10.2452
 238   2.0000      -0.371744       -10.1157
 239   2.0000      -0.364042        -9.9061
 240   2.0000      -0.356590        -9.7033
 241   2.0000      -0.355914        -9.6849
 242   2.0000      -0.347566        -9.4578
 243   2.0000      -0.344434        -9.3725
 244   2.0000      -0.338095        -9.2000
 245   2.0000      -0.334665        -9.1067
 246   2.0000      -0.330961        -9.0059
 247   2.0000      -0.327845        -8.9211
 248   2.0000      -0.324830        -8.8391
 249   2.0000      -0.318307        -8.6616
 250   2.0000      -0.313323        -8.5259
 251   2.0000      -0.292090        -7.9482
 252   2.0000      -0.282279        -7.6812
 253   2.0000      -0.237576        -6.4648
 254   0.0000      -0.091409        -2.4874
 255   0.0000      -0.059903        -1.6300
 256   0.0000      -0.045925        -1.2497
 257   0.0000      -0.041888        -1.1398
 258   0.0000      -0.034656        -0.9430

MULLIKEN ATOMIC CHARGES
-----------------------
   0 C :   -0.122288
   1 S :    0.137436
   2 C :   -0.155767
   3 C :   -0.045781
   4 C :   -0.071145
   5 C :    0.149026
   6 C :    0.013880
   7 N :    0.220946
   8 O :   -0.220754
   9 O :   -0.208221
  10 C :    0.018515
  11 N :    0.226379
  12 O :   -0.205633
  13 O :   -0.226481
  14 C :    0.128532
  15 C :    0.100318
  16 C :   -0.091700
  17 C :    0.158560
  18 N :    0.250978
  19 O :   -0.228200
  20 O :   -0.238798
  21 C :    0.038334
  22 C :   -0.027319
  23 C :    0.010584
  24 C :    0.015493
  25 C :   -0.042221
  26 C :    0.119899
  27 N :   -0.271994
  28 C :    0.093091
  29 C :    0.002818
  30 C :    0.152122
  31 O :   -0.179427
  32 C :   -0.019252
  33 C :   -0.054460
  34 C :    0.150192
  35 O :   -0.204183
  36 N :   -0.275429
  37 C :    0.099184
  38 C :   -0.002073
  39 C :    0.096512
  40 C :   -0.024638
  41 C :    0.060910
  42 C :   -0.148719
  43 C :   -0.014120
  44 C :    0.198098
  45 O :   -0.159402
  46 N :   -0.298755
  47 C :    0.136489
  48 C :    0.189533
  49 O :   -0.179420
  50 C :    0.041592
  51 C :   -0.172452
  52 S :    0.157502
  53 C :   -0.163557
  54 S :    0.132891
  55 C :   -0.108455
  56 C :   -0.085859
  57 C :    0.000134
  58 C :    0.179404
  59 C :    0.023145
  60 N :    0.198587
  61 O :   -0.234478
  62 O :   -0.192353
  63 C :   -0.010435
  64 N :    0.225444
  65 O :   -0.220722
  66 O :   -0.214204
  67 C :    0.163843
  68 H :    0.018540
  69 H :    0.051913
  70 H :    0.053030
  71 H :    0.076934
  72 H :    0.074062
  73 H :    0.051979
  74 H :    0.067555
  75 H :    0.000363
  76 H :    0.005649
  77 H :    0.000121
  78 H :    0.015810
  79 H :    0.016045
  80 H :    0.038816
  81 H :    0.043393
  82 H :    0.030107
  83 H :    0.024732
  84 H :    0.013882
  85 H :    0.045292
  86 H :    0.021453
  87 H :    0.024597
  88 H :    0.020230
  89 H :    0.028836
  90 H :    0.038194
  91 H :   -0.028662
  92 H :    0.053617
  93 H :    0.044867
  94 H :    0.040332
  95 H :    0.019813
  96 H :    0.044843
  97 H :    0.060571
  98 H :    0.056529
  99 H :    0.076995
 100 H :    0.045731
 101 H :    0.052159
Sum of atomic charges:   -0.0000000

LOEWDIN ATOMIC CHARGES
----------------------
   0 C :   -0.184168
   1 S :    0.459094
   2 C :   -0.173086
   3 C :   -0.064381
   4 C :   -0.073649
   5 C :   -0.029306
   6 C :    0.005274
   7 N :    0.273521
   8 O :   -0.189594
   9 O :   -0.176738
  10 C :    0.006906
  11 N :    0.274387
  12 O :   -0.174478
  13 O :   -0.192874
  14 C :   -0.033164
  15 C :   -0.032570
  16 C :    0.004821
  17 C :   -0.026606
  18 N :    0.288828
  19 O :   -0.197085
  20 O :   -0.196999
  21 C :   -0.004790
  22 C :    0.001192
  23 C :    0.005617
  24 C :    0.004567
  25 C :   -0.025670
  26 C :    0.080675
  27 N :   -0.003835
  28 C :    0.034658
  29 C :   -0.062968
  30 C :    0.084558
  31 O :   -0.180191
  32 C :   -0.106440
  33 C :   -0.122714
  34 C :    0.079097
  35 O :   -0.203552
  36 N :   -0.009949
  37 C :    0.034684
  38 C :   -0.062877
  39 C :    0.069071
  40 C :    0.003149
  41 C :   -0.041373
  42 C :   -0.133366
  43 C :   -0.094287
  44 C :    0.090418
  45 O :   -0.152498
  46 N :   -0.031762
  47 C :    0.037462
  48 C :    0.096252
  49 O :   -0.159556
  50 C :   -0.098818
  51 C :   -0.139434
  52 S :    0.450445
  53 C :   -0.205497
  54 S :    0.444212
  55 C :   -0.175027
  56 C :   -0.074195
  57 C :   -0.032841
  58 C :   -0.044813
  59 C :    0.009485
  60 N :    0.270654
  61 O :   -0.206927
  62 O :   -0.165647
  63 C :    0.009131
  64 N :    0.273788
  65 O :   -0.185691
  66 O :   -0.182363
  67 C :   -0.026818
  68 H :    0.025323
  69 H :    0.047162
  70 H :    0.046357
  71 H :    0.056809
  72 H :    0.056421
  73 H :    0.044444
  74 H :    0.044197
  75 H :    0.038997
  76 H :    0.041357
  77 H :    0.030478
  78 H :    0.029791
  79 H :    0.045073
  80 H :    0.036773
  81 H :    0.028840
  82 H :    0.032885
  83 H :    0.031659
  84 H :    0.019003
  85 H :    0.037319
  86 H :    0.017092
  87 H :    0.030735
  88 H :    0.030242
  89 H :    0.023577
  90 H :    0.049536
  91 H :    0.027087
  92 H :    0.038276
  93 H :    0.035489
  94 H :    0.031898
  95 H :    0.026527
  96 H :    0.046211
  97 H :    0.041578
  98 H :    0.050056
  99 H :    0.053674
 100 H :    0.045322
 101 H :    0.046462

  Mayer bond orders larger than 0.100000
B(  0-C ,  1-S ) :   1.1695 B(  0-C ,  4-C ) :   1.5737 B(  0-C , 68-H ) :   0.9730
B(  1-S ,  2-C ) :   1.1548 B(  2-C ,  3-C ) :   1.5639 B(  2-C , 15-C ) :   1.0227
B(  3-C ,  4-C ) :   1.2938 B(  3-C , 14-C ) :   1.0280 B(  4-C ,  5-C ) :   1.0080
B(  5-C ,  6-C ) :   1.0444 B(  5-C , 69-H ) :   0.9116 B(  5-C , 70-H ) :   0.9031
B(  6-C ,  7-N ) :   0.8247 B(  6-C , 10-C ) :   1.0254 B(  6-C , 71-H ) :   0.8954
B(  7-N ,  8-O ) :   1.5533 B(  7-N ,  9-O ) :   1.5867 B(  8-O ,  9-O ) :   0.2706
B( 10-C , 11-N ) :   0.8243 B( 10-C , 14-C ) :   1.0376 B( 10-C , 72-H ) :   0.8911
B( 11-N , 12-O ) :   1.5901 B( 11-N , 13-O ) :   1.5539 B( 12-O , 13-O ) :   0.2728
B( 14-C , 73-H ) :   0.8908 B( 14-C , 74-H ) :   0.9012 B( 15-C , 16-C ) :   1.3237
B( 15-C , 23-C ) :   1.3158 B( 16-C , 17-C ) :   1.3538 B( 16-C , 75-H ) :   0.9881
B( 17-C , 18-N ) :   0.8866 B( 17-C , 21-C ) :   1.3516 B( 18-N , 19-O ) :   1.5573
B( 18-N , 20-O ) :   1.5067 B( 19-O , 20-O ) :   0.2615 B( 21-C , 22-C ) :   1.3401
B( 21-C , 24-C ) :   1.0504 B( 22-C , 23-C ) :   1.4108 B( 22-C , 76-H ) :   0.9911
B( 23-C , 77-H ) :   0.9890 B( 24-C , 25-C ) :   1.6774 B( 24-C , 78-H ) :   0.9444
B( 25-C , 26-C ) :   1.1621 B( 25-C , 79-H ) :   0.9453 B( 26-C , 27-N ) :   1.1870
B( 26-C , 33-C ) :   1.3544 B( 27-N , 28-C ) :   0.9365 B( 27-N , 30-C ) :   1.0223
B( 28-C , 29-C ) :   1.1169 B( 28-C , 80-H ) :   0.9260 B( 28-C , 81-H ) :   0.9501
B( 29-C , 82-H ) :   0.9610 B( 29-C , 83-H ) :   0.9693 B( 29-C , 84-H ) :   0.9668
B( 30-C , 31-O ) :   2.1447 B( 30-C , 32-C ) :   0.9685 B( 32-C , 33-C ) :   1.2199
B( 32-C , 39-C ) :   1.3804 B( 33-C , 34-C ) :   0.9897 B( 34-C , 35-O ) :   2.1139
B( 34-C , 36-N ) :   1.0355 B( 36-N , 37-C ) :   0.9466 B( 36-N , 39-C ) :   1.1658
B( 37-C , 38-C ) :   1.1149 B( 37-C , 85-H ) :   0.9235 B( 37-C , 86-H ) :   0.9502
B( 38-C , 87-H ) :   0.9633 B( 38-C , 88-H ) :   0.9668 B( 38-C , 89-H ) :   0.9656
B( 39-C , 40-C ) :   1.1672 B( 40-C , 41-C ) :   1.6207 B( 40-C , 90-H ) :   0.9334
B( 41-C , 42-C ) :   1.1277 B( 41-C , 91-H ) :   0.9573 B( 42-C , 43-C ) :   1.5203
B( 42-C , 52-S ) :   1.1117 B( 43-C , 44-C ) :   0.9094 B( 43-C , 50-C ) :   1.2314
B( 44-C , 45-O ) :   2.1442 B( 44-C , 46-N ) :   1.0683 B( 46-N , 47-C ) :   0.9386
B( 46-N , 48-C ) :   1.1040 B( 47-C , 92-H ) :   0.9616 B( 47-C , 93-H ) :   0.9691
B( 47-C , 94-H ) :   0.9808 B( 48-C , 49-O ) :   2.0680 B( 48-C , 50-C ) :   0.9026
B( 49-O , 97-H ) :   0.1257 B( 50-C , 51-C ) :   1.5586 B( 51-C , 52-S ) :   1.1402
B( 51-C , 53-C ) :   1.0954 B( 53-C , 54-S ) :   1.1321 B( 53-C , 55-C ) :   0.1025
B( 53-C , 57-C ) :   1.5470 B( 54-S , 55-C ) :   1.1673 B( 55-C , 56-C ) :   1.5736
B( 55-C , 95-H ) :   0.9716 B( 56-C , 57-C ) :   1.2872 B( 56-C , 67-C ) :   0.9982
B( 57-C , 58-C ) :   1.0397 B( 58-C , 59-C ) :   1.0326 B( 58-C , 96-H ) :   0.8803
B( 58-C , 97-H ) :   0.8442 B( 59-C , 60-N ) :   0.8260 B( 59-C , 63-C ) :   1.0296
B( 59-C , 98-H ) :   0.9024 B( 60-N , 61-O ) :   1.5344 B( 60-N , 62-O ) :   1.6041
B( 61-O , 62-O ) :   0.2743 B( 63-C , 64-N ) :   0.8355 B( 63-C , 67-C ) :   1.0544
B( 63-C , 99-H ) :   0.9073 B( 64-N , 65-O ) :   1.5683 B( 64-N , 66-O ) :   1.5794
B( 65-O , 66-O ) :   0.2735 B( 67-C ,100-H ) :   0.9057 B( 67-C ,101-H ) :   0.9106

-----------------------------------------------------------------------------
         ABSORPTION SPECTRUM VIA TRANSITION ELECTRIC DIPOLE MOMENTS
-----------------------------------------------------------------------------
State   Energy  Wavelength   fosc         T2         TX        TY        TZ
        (cm-1)    (nm)                  (au**2)     (au)      (au)      (au)
-----------------------------------------------------------------------------
   0   16262.7    614.9   0.982390287  19.88696   0.60696   3.95493  -1.96903
   1   23098.2    432.9   0.006455593   0.09201   0.24523   0.08764  -0.15554
   2   26337.5    379.7   0.159004594   1.98752  -0.66889  -1.19882   0.32083
   3   26965.0    370.9   0.149601905   1.82647   0.68356   1.15318  -0.17144
   4   27922.2    358.1   0.183430436   2.16271  -0.64150  -0.87293   0.99457
   5   28188.0    354.8   0.090122237   1.05255   0.35923   0.86077   0.42729
   6   28691.5    348.5   0.029751129   0.34137   0.22424   0.52908   0.10567
   7   29142.4    343.1   0.214443569   2.42249   0.29001   1.51507  -0.20722
   8   32312.7    309.5   0.018353488   0.18699  -0.27495  -0.32843  -0.05942
   9   32479.3    307.9   0.189541220   1.92120   0.94632   0.97093   0.28805
  10   32965.8    303.3   0.007088464   0.07079  -0.03786   0.01559   0.26289
  11   33358.3    299.8   0.102292774   1.00952  -0.61019  -0.78824   0.12599
  12   33966.8    294.4   0.343653067   3.33074   1.12163   1.40863   0.29740
  13   34207.4    292.3   0.264740183   2.54786   0.38299   0.52214  -1.45895
  14   34881.6    286.7   0.010637972   0.10040  -0.20691  -0.20658  -0.12212
  15   34990.7    285.8   0.002664064   0.02507  -0.04461   0.14210   0.05368
  16   35482.6    281.8   0.068700702   0.63741   0.38596   0.69834   0.02772
  17   35991.6    277.8   0.000533669   0.00488  -0.02788   0.05611   0.03092
  18   36239.3    275.9   0.050657396   0.46019  -0.09105   0.34573   0.57651
  19   36455.0    274.3   0.047740483   0.43113  -0.41772  -0.42594  -0.27424
  20   36871.6    271.2   0.074996047   0.66961   0.51350   0.62988  -0.09581
  21   37285.6    268.2   0.065366056   0.57715  -0.05444   0.34135  -0.67651
  22   37765.4    264.8   0.025562511   0.22284   0.27153  -0.37859   0.07599
  23   37846.4    264.2   0.068901346   0.59935  -0.18518  -0.69970   0.27474
  24   38031.9    262.9   0.010787242   0.09338   0.20806   0.21742   0.05306
  25   38343.5    260.8   0.004919193   0.04224  -0.02244   0.10679   0.17415
  26   38382.9    260.5   0.014716732   0.12623   0.00040  -0.22970   0.27104
  27   39045.7    256.1   0.010408715   0.08776   0.14144   0.05160   0.25513
  28   39435.3    253.6   0.019705400   0.16450   0.22783   0.31458   0.11677
  29   39915.6    250.5   0.025782783   0.21265  -0.39030  -0.08150  -0.23168

FINAL SINGLE POINT ENERGY     -4340.220785085565

DIPOLE MOMENT
-------------
                                X             Y             Z
Electronic contribution:     10.40498       2.80613     -13.68461
Nuclear contribution   :    -12.17510      -3.39061      12.57984
                        -----------------------------------------
Total Dipole Moment    :     -1.77011      -0.58448      -1.10478
                        -----------------------------------------
Magnitude (a.u.)       :      2.16690
Magnitude (Debye)      :      5.50782

Rotational constants in cm-1:     0.002736     0.000221     0.000219
Rotational constants in MHz :    82.022328     6.612070     6.558187

                             ****ORCA TERMINATED NORMALLY****
TOTAL RUN TIME: 0 days 0 hours 9 minutes 10 seconds 503 msec
