                         Program Version 4.2.0 -  RELEASE  -
|  1> # ORCA input file
|  2> # SCF done       -179.831370820755          0.000926896961
|  3> ! CAM-B3LYP def2-SVP def2/J RIJCOSX Grid4 TightSCF
|  4> %maxcore 5000
|  5> %tddft
|  6>     Mode sTDDFT
|  7>     Ethresh 5.0
|  8>     maxcore 5000
|  9> end
| 10>
| 11> %pal
| 12>   nprocs 6
| 13>   end
| 14> * xyz 0 1
| 15>    C        6.28575         3.55542        -0.75922
| 16>    C        6.53095         4.89002        -0.65380
| 17>    S        8.11751         5.27800        -1.20834
| 18>    C        8.46304         3.60842        -1.59263
| 19>   Cl        9.95554         3.14218        -2.24259
| 20>    C        7.39039         2.81980        -1.29763
| 21>    C        7.05689         1.39475        -1.38495
| 22>    O        7.76276         0.49486        -1.77444
| 23>    C        5.67164         1.29682        -0.81500
| 24>    C        5.19994         2.63969        -0.48255
| 25>    C        3.95683         3.00891        -0.04880
| 26>    C        3.64432         4.36045         0.21496
| 27>    N        3.38018         5.45363         0.43952
| 28>    C        2.86563         2.14058         0.16012
| 29>    N        1.93659         1.48928         0.33344
| 30>    C        5.03929         0.14802        -0.47649
| 31>    C        5.42910        -1.20130        -0.81262
| 32>    C        5.20030        -2.21413         0.12138
| 33>    C        5.57082        -3.51973        -0.14178
| 34>    N        5.20050        -4.49605         0.85457
| 35>    O        5.32986        -4.17375         2.01598
| 36>    O        4.74864        -5.55562         0.47625
| 37>    C        6.18739        -3.87754        -1.35588
| 38>    C        6.32007        -2.86449        -2.31650
| 39>    C        5.96071        -1.56224        -2.05805
| 40>    C        6.71402        -5.18393        -1.66146
| 41>    C        7.23308        -6.05452        -0.76921
| 42>    C        7.72831        -7.33055        -1.15739
| 43>    N        8.11465        -8.29528        -0.26065
| 44>    C        7.97445        -8.23549         1.17522
| 45>    C        6.51925        -8.39859         1.60733
| 46>    C        8.54987        -9.46659        -0.90426
| 47>    O        8.93851       -10.45437        -0.31283
| 48>    C        8.42985        -9.16607        -2.31456
| 49>    C        7.92065        -7.84748        -2.43524
| 50>    C        7.81234        -7.53997        -3.84324
| 51>    O        7.42991        -6.54816        -4.43429
| 52>    N        8.25896        -8.70428        -4.48850
| 53>    C        8.33447        -8.77730        -5.92733
| 54>    C        9.76031        -8.56791        -6.43202
| 55>    C        8.62762        -9.68319        -3.59255
| 56>    C        9.08772       -10.96876        -3.97641
| 57>    C        9.41706       -11.92129        -3.06791
| 58>    C        9.85853       -13.23176        -3.39616
| 59>    S       10.13825       -14.37274        -2.12480
| 60>    C       10.55521       -15.61819        -3.25287
| 61>    C       10.98704       -16.88896        -2.73369
| 62>    O       11.27541       -17.87353        -3.38064
| 63>    C       10.49485       -15.14634        -4.57026
| 64>    C       10.12666       -13.79627        -4.62991
| 65>    C       10.83216       -15.90166        -5.75536
| 66>    C       10.51402       -17.17179        -6.06305
| 67>    C       11.26416       -17.87767        -7.15680
| 68>    O       11.93187       -17.35854        -8.01621
| 69>    C       11.03221       -19.29850        -6.88315
| 70>    C       11.48101       -20.49569        -7.35734
| 71>    S       10.74782       -21.81566        -6.47848
| 72>    C        9.83492       -20.73852        -5.48801
| 73>    C       10.08853       -19.44287        -5.81119
| 74>    C        9.64805       -18.13174        -5.38713
| 75>    C        8.51844       -17.86946        -4.66578
| 76>    C        7.74300       -18.90902        -4.10977
| 77>    N        7.10889       -19.74482        -3.64658
| 78>    C        7.99305       -16.58008        -4.45465
| 79>    N        7.50693       -15.55040        -4.30834
| 80>   Cl       12.58659       -20.77592        -8.60912
| 81>    H        5.89609         5.67152        -0.28599
| 82>    H        4.16150         0.21959         0.15519
| 83>    H        4.73551        -1.98714         1.07037
| 84>    H        6.74507        -3.12402        -3.27384
| 85>    H        6.06828        -0.81770        -2.82902
| 86>    H        6.73935        -5.44111        -2.71266
| 87>    H        7.30102        -5.80664         0.28040
| 88>    H        8.38931        -7.29382         1.54633
| 89>    H        8.57380        -9.06056         1.57020
| 90>    H        5.88715        -7.62662         1.17313
| 91>    H        6.45000        -8.33834         2.68979
| 92>    H        6.14368        -9.36766         1.28813
| 93>    H        7.69197        -7.97655        -6.30415
| 94>    H        7.93533        -9.73672        -6.26774
| 95>    H       10.12138        -7.58902        -6.12647
| 96>    H        9.77855        -8.62117        -7.51702
| 97>    H       10.43259        -9.32366        -6.03154
| 98>    H        9.15251       -11.18283        -5.03267
| 99>    H        9.33288       -11.69663        -2.01262
|100>    H       11.04002       -16.90239        -1.62888
|101>    H       10.02952       -13.26512        -5.55938
|102>    H       11.45765       -15.38277        -6.47578
|103>    H        9.19106       -21.13465        -4.72807
|104> *
|105>
|106>                          ****END OF INPUT****

CARTESIAN COORDINATES (ANGSTROEM)
---------------------------------
  C      6.285750    3.555420   -0.759220
  C      6.530950    4.890020   -0.653800
  S      8.117510    5.278000   -1.208340
  C      8.463040    3.608420   -1.592630
  Cl     9.955540    3.142180   -2.242590
  C      7.390390    2.819800   -1.297630
  C      7.056890    1.394750   -1.384950
  O      7.762760    0.494860   -1.774440
  C      5.671640    1.296820   -0.815000
  C      5.199940    2.639690   -0.482550
  C      3.956830    3.008910   -0.048800
  C      3.644320    4.360450    0.214960
  N      3.380180    5.453630    0.439520
  C      2.865630    2.140580    0.160120
  N      1.936590    1.489280    0.333440
  C      5.039290    0.148020   -0.476490
  C      5.429100   -1.201300   -0.812620
  C      5.200300   -2.214130    0.121380
  C      5.570820   -3.519730   -0.141780
  N      5.200500   -4.496050    0.854570
  O      5.329860   -4.173750    2.015980
  O      4.748640   -5.555620    0.476250
  C      6.187390   -3.877540   -1.355880
  C      6.320070   -2.864490   -2.316500
  C      5.960710   -1.562240   -2.058050
  C      6.714020   -5.183930   -1.661460
  C      7.233080   -6.054520   -0.769210
  C      7.728310   -7.330550   -1.157390
  N      8.114650   -8.295280   -0.260650
  C      7.974450   -8.235490    1.175220
  C      6.519250   -8.398590    1.607330
  C      8.549870   -9.466590   -0.904260
  O      8.938510  -10.454370   -0.312830
  C      8.429850   -9.166070   -2.314560
  C      7.920650   -7.847480   -2.435240
  C      7.812340   -7.539970   -3.843240
  O      7.429910   -6.548160   -4.434290
  N      8.258960   -8.704280   -4.488500
  C      8.334470   -8.777300   -5.927330
  C      9.760310   -8.567910   -6.432020
  C      8.627620   -9.683190   -3.592550
  C      9.087720  -10.968760   -3.976410
  C      9.417060  -11.921290   -3.067910
  C      9.858530  -13.231760   -3.396160
  S     10.138250  -14.372740   -2.124800
  C     10.555210  -15.618190   -3.252870
  C     10.987040  -16.888960   -2.733690
  O     11.275410  -17.873530   -3.380640
  C     10.494850  -15.146340   -4.570260
  C     10.126660  -13.796270   -4.629910
  C     10.832160  -15.901660   -5.755360
  C     10.514020  -17.171790   -6.063050
  C     11.264160  -17.877670   -7.156800
  O     11.931870  -17.358540   -8.016210
  C     11.032210  -19.298500   -6.883150
  C     11.481010  -20.495690   -7.357340
  S     10.747820  -21.815660   -6.478480
  C      9.834920  -20.738520   -5.488010
  C     10.088530  -19.442870   -5.811190
  C      9.648050  -18.131740   -5.387130
  C      8.518440  -17.869460   -4.665780
  C      7.743000  -18.909020   -4.109770
  N      7.108890  -19.744820   -3.646580
  C      7.993050  -16.580080   -4.454650
  N      7.506930  -15.550400   -4.308340
  Cl    12.586590  -20.775920   -8.609120
  H      5.896090    5.671520   -0.285990
  H      4.161500    0.219590    0.155190
  H      4.735510   -1.987140    1.070370
  H      6.745070   -3.124020   -3.273840
  H      6.068280   -0.817700   -2.829020
  H      6.739350   -5.441110   -2.712660
  H      7.301020   -5.806640    0.280400
  H      8.389310   -7.293820    1.546330
  H      8.573800   -9.060560    1.570200
  H      5.887150   -7.626620    1.173130
  H      6.450000   -8.338340    2.689790
  H      6.143680   -9.367660    1.288130
  H      7.691970   -7.976550   -6.304150
  H      7.935330   -9.736720   -6.267740
  H     10.121380   -7.589020   -6.126470
  H      9.778550   -8.621170   -7.517020
  H     10.432590   -9.323660   -6.031540
  H      9.152510  -11.182830   -5.032670
  H      9.332880  -11.696630   -2.012620
  H     11.040020  -16.902390   -1.628880
  H     10.029520  -13.265120   -5.559380
  H     11.457650  -15.382770   -6.475780
  H      9.191060  -21.134650   -4.728070

 Total Charge           Charge          ....    0
 Multiplicity           Mult            ....    1
 Number of Electrons    NEL             ....  492
 Basis Dimension        Dim             .... 1059

ORBITAL ENERGIES
----------------

  NO   OCC          E(Eh)            E(eV)
   0   2.0000    -101.625162     -2765.3612
   1   2.0000    -101.614918     -2765.0825
   2   2.0000     -89.002501     -2421.8812
   3   2.0000     -88.990705     -2421.5602
   4   2.0000     -88.980403     -2421.2799
   5   2.0000     -19.256800      -524.0042
   6   2.0000     -19.255914      -523.9800
   7   2.0000     -19.231834      -523.3248
   8   2.0000     -19.222684      -523.0758
   9   2.0000     -19.219513      -522.9895
  10   2.0000     -19.196203      -522.3552
  11   2.0000     -19.196027      -522.3504
  12   2.0000     -14.660284      -398.9266
  13   2.0000     -14.458392      -393.4328
  14   2.0000     -14.456785      -393.3891
  15   2.0000     -14.429092      -392.6356
  16   2.0000     -14.428091      -392.6083
  17   2.0000     -14.417494      -392.3200
  18   2.0000     -14.416114      -392.2824
  19   2.0000     -10.389576      -282.7147
  20   2.0000     -10.384935      -282.5884
  21   2.0000     -10.378776      -282.4209
  22   2.0000     -10.378118      -282.4029
  23   2.0000     -10.375524      -282.3324
  24   2.0000     -10.373212      -282.2694
  25   2.0000     -10.371463      -282.2219
  26   2.0000     -10.358061      -281.8572
  27   2.0000     -10.357464      -281.8409
  28   2.0000     -10.346747      -281.5493
  29   2.0000     -10.344317      -281.4832
  30   2.0000     -10.344048      -281.4759
  31   2.0000     -10.343419      -281.4587
  32   2.0000     -10.342965      -281.4464
  33   2.0000     -10.338010      -281.3115
  34   2.0000     -10.333520      -281.1894
  35   2.0000     -10.330882      -281.1176
  36   2.0000     -10.329787      -281.0878
  37   2.0000     -10.328866      -281.0627
  38   2.0000     -10.325045      -280.9588
  39   2.0000     -10.323376      -280.9133
  40   2.0000     -10.321402      -280.8596
  41   2.0000     -10.319406      -280.8053
  42   2.0000     -10.319314      -280.8028
  43   2.0000     -10.318721      -280.7867
  44   2.0000     -10.318245      -280.7737
  45   2.0000     -10.317151      -280.7440
  46   2.0000     -10.315649      -280.7031
  47   2.0000     -10.315450      -280.6977
  48   2.0000     -10.314602      -280.6746
  49   2.0000     -10.313627      -280.6481
  50   2.0000     -10.308876      -280.5188
  51   2.0000     -10.308740      -280.5151
  52   2.0000     -10.307259      -280.4748
  53   2.0000     -10.306411      -280.4517
  54   2.0000     -10.306161      -280.4449
  55   2.0000     -10.302787      -280.3531
  56   2.0000     -10.301406      -280.3155
  57   2.0000     -10.300452      -280.2895
  58   2.0000     -10.299453      -280.2624
  59   2.0000     -10.297780      -280.2168
  60   2.0000     -10.297556      -280.2108
  61   2.0000     -10.297256      -280.2026
  62   2.0000     -10.269758      -279.4543
  63   2.0000     -10.266021      -279.3526
  64   2.0000     -10.265392      -279.3355
  65   2.0000     -10.255426      -279.0643
  66   2.0000      -9.579932      -260.6832
  67   2.0000      -9.569697      -260.4047
  68   2.0000      -8.098078      -220.3599
  69   2.0000      -8.086332      -220.0403
  70   2.0000      -8.076038      -219.7602
  71   2.0000      -7.350550      -200.0186
  72   2.0000      -7.340322      -199.7403
  73   2.0000      -7.339988      -199.7312
  74   2.0000      -7.339436      -199.7162
  75   2.0000      -7.329743      -199.4525
  76   2.0000      -7.329205      -199.4378
  77   2.0000      -6.067443      -165.1035
  78   2.0000      -6.062816      -164.9776
  79   2.0000      -6.060419      -164.9124
  80   2.0000      -6.055708      -164.7842
  81   2.0000      -6.051081      -164.6583
  82   2.0000      -6.048653      -164.5922
  83   2.0000      -6.044972      -164.4921
  84   2.0000      -6.040956      -164.3828
  85   2.0000      -6.038655      -164.3201
  86   2.0000      -1.336915       -36.3793
  87   2.0000      -1.155235       -31.4355
  88   2.0000      -1.149612       -31.2825
  89   2.0000      -1.138358       -30.9763
  90   2.0000      -1.136686       -30.9308
  91   2.0000      -1.134691       -30.8765
  92   2.0000      -1.131732       -30.7960
  93   2.0000      -1.068656       -29.0796
  94   2.0000      -1.060386       -28.8546
  95   2.0000      -1.047008       -28.4905
  96   2.0000      -1.035162       -28.1682
  97   2.0000      -1.026006       -27.9190
  98   2.0000      -1.016143       -27.6507
  99   2.0000      -1.008058       -27.4306
 100   2.0000      -1.007129       -27.4054
 101   2.0000      -1.004347       -27.3297
 102   2.0000      -0.996033       -27.1034
 103   2.0000      -0.994744       -27.0684
 104   2.0000      -0.985245       -26.8099
 105   2.0000      -0.964077       -26.2339
 106   2.0000      -0.952025       -25.9059
 107   2.0000      -0.937751       -25.5175
 108   2.0000      -0.932627       -25.3781
 109   2.0000      -0.922493       -25.1023
 110   2.0000      -0.915206       -24.9040
 111   2.0000      -0.911965       -24.8158
 112   2.0000      -0.907136       -24.6844
 113   2.0000      -0.894991       -24.3540
 114   2.0000      -0.892636       -24.2899
 115   2.0000      -0.875528       -23.8243
 116   2.0000      -0.861099       -23.4317
 117   2.0000      -0.859461       -23.3871
 118   2.0000      -0.844276       -22.9739
 119   2.0000      -0.841326       -22.8936
 120   2.0000      -0.829433       -22.5700
 121   2.0000      -0.821991       -22.3675
 122   2.0000      -0.816513       -22.2184
 123   2.0000      -0.799888       -21.7661
 124   2.0000      -0.796248       -21.6670
 125   2.0000      -0.780083       -21.2271
 126   2.0000      -0.771490       -20.9933
 127   2.0000      -0.763614       -20.7790
 128   2.0000      -0.762193       -20.7403
 129   2.0000      -0.752184       -20.4680
 130   2.0000      -0.733977       -19.9725
 131   2.0000      -0.726727       -19.7752
 132   2.0000      -0.720788       -19.6136
 133   2.0000      -0.712157       -19.3788
 134   2.0000      -0.710466       -19.3328
 135   2.0000      -0.696379       -18.9494
 136   2.0000      -0.695049       -18.9132
 137   2.0000      -0.691984       -18.8298
 138   2.0000      -0.685757       -18.6604
 139   2.0000      -0.674982       -18.3672
 140   2.0000      -0.672806       -18.3080
 141   2.0000      -0.672360       -18.2958
 142   2.0000      -0.657806       -17.8998
 143   2.0000      -0.653803       -17.7909
 144   2.0000      -0.645681       -17.5699
 145   2.0000      -0.634704       -17.2712
 146   2.0000      -0.632238       -17.2041
 147   2.0000      -0.622417       -16.9368
 148   2.0000      -0.620222       -16.8771
 149   2.0000      -0.614680       -16.7263
 150   2.0000      -0.612796       -16.6750
 151   2.0000      -0.610663       -16.6170
 152   2.0000      -0.608662       -16.5625
 153   2.0000      -0.605856       -16.4862
 154   2.0000      -0.596923       -16.2431
 155   2.0000      -0.592908       -16.1339
 156   2.0000      -0.589923       -16.0526
 157   2.0000      -0.582487       -15.8503
 158   2.0000      -0.577787       -15.7224
 159   2.0000      -0.574295       -15.6273
 160   2.0000      -0.569636       -15.5006
 161   2.0000      -0.567156       -15.4331
 162   2.0000      -0.565033       -15.3753
 163   2.0000      -0.559294       -15.2192
 164   2.0000      -0.548930       -14.9371
 165   2.0000      -0.544673       -14.8213
 166   2.0000      -0.542609       -14.7651
 167   2.0000      -0.539903       -14.6915
 168   2.0000      -0.538737       -14.6598
 169   2.0000      -0.537208       -14.6182
 170   2.0000      -0.534775       -14.5520
 171   2.0000      -0.532423       -14.4880
 172   2.0000      -0.531758       -14.4699
 173   2.0000      -0.530841       -14.4449
 174   2.0000      -0.529179       -14.3997
 175   2.0000      -0.526129       -14.3167
 176   2.0000      -0.524678       -14.2772
 177   2.0000      -0.521145       -14.1811
 178   2.0000      -0.520506       -14.1637
 179   2.0000      -0.514282       -13.9943
 180   2.0000      -0.513317       -13.9681
 181   2.0000      -0.509222       -13.8566
 182   2.0000      -0.506089       -13.7714
 183   2.0000      -0.505171       -13.7464
 184   2.0000      -0.501113       -13.6360
 185   2.0000      -0.498659       -13.5692
 186   2.0000      -0.498368       -13.5613
 187   2.0000      -0.494654       -13.4602
 188   2.0000      -0.492319       -13.3967
 189   2.0000      -0.484993       -13.1973
 190   2.0000      -0.482524       -13.1302
 191   2.0000      -0.478840       -13.0299
 192   2.0000      -0.475096       -12.9280
 193   2.0000      -0.474808       -12.9202
 194   2.0000      -0.472176       -12.8486
 195   2.0000      -0.468049       -12.7363
 196   2.0000      -0.464873       -12.6498
 197   2.0000      -0.463874       -12.6227
 198   2.0000      -0.461412       -12.5557
 199   2.0000      -0.460041       -12.5183
 200   2.0000      -0.455895       -12.4055
 201   2.0000      -0.454675       -12.3723
 202   2.0000      -0.453629       -12.3439
 203   2.0000      -0.452731       -12.3194
 204   2.0000      -0.452655       -12.3174
 205   2.0000      -0.451049       -12.2737
 206   2.0000      -0.446511       -12.1502
 207   2.0000      -0.444301       -12.0900
 208   2.0000      -0.443859       -12.0780
 209   2.0000      -0.441496       -12.0137
 210   2.0000      -0.440220       -11.9790
 211   2.0000      -0.438718       -11.9381
 212   2.0000      -0.438446       -11.9307
 213   2.0000      -0.438072       -11.9206
 214   2.0000      -0.432452       -11.7676
 215   2.0000      -0.430112       -11.7039
 216   2.0000      -0.425941       -11.5904
 217   2.0000      -0.425618       -11.5816
 218   2.0000      -0.424577       -11.5533
 219   2.0000      -0.420470       -11.4416
 220   2.0000      -0.417780       -11.3684
 221   2.0000      -0.411153       -11.1880
 222   2.0000      -0.407765       -11.0958
 223   2.0000      -0.402988       -10.9659
 224   2.0000      -0.401046       -10.9130
 225   2.0000      -0.397552       -10.8179
 226   2.0000      -0.392283       -10.6746
 227   2.0000      -0.384999       -10.4764
 228   2.0000      -0.378714       -10.3053
 229   2.0000      -0.367384        -9.9970
 230   2.0000      -0.361000        -9.8233
 231   2.0000      -0.358403        -9.7526
 232   2.0000      -0.352891        -9.6027
 233   2.0000      -0.348225        -9.4757
 234   2.0000      -0.344970        -9.3871
 235   2.0000      -0.340293        -9.2598
 236   2.0000      -0.339763        -9.2454
 237   2.0000      -0.336930        -9.1683
 238   2.0000      -0.331153        -9.0111
 239   2.0000      -0.324407        -8.8276
 240   2.0000      -0.323137        -8.7930
 241   2.0000      -0.319350        -8.6900
 242   2.0000      -0.310132        -8.4391
 243   2.0000      -0.307875        -8.3777
 244   2.0000      -0.303434        -8.2568
 245   2.0000      -0.242697        -6.6041
 246   0.0000      -0.109843        -2.9890
 247   0.0000      -0.096004        -2.6124
 248   0.0000      -0.084006        -2.2859
 249   0.0000      -0.062786        -1.7085
 250   0.0000      -0.055520        -1.5108

MULLIKEN ATOMIC CHARGES
-----------------------
   0 C :    0.028323
   1 C :   -0.124679
   2 S :    0.194165
   3 C :   -0.169574
   4 Cl:    0.004116
   5 C :    0.073831
   6 C :    0.144709
   7 O :   -0.125604
   8 C :   -0.091750
   9 C :    0.284702
  10 C :   -0.318315
  11 C :   -0.192652
  12 N :    0.161021
  13 C :   -0.197705
  14 N :    0.169739
  15 C :   -0.032117
  16 C :    0.057470
  17 C :   -0.023638
  18 C :    0.104965
  19 N :    0.226642
  20 O :   -0.228762
  21 O :   -0.210678
  22 C :    0.098912
  23 C :   -0.038559
  24 C :    0.105786
  25 C :   -0.016636
  26 C :    0.022348
  27 C :    0.104306
  28 N :   -0.254777
  29 C :    0.091173
  30 C :   -0.003933
  31 C :    0.173099
  32 O :   -0.207482
  33 C :   -0.075749
  34 C :   -0.062000
  35 C :    0.168233
  36 O :   -0.215344
  37 N :   -0.260826
  38 C :    0.099269
  39 C :    0.003062
  40 C :    0.137613
  41 C :   -0.015723
  42 C :    0.083128
  43 C :   -0.055735
  44 S :    0.199019
  45 C :   -0.190127
  46 C :    0.202915
  47 O :   -0.200477
  48 C :    0.087621
  49 C :   -0.004042
  50 C :   -0.003750
  51 C :   -0.104060
  52 C :    0.129923
  53 O :   -0.125330
  54 C :    0.096875
  55 C :   -0.173958
  56 S :    0.184595
  57 C :   -0.121806
  58 C :    0.022448
  59 C :    0.308104
  60 C :   -0.328016
  61 C :   -0.192030
  62 N :    0.162025
  63 C :   -0.192143
  64 N :    0.170826
  65 Cl:   -0.002246
  66 H :    0.056536
  67 H :    0.038064
  68 H :    0.005688
  69 H :    0.008474
  70 H :   -0.000311
  71 H :    0.029488
  72 H :   -0.012429
  73 H :    0.024123
  74 H :    0.043058
  75 H :    0.027686
  76 H :    0.025555
  77 H :    0.023944
  78 H :    0.044258
  79 H :    0.025913
  80 H :    0.029212
  81 H :    0.026687
  82 H :    0.013553
  83 H :   -0.024854
  84 H :    0.010723
  85 H :   -0.007747
  86 H :   -0.011776
  87 H :    0.030422
  88 H :    0.052991
Sum of atomic charges:   -0.0000000

LOEWDIN ATOMIC CHARGES
----------------------
   0 C :   -0.060167
   1 C :   -0.147534
   2 S :    0.482790
   3 C :   -0.271183
   4 Cl:    0.195247
   5 C :   -0.118024
   6 C :    0.080752
   7 O :   -0.123180
   8 C :   -0.080613
   9 C :    0.073349
  10 C :   -0.130125
  11 C :   -0.015319
  12 N :   -0.045495
  13 C :   -0.026125
  14 N :   -0.038824
  15 C :    0.078433
  16 C :   -0.037473
  17 C :    0.023737
  18 C :   -0.027486
  19 N :    0.281126
  20 O :   -0.196041
  21 O :   -0.185969
  22 C :    0.006526
  23 C :    0.001781
  24 C :    0.042104
  25 C :    0.021597
  26 C :   -0.023840
  27 C :    0.078787
  28 N :    0.004486
  29 C :    0.035735
  30 C :   -0.063475
  31 C :    0.081927
  32 O :   -0.197351
  33 C :   -0.117898
  34 C :   -0.119252
  35 C :    0.081318
  36 O :   -0.204238
  37 N :    0.000402
  38 C :    0.036586
  39 C :   -0.061267
  40 C :    0.075298
  41 C :   -0.032109
  42 C :    0.008678
  43 C :   -0.143303
  44 S :    0.507349
  45 C :   -0.232025
  46 C :    0.084942
  47 O :   -0.143834
  48 C :   -0.031175
  49 C :   -0.029108
  50 C :    0.058842
  51 C :   -0.056352
  52 C :    0.084877
  53 O :   -0.129778
  54 C :   -0.115118
  55 C :   -0.273040
  56 S :    0.477711
  57 C :   -0.147075
  58 C :   -0.048058
  59 C :    0.082047
  60 C :   -0.131930
  61 C :   -0.016033
  62 N :   -0.049155
  63 C :   -0.021014
  64 N :   -0.049639
  65 Cl:    0.190630
  66 H :    0.038779
  67 H :    0.048939
  68 H :    0.043662
  69 H :    0.044432
  70 H :    0.037689
  71 H :    0.041724
  72 H :    0.027083
  73 H :    0.022648
  74 H :    0.037109
  75 H :    0.022343
  76 H :    0.032135
  77 H :    0.030569
  78 H :    0.038380
  79 H :    0.023859
  80 H :    0.032381
  81 H :    0.031551
  82 H :    0.021145
  83 H :    0.029451
  84 H :    0.037405
  85 H :    0.000181
  86 H :    0.032721
  87 H :    0.049843
  88 H :    0.038541

  Mayer bond orders larger than 0.100000
B(  0-C ,  1-C ) :   1.5440 B(  0-C ,  5-C ) :   1.2203 B(  0-C ,  9-C ) :   1.0049
B(  1-C ,  2-S ) :   1.1655 B(  1-C , 66-H ) :   0.9529 B(  2-S ,  3-C ) :   1.1550
B(  3-C ,  4-Cl) :   1.1317 B(  3-C ,  5-C ) :   1.4728 B(  5-C ,  6-C ) :   0.9547
B(  6-C ,  7-O ) :   2.2427 B(  6-C ,  8-C ) :   0.9199 B(  8-C ,  9-C ) :   1.0427
B(  8-C , 15-C ) :   1.6985 B(  9-C , 10-C ) :   1.6747 B( 10-C , 11-C ) :   1.1418
B( 10-C , 13-C ) :   1.1340 B( 11-C , 12-N ) :   2.9944 B( 13-C , 14-N ) :   2.9876
B( 15-C , 16-C ) :   1.0540 B( 15-C , 67-H ) :   0.9492 B( 16-C , 17-C ) :   1.2918
B( 16-C , 24-C ) :   1.3364 B( 17-C , 18-C ) :   1.4031 B( 17-C , 68-H ) :   0.9973
B( 18-C , 19-N ) :   0.8563 B( 18-C , 22-C ) :   1.3354 B( 19-N , 20-O ) :   1.5362
B( 19-N , 21-O ) :   1.5331 B( 20-O , 21-O ) :   0.2692 B( 22-C , 23-C ) :   1.3329
B( 22-C , 25-C ) :   1.0675 B( 23-C , 24-C ) :   1.4021 B( 23-C , 69-H ) :   0.9970
B( 24-C , 70-H ) :   0.9837 B( 25-C , 26-C ) :   1.6603 B( 25-C , 71-H ) :   0.9373
B( 26-C , 27-C ) :   1.1766 B( 26-C , 72-H ) :   0.9476 B( 27-C , 28-N ) :   1.1674
B( 27-C , 34-C ) :   1.3488 B( 28-N , 29-C ) :   0.9417 B( 28-N , 31-C ) :   1.0616
B( 29-C , 30-C ) :   1.1182 B( 29-C , 73-H ) :   0.9498 B( 29-C , 74-H ) :   0.9285
B( 30-C , 75-H ) :   0.9599 B( 30-C , 76-H ) :   0.9657 B( 30-C , 77-H ) :   0.9611
B( 31-C , 32-O ) :   2.0241 B( 31-C , 33-C ) :   0.9846 B( 32-O , 84-H ) :   0.1177
B( 33-C , 34-C ) :   1.2515 B( 33-C , 40-C ) :   1.3499 B( 34-C , 35-C ) :   0.9854
B( 35-C , 36-O ) :   2.0251 B( 35-C , 37-N ) :   1.0633 B( 36-O , 71-H ) :   0.1069
B( 37-N , 38-C ) :   0.9466 B( 37-N , 40-C ) :   1.1525 B( 38-C , 39-C ) :   1.1199
B( 38-C , 78-H ) :   0.9276 B( 38-C , 79-H ) :   0.9499 B( 39-C , 80-H ) :   0.9637
B( 39-C , 81-H ) :   0.9680 B( 39-C , 82-H ) :   0.9686 B( 40-C , 41-C ) :   1.1619
B( 41-C , 42-C ) :   1.6352 B( 41-C , 83-H ) :   0.9623 B( 42-C , 43-C ) :   1.1150
B( 42-C , 84-H ) :   0.9346 B( 43-C , 44-S ) :   1.1739 B( 43-C , 49-C ) :   1.4351
B( 44-S , 45-C ) :   1.1208 B( 45-C , 46-C ) :   1.0418 B( 45-C , 48-C ) :   1.4150
B( 46-C , 47-O ) :   2.0821 B( 46-C , 85-H ) :   0.9556 B( 48-C , 49-C ) :   1.3126
B( 48-C , 50-C ) :   1.0068 B( 49-C , 86-H ) :   0.9997 B( 50-C , 51-C ) :   1.8110
B( 50-C , 87-H ) :   0.9417 B( 51-C , 52-C ) :   0.9285 B( 51-C , 59-C ) :   0.9851
B( 52-C , 53-O ) :   2.2866 B( 52-C , 54-C ) :   0.9258 B( 54-C , 55-C ) :   1.4744
B( 54-C , 58-C ) :   1.2266 B( 55-C , 56-S ) :   1.1566 B( 55-C , 65-Cl) :   1.1266
B( 56-S , 57-C ) :   1.1582 B( 57-C , 58-C ) :   1.5501 B( 57-C , 88-H ) :   0.9571
B( 58-C , 59-C ) :   1.0186 B( 59-C , 60-C ) :   1.6937 B( 60-C , 61-C ) :   1.1310
B( 60-C , 63-C ) :   1.1613 B( 61-C , 62-N ) :   3.0092 B( 63-C , 64-N ) :   3.0119

-----------------------------------------------------------------------------
         ABSORPTION SPECTRUM VIA TRANSITION ELECTRIC DIPOLE MOMENTS
-----------------------------------------------------------------------------
State   Energy  Wavelength   fosc         T2         TX        TY        TZ
        (cm-1)    (nm)                  (au**2)     (au)      (au)      (au)
-----------------------------------------------------------------------------
   0   14861.8    672.9   0.959566028  21.25591  -1.28566   4.14390   1.55919
   1   19095.3    523.7   0.000547526   0.00944  -0.08819  -0.00424  -0.04055
   2   21142.2    473.0   0.060694378   0.94509   0.11729  -0.20042  -0.94402
   3   23960.4    417.4   0.075641537   1.03930   0.04123  -1.00756  -0.14977
   4   25890.8    386.2   0.269475531   3.42649  -0.58314   1.74592   0.19545
   5   26062.3    383.7   0.014941646   0.18874   0.36645   0.01454   0.23290
   6   26532.7    376.9   0.031220422   0.38738   0.11588  -0.57283  -0.21405
   7   27196.9    367.7   0.049530131   0.59955   0.77375  -0.01393   0.02573
   8   28115.7    355.7   0.003579817   0.04192   0.18120   0.05192   0.07991
   9   28676.3    348.7   0.222841985   2.55829   0.61550  -1.47623   0.01319
  10   28855.8    346.6   0.003238571   0.03695  -0.16658   0.08171  -0.05024
  11   29065.7    344.0   0.120917742   1.36957   0.49668  -1.05823   0.05507
  12   29388.8    340.3   0.192531689   2.15673  -0.32810   1.32905   0.53170
  13   30034.0    333.0   0.583626695   6.39732  -0.05809   2.52219  -0.18022
  14   30112.0    332.1   0.072392189   0.79146   0.14760  -0.80802   0.34173
  15   30632.4    326.5   0.076753773   0.82489   0.33982  -0.74099   0.40044
  16   30900.6    323.6   0.038454130   0.40969  -0.21269  -0.46533  -0.38460
  17   32002.5    312.5   0.016577325   0.17053  -0.28402   0.08444  -0.28764
  18   32238.5    310.2   0.006775162   0.06919  -0.02325  -0.23364   0.11858
  19   32753.2    305.3   0.052512483   0.52782   0.28924  -0.66141  -0.08184
  20   33052.6    302.5   0.018652174   0.18578  -0.38456  -0.07396  -0.18006
  21   33243.5    300.8   0.022004385   0.21791   0.29922   0.31459   0.17150
  22   33283.8    300.4   0.059481961   0.58834   0.54126   0.14440  -0.52395
  23   33615.4    297.5   0.169981564   1.66471   0.56119  -1.02065  -0.55503
  24   34659.0    288.5   0.077447044   0.73564   0.10388  -0.84636  -0.09235
  25   34841.1    287.0   0.074228313   0.70138   0.53078   0.59125  -0.26470
  26   35345.6    282.9   0.073957523   0.68885  -0.11188   0.68441  -0.45597
  27   35573.7    281.1   0.015277828   0.14139  -0.08470   0.36517  -0.02941
  28   35891.1    278.6   0.068415593   0.62754   0.37318   0.23033  -0.65972
  29   36082.5    277.1   0.161203165   1.47080   0.35004  -0.93923   0.68272
  30   36572.6    273.4   0.070712453   0.63653   0.22482  -0.70322   0.30243
  31   37060.3    269.8   0.142350954   1.26452   1.09936  -0.07020  -0.22586
  32   37544.6    266.3   0.088097809   0.77249  -0.83506   0.16511   0.21888
  33   37637.3    265.7   0.371139269   3.24634   1.30985   1.01595  -0.70601
  34   37836.9    264.3   0.234056864   2.03648   0.82894  -0.79929  -0.84290
  35   38013.6    263.1   0.307043803   2.65911  -1.51302  -0.59441   0.12876
  36   38070.7    262.7   0.255903966   2.21290   0.75223  -0.94889  -0.86410
  37   38217.1    261.7   0.230420235   1.98490  -0.66393   1.06913   0.63329
  38   38392.6    260.5   0.074902806   0.64228  -0.54978  -0.44331   0.37882
  39   39014.2    256.3   0.001394358   0.01177   0.04727  -0.09568  -0.01941
  40   39135.2    255.5   0.120124404   1.01051  -0.37199   0.86851   0.34325
  41   39160.9    255.4   0.037667683   0.31666   0.25200  -0.19302   0.46465
  42   39582.2    252.6   0.060295159   0.50148   0.49789  -0.30020  -0.40432
  43   39938.3    250.4   0.013910488   0.11466  -0.12368  -0.30209   0.09006
  44   40150.9    249.1   0.097868690   0.80246   0.07394  -0.85793   0.24689

FINAL SINGLE POINT ENERGY     -4825.421595912454

DIPOLE MOMENT
-------------
                                X             Y             Z
Electronic contribution:     15.41141      -6.10466     -15.26071
Nuclear contribution   :    -12.85538       7.54713      14.19155
                        -----------------------------------------
Total Dipole Moment    :      2.55603       1.44247      -1.06917
                        -----------------------------------------
Magnitude (a.u.)       :      3.12364
Magnitude (Debye)      :      7.93967

Rotational constants in cm-1:     0.003036     0.000213     0.000205
Rotational constants in MHz :    91.028897     6.375861     6.154930

                             ****ORCA TERMINATED NORMALLY****
TOTAL RUN TIME: 0 days 0 hours 8 minutes 15 seconds 541 msec
