                         Program Version 4.2.0 -  RELEASE  -
|  1> # ORCA input file
|  2> # SCF done       -167.708060359744          0.000493515544
|  3> ! CAM-B3LYP def2-SVP def2/J RIJCOSX Grid4 TightSCF
|  4> %maxcore 5000
|  5> %tddft
|  6>     Mode sTDDFT
|  7>     Ethresh 5.0
|  8>     maxcore 5000
|  9> end
| 10>
| 11> %pal
| 12>   nprocs 6
| 13>   end
| 14> * xyz 0 1
| 15>    C        6.21103         2.42555         1.42410
| 16>    C        5.99371         3.48234         2.25407
| 17>    S        6.12877         3.01516         3.91019
| 18>    C        6.47925         1.35762         3.47825
| 19>   Cl        6.70651         0.16220         4.66189
| 20>    C        6.49473         1.20964         2.12457
| 21>    C        6.71447         0.11558         1.17137
| 22>    O        7.05374        -1.01675         1.42281
| 23>    C        6.53492         0.74848        -0.17900
| 24>    C        6.21553         2.16329         0.00002
| 25>    C        5.91609         3.08567        -0.96229
| 26>    C        5.60285         4.42126        -0.62645
| 27>    N        5.35067         5.51023        -0.36992
| 28>    C        5.87357         2.84649        -2.35149
| 29>    N        5.81989         2.72188        -3.49103
| 30>    C        6.76554         0.12882        -1.35738
| 31>    C        7.01416        -1.29157        -1.50491
| 32>    C        8.02279        -1.73931        -2.35000
| 33>    C        8.33843        -3.08972        -2.41066
| 34>    N        9.37114        -3.48812        -3.32571
| 35>    O       10.13534        -2.63418        -3.72101
| 36>    O        9.41528        -4.65534        -3.66845
| 37>    C        7.65606        -4.03866        -1.62931
| 38>    C        6.56998        -3.57828        -0.87614
| 39>    C        6.24919        -2.24303        -0.81773
| 40>    C        8.10904        -5.41075        -1.50054
| 41>    C        7.31500        -6.45061        -1.24232
| 42>    C        7.83482        -7.79811        -0.97137
| 43>    C        8.47104        -8.52900        -1.95326
| 44>    C        8.93637        -9.81823        -1.67173
| 45>    S        9.72713       -10.59601        -3.01472
| 46>    C        9.75381        -9.02469        -3.96273
| 47>    C        8.66532        -8.12600        -3.38721
| 48>    C        8.75367       -10.35887        -0.40936
| 49>    C        8.09970        -9.63550         0.58644
| 50>    C        8.00104       -10.38611         1.88430
| 51>    C        9.05394       -11.48941         1.85761
| 52>    S        9.32181       -11.93610         0.10102
| 53>    C        7.63702        -8.34507         0.32555
| 54>    C        7.01568        -7.47329         1.29604
| 55>    C        6.26277        -7.79052         2.36548
| 56>    C        5.60852        -6.80958         3.18896
| 57>    C        5.84117        -5.42321         3.14911
| 58>    N        5.10955        -4.56099         3.81379
| 59>    C        4.14762        -5.03931         4.60803
| 60>    N        3.92277        -6.34145         4.81781
| 61>    C        4.61854        -7.19612         4.11168
| 62>    C        3.33963        -4.13403         5.37856
| 63>    C        3.10942        -2.80878         5.22333
| 64>    C        2.51309        -2.06956         6.38869
| 65>    O        2.04757        -2.56334         7.38542
| 66>    C        2.66425        -0.65272         6.04456
| 67>    C        2.41392         0.55146         6.63133
| 68>    S        2.82279         1.85758         5.54396
| 69>    C        3.31563         0.75682         4.30958
| 70>    C        3.19015        -0.53522         4.71661
| 71>    C        3.39727        -1.86139         4.16012
| 72>    C        3.64094        -2.08848         2.83206
| 73>    C        3.85379        -1.01672         1.94548
| 74>    N        4.05709        -0.16511         1.20058
| 75>    C        3.62143        -3.31807         2.14447
| 76>    N        3.54150        -4.22748         1.44728
| 77>   Cl        1.79309         0.85300         8.17712
| 78>    H        5.76746         4.50220         2.01374
| 79>    H        6.81255         0.71517        -2.26654
| 80>    H        8.59576        -1.04550        -2.94801
| 81>    H        5.99369        -4.28004        -0.29301
| 82>    H        5.39787        -1.92095        -0.24056
| 83>    H        9.17595        -5.57684        -1.57132
| 84>    H        6.23931        -6.33368        -1.19911
| 85>    H        9.60567        -9.25952        -5.01360
| 86>    H       10.74482        -8.59073        -3.82794
| 87>    H        7.72158        -8.28358        -3.91963
| 88>    H        8.93852        -7.07732        -3.49798
| 89>    H        7.00322       -10.83000         1.96065
| 90>    H        8.15569        -9.73062         2.74249
| 91>    H        8.74966       -12.38340         2.39620
| 92>    H       10.01095       -11.14138         2.24870
| 93>    H        7.14567        -6.42233         1.07141
| 94>    H        6.02736        -8.81829         2.59941
| 95>    H        6.63628        -4.98858         2.55701
| 96>    H        4.39134        -8.24313         4.27469
| 97>    H        2.89191        -4.58634         6.25787
| 98>    H        3.65700         1.14540         3.37161
| 99> *
|100>
|101>                          ****END OF INPUT****

CARTESIAN COORDINATES (ANGSTROEM)
---------------------------------
  C      6.211030    2.425550    1.424100
  C      5.993710    3.482340    2.254070
  S      6.128770    3.015160    3.910190
  C      6.479250    1.357620    3.478250
  Cl     6.706510    0.162200    4.661890
  C      6.494730    1.209640    2.124570
  C      6.714470    0.115580    1.171370
  O      7.053740   -1.016750    1.422810
  C      6.534920    0.748480   -0.179000
  C      6.215530    2.163290    0.000020
  C      5.916090    3.085670   -0.962290
  C      5.602850    4.421260   -0.626450
  N      5.350670    5.510230   -0.369920
  C      5.873570    2.846490   -2.351490
  N      5.819890    2.721880   -3.491030
  C      6.765540    0.128820   -1.357380
  C      7.014160   -1.291570   -1.504910
  C      8.022790   -1.739310   -2.350000
  C      8.338430   -3.089720   -2.410660
  N      9.371140   -3.488120   -3.325710
  O     10.135340   -2.634180   -3.721010
  O      9.415280   -4.655340   -3.668450
  C      7.656060   -4.038660   -1.629310
  C      6.569980   -3.578280   -0.876140
  C      6.249190   -2.243030   -0.817730
  C      8.109040   -5.410750   -1.500540
  C      7.315000   -6.450610   -1.242320
  C      7.834820   -7.798110   -0.971370
  C      8.471040   -8.529000   -1.953260
  C      8.936370   -9.818230   -1.671730
  S      9.727130  -10.596010   -3.014720
  C      9.753810   -9.024690   -3.962730
  C      8.665320   -8.126000   -3.387210
  C      8.753670  -10.358870   -0.409360
  C      8.099700   -9.635500    0.586440
  C      8.001040  -10.386110    1.884300
  C      9.053940  -11.489410    1.857610
  S      9.321810  -11.936100    0.101020
  C      7.637020   -8.345070    0.325550
  C      7.015680   -7.473290    1.296040
  C      6.262770   -7.790520    2.365480
  C      5.608520   -6.809580    3.188960
  C      5.841170   -5.423210    3.149110
  N      5.109550   -4.560990    3.813790
  C      4.147620   -5.039310    4.608030
  N      3.922770   -6.341450    4.817810
  C      4.618540   -7.196120    4.111680
  C      3.339630   -4.134030    5.378560
  C      3.109420   -2.808780    5.223330
  C      2.513090   -2.069560    6.388690
  O      2.047570   -2.563340    7.385420
  C      2.664250   -0.652720    6.044560
  C      2.413920    0.551460    6.631330
  S      2.822790    1.857580    5.543960
  C      3.315630    0.756820    4.309580
  C      3.190150   -0.535220    4.716610
  C      3.397270   -1.861390    4.160120
  C      3.640940   -2.088480    2.832060
  C      3.853790   -1.016720    1.945480
  N      4.057090   -0.165110    1.200580
  C      3.621430   -3.318070    2.144470
  N      3.541500   -4.227480    1.447280
  Cl     1.793090    0.853000    8.177120
  H      5.767460    4.502200    2.013740
  H      6.812550    0.715170   -2.266540
  H      8.595760   -1.045500   -2.948010
  H      5.993690   -4.280040   -0.293010
  H      5.397870   -1.920950   -0.240560
  H      9.175950   -5.576840   -1.571320
  H      6.239310   -6.333680   -1.199110
  H      9.605670   -9.259520   -5.013600
  H     10.744820   -8.590730   -3.827940
  H      7.721580   -8.283580   -3.919630
  H      8.938520   -7.077320   -3.497980
  H      7.003220  -10.830000    1.960650
  H      8.155690   -9.730620    2.742490
  H      8.749660  -12.383400    2.396200
  H     10.010950  -11.141380    2.248700
  H      7.145670   -6.422330    1.071410
  H      6.027360   -8.818290    2.599410
  H      6.636280   -4.988580    2.557010
  H      4.391340   -8.243130    4.274690
  H      2.891910   -4.586340    6.257870
  H      3.657000    1.145400    3.371610

 Total Charge           Charge          ....    0
 Multiplicity           Mult            ....    1
 Number of Electrons    NEL             ....  476
 Basis Dimension        Dim             .... 1011

ORBITAL ENERGIES
----------------

  NO   OCC          E(Eh)            E(eV)
   0   2.0000    -101.626910     -2765.4088
   1   2.0000    -101.623159     -2765.3067
   2   2.0000     -89.002237     -2421.8740
   3   2.0000     -89.000729     -2421.8329
   4   2.0000     -88.921542     -2419.6782
   5   2.0000     -88.921225     -2419.6695
   6   2.0000     -19.248648      -523.7823
   7   2.0000     -19.247574      -523.7531
   8   2.0000     -19.226032      -523.1669
   9   2.0000     -19.225795      -523.1605
  10   2.0000     -14.654043      -398.7568
  11   2.0000     -14.439222      -392.9112
  12   2.0000     -14.431818      -392.7097
  13   2.0000     -14.427288      -392.5865
  14   2.0000     -14.426380      -392.5618
  15   2.0000     -14.424880      -392.5209
  16   2.0000     -14.424748      -392.5173
  17   2.0000     -10.385086      -282.5926
  18   2.0000     -10.382684      -282.5272
  19   2.0000     -10.382322      -282.5174
  20   2.0000     -10.381716      -282.5008
  21   2.0000     -10.358785      -281.8769
  22   2.0000     -10.357117      -281.8315
  23   2.0000     -10.357063      -281.8300
  24   2.0000     -10.353472      -281.7323
  25   2.0000     -10.352635      -281.7095
  26   2.0000     -10.343501      -281.4610
  27   2.0000     -10.336883      -281.2809
  28   2.0000     -10.336302      -281.2651
  29   2.0000     -10.334180      -281.2073
  30   2.0000     -10.333096      -281.1778
  31   2.0000     -10.332263      -281.1552
  32   2.0000     -10.331307      -281.1291
  33   2.0000     -10.326647      -281.0023
  34   2.0000     -10.326568      -281.0002
  35   2.0000     -10.324506      -280.9441
  36   2.0000     -10.320665      -280.8396
  37   2.0000     -10.320217      -280.8274
  38   2.0000     -10.319011      -280.7946
  39   2.0000     -10.317030      -280.7406
  40   2.0000     -10.314597      -280.6745
  41   2.0000     -10.312123      -280.6071
  42   2.0000     -10.309785      -280.5435
  43   2.0000     -10.306883      -280.4645
  44   2.0000     -10.306724      -280.4602
  45   2.0000     -10.306666      -280.4586
  46   2.0000     -10.305259      -280.4203
  47   2.0000     -10.299438      -280.2620
  48   2.0000     -10.299322      -280.2588
  49   2.0000     -10.298313      -280.2313
  50   2.0000     -10.296387      -280.1789
  51   2.0000     -10.293637      -280.1041
  52   2.0000     -10.293145      -280.0907
  53   2.0000     -10.291263      -280.0395
  54   2.0000     -10.290094      -280.0077
  55   2.0000     -10.287812      -279.9456
  56   2.0000     -10.286281      -279.9039
  57   2.0000     -10.286174      -279.9010
  58   2.0000     -10.285719      -279.8887
  59   2.0000     -10.283355      -279.8243
  60   2.0000     -10.281954      -279.7862
  61   2.0000     -10.279356      -279.7155
  62   2.0000     -10.273338      -279.5517
  63   2.0000      -9.581234      -260.7186
  64   2.0000      -9.577932      -260.6288
  65   2.0000      -8.097639      -220.3480
  66   2.0000      -8.096424      -220.3149
  67   2.0000      -8.017824      -218.1761
  68   2.0000      -8.017421      -218.1651
  69   2.0000      -7.351837      -200.0537
  70   2.0000      -7.348567      -199.9647
  71   2.0000      -7.341304      -199.7670
  72   2.0000      -7.340817      -199.7538
  73   2.0000      -7.337977      -199.6765
  74   2.0000      -7.337424      -199.6615
  75   2.0000      -6.067030      -165.0923
  76   2.0000      -6.065764      -165.0578
  77   2.0000      -6.062427      -164.9670
  78   2.0000      -6.061191      -164.9334
  79   2.0000      -6.059923      -164.8989
  80   2.0000      -6.058708      -164.8658
  81   2.0000      -5.988165      -162.9462
  82   2.0000      -5.987884      -162.9386
  83   2.0000      -5.983999      -162.8329
  84   2.0000      -5.983773      -162.8267
  85   2.0000      -5.977625      -162.6594
  86   2.0000      -5.976965      -162.6415
  87   2.0000      -1.328604       -36.1532
  88   2.0000      -1.146599       -31.2006
  89   2.0000      -1.144253       -31.1367
  90   2.0000      -1.143399       -31.1135
  91   2.0000      -1.100409       -29.9437
  92   2.0000      -1.046575       -28.4787
  93   2.0000      -1.044050       -28.4100
  94   2.0000      -1.031818       -28.0772
  95   2.0000      -1.022431       -27.8218
  96   2.0000      -1.011837       -27.5335
  97   2.0000      -1.003363       -27.3029
  98   2.0000      -0.998009       -27.1572
  99   2.0000      -0.995637       -27.0927
 100   2.0000      -0.993637       -27.0382
 101   2.0000      -0.992615       -27.0104
 102   2.0000      -0.990826       -26.9617
 103   2.0000      -0.961508       -26.1640
 104   2.0000      -0.961343       -26.1595
 105   2.0000      -0.945649       -25.7324
 106   2.0000      -0.941308       -25.6143
 107   2.0000      -0.930818       -25.3289
 108   2.0000      -0.923089       -25.1185
 109   2.0000      -0.915937       -24.9239
 110   2.0000      -0.909447       -24.7473
 111   2.0000      -0.901003       -24.5175
 112   2.0000      -0.889269       -24.1982
 113   2.0000      -0.876942       -23.8628
 114   2.0000      -0.861576       -23.4447
 115   2.0000      -0.854067       -23.2404
 116   2.0000      -0.840751       -22.8780
 117   2.0000      -0.839339       -22.8396
 118   2.0000      -0.836958       -22.7748
 119   2.0000      -0.822738       -22.3878
 120   2.0000      -0.809896       -22.0384
 121   2.0000      -0.796245       -21.6669
 122   2.0000      -0.794119       -21.6091
 123   2.0000      -0.789733       -21.4897
 124   2.0000      -0.776888       -21.1402
 125   2.0000      -0.766143       -20.8478
 126   2.0000      -0.761516       -20.7219
 127   2.0000      -0.759438       -20.6654
 128   2.0000      -0.744059       -20.2469
 129   2.0000      -0.732658       -19.9366
 130   2.0000      -0.705039       -19.1851
 131   2.0000      -0.701164       -19.0797
 132   2.0000      -0.699464       -19.0334
 133   2.0000      -0.697579       -18.9821
 134   2.0000      -0.688015       -18.7218
 135   2.0000      -0.685560       -18.6550
 136   2.0000      -0.683377       -18.5956
 137   2.0000      -0.682687       -18.5769
 138   2.0000      -0.670055       -18.2331
 139   2.0000      -0.661083       -17.9890
 140   2.0000      -0.656037       -17.8517
 141   2.0000      -0.652105       -17.7447
 142   2.0000      -0.640295       -17.4233
 143   2.0000      -0.635856       -17.3025
 144   2.0000      -0.629141       -17.1198
 145   2.0000      -0.628539       -17.1034
 146   2.0000      -0.623469       -16.9655
 147   2.0000      -0.620753       -16.8915
 148   2.0000      -0.614945       -16.7335
 149   2.0000      -0.610495       -16.6124
 150   2.0000      -0.604942       -16.4613
 151   2.0000      -0.600945       -16.3525
 152   2.0000      -0.597007       -16.2454
 153   2.0000      -0.582192       -15.8422
 154   2.0000      -0.574204       -15.6249
 155   2.0000      -0.571821       -15.5600
 156   2.0000      -0.569695       -15.5022
 157   2.0000      -0.564960       -15.3733
 158   2.0000      -0.563130       -15.3235
 159   2.0000      -0.556062       -15.1312
 160   2.0000      -0.554449       -15.0873
 161   2.0000      -0.551090       -14.9959
 162   2.0000      -0.544397       -14.8138
 163   2.0000      -0.540708       -14.7134
 164   2.0000      -0.539561       -14.6822
 165   2.0000      -0.538315       -14.6483
 166   2.0000      -0.536713       -14.6047
 167   2.0000      -0.535572       -14.5737
 168   2.0000      -0.534283       -14.5386
 169   2.0000      -0.530900       -14.4465
 170   2.0000      -0.526166       -14.3177
 171   2.0000      -0.520696       -14.1689
 172   2.0000      -0.517567       -14.0837
 173   2.0000      -0.515273       -14.0213
 174   2.0000      -0.514698       -14.0057
 175   2.0000      -0.512446       -13.9444
 176   2.0000      -0.510303       -13.8861
 177   2.0000      -0.502902       -13.6847
 178   2.0000      -0.502046       -13.6614
 179   2.0000      -0.499275       -13.5860
 180   2.0000      -0.497998       -13.5512
 181   2.0000      -0.493723       -13.4349
 182   2.0000      -0.490947       -13.3593
 183   2.0000      -0.484442       -13.1823
 184   2.0000      -0.484028       -13.1711
 185   2.0000      -0.476397       -12.9634
 186   2.0000      -0.473305       -12.8793
 187   2.0000      -0.472080       -12.8460
 188   2.0000      -0.465269       -12.6606
 189   2.0000      -0.462366       -12.5816
 190   2.0000      -0.461253       -12.5513
 191   2.0000      -0.459759       -12.5107
 192   2.0000      -0.457707       -12.4548
 193   2.0000      -0.456447       -12.4206
 194   2.0000      -0.455808       -12.4032
 195   2.0000      -0.454536       -12.3685
 196   2.0000      -0.452671       -12.3178
 197   2.0000      -0.451318       -12.2810
 198   2.0000      -0.447123       -12.1668
 199   2.0000      -0.445801       -12.1309
 200   2.0000      -0.445103       -12.1119
 201   2.0000      -0.444945       -12.1076
 202   2.0000      -0.440258       -11.9800
 203   2.0000      -0.437852       -11.9146
 204   2.0000      -0.437279       -11.8990
 205   2.0000      -0.435929       -11.8622
 206   2.0000      -0.429453       -11.6860
 207   2.0000      -0.426422       -11.6035
 208   2.0000      -0.421172       -11.4607
 209   2.0000      -0.420445       -11.4409
 210   2.0000      -0.415061       -11.2944
 211   2.0000      -0.414052       -11.2669
 212   2.0000      -0.410961       -11.1828
 213   2.0000      -0.409309       -11.1379
 214   2.0000      -0.405980       -11.0473
 215   2.0000      -0.398774       -10.8512
 216   2.0000      -0.397817       -10.8252
 217   2.0000      -0.391941       -10.6653
 218   2.0000      -0.390190       -10.6176
 219   2.0000      -0.386388       -10.5142
 220   2.0000      -0.384244       -10.4558
 221   2.0000      -0.379838       -10.3359
 222   2.0000      -0.373672       -10.1681
 223   2.0000      -0.360732        -9.8160
 224   2.0000      -0.358488        -9.7549
 225   2.0000      -0.352070        -9.5803
 226   2.0000      -0.350700        -9.5430
 227   2.0000      -0.347540        -9.4571
 228   2.0000      -0.343498        -9.3470
 229   2.0000      -0.337961        -9.1964
 230   2.0000      -0.336025        -9.1437
 231   2.0000      -0.332010        -9.0344
 232   2.0000      -0.321330        -8.7438
 233   2.0000      -0.319533        -8.6949
 234   2.0000      -0.306321        -8.3354
 235   2.0000      -0.296806        -8.0765
 236   2.0000      -0.273090        -7.4312
 237   2.0000      -0.250723        -6.8225
 238   0.0000      -0.109017        -2.9665
 239   0.0000      -0.096125        -2.6157
 240   0.0000      -0.063852        -1.7375
 241   0.0000      -0.058290        -1.5862
 242   0.0000      -0.048356        -1.3158

MULLIKEN ATOMIC CHARGES
-----------------------
   0 C :    0.045935
   1 C :   -0.139431
   2 S :    0.176554
   3 C :   -0.222502
   4 Cl:    0.001764
   5 C :    0.114752
   6 C :    0.133740
   7 O :   -0.131786
   8 C :   -0.053374
   9 C :    0.300671
  10 C :   -0.324535
  11 C :   -0.193206
  12 N :    0.159749
  13 C :   -0.191042
  14 N :    0.163804
  15 C :   -0.029054
  16 C :    0.057509
  17 C :   -0.053964
  18 C :    0.134218
  19 N :    0.254946
  20 O :   -0.230488
  21 O :   -0.244206
  22 C :    0.075736
  23 C :   -0.058674
  24 C :    0.124964
  25 C :    0.030823
  26 C :   -0.110491
  27 C :   -0.007565
  28 C :   -0.109288
  29 C :   -0.086412
  30 S :    0.008044
  31 C :   -0.064019
  32 C :    0.143879
  33 C :   -0.084509
  34 C :   -0.117053
  35 C :    0.094789
  36 C :   -0.051180
  37 S :    0.004370
  38 C :    0.083619
  39 C :   -0.045332
  40 C :    0.008041
  41 C :    0.044539
  42 C :    0.042857
  43 N :   -0.082703
  44 C :   -0.080215
  45 N :   -0.039525
  46 C :    0.024529
  47 C :    0.080757
  48 C :   -0.110117
  49 C :    0.126886
  50 O :   -0.119568
  51 C :    0.091876
  52 C :   -0.171558
  53 S :    0.187454
  54 C :   -0.133556
  55 C :    0.009814
  56 C :    0.322703
  57 C :   -0.294009
  58 C :   -0.127508
  59 N :    0.081886
  60 C :   -0.168180
  61 N :    0.150914
  62 Cl:    0.004010
  63 H :    0.054895
  64 H :    0.036130
  65 H :    0.007873
  66 H :   -0.009115
  67 H :   -0.022536
  68 H :    0.018778
  69 H :    0.037885
  70 H :    0.051304
  71 H :    0.064699
  72 H :    0.026922
  73 H :    0.038164
  74 H :    0.039760
  75 H :    0.029136
  76 H :    0.047031
  77 H :    0.062030
  78 H :    0.007759
  79 H :   -0.016896
  80 H :    0.019464
  81 H :    0.007333
  82 H :    0.037795
  83 H :    0.050506
Sum of atomic charges:    0.0000000

LOEWDIN ATOMIC CHARGES
----------------------
   0 C :   -0.054187
   1 C :   -0.151029
   2 S :    0.468720
   3 C :   -0.281004
   4 Cl:    0.193520
   5 C :   -0.110662
   6 C :    0.082811
   7 O :   -0.129732
   8 C :   -0.068821
   9 C :    0.080525
  10 C :   -0.127409
  11 C :   -0.014193
  12 N :   -0.048844
  13 C :   -0.022704
  14 N :   -0.039813
  15 C :    0.078761
  16 C :   -0.038026
  17 C :    0.023257
  18 C :   -0.038458
  19 N :    0.289572
  20 O :   -0.197342
  21 O :   -0.201945
  22 C :    0.012571
  23 C :   -0.009404
  24 C :    0.048615
  25 C :   -0.015983
  26 C :   -0.004230
  27 C :   -0.026927
  28 C :   -0.040197
  29 C :   -0.165844
  30 S :    0.283942
  31 C :   -0.108233
  32 C :   -0.033641
  33 C :   -0.175411
  34 C :   -0.030108
  35 C :   -0.038369
  36 C :   -0.111367
  37 S :    0.272038
  38 C :   -0.042767
  39 C :    0.013434
  40 C :   -0.040331
  41 C :   -0.041520
  42 C :    0.059659
  43 N :   -0.055518
  44 C :   -0.001374
  45 N :   -0.061025
  46 C :    0.044236
  47 C :    0.075416
  48 C :   -0.070090
  49 C :    0.081581
  50 O :   -0.124546
  51 C :   -0.118008
  52 C :   -0.271587
  53 S :    0.475462
  54 C :   -0.159738
  55 C :   -0.059487
  56 C :    0.080915
  57 C :   -0.122922
  58 C :    0.017503
  59 N :   -0.069274
  60 C :   -0.011589
  61 N :   -0.061633
  62 Cl:    0.195388
  63 H :    0.038154
  64 H :    0.047836
  65 H :    0.043393
  66 H :    0.034621
  67 H :    0.034831
  68 H :    0.032538
  69 H :    0.034017
  70 H :    0.027265
  71 H :    0.025599
  72 H :    0.038891
  73 H :    0.039295
  74 H :    0.036183
  75 H :    0.035634
  76 H :    0.025882
  77 H :    0.024316
  78 H :    0.030718
  79 H :    0.028505
  80 H :    0.027886
  81 H :    0.026720
  82 H :    0.055245
  83 H :    0.029838

  Mayer bond orders larger than 0.100000
B(  0-C ,  1-C ) :   1.5350 B(  0-C ,  5-C ) :   1.2231 B(  0-C ,  9-C ) :   0.9996
B(  1-C ,  2-S ) :   1.1567 B(  1-C , 63-H ) :   0.9539 B(  2-S ,  3-C ) :   1.1418
B(  3-C ,  4-Cl) :   1.1205 B(  3-C ,  5-C ) :   1.4729 B(  5-C ,  6-C ) :   0.9433
B(  6-C ,  7-O ) :   2.2332 B(  6-C ,  8-C ) :   0.9152 B(  8-C ,  9-C ) :   1.0481
B(  8-C , 15-C ) :   1.7334 B(  9-C , 10-C ) :   1.6766 B( 10-C , 11-C ) :   1.1420
B( 10-C , 13-C ) :   1.1347 B( 11-C , 12-N ) :   2.9932 B( 13-C , 14-N ) :   2.9796
B( 15-C , 16-C ) :   1.0265 B( 15-C , 64-H ) :   0.9445 B( 16-C , 17-C ) :   1.3092
B( 16-C , 24-C ) :   1.3313 B( 17-C , 18-C ) :   1.3575 B( 17-C , 65-H ) :   0.9988
B( 18-C , 19-N ) :   0.8940 B( 18-C , 22-C ) :   1.3373 B( 19-N , 20-O ) :   1.5632
B( 19-N , 21-O ) :   1.4943 B( 20-O , 21-O ) :   0.2608 B( 22-C , 23-C ) :   1.3429
B( 22-C , 25-C ) :   1.0507 B( 23-C , 24-C ) :   1.4138 B( 23-C , 66-H ) :   0.9896
B( 24-C , 67-H ) :   0.9831 B( 25-C , 26-C ) :   1.8399 B( 25-C , 68-H ) :   0.9483
B( 26-C , 27-C ) :   0.9864 B( 26-C , 69-H ) :   0.9452 B( 27-C , 28-C ) :   1.4863
B( 27-C , 38-C ) :   1.2959 B( 28-C , 29-C ) :   1.3622 B( 28-C , 32-C ) :   1.0440
B( 29-C , 30-S ) :   1.0222 B( 29-C , 33-C ) :   1.4683 B( 30-S , 31-C ) :   0.9816
B( 31-C , 32-C ) :   1.0463 B( 31-C , 70-H ) :   0.9531 B( 31-C , 71-H ) :   0.9551
B( 32-C , 72-H ) :   0.9092 B( 32-C , 73-H ) :   0.9158 B( 33-C , 34-C ) :   1.4040
B( 33-C , 37-S ) :   0.9971 B( 34-C , 35-C ) :   1.0492 B( 34-C , 38-C ) :   1.3944
B( 35-C , 36-C ) :   1.0497 B( 35-C , 74-H ) :   0.9070 B( 35-C , 75-H ) :   0.9218
B( 36-C , 37-S ) :   0.9911 B( 36-C , 76-H ) :   0.9518 B( 36-C , 77-H ) :   0.9528
B( 38-C , 39-C ) :   1.0866 B( 39-C , 40-C ) :   1.6999 B( 39-C , 78-H ) :   0.9383
B( 40-C , 41-C ) :   1.0732 B( 40-C , 79-H ) :   0.9798 B( 41-C , 42-C ) :   1.2974
B( 41-C , 46-C ) :   1.2921 B( 42-C , 43-N ) :   1.5563 B( 42-C , 80-H ) :   0.9802
B( 43-N , 44-C ) :   1.4598 B( 44-C , 45-N ) :   1.5047 B( 44-C , 47-C ) :   1.0270
B( 45-N , 46-C ) :   1.5822 B( 46-C , 81-H ) :   0.9864 B( 47-C , 48-C ) :   1.6741
B( 47-C , 82-H ) :   0.9425 B( 48-C , 49-C ) :   0.9280 B( 48-C , 56-C ) :   1.0281
B( 49-C , 50-O ) :   2.2862 B( 49-C , 51-C ) :   0.9249 B( 51-C , 52-C ) :   1.4821
B( 51-C , 55-C ) :   1.2213 B( 52-C , 53-S ) :   1.1492 B( 52-C , 62-Cl) :   1.1328
B( 53-S , 54-C ) :   1.1607 B( 54-C , 55-C ) :   1.5546 B( 54-C , 83-H ) :   0.9421
B( 55-C , 56-C ) :   1.0071 B( 56-C , 57-C ) :   1.6552 B( 57-C , 58-C ) :   1.1631
B( 57-C , 60-C ) :   1.1677 B( 58-C , 59-N ) :   2.8349 B( 60-C , 61-N ) :   2.9152

-----------------------------------------------------------------------------
         ABSORPTION SPECTRUM VIA TRANSITION ELECTRIC DIPOLE MOMENTS
-----------------------------------------------------------------------------
State   Energy  Wavelength   fosc         T2         TX        TY        TZ
        (cm-1)    (nm)                  (au**2)     (au)      (au)      (au)
-----------------------------------------------------------------------------
   0   18333.5    545.4   0.311291849   5.58982   1.29909  -1.55486  -1.21844
   1   22898.6    436.7   0.218164989   3.13655   0.56869  -1.66323  -0.21633
   2   23181.3    431.4   0.101617088   1.44313  -0.46442   1.10327   0.10112
   3   24833.1    402.7   0.177329708   2.35086   0.28861  -1.41356  -0.51903
   4   25388.0    393.9   0.004359260   0.05653  -0.09692  -0.17845   0.12365
   5   26901.5    371.7   0.127448635   1.55968   0.09154  -0.99210   0.75301
   6   27314.3    366.1   0.030909805   0.37255  -0.18510  -0.58158   0.00703
   7   27701.8    361.0   0.154451757   1.83553  -0.67493   0.37869   1.11202
   8   27922.2    358.1   0.005003922   0.05900  -0.00784   0.13164  -0.20398
   9   28517.5    350.7   0.032787852   0.37851   0.27791  -0.22402  -0.50109
  10   28665.1    348.9   0.147388292   1.69272   0.64249  -0.57776  -0.97269
  11   28949.8    345.4   0.151046571   1.71768  -0.55106   0.89177   0.78661
  12   29409.9    340.0   0.166457214   1.86331   0.45467  -1.26352  -0.24518
  13   30220.5    330.9   0.137666374   1.49969  -0.22125   1.20055  -0.09706
  14   30868.1    324.0   0.034569827   0.36869   0.05887  -0.55973  -0.22788
  15   31217.4    320.3   0.057657736   0.60805   0.07814   0.32418  -0.70488
  16   31697.8    315.5   0.031039301   0.32237   0.04826   0.56537   0.02009
  17   31870.8    313.8   0.045896717   0.47409  -0.52113   0.43897   0.09907
  18   32260.4    310.0   0.229398891   2.34098   0.67469  -1.14629  -0.75616
  19   32441.1    308.3   0.004660282   0.04729  -0.20658   0.06670  -0.01305
  20   32865.5    304.3   0.030233656   0.30285  -0.04053  -0.30177  -0.45841
  21   33497.8    298.5   0.103226726   1.01450  -0.20505   0.68598   0.70844
  22   33644.9    297.2   0.063435727   0.62071   0.17539  -0.23504  -0.73123
  23   34191.5    292.5   0.007449960   0.07173   0.24735  -0.03014  -0.09818
  24   34416.5    290.6   0.010348525   0.09899   0.09720  -0.29209  -0.06500
  25   34564.7    289.3   0.052471766   0.49977  -0.23582   0.64770   0.15697
  26   34810.4    287.3   0.207432712   1.96175  -0.42504   0.28073   1.30472
  27   35179.9    284.3   0.130926456   1.22521   0.23460   0.25906  -1.05026
  28   35574.4    281.1   0.012653194   0.11709   0.31363  -0.07809   0.11240
  29   35888.0    278.6   0.185924007   1.70554   0.53883  -0.95929  -0.70354
  30   36191.3    276.3   0.113063744   1.02848  -0.01335   0.64909  -0.77909
  31   36235.2    276.0   0.084369685   0.76653   0.54547  -0.10321  -0.67701
  32   36586.5    273.3   0.038398867   0.34552  -0.22549  -0.27411  -0.46854
  33   36837.6    271.5   0.092708907   0.82852   0.11876   0.87208   0.23217
  34   37045.9    269.9   0.154310207   1.37129   0.61589  -0.64128  -0.76206
  35   37389.3    267.5   0.130491437   1.14898  -0.01990   0.69391   0.81675
  36   37716.1    265.1   0.079549282   0.69436   0.34162  -0.75468  -0.09010
  37   37922.1    263.7   0.117827747   1.02289   0.23826  -0.81255   0.55307
  38   38220.0    261.6   0.134169500   1.15568  -0.12383   0.82062  -0.68333
  39   38730.2    258.2   0.106412608   0.90452   0.02528   0.35076  -0.88366
  40   38965.5    256.6   0.050742542   0.42871   0.15292  -0.20550   0.60258
  41   39042.5    256.1   0.078351848   0.66067   0.22250  -0.55194  -0.55365
  42   39271.9    254.6   0.072973478   0.61173  -0.02585   0.27616   0.73130
  43   39509.5    253.1   0.139671209   1.16381   0.05012   0.21165   1.05665
  44   39725.2    251.7   0.022103133   0.18317  -0.18841   0.38353   0.02416
  45   39779.6    251.4   0.002416335   0.02000  -0.11909  -0.01871  -0.07392
  46   39964.1    250.2   0.122733085   1.01104   0.34344   0.07537  -0.94202
  47   40103.9    249.4   0.028100091   0.23067   0.26948  -0.39151  -0.06912

FINAL SINGLE POINT ENERGY     -4958.795599327878

DIPOLE MOMENT
-------------
                                X             Y             Z
Electronic contribution:    -24.85697      64.26152      38.92523
Nuclear contribution   :     24.91615     -64.72775     -36.41622
                        -----------------------------------------
Total Dipole Moment    :      0.05918      -0.46622       2.50901
                        -----------------------------------------
Magnitude (a.u.)       :      2.55264
Magnitude (Debye)      :      6.48830

Rotational constants in cm-1:     0.001550     0.000658     0.000487
Rotational constants in MHz :    46.471223    19.712653    14.603281

                             ****ORCA TERMINATED NORMALLY****
TOTAL RUN TIME: 0 days 0 hours 8 minutes 36 seconds 31 msec
