                         Program Version 4.2.0 -  RELEASE  -
|  1> # ORCA input file
|  2> # SCF done       -185.987613435790          0.000322629146
|  3> ! CAM-B3LYP def2-SVP def2/J RIJCOSX Grid4 TightSCF
|  4> %maxcore 5000
|  5> %tddft
|  6>     Mode sTDDFT
|  7>     Ethresh 5.0
|  8>     maxcore 5000
|  9> end
| 10>
| 11> %pal
| 12>   nprocs 6
| 13>   end
| 14> * xyz 0 1
| 15>    C       -1.45733         0.07694         1.55662
| 16>    C       -2.66988         0.69371         1.53101
| 17>    S       -3.69396         0.00544         0.32482
| 18>    C       -2.46424        -1.13958        -0.15816
| 19>   Cl       -2.73857        -2.25654        -1.40162
| 20>    C       -1.33722        -0.97211         0.58970
| 21>    C       -0.00808        -1.58877         0.67329
| 22>    O        0.41349        -2.51221         0.01710
| 23>    C        0.67134        -0.86883         1.79828
| 24>    C       -0.21475         0.18133         2.29189
| 25>    C        0.06170         1.14599         3.22193
| 26>    C       -0.90298         2.11051         3.58435
| 27>    N       -1.67878         2.89754         3.89188
| 28>    C        1.29174         1.32245         3.88787
| 29>    N        2.26937         1.53588         4.45031
| 30>    C        1.82541        -1.24728         2.40460
| 31>    C        2.78802        -2.22159         1.96041
| 32>    C        3.48871        -2.95343         2.91884
| 33>    C        4.40971        -3.92211         2.55702
| 34>    N        5.00134        -4.66179         3.64139
| 35>    O        5.00460        -4.13338         4.73472
| 36>    O        5.44793        -5.76998         3.42222
| 37>    C        4.72602        -4.16886         1.20042
| 38>    C        4.05308        -3.37188         0.25653
| 39>    C        3.11043        -2.44080         0.61117
| 40>    C        5.73665        -5.10497         0.79434
| 41>    C        5.84845        -5.63268        -0.44551
| 42>    C        6.86782        -6.54385        -0.84104
| 43>    S        6.89937        -7.10226        -2.50435
| 44>    C        7.89250        -7.08472        -0.10642
| 45>    C        8.73616        -7.94742        -0.84162
| 46>    C        9.87568        -8.66337        -0.38867
| 47>    C       10.25185        -8.54113         1.06313
| 48>    C        9.42982        -9.50779         1.91900
| 49>    C       10.56635        -9.47119        -1.26753
| 50>    C       11.76403       -10.28205        -0.85609
| 51>    C       13.06423        -9.51567        -1.10459
| 52>    C        8.31080        -8.05069        -2.18291
| 53>    C        9.01971        -8.84475        -3.06727
| 54>    S        8.69409        -9.11945        -4.74873
| 55>    C       10.15690        -9.54227        -2.62337
| 56>    C       10.75503       -10.27351        -3.68230
| 57>    C       10.09244       -10.16850        -4.86690
| 58>    C       10.42497       -10.74281        -6.14886
| 59>    C       10.05696       -10.16745        -7.33346
| 60>    S       10.64700       -11.00992        -8.70497
| 61>    C       11.42078       -12.15612        -7.70846
| 62>    C       11.21737       -11.92000        -6.37481
| 63>    C       11.70136       -12.84514        -5.35043
| 64>    O       11.19309       -13.09663        -4.29119
| 65>    O       12.86264       -13.44549        -5.76871
| 66>    C       13.49124       -14.25647        -4.89249
| 67>    C       14.74975       -14.66765        -5.10902
| 68>    C       15.48814       -15.51773        -4.23614
| 69>    C       15.38843       -15.74446        -2.90088
| 70>    C       16.12435       -16.94050        -2.36520
| 71>    O       16.93265       -17.60481        -2.96699
| 72>    C       15.60932       -17.11859        -1.00647
| 73>    C       15.74777       -18.01765         0.00849
| 74>    S       14.76379       -17.55100         1.37511
| 75>    C       14.18814       -16.14258         0.56143
| 76>    C       14.71769       -16.04320        -0.68783
| 77>    C       14.66116       -15.11737        -1.80750
| 78>    C       14.17392       -13.84225        -1.69153
| 79>    C       13.59336       -13.38968        -0.48628
| 80>    N       13.11833       -12.99343         0.47982
| 81>    C       14.22568       -12.82278        -2.65894
| 82>    N       14.23483       -11.93094        -3.38249
| 83>   Cl       16.70438       -19.41445         0.04444
| 84>    H       -3.03730         1.49845         2.13625
| 85>    H        2.05392        -0.80139         3.36600
| 86>    H        3.29135        -2.80283         3.97078
| 87>    H        4.30671        -3.48215        -0.78531
| 88>    H        2.64205        -1.84440        -0.15344
| 89>    H        6.43668        -5.42777         1.54928
| 90>    H        5.12277        -5.39423        -1.21116
| 91>    H        8.02088        -6.87348         0.93864
| 92>    H       11.31193        -8.74704         1.20089
| 93>    H       10.07401        -7.51855         1.39941
| 94>    H        9.61275       -10.53501         1.61214
| 95>    H        8.36669        -9.30488         1.81287
| 96>    H        9.69918        -9.40559         2.96744
| 97>    H       11.77843       -11.21016        -1.42855
| 98>    H       11.70045       -10.55949         0.19479
| 99>    H       13.19007        -9.30752        -2.16430
|100>    H       13.91444       -10.10354        -0.76648
|101>    H       13.06033        -8.56941        -0.56782
|102>    H       11.66166       -10.83710        -3.57307
|103>    H        9.47291        -9.27812        -7.46439
|104>    H       11.96030       -12.97346        -8.14393
|105>    H       12.89805       -14.56705        -4.03863
|106>    H       15.22870       -14.38381        -6.03557
|107>    H       16.25368       -16.11992        -4.71890
|108>    H       13.49324       -15.49812         1.06182
|109> *
|110>
|111>                          ****END OF INPUT****

CARTESIAN COORDINATES (ANGSTROEM)
---------------------------------
  C     -1.457330    0.076940    1.556620
  C     -2.669880    0.693710    1.531010
  S     -3.693960    0.005440    0.324820
  C     -2.464240   -1.139580   -0.158160
  Cl    -2.738570   -2.256540   -1.401620
  C     -1.337220   -0.972110    0.589700
  C     -0.008080   -1.588770    0.673290
  O      0.413490   -2.512210    0.017100
  C      0.671340   -0.868830    1.798280
  C     -0.214750    0.181330    2.291890
  C      0.061700    1.145990    3.221930
  C     -0.902980    2.110510    3.584350
  N     -1.678780    2.897540    3.891880
  C      1.291740    1.322450    3.887870
  N      2.269370    1.535880    4.450310
  C      1.825410   -1.247280    2.404600
  C      2.788020   -2.221590    1.960410
  C      3.488710   -2.953430    2.918840
  C      4.409710   -3.922110    2.557020
  N      5.001340   -4.661790    3.641390
  O      5.004600   -4.133380    4.734720
  O      5.447930   -5.769980    3.422220
  C      4.726020   -4.168860    1.200420
  C      4.053080   -3.371880    0.256530
  C      3.110430   -2.440800    0.611170
  C      5.736650   -5.104970    0.794340
  C      5.848450   -5.632680   -0.445510
  C      6.867820   -6.543850   -0.841040
  S      6.899370   -7.102260   -2.504350
  C      7.892500   -7.084720   -0.106420
  C      8.736160   -7.947420   -0.841620
  C      9.875680   -8.663370   -0.388670
  C     10.251850   -8.541130    1.063130
  C      9.429820   -9.507790    1.919000
  C     10.566350   -9.471190   -1.267530
  C     11.764030  -10.282050   -0.856090
  C     13.064230   -9.515670   -1.104590
  C      8.310800   -8.050690   -2.182910
  C      9.019710   -8.844750   -3.067270
  S      8.694090   -9.119450   -4.748730
  C     10.156900   -9.542270   -2.623370
  C     10.755030  -10.273510   -3.682300
  C     10.092440  -10.168500   -4.866900
  C     10.424970  -10.742810   -6.148860
  C     10.056960  -10.167450   -7.333460
  S     10.647000  -11.009920   -8.704970
  C     11.420780  -12.156120   -7.708460
  C     11.217370  -11.920000   -6.374810
  C     11.701360  -12.845140   -5.350430
  O     11.193090  -13.096630   -4.291190
  O     12.862640  -13.445490   -5.768710
  C     13.491240  -14.256470   -4.892490
  C     14.749750  -14.667650   -5.109020
  C     15.488140  -15.517730   -4.236140
  C     15.388430  -15.744460   -2.900880
  C     16.124350  -16.940500   -2.365200
  O     16.932650  -17.604810   -2.966990
  C     15.609320  -17.118590   -1.006470
  C     15.747770  -18.017650    0.008490
  S     14.763790  -17.551000    1.375110
  C     14.188140  -16.142580    0.561430
  C     14.717690  -16.043200   -0.687830
  C     14.661160  -15.117370   -1.807500
  C     14.173920  -13.842250   -1.691530
  C     13.593360  -13.389680   -0.486280
  N     13.118330  -12.993430    0.479820
  C     14.225680  -12.822780   -2.658940
  N     14.234830  -11.930940   -3.382490
  Cl    16.704380  -19.414450    0.044440
  H     -3.037300    1.498450    2.136250
  H      2.053920   -0.801390    3.366000
  H      3.291350   -2.802830    3.970780
  H      4.306710   -3.482150   -0.785310
  H      2.642050   -1.844400   -0.153440
  H      6.436680   -5.427770    1.549280
  H      5.122770   -5.394230   -1.211160
  H      8.020880   -6.873480    0.938640
  H     11.311930   -8.747040    1.200890
  H     10.074010   -7.518550    1.399410
  H      9.612750  -10.535010    1.612140
  H      8.366690   -9.304880    1.812870
  H      9.699180   -9.405590    2.967440
  H     11.778430  -11.210160   -1.428550
  H     11.700450  -10.559490    0.194790
  H     13.190070   -9.307520   -2.164300
  H     13.914440  -10.103540   -0.766480
  H     13.060330   -8.569410   -0.567820
  H     11.661660  -10.837100   -3.573070
  H      9.472910   -9.278120   -7.464390
  H     11.960300  -12.973460   -8.143930
  H     12.898050  -14.567050   -4.038630
  H     15.228700  -14.383810   -6.035570
  H     16.253680  -16.119920   -4.718900
  H     13.493240  -15.498120    1.061820

 Total Charge           Charge          ....    0
 Multiplicity           Mult            ....    1
 Number of Electrons    NEL             ....  528
 Basis Dimension        Dim             .... 1119

ORBITAL ENERGIES
----------------

  NO   OCC          E(Eh)            E(eV)
   0   2.0000    -101.620098     -2765.2235
   1   2.0000    -101.619365     -2765.2035
   2   2.0000     -88.996313     -2421.7128
   3   2.0000     -88.995688     -2421.6958
   4   2.0000     -88.975398     -2421.1437
   5   2.0000     -88.948599     -2420.4144
   6   2.0000     -88.946245     -2420.3504
   7   2.0000     -19.301274      -525.2144
   8   2.0000     -19.242607      -523.6180
   9   2.0000     -19.240678      -523.5655
  10   2.0000     -19.231736      -523.3221
  11   2.0000     -19.225231      -523.1451
  12   2.0000     -19.220999      -523.0300
  13   2.0000     -14.648182      -398.5973
  14   2.0000     -14.430436      -392.6721
  15   2.0000     -14.426115      -392.5545
  16   2.0000     -14.422138      -392.4463
  17   2.0000     -14.421970      -392.4418
  18   2.0000     -10.429257      -283.7945
  19   2.0000     -10.383094      -282.5384
  20   2.0000     -10.379059      -282.4285
  21   2.0000     -10.378360      -282.4095
  22   2.0000     -10.377042      -282.3737
  23   2.0000     -10.369205      -282.1604
  24   2.0000     -10.357109      -281.8313
  25   2.0000     -10.353249      -281.7262
  26   2.0000     -10.351153      -281.6692
  27   2.0000     -10.350447      -281.6500
  28   2.0000     -10.332740      -281.1681
  29   2.0000     -10.332294      -281.1560
  30   2.0000     -10.332250      -281.1548
  31   2.0000     -10.332243      -281.1546
  32   2.0000     -10.328449      -281.0514
  33   2.0000     -10.326583      -281.0006
  34   2.0000     -10.326267      -280.9920
  35   2.0000     -10.324137      -280.9340
  36   2.0000     -10.323957      -280.9291
  37   2.0000     -10.318735      -280.7871
  38   2.0000     -10.318676      -280.7855
  39   2.0000     -10.316098      -280.7153
  40   2.0000     -10.315276      -280.6929
  41   2.0000     -10.311161      -280.5810
  42   2.0000     -10.307133      -280.4713
  43   2.0000     -10.305481      -280.4264
  44   2.0000     -10.304063      -280.3878
  45   2.0000     -10.303975      -280.3854
  46   2.0000     -10.302846      -280.3547
  47   2.0000     -10.302831      -280.3543
  48   2.0000     -10.302276      -280.3392
  49   2.0000     -10.301857      -280.3278
  50   2.0000     -10.300252      -280.2841
  51   2.0000     -10.299653      -280.2678
  52   2.0000     -10.298861      -280.2463
  53   2.0000     -10.296525      -280.1827
  54   2.0000     -10.296141      -280.1722
  55   2.0000     -10.294730      -280.1338
  56   2.0000     -10.293340      -280.0960
  57   2.0000     -10.290497      -280.0186
  58   2.0000     -10.280627      -279.7501
  59   2.0000     -10.272936      -279.5408
  60   2.0000     -10.271741      -279.5083
  61   2.0000     -10.268755      -279.4270
  62   2.0000     -10.264821      -279.3200
  63   2.0000     -10.264765      -279.3185
  64   2.0000     -10.263601      -279.2868
  65   2.0000     -10.256926      -279.1051
  66   2.0000     -10.249939      -278.9150
  67   2.0000     -10.245793      -278.8022
  68   2.0000     -10.241332      -278.6808
  69   2.0000      -9.574847      -260.5448
  70   2.0000      -9.574156      -260.5260
  71   2.0000      -8.092066      -220.1963
  72   2.0000      -8.091481      -220.1804
  73   2.0000      -8.071754      -219.6436
  74   2.0000      -8.044419      -218.8998
  75   2.0000      -8.041883      -218.8308
  76   2.0000      -7.345477      -199.8806
  77   2.0000      -7.344798      -199.8621
  78   2.0000      -7.334902      -199.5928
  79   2.0000      -7.334343      -199.5776
  80   2.0000      -7.334186      -199.5734
  81   2.0000      -7.333649      -199.5587
  82   2.0000      -6.061452      -164.9405
  83   2.0000      -6.060873      -164.9247
  84   2.0000      -6.056822      -164.8145
  85   2.0000      -6.056242      -164.7987
  86   2.0000      -6.054314      -164.7463
  87   2.0000      -6.053707      -164.7297
  88   2.0000      -6.040855      -164.3800
  89   2.0000      -6.036445      -164.2600
  90   2.0000      -6.034399      -164.2043
  91   2.0000      -6.013882      -163.6461
  92   2.0000      -6.011465      -163.5803
  93   2.0000      -6.009921      -163.5383
  94   2.0000      -6.007416      -163.4701
  95   2.0000      -6.005963      -163.4306
  96   2.0000      -6.003313      -163.3584
  97   2.0000      -1.322752       -35.9939
  98   2.0000      -1.230596       -33.4862
  99   2.0000      -1.142889       -31.0996
 100   2.0000      -1.140325       -31.0298
 101   2.0000      -1.138555       -30.9817
 102   2.0000      -1.132943       -30.8289
 103   2.0000      -1.041234       -28.3334
 104   2.0000      -1.041044       -28.3282
 105   2.0000      -1.025048       -27.8930
 106   2.0000      -1.019598       -27.7447
 107   2.0000      -1.007075       -27.4039
 108   2.0000      -1.005650       -27.3651
 109   2.0000      -1.000590       -27.2274
 110   2.0000      -0.995684       -27.0939
 111   2.0000      -0.993759       -27.0415
 112   2.0000      -0.991595       -26.9827
 113   2.0000      -0.989222       -26.9181
 114   2.0000      -0.965839       -26.2818
 115   2.0000      -0.958267       -26.0758
 116   2.0000      -0.957737       -26.0614
 117   2.0000      -0.928784       -25.2735
 118   2.0000      -0.928266       -25.2594
 119   2.0000      -0.920917       -25.0594
 120   2.0000      -0.909760       -24.7558
 121   2.0000      -0.907315       -24.6893
 122   2.0000      -0.902991       -24.5716
 123   2.0000      -0.884150       -24.0590
 124   2.0000      -0.880926       -23.9712
 125   2.0000      -0.873906       -23.7802
 126   2.0000      -0.860261       -23.4089
 127   2.0000      -0.849987       -23.1293
 128   2.0000      -0.843413       -22.9504
 129   2.0000      -0.835939       -22.7471
 130   2.0000      -0.835420       -22.7329
 131   2.0000      -0.831380       -22.6230
 132   2.0000      -0.828856       -22.5543
 133   2.0000      -0.812713       -22.1150
 134   2.0000      -0.798551       -21.7297
 135   2.0000      -0.796981       -21.6869
 136   2.0000      -0.790581       -21.5128
 137   2.0000      -0.772733       -21.0271
 138   2.0000      -0.765823       -20.8391
 139   2.0000      -0.762872       -20.7588
 140   2.0000      -0.757317       -20.6077
 141   2.0000      -0.740486       -20.1497
 142   2.0000      -0.735419       -20.0118
 143   2.0000      -0.712057       -19.3760
 144   2.0000      -0.706418       -19.2226
 145   2.0000      -0.703323       -19.1384
 146   2.0000      -0.698848       -19.0166
 147   2.0000      -0.691944       -18.8288
 148   2.0000      -0.686545       -18.6818
 149   2.0000      -0.684384       -18.6230
 150   2.0000      -0.680530       -18.5182
 151   2.0000      -0.679492       -18.4899
 152   2.0000      -0.677286       -18.4299
 153   2.0000      -0.672813       -18.3082
 154   2.0000      -0.663420       -18.0526
 155   2.0000      -0.651302       -17.7228
 156   2.0000      -0.640842       -17.4382
 157   2.0000      -0.634718       -17.2716
 158   2.0000      -0.633199       -17.2302
 159   2.0000      -0.631524       -17.1846
 160   2.0000      -0.625424       -17.0187
 161   2.0000      -0.623234       -16.9591
 162   2.0000      -0.621480       -16.9113
 163   2.0000      -0.616353       -16.7718
 164   2.0000      -0.612111       -16.6564
 165   2.0000      -0.606339       -16.4993
 166   2.0000      -0.602303       -16.3895
 167   2.0000      -0.596214       -16.2238
 168   2.0000      -0.591462       -16.0945
 169   2.0000      -0.585753       -15.9391
 170   2.0000      -0.584211       -15.8972
 171   2.0000      -0.576375       -15.6840
 172   2.0000      -0.571485       -15.5509
 173   2.0000      -0.567991       -15.4558
 174   2.0000      -0.565886       -15.3985
 175   2.0000      -0.559137       -15.2149
 176   2.0000      -0.553776       -15.0690
 177   2.0000      -0.551214       -14.9993
 178   2.0000      -0.542782       -14.7698
 179   2.0000      -0.537335       -14.6216
 180   2.0000      -0.536735       -14.6053
 181   2.0000      -0.534249       -14.5376
 182   2.0000      -0.533885       -14.5278
 183   2.0000      -0.530402       -14.4330
 184   2.0000      -0.529335       -14.4040
 185   2.0000      -0.527387       -14.3509
 186   2.0000      -0.525274       -14.2934
 187   2.0000      -0.521267       -14.1844
 188   2.0000      -0.517172       -14.0730
 189   2.0000      -0.514763       -14.0074
 190   2.0000      -0.511206       -13.9106
 191   2.0000      -0.509735       -13.8706
 192   2.0000      -0.508077       -13.8255
 193   2.0000      -0.505396       -13.7525
 194   2.0000      -0.502385       -13.6706
 195   2.0000      -0.498455       -13.5637
 196   2.0000      -0.496259       -13.5039
 197   2.0000      -0.494052       -13.4438
 198   2.0000      -0.492153       -13.3922
 199   2.0000      -0.491242       -13.3674
 200   2.0000      -0.489512       -13.3203
 201   2.0000      -0.488617       -13.2959
 202   2.0000      -0.486443       -13.2368
 203   2.0000      -0.485257       -13.2045
 204   2.0000      -0.481464       -13.1013
 205   2.0000      -0.480206       -13.0671
 206   2.0000      -0.478956       -13.0331
 207   2.0000      -0.469709       -12.7814
 208   2.0000      -0.465631       -12.6705
 209   2.0000      -0.462797       -12.5933
 210   2.0000      -0.461471       -12.5573
 211   2.0000      -0.458610       -12.4794
 212   2.0000      -0.457391       -12.4462
 213   2.0000      -0.454703       -12.3731
 214   2.0000      -0.454407       -12.3650
 215   2.0000      -0.453138       -12.3305
 216   2.0000      -0.452731       -12.3194
 217   2.0000      -0.450090       -12.2476
 218   2.0000      -0.448825       -12.2131
 219   2.0000      -0.447927       -12.1887
 220   2.0000      -0.447423       -12.1750
 221   2.0000      -0.444840       -12.1047
 222   2.0000      -0.440540       -11.9877
 223   2.0000      -0.439932       -11.9712
 224   2.0000      -0.438581       -11.9344
 225   2.0000      -0.435348       -11.8464
 226   2.0000      -0.434570       -11.8252
 227   2.0000      -0.433314       -11.7911
 228   2.0000      -0.432718       -11.7749
 229   2.0000      -0.425883       -11.5889
 230   2.0000      -0.422976       -11.5098
 231   2.0000      -0.421637       -11.4733
 232   2.0000      -0.418352       -11.3839
 233   2.0000      -0.417919       -11.3722
 234   2.0000      -0.414505       -11.2792
 235   2.0000      -0.411856       -11.2072
 236   2.0000      -0.406985       -11.0746
 237   2.0000      -0.406128       -11.0513
 238   2.0000      -0.405630       -11.0378
 239   2.0000      -0.405208       -11.0263
 240   2.0000      -0.395221       -10.7545
 241   2.0000      -0.388323       -10.5668
 242   2.0000      -0.384493       -10.4626
 243   2.0000      -0.383547       -10.4368
 244   2.0000      -0.380064       -10.3421
 245   2.0000      -0.379461       -10.3257
 246   2.0000      -0.376654       -10.2493
 247   2.0000      -0.368297       -10.0219
 248   2.0000      -0.358025        -9.7424
 249   2.0000      -0.354100        -9.6356
 250   2.0000      -0.353146        -9.6096
 251   2.0000      -0.346518        -9.4292
 252   2.0000      -0.340103        -9.2547
 253   2.0000      -0.339412        -9.2359
 254   2.0000      -0.338323        -9.2062
 255   2.0000      -0.334188        -9.0937
 256   2.0000      -0.326199        -8.8763
 257   2.0000      -0.320642        -8.7251
 258   2.0000      -0.320055        -8.7091
 259   2.0000      -0.311178        -8.4676
 260   2.0000      -0.303999        -8.2722
 261   2.0000      -0.291113        -7.9216
 262   2.0000      -0.264030        -7.1846
 263   2.0000      -0.244503        -6.6533
 264   0.0000      -0.098942        -2.6923
 265   0.0000      -0.096664        -2.6304
 266   0.0000      -0.060888        -1.6569
 267   0.0000      -0.052300        -1.4231
 268   0.0000      -0.051331        -1.3968

MULLIKEN ATOMIC CHARGES
-----------------------
   0 C :    0.033631
   1 C :   -0.128446
   2 S :    0.189417
   3 C :   -0.171208
   4 Cl:    0.000800
   5 C :    0.072044
   6 C :    0.146518
   7 O :   -0.130629
   8 C :   -0.090121
   9 C :    0.282909
  10 C :   -0.320852
  11 C :   -0.193345
  12 N :    0.154723
  13 C :   -0.197458
  14 N :    0.168771
  15 C :   -0.029490
  16 C :    0.063970
  17 C :   -0.054208
  18 C :    0.124592
  19 N :    0.248174
  20 O :   -0.234143
  21 O :   -0.235244
  22 C :    0.098398
  23 C :   -0.060893
  24 C :    0.106005
  25 C :   -0.021831
  26 C :    0.067596
  27 C :   -0.059179
  28 S :    0.123384
  29 C :   -0.059991
  30 C :    0.100744
  31 C :   -0.106852
  32 C :    0.050142
  33 C :    0.032584
  34 C :   -0.103640
  35 C :    0.030642
  36 C :    0.043519
  37 C :   -0.122191
  38 C :   -0.115718
  39 S :    0.109762
  40 C :    0.085126
  41 C :   -0.030367
  42 C :   -0.066063
  43 C :    0.152620
  44 C :   -0.156063
  45 S :    0.152280
  46 C :   -0.091831
  47 C :    0.002460
  48 C :    0.194903
  49 O :   -0.172329
  50 O :   -0.239443
  51 C :    0.165750
  52 C :    0.003257
  53 C :    0.027931
  54 C :   -0.133185
  55 C :    0.124623
  56 O :   -0.132191
  57 C :    0.099135
  58 C :   -0.171851
  59 S :    0.188487
  60 C :   -0.128467
  61 C :    0.003480
  62 C :    0.289824
  63 C :   -0.335659
  64 C :   -0.177174
  65 N :    0.152820
  66 C :   -0.169336
  67 N :    0.157126
  68 Cl:    0.001173
  69 H :    0.054789
  70 H :    0.035573
  71 H :    0.011306
  72 H :   -0.010437
  73 H :   -0.005809
  74 H :    0.007082
  75 H :   -0.012264
  76 H :   -0.010387
  77 H :    0.005065
  78 H :    0.000925
  79 H :    0.014665
  80 H :    0.012439
  81 H :    0.016202
  82 H :    0.009487
  83 H :    0.012051
  84 H :    0.012739
  85 H :    0.011467
  86 H :    0.000685
  87 H :   -0.019070
  88 H :    0.036406
  89 H :    0.036927
  90 H :    0.053000
  91 H :    0.023086
  92 H :    0.037803
  93 H :    0.056345
Sum of atomic charges:   -0.0000000

LOEWDIN ATOMIC CHARGES
----------------------
   0 C :   -0.059834
   1 C :   -0.148326
   2 S :    0.477976
   3 C :   -0.272301
   4 Cl:    0.192518
   5 C :   -0.117340
   6 C :    0.080567
   7 O :   -0.126645
   8 C :   -0.087371
   9 C :    0.073916
  10 C :   -0.133437
  11 C :   -0.014963
  12 N :   -0.049423
  13 C :   -0.027290
  14 N :   -0.040486
  15 C :    0.081849
  16 C :   -0.048382
  17 C :    0.029621
  18 C :   -0.038086
  19 N :    0.286079
  20 O :   -0.201936
  21 O :   -0.197128
  22 C :    0.020531
  23 C :   -0.014037
  24 C :    0.044409
  25 C :   -0.028956
  26 C :   -0.008365
  27 C :   -0.166135
  28 S :    0.402432
  29 C :   -0.035042
  30 C :   -0.043575
  31 C :   -0.020707
  32 C :   -0.029002
  33 C :   -0.048360
  34 C :   -0.014931
  35 C :   -0.029527
  36 C :   -0.047633
  37 C :   -0.176258
  38 C :   -0.179723
  39 S :    0.397873
  40 C :   -0.039711
  41 C :   -0.036004
  42 C :   -0.156714
  43 C :   -0.051688
  44 C :   -0.190481
  45 S :    0.477608
  46 C :   -0.149831
  47 C :   -0.103691
  48 C :    0.116961
  49 O :   -0.138622
  50 O :   -0.033452
  51 C :    0.120704
  52 C :   -0.080849
  53 C :    0.077769
  54 C :   -0.098753
  55 C :    0.081134
  56 O :   -0.134115
  57 C :   -0.118372
  58 C :   -0.272548
  59 S :    0.477163
  60 C :   -0.150407
  61 C :   -0.058567
  62 C :    0.071104
  63 C :   -0.141960
  64 C :   -0.009755
  65 N :   -0.050083
  66 C :   -0.007861
  67 N :   -0.046227
  68 Cl:    0.192980
  69 H :    0.038154
  70 H :    0.048929
  71 H :    0.043234
  72 H :    0.034555
  73 H :    0.036137
  74 H :    0.028030
  75 H :    0.027492
  76 H :    0.031079
  77 H :    0.027313
  78 H :    0.025059
  79 H :    0.025702
  80 H :    0.023582
  81 H :    0.024482
  82 H :    0.025013
  83 H :    0.027088
  84 H :    0.023727
  85 H :    0.021643
  86 H :    0.020273
  87 H :    0.027049
  88 H :    0.023516
  89 H :    0.030090
  90 H :    0.028337
  91 H :    0.043727
  92 H :    0.049951
  93 H :    0.037541

  Mayer bond orders larger than 0.100000
B(  0-C ,  1-C ) :   1.5425 B(  0-C ,  5-C ) :   1.2191 B(  0-C ,  9-C ) :   1.0016
B(  1-C ,  2-S ) :   1.1633 B(  1-C , 69-H ) :   0.9551 B(  2-S ,  3-C ) :   1.1525
B(  3-C ,  4-Cl) :   1.1288 B(  3-C ,  5-C ) :   1.4780 B(  5-C ,  6-C ) :   0.9531
B(  6-C ,  7-O ) :   2.2380 B(  6-C ,  8-C ) :   0.9250 B(  8-C ,  9-C ) :   1.0514
B(  8-C , 15-C ) :   1.6596 B(  9-C , 10-C ) :   1.6681 B( 10-C , 11-C ) :   1.1434
B( 10-C , 13-C ) :   1.1325 B( 11-C , 12-N ) :   2.9920 B( 13-C , 14-N ) :   2.9915
B( 15-C , 16-C ) :   1.0774 B( 15-C , 70-H ) :   0.9529 B( 16-C , 17-C ) :   1.2821
B( 16-C , 24-C ) :   1.3050 B( 17-C , 18-C ) :   1.3748 B( 17-C , 71-H ) :   0.9971
B( 18-C , 19-N ) :   0.8867 B( 18-C , 22-C ) :   1.3196 B( 19-N , 20-O ) :   1.5558
B( 19-N , 21-O ) :   1.5147 B( 20-O , 21-O ) :   0.2614 B( 22-C , 23-C ) :   1.3052
B( 22-C , 25-C ) :   1.1080 B( 23-C , 24-C ) :   1.4457 B( 23-C , 72-H ) :   0.9896
B( 24-C , 73-H ) :   0.9802 B( 25-C , 26-C ) :   1.7105 B( 25-C , 74-H ) :   0.9498
B( 26-C , 27-C ) :   1.1083 B( 26-C , 75-H ) :   0.9587 B( 27-C , 28-S ) :   1.0639
B( 27-C , 29-C ) :   1.5541 B( 28-S , 37-C ) :   1.0699 B( 29-C , 30-C ) :   1.2041
B( 29-C , 76-H ) :   0.9827 B( 30-C , 31-C ) :   1.2223 B( 30-C , 37-C ) :   1.3598
B( 31-C , 32-C ) :   1.0743 B( 31-C , 34-C ) :   1.5468 B( 32-C , 33-C ) :   1.1094
B( 32-C , 77-H ) :   0.9171 B( 32-C , 78-H ) :   0.9156 B( 33-C , 79-H ) :   0.9640
B( 33-C , 80-H ) :   0.9669 B( 33-C , 81-H ) :   0.9675 B( 34-C , 35-C ) :   1.0661
B( 34-C , 40-C ) :   1.2261 B( 35-C , 36-C ) :   1.1127 B( 35-C , 82-H ) :   0.9155
B( 35-C , 83-H ) :   0.9144 B( 36-C , 84-H ) :   0.9652 B( 36-C , 85-H ) :   0.9651
B( 36-C , 86-H ) :   0.9606 B( 37-C , 38-C ) :   1.3701 B( 38-C , 39-S ) :   1.0567
B( 38-C , 40-C ) :   1.3751 B( 39-S , 42-C ) :   1.0722 B( 40-C , 41-C ) :   1.1943
B( 41-C , 42-C ) :   1.6040 B( 41-C , 87-H ) :   0.9721 B( 42-C , 43-C ) :   1.0496
B( 43-C , 44-C ) :   1.5537 B( 43-C , 47-C ) :   1.2639 B( 44-C , 45-S ) :   1.1569
B( 44-C , 88-H ) :   0.9600 B( 45-S , 46-C ) :   1.2211 B( 46-C , 47-C ) :   1.5210
B( 46-C , 89-H ) :   0.9678 B( 47-C , 48-C ) :   0.9444 B( 48-C , 49-O ) :   2.1370
B( 48-C , 50-O ) :   1.0802 B( 50-O , 51-C ) :   1.0786 B( 51-C , 52-C ) :   1.6633
B( 51-C , 90-H ) :   0.9656 B( 52-C , 53-C ) :   1.1491 B( 52-C , 91-H ) :   0.9526
B( 53-C , 54-C ) :   1.6950 B( 53-C , 92-H ) :   0.9228 B( 54-C , 55-C ) :   0.9410
B( 54-C , 62-C ) :   1.0296 B( 55-C , 56-O ) :   2.2667 B( 55-C , 57-C ) :   0.9293
B( 57-C , 58-C ) :   1.4817 B( 57-C , 61-C ) :   1.2216 B( 58-C , 59-S ) :   1.1494
B( 58-C , 68-Cl) :   1.1302 B( 59-S , 60-C ) :   1.1639 B( 60-C , 61-C ) :   1.5466
B( 60-C , 93-H ) :   0.9547 B( 61-C , 62-C ) :   1.0098 B( 62-C , 63-C ) :   1.6376
B( 63-C , 64-C ) :   1.1472 B( 63-C , 66-C ) :   1.1875 B( 64-C , 65-N ) :   2.9468
B( 66-C , 67-N ) :   2.8726

-----------------------------------------------------------------------------
         ABSORPTION SPECTRUM VIA TRANSITION ELECTRIC DIPOLE MOMENTS
-----------------------------------------------------------------------------
State   Energy  Wavelength   fosc         T2         TX        TY        TZ
        (cm-1)    (nm)                  (au**2)     (au)      (au)      (au)
-----------------------------------------------------------------------------
   0   19081.0    524.1   1.268350491  21.88336   3.13516  -3.01863  -1.71524
   1   19959.4    501.0   0.004977788   0.08210   0.21156  -0.14579  -0.12686
   2   23540.9    424.8   0.002288920   0.03201  -0.11631   0.07930  -0.11043
   3   24942.8    400.9   0.003543588   0.04677   0.09568   0.10263   0.16457
   4   25131.6    397.9   0.099308401   1.30089   0.49015  -0.43731  -0.93242
   5   25478.8    392.5   0.297378977   3.84244   0.32910   0.09221   1.93019
   6   26773.9    373.5   0.076272079   0.93784  -0.58809   0.70429   0.30978
   7   29219.4    342.2   0.005204355   0.05864   0.22408  -0.03475  -0.08497
   8   29455.4    339.5   0.009460094   0.10573  -0.07125   0.26131   0.17993
   9   29475.6    339.3   0.057924516   0.64696  -0.14314   0.76088  -0.21800
  10   30224.2    330.9   0.032458620   0.35355  -0.03718  -0.37346   0.46119
  11   30347.1    329.5   0.187733109   2.03657   0.67118  -1.01137  -0.75048
  12   30735.1    325.4   0.256947202   2.75223  -1.45670   0.76208  -0.22248
  13   31270.6    319.8   0.356781962   3.75614  -0.63405   1.13828   1.43473
  14   31312.7    319.4   0.195180777   2.05207   0.87329  -0.98370  -0.56725
  15   31716.6    315.3   0.011408476   0.11842  -0.20999   0.23125   0.14438
  16   33221.1    301.0   0.011450188   0.11347   0.16140   0.29551  -0.00945
  17   33432.2    299.1   0.048022597   0.47289  -0.56662  -0.18533  -0.34276
  18   33598.8    297.6   0.003872165   0.03794  -0.07844   0.16972  -0.05461
  19   34050.4    293.7   0.033745144   0.32626  -0.38733   0.20799   0.36467
  20   34328.7    291.3   0.004477122   0.04294  -0.08513   0.09074   0.16570
  21   34477.0    290.0   0.021791909   0.20809   0.19082  -0.40746  -0.07516
  22   35016.9    285.6   0.035082510   0.32983   0.18417   0.17710   0.51434
  23   35188.7    284.2   0.049152356   0.45985   0.47684  -0.42025   0.23637
  24   35515.4    281.6   0.070267559   0.65135   0.02927  -0.69125   0.41553
  25   35545.1    281.3   0.014015411   0.12981   0.30720  -0.15879   0.10111
  26   36135.7    276.7   0.051907646   0.47290  -0.10952   0.57214   0.36545
  27   36247.9    275.9   0.312050429   2.83412   0.65382  -1.27625   0.88194
  28   36457.4    274.3   0.525498653   4.74527   0.77574  -0.98009   1.78407
  29   36780.0    271.9   0.239805462   2.14646  -0.60299   1.25861  -0.44582
  30   36937.2    270.7   0.017430484   0.15535   0.36559   0.03549   0.14297
  31   37288.3    268.2   0.076513746   0.67553   0.80429  -0.16669  -0.02936
  32   37580.9    266.1   0.060427499   0.52935   0.55365  -0.41450   0.22585
  33   37914.9    263.7   0.765434983   6.64621  -1.65454  -0.77370  -1.81936
  34   38018.8    263.0   0.014492551   0.12549   0.31374  -0.15906   0.04200
  35   38577.0    259.2   0.379105794   3.23524  -0.52970   1.58026  -0.67633
  36   38661.2    258.7   0.022138658   0.18852  -0.03866   0.41249  -0.12989
  37   38993.6    256.5   0.053548406   0.45209   0.27595   0.50193   0.35215
  38   39517.3    253.1   0.000832404   0.00693   0.00179  -0.07161   0.04247
  39   39864.3    250.9   0.128718054   1.06299   0.55144  -0.55667  -0.67009

FINAL SINGLE POINT ENERGY     -5590.489520347064

DIPOLE MOMENT
-------------
                                X             Y             Z
Electronic contribution:    -35.48433      -3.63139      -8.45987
Nuclear contribution   :     35.45494       1.44748       5.55432
                        -----------------------------------------
Total Dipole Moment    :     -0.02939      -2.18391      -2.90555
                        -----------------------------------------
Magnitude (a.u.)       :      3.63490
Magnitude (Debye)      :      9.23919

Rotational constants in cm-1:     0.001790     0.000209     0.000194
Rotational constants in MHz :    53.677204     6.259118     5.803662

                             ****ORCA TERMINATED NORMALLY****
TOTAL RUN TIME: 0 days 0 hours 8 minutes 42 seconds 762 msec
