                         Program Version 4.2.0 -  RELEASE  -
|  1> # ORCA input file
|  2> # SCF done       -210.672858032981          0.000995550479
|  3> ! CAM-B3LYP def2-SVP def2/J RIJCOSX Grid4 TightSCF
|  4> %maxcore 5000
|  5> %tddft
|  6>     Mode sTDDFT
|  7>     Ethresh 5.0
|  8>     maxcore 5000
|  9> end
| 10>
| 11> %pal
| 12>   nprocs 6
| 13>   end
| 14> * xyz 0 1
| 15>    C       -0.66314        -0.39436        -1.50080
| 16>    C       -1.81459         0.04600        -2.07663
| 17>    S       -1.96242        -0.53109        -3.69578
| 18>    C       -0.44366        -1.39037        -3.59921
| 19>   Cl        0.15911        -2.27289        -4.91094
| 20>    C        0.12362        -1.21633        -2.37155
| 21>    C        1.33576        -1.65987        -1.68322
| 22>    O        2.16358        -2.45349        -2.07004
| 23>    C        1.26053        -1.01759        -0.33138
| 24>    C        0.02261        -0.25807        -0.23245
| 25>    C       -0.41181         0.50569         0.81636
| 26>    C       -1.63833         1.20178         0.75745
| 27>    N       -2.63641         1.76617         0.72809
| 28>    C        0.27916         0.70087         2.02938
| 29>    N        0.79944         0.91011         3.03097
| 30>    C        2.14152        -1.25337         0.67782
| 31>    C        3.41714        -1.85680         0.50927
| 32>    S        4.11753        -2.86504         1.73338
| 33>    C        5.53385        -3.20449         0.77129
| 34>    C        5.47095        -2.47388        -0.41330
| 35>    C        4.29961        -1.72122        -0.55191
| 36>    O        4.10669        -0.86097        -1.58671
| 37>    C        4.99940        -0.81841        -2.59682
| 38>    O        4.82673        -0.08591        -3.52504
| 39>    C        6.25178        -1.69969        -2.49600
| 40>    O        7.07644        -1.72884        -3.36053
| 41>    O        6.44252        -2.42897        -1.37003
| 42>    C        6.50323        -4.08870         1.32989
| 43>    N        7.56931        -4.71891         0.72930
| 44>    C        7.87414        -4.85339        -0.67757
| 45>    C        6.79216        -5.62903        -1.42152
| 46>    C        8.32166        -5.46158         1.66449
| 47>    O        9.31127        -6.10399         1.36499
| 48>    C        7.65287        -5.25958         2.92396
| 49>    C        6.52574        -4.43579         2.67643
| 50>    C        5.85178        -4.21329         3.93221
| 51>    O        4.83524        -3.60426         4.20366
| 52>    N        6.63886        -4.89655         4.87565
| 53>    C        6.25768        -4.95519         6.26790
| 54>    C        5.60822        -6.28868         6.62614
| 55>    C        7.70135        -5.53185         4.28775
| 56>    C        8.66994        -6.29683         5.01162
| 57>    C        9.65407        -6.94519         4.37678
| 58>    C       10.74661        -7.73186         5.01513
| 59>    C       10.74345        -7.79417         6.54200
| 60>    O        9.79845        -7.90128         7.26519
| 61>    O       12.00343        -7.71151         6.99524
| 62>    C       12.94284        -7.67246         5.92527
| 63>    C       12.13943        -7.14068         4.72839
| 64>    C       12.73161        -7.44665         3.36024
| 65>    C       13.11028        -8.91178         3.19430
| 66>    C       14.00209        -9.44078         4.31118
| 67>    C       13.53503        -9.08850         5.73513
| 68>    O       14.69871        -9.21998         6.53865
| 69>    C       15.82611        -9.16301         5.81345
| 70>    O       16.91500        -9.21618         6.28989
| 71>    C       15.48028        -9.00331         4.32070
| 72>    C       15.77711        -7.59706         3.93265
| 73>    C       16.44891        -7.26490         2.81788
| 74>    C       16.77086        -5.91039         2.51730
| 75>    C       17.51121        -5.38293         1.51057
| 76>    C       17.44404        -3.89230         1.33301
| 77>    O       16.93525        -3.11138         2.10083
| 78>    C       18.07219        -3.64035         0.03682
| 79>    C       18.29893        -2.56847        -0.77459
| 80>    S       19.12336        -3.07003        -2.23076
| 81>    C       19.15656        -4.71795        -1.72118
| 82>    C       18.56600        -4.87197        -0.50485
| 83>    C       18.32081        -5.94947         0.44060
| 84>    C       18.90455        -7.18251         0.33231
| 85>    C       19.69449        -7.51876        -0.79090
| 86>    N       20.32760        -7.82644        -1.69640
| 87>    C       18.88704        -8.23627         1.26749
| 88>    N       18.94459        -9.14250         1.96957
| 89>   Cl       17.88542        -0.94862        -0.50598
| 90>    H       -2.58740         0.66486        -1.66581
| 91>    H        1.87198        -1.00543         1.69645
| 92>    H        8.81639        -5.40777        -0.71367
| 93>    H        8.03006        -3.87428        -1.12885
| 94>    H        6.68048        -6.62417        -0.99661
| 95>    H        7.07150        -5.72488        -2.46661
| 96>    H        5.83249        -5.12099        -1.36652
| 97>    H        5.54056        -4.14318         6.41626
| 98>    H        7.13493        -4.77296         6.89397
| 99>    H        4.73054        -6.45472         6.00613
|100>    H        5.30012        -6.27411         7.66748
|101>    H        6.30214        -7.11316         6.48116
|102>    H        8.57847        -6.34473         6.08565
|103>    H        9.71476        -6.89740         3.29692
|104>    H       10.69379        -8.76391         4.64546
|105>    H       13.74350        -6.99656         6.23856
|106>    H       12.05774        -6.05257         4.83563
|107>    H       13.61419        -6.82349         3.21301
|108>    H       12.00571        -7.17046         2.59364
|109>    H       13.62315        -9.04584         2.24103
|110>    H       12.20531        -9.52221         3.16187
|111>    H       14.01209       -10.53475         4.24225
|112>    H       12.80402        -9.81054         6.11529
|113>    H       16.09912        -9.67436         3.72184
|114>    H       15.49421        -6.82282         4.63454
|115>    H       16.74127        -8.03719         2.12512
|116>    H       16.32780        -5.16252         3.16995
|117>    H       19.60465        -5.45164        -2.36117
|118> *
|119>
|120>                          ****END OF INPUT****

CARTESIAN COORDINATES (ANGSTROEM)
---------------------------------
  C     -0.663140   -0.394360   -1.500800
  C     -1.814590    0.046000   -2.076630
  S     -1.962420   -0.531090   -3.695780
  C     -0.443660   -1.390370   -3.599210
  Cl     0.159110   -2.272890   -4.910940
  C      0.123620   -1.216330   -2.371550
  C      1.335760   -1.659870   -1.683220
  O      2.163580   -2.453490   -2.070040
  C      1.260530   -1.017590   -0.331380
  C      0.022610   -0.258070   -0.232450
  C     -0.411810    0.505690    0.816360
  C     -1.638330    1.201780    0.757450
  N     -2.636410    1.766170    0.728090
  C      0.279160    0.700870    2.029380
  N      0.799440    0.910110    3.030970
  C      2.141520   -1.253370    0.677820
  C      3.417140   -1.856800    0.509270
  S      4.117530   -2.865040    1.733380
  C      5.533850   -3.204490    0.771290
  C      5.470950   -2.473880   -0.413300
  C      4.299610   -1.721220   -0.551910
  O      4.106690   -0.860970   -1.586710
  C      4.999400   -0.818410   -2.596820
  O      4.826730   -0.085910   -3.525040
  C      6.251780   -1.699690   -2.496000
  O      7.076440   -1.728840   -3.360530
  O      6.442520   -2.428970   -1.370030
  C      6.503230   -4.088700    1.329890
  N      7.569310   -4.718910    0.729300
  C      7.874140   -4.853390   -0.677570
  C      6.792160   -5.629030   -1.421520
  C      8.321660   -5.461580    1.664490
  O      9.311270   -6.103990    1.364990
  C      7.652870   -5.259580    2.923960
  C      6.525740   -4.435790    2.676430
  C      5.851780   -4.213290    3.932210
  O      4.835240   -3.604260    4.203660
  N      6.638860   -4.896550    4.875650
  C      6.257680   -4.955190    6.267900
  C      5.608220   -6.288680    6.626140
  C      7.701350   -5.531850    4.287750
  C      8.669940   -6.296830    5.011620
  C      9.654070   -6.945190    4.376780
  C     10.746610   -7.731860    5.015130
  C     10.743450   -7.794170    6.542000
  O      9.798450   -7.901280    7.265190
  O     12.003430   -7.711510    6.995240
  C     12.942840   -7.672460    5.925270
  C     12.139430   -7.140680    4.728390
  C     12.731610   -7.446650    3.360240
  C     13.110280   -8.911780    3.194300
  C     14.002090   -9.440780    4.311180
  C     13.535030   -9.088500    5.735130
  O     14.698710   -9.219980    6.538650
  C     15.826110   -9.163010    5.813450
  O     16.915000   -9.216180    6.289890
  C     15.480280   -9.003310    4.320700
  C     15.777110   -7.597060    3.932650
  C     16.448910   -7.264900    2.817880
  C     16.770860   -5.910390    2.517300
  C     17.511210   -5.382930    1.510570
  C     17.444040   -3.892300    1.333010
  O     16.935250   -3.111380    2.100830
  C     18.072190   -3.640350    0.036820
  C     18.298930   -2.568470   -0.774590
  S     19.123360   -3.070030   -2.230760
  C     19.156560   -4.717950   -1.721180
  C     18.566000   -4.871970   -0.504850
  C     18.320810   -5.949470    0.440600
  C     18.904550   -7.182510    0.332310
  C     19.694490   -7.518760   -0.790900
  N     20.327600   -7.826440   -1.696400
  C     18.887040   -8.236270    1.267490
  N     18.944590   -9.142500    1.969570
  Cl    17.885420   -0.948620   -0.505980
  H     -2.587400    0.664860   -1.665810
  H      1.871980   -1.005430    1.696450
  H      8.816390   -5.407770   -0.713670
  H      8.030060   -3.874280   -1.128850
  H      6.680480   -6.624170   -0.996610
  H      7.071500   -5.724880   -2.466610
  H      5.832490   -5.120990   -1.366520
  H      5.540560   -4.143180    6.416260
  H      7.134930   -4.772960    6.893970
  H      4.730540   -6.454720    6.006130
  H      5.300120   -6.274110    7.667480
  H      6.302140   -7.113160    6.481160
  H      8.578470   -6.344730    6.085650
  H      9.714760   -6.897400    3.296920
  H     10.693790   -8.763910    4.645460
  H     13.743500   -6.996560    6.238560
  H     12.057740   -6.052570    4.835630
  H     13.614190   -6.823490    3.213010
  H     12.005710   -7.170460    2.593640
  H     13.623150   -9.045840    2.241030
  H     12.205310   -9.522210    3.161870
  H     14.012090  -10.534750    4.242250
  H     12.804020   -9.810540    6.115290
  H     16.099120   -9.674360    3.721840
  H     15.494210   -6.822820    4.634540
  H     16.741270   -8.037190    2.125120
  H     16.327800   -5.162520    3.169950
  H     19.604650   -5.451640   -2.361170

 Total Charge           Charge          ....    0
 Multiplicity           Mult            ....    1
 Number of Electrons    NEL             ....  560
 Basis Dimension        Dim             .... 1210

ORBITAL ENERGIES
----------------

  NO   OCC          E(Eh)            E(eV)
   0   2.0000    -101.622261     -2765.2823
   1   2.0000    -101.620638     -2765.2381
   2   2.0000     -88.998947     -2421.7845
   3   2.0000     -88.997111     -2421.7345
   4   2.0000     -88.991137     -2421.5720
   5   2.0000     -19.327789      -525.9359
   6   2.0000     -19.323341      -525.8148
   7   2.0000     -19.278781      -524.6023
   8   2.0000     -19.275939      -524.5250
   9   2.0000     -19.254059      -523.9296
  10   2.0000     -19.249879      -523.8158
  11   2.0000     -19.227344      -523.2026
  12   2.0000     -19.225957      -523.1649
  13   2.0000     -19.220469      -523.0156
  14   2.0000     -19.212429      -522.7968
  15   2.0000     -19.209954      -522.7294
  16   2.0000     -19.204335      -522.5765
  17   2.0000     -14.470367      -393.7587
  18   2.0000     -14.469707      -393.7408
  19   2.0000     -14.428645      -392.6234
  20   2.0000     -14.427964      -392.6049
  21   2.0000     -14.425704      -392.5434
  22   2.0000     -14.424385      -392.5075
  23   2.0000     -10.455062      -284.4967
  24   2.0000     -10.452488      -284.4267
  25   2.0000     -10.416652      -283.4515
  26   2.0000     -10.410736      -283.2905
  27   2.0000     -10.391837      -282.7763
  28   2.0000     -10.387511      -282.6585
  29   2.0000     -10.385822      -282.6126
  30   2.0000     -10.383989      -282.5627
  31   2.0000     -10.383864      -282.5593
  32   2.0000     -10.381802      -282.5032
  33   2.0000     -10.381398      -282.4922
  34   2.0000     -10.379875      -282.4507
  35   2.0000     -10.364301      -282.0270
  36   2.0000     -10.360221      -281.9160
  37   2.0000     -10.359553      -281.8978
  38   2.0000     -10.359182      -281.8877
  39   2.0000     -10.358629      -281.8726
  40   2.0000     -10.357228      -281.8345
  41   2.0000     -10.354015      -281.7471
  42   2.0000     -10.353428      -281.7311
  43   2.0000     -10.353160      -281.7238
  44   2.0000     -10.336886      -281.2810
  45   2.0000     -10.336386      -281.2674
  46   2.0000     -10.334820      -281.2247
  47   2.0000     -10.333453      -281.1876
  48   2.0000     -10.330656      -281.1114
  49   2.0000     -10.329637      -281.0837
  50   2.0000     -10.328086      -281.0415
  51   2.0000     -10.327460      -281.0245
  52   2.0000     -10.326208      -280.9904
  53   2.0000     -10.325004      -280.9576
  54   2.0000     -10.319468      -280.8070
  55   2.0000     -10.317765      -280.7607
  56   2.0000     -10.317498      -280.7534
  57   2.0000     -10.316839      -280.7355
  58   2.0000     -10.316777      -280.7338
  59   2.0000     -10.314008      -280.6584
  60   2.0000     -10.313861      -280.6544
  61   2.0000     -10.313638      -280.6484
  62   2.0000     -10.312777      -280.6249
  63   2.0000     -10.308375      -280.5051
  64   2.0000     -10.306203      -280.4461
  65   2.0000     -10.306004      -280.4406
  66   2.0000     -10.305773      -280.4343
  67   2.0000     -10.303911      -280.3837
  68   2.0000     -10.298977      -280.2494
  69   2.0000     -10.297641      -280.2131
  70   2.0000     -10.292810      -280.0816
  71   2.0000     -10.280266      -279.7403
  72   2.0000     -10.273336      -279.5517
  73   2.0000     -10.269424      -279.4452
  74   2.0000     -10.268570      -279.4220
  75   2.0000      -9.577043      -260.6046
  76   2.0000      -9.575458      -260.5615
  77   2.0000      -8.094728      -220.2688
  78   2.0000      -8.092899      -220.2190
  79   2.0000      -8.085304      -220.0123
  80   2.0000      -7.347688      -199.9408
  81   2.0000      -7.346097      -199.8975
  82   2.0000      -7.337085      -199.6522
  83   2.0000      -7.336519      -199.6368
  84   2.0000      -7.335484      -199.6087
  85   2.0000      -7.334943      -199.5940
  86   2.0000      -6.064094      -165.0124
  87   2.0000      -6.062254      -164.9623
  88   2.0000      -6.059478      -164.8868
  89   2.0000      -6.057664      -164.8374
  90   2.0000      -6.056988      -164.8190
  91   2.0000      -6.055151      -164.7690
  92   2.0000      -6.054731      -164.7576
  93   2.0000      -6.050628      -164.6460
  94   2.0000      -6.046867      -164.5436
  95   2.0000      -1.270257       -34.5654
  96   2.0000      -1.235022       -33.6067
  97   2.0000      -1.218806       -33.1654
  98   2.0000      -1.210060       -32.9274
  99   2.0000      -1.172030       -31.8926
 100   2.0000      -1.150719       -31.3126
 101   2.0000      -1.146326       -31.1931
 102   2.0000      -1.143144       -31.1065
 103   2.0000      -1.142225       -31.0815
 104   2.0000      -1.141693       -31.0670
 105   2.0000      -1.128943       -30.7201
 106   2.0000      -1.121337       -30.5131
 107   2.0000      -1.080494       -29.4017
 108   2.0000      -1.071265       -29.1506
 109   2.0000      -1.044206       -28.4143
 110   2.0000      -1.042458       -28.3667
 111   2.0000      -1.025599       -27.9080
 112   2.0000      -1.023873       -27.8610
 113   2.0000      -1.021126       -27.7862
 114   2.0000      -1.006763       -27.3954
 115   2.0000      -1.003484       -27.3062
 116   2.0000      -0.994478       -27.0611
 117   2.0000      -0.992769       -27.0146
 118   2.0000      -0.974239       -26.5104
 119   2.0000      -0.961526       -26.1645
 120   2.0000      -0.959782       -26.1170
 121   2.0000      -0.950591       -25.8669
 122   2.0000      -0.942072       -25.6351
 123   2.0000      -0.929558       -25.2946
 124   2.0000      -0.924564       -25.1587
 125   2.0000      -0.914946       -24.8969
 126   2.0000      -0.908346       -24.7173
 127   2.0000      -0.903624       -24.5889
 128   2.0000      -0.890795       -24.2398
 129   2.0000      -0.881396       -23.9840
 130   2.0000      -0.876554       -23.8522
 131   2.0000      -0.866571       -23.5806
 132   2.0000      -0.865874       -23.5616
 133   2.0000      -0.853182       -23.2163
 134   2.0000      -0.839155       -22.8346
 135   2.0000      -0.836953       -22.7747
 136   2.0000      -0.830886       -22.6096
 137   2.0000      -0.827952       -22.5297
 138   2.0000      -0.823319       -22.4036
 139   2.0000      -0.811293       -22.0764
 140   2.0000      -0.799944       -21.7676
 141   2.0000      -0.790836       -21.5197
 142   2.0000      -0.783849       -21.3296
 143   2.0000      -0.770056       -20.9543
 144   2.0000      -0.762419       -20.7465
 145   2.0000      -0.760160       -20.6850
 146   2.0000      -0.755483       -20.5578
 147   2.0000      -0.746054       -20.3012
 148   2.0000      -0.737255       -20.0617
 149   2.0000      -0.733548       -19.9609
 150   2.0000      -0.722806       -19.6686
 151   2.0000      -0.717967       -19.5369
 152   2.0000      -0.706771       -19.2322
 153   2.0000      -0.701953       -19.1011
 154   2.0000      -0.697341       -18.9756
 155   2.0000      -0.687416       -18.7055
 156   2.0000      -0.684967       -18.6389
 157   2.0000      -0.683884       -18.6094
 158   2.0000      -0.681700       -18.5500
 159   2.0000      -0.680646       -18.5213
 160   2.0000      -0.672705       -18.3052
 161   2.0000      -0.662165       -18.0184
 162   2.0000      -0.657362       -17.8877
 163   2.0000      -0.655840       -17.8463
 164   2.0000      -0.649076       -17.6623
 165   2.0000      -0.642542       -17.4845
 166   2.0000      -0.630727       -17.1629
 167   2.0000      -0.629938       -17.1415
 168   2.0000      -0.626316       -17.0429
 169   2.0000      -0.622586       -16.9414
 170   2.0000      -0.621117       -16.9015
 171   2.0000      -0.614318       -16.7165
 172   2.0000      -0.613381       -16.6910
 173   2.0000      -0.606164       -16.4946
 174   2.0000      -0.601422       -16.3655
 175   2.0000      -0.593891       -16.1606
 176   2.0000      -0.591206       -16.0875
 177   2.0000      -0.589513       -16.0415
 178   2.0000      -0.581468       -15.8226
 179   2.0000      -0.574127       -15.6228
 180   2.0000      -0.573201       -15.5976
 181   2.0000      -0.568256       -15.4630
 182   2.0000      -0.567504       -15.4426
 183   2.0000      -0.566533       -15.4162
 184   2.0000      -0.563142       -15.3239
 185   2.0000      -0.562904       -15.3174
 186   2.0000      -0.558481       -15.1970
 187   2.0000      -0.558226       -15.1901
 188   2.0000      -0.557163       -15.1612
 189   2.0000      -0.555829       -15.1249
 190   2.0000      -0.554847       -15.0981
 191   2.0000      -0.550373       -14.9764
 192   2.0000      -0.548764       -14.9326
 193   2.0000      -0.545317       -14.8388
 194   2.0000      -0.540428       -14.7058
 195   2.0000      -0.540068       -14.6960
 196   2.0000      -0.538520       -14.6539
 197   2.0000      -0.535861       -14.5815
 198   2.0000      -0.534519       -14.5450
 199   2.0000      -0.532884       -14.5005
 200   2.0000      -0.529342       -14.4041
 201   2.0000      -0.528160       -14.3720
 202   2.0000      -0.527226       -14.3465
 203   2.0000      -0.523999       -14.2587
 204   2.0000      -0.521705       -14.1963
 205   2.0000      -0.520829       -14.1725
 206   2.0000      -0.517482       -14.0814
 207   2.0000      -0.513351       -13.9690
 208   2.0000      -0.511242       -13.9116
 209   2.0000      -0.509436       -13.8625
 210   2.0000      -0.507683       -13.8147
 211   2.0000      -0.505924       -13.7669
 212   2.0000      -0.501715       -13.6524
 213   2.0000      -0.501143       -13.6368
 214   2.0000      -0.499426       -13.5901
 215   2.0000      -0.494367       -13.4524
 216   2.0000      -0.492537       -13.4026
 217   2.0000      -0.485750       -13.2179
 218   2.0000      -0.484813       -13.1924
 219   2.0000      -0.482867       -13.1395
 220   2.0000      -0.480545       -13.0763
 221   2.0000      -0.476745       -12.9729
 222   2.0000      -0.475280       -12.9330
 223   2.0000      -0.472566       -12.8592
 224   2.0000      -0.469109       -12.7651
 225   2.0000      -0.464316       -12.6347
 226   2.0000      -0.463933       -12.6242
 227   2.0000      -0.461570       -12.5600
 228   2.0000      -0.460524       -12.5315
 229   2.0000      -0.459854       -12.5133
 230   2.0000      -0.459364       -12.4999
 231   2.0000      -0.458076       -12.4649
 232   2.0000      -0.457455       -12.4480
 233   2.0000      -0.456594       -12.4246
 234   2.0000      -0.456140       -12.4122
 235   2.0000      -0.454504       -12.3677
 236   2.0000      -0.453320       -12.3355
 237   2.0000      -0.452979       -12.3262
 238   2.0000      -0.451293       -12.2803
 239   2.0000      -0.449524       -12.2322
 240   2.0000      -0.448451       -12.2030
 241   2.0000      -0.447630       -12.1806
 242   2.0000      -0.444235       -12.0882
 243   2.0000      -0.440777       -11.9942
 244   2.0000      -0.438051       -11.9200
 245   2.0000      -0.437222       -11.8974
 246   2.0000      -0.436217       -11.8701
 247   2.0000      -0.432719       -11.7749
 248   2.0000      -0.431387       -11.7386
 249   2.0000      -0.430388       -11.7115
 250   2.0000      -0.424361       -11.5475
 251   2.0000      -0.422512       -11.4971
 252   2.0000      -0.421528       -11.4704
 253   2.0000      -0.418939       -11.3999
 254   2.0000      -0.417552       -11.3622
 255   2.0000      -0.414527       -11.2798
 256   2.0000      -0.413409       -11.2494
 257   2.0000      -0.408383       -11.1127
 258   2.0000      -0.406773       -11.0689
 259   2.0000      -0.405695       -11.0395
 260   2.0000      -0.397558       -10.8181
 261   2.0000      -0.385288       -10.4842
 262   2.0000      -0.376809       -10.2535
 263   2.0000      -0.374377       -10.1873
 264   2.0000      -0.364845        -9.9279
 265   2.0000      -0.360142        -9.8000
 266   2.0000      -0.357583        -9.7303
 267   2.0000      -0.356283        -9.6949
 268   2.0000      -0.352552        -9.5934
 269   2.0000      -0.350878        -9.5479
 270   2.0000      -0.346798        -9.4368
 271   2.0000      -0.342586        -9.3222
 272   2.0000      -0.340828        -9.2744
 273   2.0000      -0.331365        -9.0169
 274   2.0000      -0.328136        -8.9290
 275   2.0000      -0.326756        -8.8915
 276   2.0000      -0.323965        -8.8155
 277   2.0000      -0.310615        -8.4523
 278   2.0000      -0.308036        -8.3821
 279   2.0000      -0.256637        -6.9835
 280   0.0000      -0.112696        -3.0666
 281   0.0000      -0.102431        -2.7873
 282   0.0000      -0.076703        -2.0872
 283   0.0000      -0.056308        -1.5322
 284   0.0000      -0.056088        -1.5262

MULLIKEN ATOMIC CHARGES
-----------------------
   0 C :    0.033707
   1 C :   -0.131428
   2 S :    0.191011
   3 C :   -0.166363
   4 Cl:    0.002149
   5 C :    0.077491
   6 C :    0.160435
   7 O :   -0.148012
   8 C :   -0.095167
   9 C :    0.289711
  10 C :   -0.322548
  11 C :   -0.195670
  12 N :    0.161204
  13 C :   -0.193865
  14 N :    0.169676
  15 C :    0.015012
  16 C :   -0.157288
  17 S :    0.252280
  18 C :   -0.270177
  19 C :    0.187168
  20 C :    0.204421
  21 O :   -0.185586
  22 C :    0.167534
  23 O :   -0.094788
  24 C :    0.154890
  25 O :   -0.098587
  26 O :   -0.223268
  27 C :    0.209626
  28 N :   -0.264603
  29 C :    0.106535
  30 C :   -0.007313
  31 C :    0.158166
  32 O :   -0.222230
  33 C :   -0.069652
  34 C :   -0.101882
  35 C :    0.158890
  36 O :   -0.197306
  37 N :   -0.251194
  38 C :    0.092692
  39 C :    0.001791
  40 C :    0.139687
  41 C :    0.014872
  42 C :   -0.061735
  43 C :   -0.034051
  44 C :    0.202182
  45 O :   -0.162288
  46 O :   -0.251877
  47 C :    0.172701
  48 C :   -0.114829
  49 C :    0.100128
  50 C :    0.096217
  51 C :   -0.089052
  52 C :    0.158720
  53 O :   -0.251941
  54 C :    0.172433
  55 O :   -0.135822
  56 C :   -0.047571
  57 C :   -0.001209
  58 C :    0.043200
  59 C :    0.003866
  60 C :   -0.112642
  61 C :    0.132278
  62 O :   -0.128987
  63 C :    0.091088
  64 C :   -0.170930
  65 S :    0.192010
  66 C :   -0.126148
  67 C :    0.006383
  68 C :    0.312370
  69 C :   -0.330773
  70 C :   -0.191264
  71 N :    0.153470
  72 C :   -0.201630
  73 N :    0.181602
  74 Cl:    0.003617
  75 H :    0.055662
  76 H :    0.036434
  77 H :    0.040852
  78 H :    0.044318
  79 H :    0.020753
  80 H :    0.030480
  81 H :    0.019948
  82 H :    0.047824
  83 H :    0.033416
  84 H :    0.026336
  85 H :    0.030388
  86 H :    0.028380
  87 H :    0.005495
  88 H :    0.036942
  89 H :    0.050516
  90 H :    0.025758
  91 H :    0.025144
  92 H :    0.013494
  93 H :    0.032741
  94 H :    0.013902
  95 H :    0.011827
  96 H :    0.029463
  97 H :    0.022236
  98 H :    0.048792
  99 H :    0.016686
 100 H :    0.016111
 101 H :    0.018471
 102 H :    0.056093
Sum of atomic charges:   -0.0000000

LOEWDIN ATOMIC CHARGES
----------------------
   0 C :   -0.058748
   1 C :   -0.147959
   2 S :    0.479723
   3 C :   -0.271179
   4 Cl:    0.195211
   5 C :   -0.115046
   6 C :    0.082451
   7 O :   -0.139826
   8 C :   -0.074646
   9 C :    0.072374
  10 C :   -0.130792
  11 C :   -0.015591
  12 N :   -0.047084
  13 C :   -0.024975
  14 N :   -0.040234
  15 C :    0.047475
  16 C :   -0.199747
  17 S :    0.558665
  18 C :   -0.182194
  19 C :   -0.010459
  20 C :    0.013234
  21 O :   -0.004151
  22 C :    0.060044
  23 O :   -0.077157
  24 C :    0.061541
  25 O :   -0.078543
  26 O :   -0.017873
  27 C :    0.046453
  28 N :    0.003941
  29 C :    0.029874
  30 C :   -0.060895
  31 C :    0.083395
  32 O :   -0.208986
  33 C :   -0.133166
  34 C :   -0.119481
  35 C :    0.073662
  36 O :   -0.194205
  37 N :    0.006840
  38 C :    0.037640
  39 C :   -0.059388
  40 C :    0.094608
  41 C :   -0.049608
  42 C :    0.043485
  43 C :   -0.063126
  44 C :    0.086057
  45 O :   -0.145737
  46 O :   -0.063848
  47 C :    0.066942
  48 C :   -0.027805
  49 C :   -0.029170
  50 C :   -0.025953
  51 C :   -0.031092
  52 C :    0.066940
  53 O :   -0.066628
  54 C :    0.079751
  55 O :   -0.127538
  56 C :   -0.055544
  57 C :    0.038817
  58 C :   -0.032542
  59 C :    0.070684
  60 C :   -0.086026
  61 C :    0.080907
  62 O :   -0.133571
  63 C :   -0.119410
  64 C :   -0.271528
  65 S :    0.480764
  66 C :   -0.150470
  67 C :   -0.058146
  68 C :    0.071251
  69 C :   -0.130759
  70 C :   -0.014068
  71 N :   -0.045958
  72 C :   -0.024537
  73 N :   -0.039224
  74 Cl:    0.194923
  75 H :    0.038424
  76 H :    0.049731
  77 H :    0.034634
  78 H :    0.021841
  79 H :    0.028244
  80 H :    0.035000
  81 H :    0.020382
  82 H :    0.039065
  83 H :    0.027930
  84 H :    0.030703
  85 H :    0.034561
  86 H :    0.027101
  87 H :    0.033583
  88 H :    0.034246
  89 H :    0.051086
  90 H :    0.029475
  91 H :    0.037479
  92 H :    0.027846
  93 H :    0.041122
  94 H :    0.035398
  95 H :    0.026953
  96 H :    0.041445
  97 H :    0.031842
  98 H :    0.055058
  99 H :    0.027511
 100 H :    0.033974
 101 H :    0.044706
 102 H :    0.037620

  Mayer bond orders larger than 0.100000
B(  0-C ,  1-C ) :   1.5426 B(  0-C ,  5-C ) :   1.2236 B(  0-C ,  9-C ) :   1.0010
B(  1-C ,  2-S ) :   1.1651 B(  1-C , 75-H ) :   0.9542 B(  2-S ,  3-C ) :   1.1516
B(  3-C ,  4-Cl) :   1.1305 B(  3-C ,  5-C ) :   1.4738 B(  5-C ,  6-C ) :   0.9585
B(  6-C ,  7-O ) :   2.2130 B(  6-C ,  8-C ) :   0.9378 B(  8-C ,  9-C ) :   1.0682
B(  8-C , 15-C ) :   1.6616 B(  9-C , 10-C ) :   1.6638 B( 10-C , 11-C ) :   1.1476
B( 10-C , 13-C ) :   1.1337 B( 11-C , 12-N ) :   2.9919 B( 13-C , 14-N ) :   2.9851
B( 15-C , 16-C ) :   1.1223 B( 15-C , 76-H ) :   0.9319 B( 16-C , 17-S ) :   1.0901
B( 16-C , 18-C ) :   0.1335 B( 16-C , 20-C ) :   1.4694 B( 17-S , 18-C ) :   1.1891
B( 18-C , 19-C ) :   1.4090 B( 18-C , 27-C ) :   1.1266 B( 19-C , 20-C ) :   1.2653
B( 19-C , 26-O ) :   1.0682 B( 20-C , 21-O ) :   1.0778 B( 21-O , 22-C ) :   1.0719
B( 22-C , 23-O ) :   2.2562 B( 22-C , 24-C ) :   0.8408 B( 24-C , 25-O ) :   2.2458
B( 24-C , 26-O ) :   1.0452 B( 27-C , 28-N ) :   1.2039 B( 27-C , 34-C ) :   1.3691
B( 28-N , 29-C ) :   0.9309 B( 28-N , 31-C ) :   1.0554 B( 29-C , 30-C ) :   1.1189
B( 29-C , 77-H ) :   0.9234 B( 29-C , 78-H ) :   0.9430 B( 30-C , 79-H ) :   0.9648
B( 30-C , 80-H ) :   0.9674 B( 30-C , 81-H ) :   0.9694 B( 31-C , 32-O ) :   2.0091
B( 31-C , 33-C ) :   1.0033 B( 32-O , 88-H ) :   0.1012 B( 33-C , 34-C ) :   1.2389
B( 33-C , 40-C ) :   1.3444 B( 34-C , 35-C ) :   0.9669 B( 35-C , 36-O ) :   2.0846
B( 35-C , 37-N ) :   1.0536 B( 37-N , 38-C ) :   0.9355 B( 37-N , 40-C ) :   1.1865
B( 38-C , 39-C ) :   1.1233 B( 38-C , 82-H ) :   0.9290 B( 38-C , 83-H ) :   0.9495
B( 39-C , 84-H ) :   0.9633 B( 39-C , 85-H ) :   0.9674 B( 39-C , 86-H ) :   0.9678
B( 40-C , 41-C ) :   1.1018 B( 41-C , 42-C ) :   1.7769 B( 41-C , 87-H ) :   0.9496
B( 42-C , 43-C ) :   0.9910 B( 42-C , 88-H ) :   0.9445 B( 43-C , 44-C ) :   0.9021
B( 43-C , 48-C ) :   0.9827 B( 43-C , 89-H ) :   0.8646 B( 44-C , 45-O ) :   2.1821
B( 44-C , 46-O ) :   1.1526 B( 46-O , 47-C ) :   0.9499 B( 47-C , 48-C ) :   1.0151
B( 47-C , 52-C ) :   0.9735 B( 47-C , 90-H ) :   0.9145 B( 48-C , 49-C ) :   1.0656
B( 48-C , 91-H ) :   0.9134 B( 49-C , 50-C ) :   1.0634 B( 49-C , 92-H ) :   0.9236
B( 49-C , 93-H ) :   0.9179 B( 50-C , 51-C ) :   1.0604 B( 50-C , 94-H ) :   0.9253
B( 50-C , 95-H ) :   0.9349 B( 51-C , 52-C ) :   1.0103 B( 51-C , 56-C ) :   0.9936
B( 51-C , 96-H ) :   0.9093 B( 52-C , 53-O ) :   0.9684 B( 52-C , 97-H ) :   0.9168
B( 53-O , 54-C ) :   1.1245 B( 54-C , 55-O ) :   2.2599 B( 54-C , 56-C ) :   0.8805
B( 56-C , 57-C ) :   0.9962 B( 56-C , 98-H ) :   0.9078 B( 57-C , 58-C ) :   1.7748
B( 57-C , 99-H ) :   0.9578 B( 58-C , 59-C ) :   1.0854 B( 58-C ,100-H ) :   0.9615
B( 59-C , 60-C ) :   1.6854 B( 59-C ,101-H ) :   0.9391 B( 60-C , 61-C ) :   0.9325
B( 60-C , 68-C ) :   1.0135 B( 61-C , 62-O ) :   2.2627 B( 61-C , 63-C ) :   0.9389
B( 63-C , 64-C ) :   1.4770 B( 63-C , 67-C ) :   1.2214 B( 64-C , 65-S ) :   1.1528
B( 64-C , 74-Cl) :   1.1328 B( 65-S , 66-C ) :   1.1650 B( 66-C , 67-C ) :   1.5471
B( 66-C ,102-H ) :   0.9521 B( 67-C , 68-C ) :   1.0094 B( 68-C , 69-C ) :   1.6608
B( 69-C , 70-C ) :   1.1327 B( 69-C , 72-C ) :   1.1554 B( 70-C , 71-N ) :   2.9922
B( 72-C , 73-N ) :   2.9990

-----------------------------------------------------------------------------
         ABSORPTION SPECTRUM VIA TRANSITION ELECTRIC DIPOLE MOMENTS
-----------------------------------------------------------------------------
State   Energy  Wavelength   fosc         T2         TX        TY        TZ
        (cm-1)    (nm)                  (au**2)     (au)      (au)      (au)
-----------------------------------------------------------------------------
   0   15949.9    627.0   0.654071745  13.50031   2.54906  -1.78447   1.95404
   1   23742.4    421.2   0.223564016   3.09994  -0.89123   0.07583   1.51654
   2   23932.9    417.8   0.000683658   0.00940   0.04619  -0.02102  -0.08264
   3   25056.0    399.1   0.137868848   1.81147  -1.20781   0.56676   0.17736
   4   27173.6    368.0   0.006829588   0.08274  -0.15513   0.23917   0.03840
   5   27474.7    364.0   0.006721292   0.08054   0.10654  -0.19244  -0.17931
   6   27624.2    362.0   0.014210457   0.16935  -0.32301   0.24485  -0.07118
   7   27992.3    357.2   0.228810699   2.69100   1.28308  -0.28317  -0.98209
   8   28404.6    352.1   0.089431481   1.03652   0.56509  -0.51543   0.67195
   9   28591.8    349.8   0.060486513   0.69645   0.54235  -0.43272  -0.46375
  10   29393.8    340.2   0.019659991   0.22019  -0.29880  -0.14529   0.33136
  11   29852.5    335.0   0.297629044   3.28224   1.05638   0.47721  -1.39233
  12   30263.2    330.4   0.124440204   1.35370   0.76223  -0.74950   0.45930
  13   30465.9    328.2   0.168984920   1.82604  -1.33920   0.14637  -0.10563
  14   31948.1    313.0   0.190758214   1.96568  -0.78637   0.07389  -1.15838
  15   32848.5    304.4   0.002953259   0.02960   0.05078  -0.15406  -0.05730
  16   33145.2    301.7   0.059578813   0.59176   0.08072   0.60967  -0.46211
  17   34079.2    293.4   0.034286969   0.33122   0.28939  -0.43330  -0.24439
  18   34212.5    292.3   0.000737192   0.00709  -0.00746   0.07545   0.03667
  19   34593.4    289.1   0.147542959   1.40411  -0.63885   0.35514  -0.93266
  20   34895.1    286.6   0.052622660   0.49646  -0.06971   0.64229  -0.28117
  21   35542.0    281.4   0.000400821   0.00371  -0.05156   0.03229   0.00341
  22   35847.2    279.0   0.008501261   0.07807  -0.14828   0.02897   0.23505
  23   36648.5    272.9   0.040817923   0.36667  -0.51038   0.28458   0.15872
  24   36706.0    272.4   0.655801503   5.88180   0.05724   2.20478  -1.00870
  25   36890.1    271.1   0.341363201   3.04636  -0.01136  -0.93773  -1.47204
  26   37232.0    268.6   0.035353864   0.31261  -0.21725  -0.51263  -0.05120
  27   37421.8    267.2   0.170286530   1.49807  -0.40872  -0.05225  -1.15251
  28   37944.7    263.5   0.000548098   0.00476  -0.01499  -0.05816   0.03387
  29   38360.0    260.7   0.016025908   0.13754  -0.21482  -0.27778   0.11927
  30   38482.7    259.9   0.395567428   3.38400   0.06911   1.67410  -0.75935
  31   39124.4    255.6   0.007657069   0.06443  -0.07661   0.14894  -0.19073
  32   39346.8    254.2   0.049233389   0.41193   0.21386  -0.32148   0.51268
  33   39831.0    251.1   0.123733720   1.02269   0.62804   0.34535  -0.71343
  34   40069.5    249.6   0.049587267   0.40741   0.08933   0.26206  -0.57511

FINAL SINGLE POINT ENERGY     -5339.879360836799

DIPOLE MOMENT
-------------
                                X             Y             Z
Electronic contribution:    -29.00064      64.50114     -61.52932
Nuclear contribution   :     28.08683     -65.38679      59.87167
                        -----------------------------------------
Total Dipole Moment    :     -0.91381      -0.88565      -1.65765
                        -----------------------------------------
Magnitude (a.u.)       :      2.08979
Magnitude (Debye)      :      5.31182

Rotational constants in cm-1:     0.001124     0.000272     0.000235
Rotational constants in MHz :    33.694766     8.167281     7.039584

                             ****ORCA TERMINATED NORMALLY****
TOTAL RUN TIME: 0 days 0 hours 10 minutes 30 seconds 319 msec
