                         Program Version 4.2.0 -  RELEASE  -
|  1> # ORCA input file
|  2> # SCF done       -208.935074482112          0.001919613784
|  3> ! CAM-B3LYP def2-SVP def2/J RIJCOSX Grid4 TightSCF
|  4> %maxcore 5000
|  5> %tddft
|  6>     Mode sTDDFT
|  7>     Ethresh 5.0
|  8>     maxcore 5000
|  9> end
| 10>
| 11> %pal
| 12>   nprocs 6
| 13>   end
| 14> * xyz 0 1
| 15>    C        4.51428         2.84999         2.27489
| 16>    C        4.17045         3.70880         3.27337
| 17>    S        4.46044         3.01022         4.82384
| 18>    C        5.06017         1.52822         4.11733
| 19>   Cl        5.58498         0.23812         5.08039
| 20>    C        5.02193         1.59996         2.75632
| 21>    C        5.37010         0.72774         1.63042
| 22>    O        5.87069        -0.37032         1.67040
| 23>    C        5.05366         1.54417         0.41004
| 24>    C        4.51286         2.83444         0.82749
| 25>    C        4.03723         3.84249         0.03447
| 26>    C        3.52230         5.03368         0.59043
| 27>    N        3.10472         6.00903         1.02646
| 28>    C        3.98671         3.82780        -1.37449
| 29>    N        3.91224         3.87684        -2.51934
| 30>    C        5.39102         1.20084        -0.85559
| 31>    C        5.86017        -0.09298        -1.29447
| 32>    C        5.30253        -1.28437        -0.83029
| 33>    C        5.76843        -2.50578        -1.28265
| 34>    N        4.99182        -3.65976        -0.89878
| 35>    O        4.48133        -3.65339         0.19913
| 36>    O        4.84957        -4.54562        -1.71772
| 37>    C        6.86666        -2.59561        -2.16161
| 38>    C        7.36210        -1.38623        -2.67372
| 39>    C        6.86048        -0.17075        -2.27439
| 40>    C        7.54318        -3.80869        -2.53855
| 41>    C        7.63290        -4.93807        -1.80328
| 42>    C        8.36720        -6.06923        -2.25880
| 43>    N        8.33901        -7.29247        -1.63424
| 44>    C        7.47010        -7.67407        -0.54686
| 45>    C        6.01759        -7.80195        -0.99937
| 46>    C        9.17271        -8.23200        -2.27520
| 47>    O        9.29874        -9.38270        -1.91233
| 48>    C        9.76710        -7.48585        -3.36080
| 49>    C        9.23927        -6.16836        -3.33699
| 50>    C        9.85726        -5.43947        -4.41757
| 51>    O        9.73186        -4.29170        -4.80190
| 52>    N       10.71490        -6.37312        -5.03881
| 53>    C       11.59175        -5.93635        -6.10008
| 54>    C       13.04954        -5.86202        -5.65416
| 55>    C       10.66989        -7.59343        -4.40723
| 56>    C       11.39971        -8.79382        -4.68636
| 57>    C       12.09664        -9.13620        -5.77562
| 58>    C       12.87362       -10.39917        -5.85834
| 59>    C       14.38679       -10.10137        -5.84421
| 60>    O       14.93840        -9.26294        -5.19895
| 61>    O       15.01493       -10.93007        -6.68201
| 62>    C       14.11375       -11.85249        -7.28745
| 63>    C       12.73532       -11.18739        -7.16318
| 64>    C       11.57362       -12.16541        -7.24744
| 65>    C       11.71782       -13.32282        -6.26948
| 66>    C       13.01409       -14.10453        -6.45509
| 67>    C       14.27581       -13.22373        -6.59211
| 68>    O       15.19329       -13.99718        -7.35607
| 69>    C       14.58568       -14.94951        -8.06540
| 70>    O       15.15230       -15.62978        -8.86889
| 71>    C       13.10795       -15.04725        -7.67543
| 72>    C       12.16899       -14.82342        -8.81710
| 73>    C       12.52252       -14.61982       -10.09340
| 74>    C       11.56947       -14.59736       -11.15882
| 75>    C       11.81483       -14.29644       -12.45712
| 76>    C       10.87270       -14.75614       -13.52956
| 77>    O        9.73815       -15.13432       -13.37497
| 78>    C       11.67261       -14.68862       -14.75960
| 79>    C       11.52515       -15.03016       -16.07123
| 80>    S       12.97172       -14.64003       -16.97315
| 81>    C       13.75433       -14.00693       -15.57183
| 82>    C       12.95196       -14.10151       -14.47838
| 83>    C       12.99386       -13.72163       -13.08176
| 84>    C       13.85494       -12.81029       -12.53182
| 85>    C       14.94176       -12.28488       -13.26243
| 86>    N       15.83196       -11.86375       -13.84917
| 87>    C       13.65080       -12.22924       -11.26812
| 88>    N       13.45468       -11.68986       -10.27340
| 89>   Cl       10.18084       -15.73298       -16.82410
| 90>    H        3.77217         4.70195         3.20949
| 91>    H        5.35186         1.96025        -1.62751
| 92>    H        4.46046        -1.27402        -0.15537
| 93>    H        8.17213        -1.42958        -3.38581
| 94>    H        7.26480         0.74111        -2.68809
| 95>    H        8.08831        -3.76053        -3.47233
| 96>    H        7.16842        -5.01753        -0.83115
| 97>    H        7.55980        -6.95139         0.26971
| 98>    H        7.83838        -8.64282        -0.19742
| 99>    H        5.63800        -6.85931        -1.38822
|100>    H        5.39855        -8.10627        -0.16014
|101>    H        5.93724        -8.55325        -1.78126
|102>    H       11.23998        -4.93509        -6.36936
|103>    H       11.47357        -6.58351        -6.97325
|104>    H       13.14454        -5.17537        -4.81605
|105>    H       13.66139        -5.49358        -6.47324
|106>    H       13.42831        -6.83448        -5.34798
|107>    H       11.32435        -9.50410        -3.87120
|108>    H       12.17086        -8.49545        -6.63985
|109>    H       12.66726       -11.02379        -4.98333
|110>    H       14.41095       -11.96040        -8.33528
|111>    H       12.64520       -10.47590        -7.99062
|112>    H       11.53040       -12.54281        -8.27040
|113>    H       10.64412       -11.63165        -7.04292
|114>    H       10.87209       -14.00402        -6.37284
|115>    H       11.69097       -12.94113        -5.24704
|116>    H       13.15838       -14.72414        -5.56308
|117>    H       14.74733       -13.04813        -5.61885
|118>    H       12.92707       -16.08114        -7.35296
|119>    H       11.11908       -14.91464        -8.56663
|120>    H       13.56707       -14.54185       -10.35790
|121>    H       10.57265       -14.96382       -10.93848
|122>    H       14.75217       -13.62249       -15.65005
|123> *
|124>
|125>                          ****END OF INPUT****

CARTESIAN COORDINATES (ANGSTROEM)
---------------------------------
  C      4.514280    2.849990    2.274890
  C      4.170450    3.708800    3.273370
  S      4.460440    3.010220    4.823840
  C      5.060170    1.528220    4.117330
  Cl     5.584980    0.238120    5.080390
  C      5.021930    1.599960    2.756320
  C      5.370100    0.727740    1.630420
  O      5.870690   -0.370320    1.670400
  C      5.053660    1.544170    0.410040
  C      4.512860    2.834440    0.827490
  C      4.037230    3.842490    0.034470
  C      3.522300    5.033680    0.590430
  N      3.104720    6.009030    1.026460
  C      3.986710    3.827800   -1.374490
  N      3.912240    3.876840   -2.519340
  C      5.391020    1.200840   -0.855590
  C      5.860170   -0.092980   -1.294470
  C      5.302530   -1.284370   -0.830290
  C      5.768430   -2.505780   -1.282650
  N      4.991820   -3.659760   -0.898780
  O      4.481330   -3.653390    0.199130
  O      4.849570   -4.545620   -1.717720
  C      6.866660   -2.595610   -2.161610
  C      7.362100   -1.386230   -2.673720
  C      6.860480   -0.170750   -2.274390
  C      7.543180   -3.808690   -2.538550
  C      7.632900   -4.938070   -1.803280
  C      8.367200   -6.069230   -2.258800
  N      8.339010   -7.292470   -1.634240
  C      7.470100   -7.674070   -0.546860
  C      6.017590   -7.801950   -0.999370
  C      9.172710   -8.232000   -2.275200
  O      9.298740   -9.382700   -1.912330
  C      9.767100   -7.485850   -3.360800
  C      9.239270   -6.168360   -3.336990
  C      9.857260   -5.439470   -4.417570
  O      9.731860   -4.291700   -4.801900
  N     10.714900   -6.373120   -5.038810
  C     11.591750   -5.936350   -6.100080
  C     13.049540   -5.862020   -5.654160
  C     10.669890   -7.593430   -4.407230
  C     11.399710   -8.793820   -4.686360
  C     12.096640   -9.136200   -5.775620
  C     12.873620  -10.399170   -5.858340
  C     14.386790  -10.101370   -5.844210
  O     14.938400   -9.262940   -5.198950
  O     15.014930  -10.930070   -6.682010
  C     14.113750  -11.852490   -7.287450
  C     12.735320  -11.187390   -7.163180
  C     11.573620  -12.165410   -7.247440
  C     11.717820  -13.322820   -6.269480
  C     13.014090  -14.104530   -6.455090
  C     14.275810  -13.223730   -6.592110
  O     15.193290  -13.997180   -7.356070
  C     14.585680  -14.949510   -8.065400
  O     15.152300  -15.629780   -8.868890
  C     13.107950  -15.047250   -7.675430
  C     12.168990  -14.823420   -8.817100
  C     12.522520  -14.619820  -10.093400
  C     11.569470  -14.597360  -11.158820
  C     11.814830  -14.296440  -12.457120
  C     10.872700  -14.756140  -13.529560
  O      9.738150  -15.134320  -13.374970
  C     11.672610  -14.688620  -14.759600
  C     11.525150  -15.030160  -16.071230
  S     12.971720  -14.640030  -16.973150
  C     13.754330  -14.006930  -15.571830
  C     12.951960  -14.101510  -14.478380
  C     12.993860  -13.721630  -13.081760
  C     13.854940  -12.810290  -12.531820
  C     14.941760  -12.284880  -13.262430
  N     15.831960  -11.863750  -13.849170
  C     13.650800  -12.229240  -11.268120
  N     13.454680  -11.689860  -10.273400
  Cl    10.180840  -15.732980  -16.824100
  H      3.772170    4.701950    3.209490
  H      5.351860    1.960250   -1.627510
  H      4.460460   -1.274020   -0.155370
  H      8.172130   -1.429580   -3.385810
  H      7.264800    0.741110   -2.688090
  H      8.088310   -3.760530   -3.472330
  H      7.168420   -5.017530   -0.831150
  H      7.559800   -6.951390    0.269710
  H      7.838380   -8.642820   -0.197420
  H      5.638000   -6.859310   -1.388220
  H      5.398550   -8.106270   -0.160140
  H      5.937240   -8.553250   -1.781260
  H     11.239980   -4.935090   -6.369360
  H     11.473570   -6.583510   -6.973250
  H     13.144540   -5.175370   -4.816050
  H     13.661390   -5.493580   -6.473240
  H     13.428310   -6.834480   -5.347980
  H     11.324350   -9.504100   -3.871200
  H     12.170860   -8.495450   -6.639850
  H     12.667260  -11.023790   -4.983330
  H     14.410950  -11.960400   -8.335280
  H     12.645200  -10.475900   -7.990620
  H     11.530400  -12.542810   -8.270400
  H     10.644120  -11.631650   -7.042920
  H     10.872090  -14.004020   -6.372840
  H     11.690970  -12.941130   -5.247040
  H     13.158380  -14.724140   -5.563080
  H     14.747330  -13.048130   -5.618850
  H     12.927070  -16.081140   -7.352960
  H     11.119080  -14.914640   -8.566630
  H     13.567070  -14.541850  -10.357900
  H     10.572650  -14.963820  -10.938480
  H     14.752170  -13.622490  -15.650050

 Total Charge           Charge          ....    0
 Multiplicity           Mult            ....    1
 Number of Electrons    NEL             ....  552
 Basis Dimension        Dim             .... 1231

ORBITAL ENERGIES
----------------

  NO   OCC          E(Eh)            E(eV)
   0   2.0000    -101.623042     -2765.3036
   1   2.0000    -101.622209     -2765.2809
   2   2.0000     -89.000262     -2421.8202
   3   2.0000     -89.000054     -2421.8146
   4   2.0000     -19.271192      -524.3958
   5   2.0000     -19.262083      -524.1479
   6   2.0000     -19.251243      -523.8530
   7   2.0000     -19.249354      -523.8015
   8   2.0000     -19.228721      -523.2401
   9   2.0000     -19.227101      -523.1960
  10   2.0000     -19.210739      -522.7508
  11   2.0000     -19.202295      -522.5210
  12   2.0000     -19.190752      -522.2069
  13   2.0000     -19.186126      -522.0810
  14   2.0000     -14.655199      -398.7882
  15   2.0000     -14.451312      -393.2402
  16   2.0000     -14.449616      -393.1940
  17   2.0000     -14.437108      -392.8537
  18   2.0000     -14.428866      -392.6294
  19   2.0000     -14.428091      -392.6083
  20   2.0000     -14.426565      -392.5668
  21   2.0000     -10.408874      -283.2398
  22   2.0000     -10.398327      -282.9529
  23   2.0000     -10.386224      -282.6235
  24   2.0000     -10.383848      -282.5589
  25   2.0000     -10.382947      -282.5344
  26   2.0000     -10.382328      -282.5175
  27   2.0000     -10.372552      -282.2515
  28   2.0000     -10.370510      -282.1959
  29   2.0000     -10.360117      -281.9131
  30   2.0000     -10.359520      -281.8969
  31   2.0000     -10.356420      -281.8125
  32   2.0000     -10.355825      -281.7963
  33   2.0000     -10.348079      -281.5856
  34   2.0000     -10.342023      -281.4208
  35   2.0000     -10.338878      -281.3352
  36   2.0000     -10.338698      -281.3303
  37   2.0000     -10.337037      -281.2851
  38   2.0000     -10.335935      -281.2551
  39   2.0000     -10.335007      -281.2298
  40   2.0000     -10.334477      -281.2154
  41   2.0000     -10.331043      -281.1220
  42   2.0000     -10.330401      -281.1045
  43   2.0000     -10.329975      -281.0929
  44   2.0000     -10.328673      -281.0575
  45   2.0000     -10.328307      -281.0475
  46   2.0000     -10.321642      -280.8662
  47   2.0000     -10.320790      -280.8430
  48   2.0000     -10.320132      -280.8251
  49   2.0000     -10.319267      -280.8015
  50   2.0000     -10.316913      -280.7375
  51   2.0000     -10.314572      -280.6738
  52   2.0000     -10.312433      -280.6156
  53   2.0000     -10.311637      -280.5939
  54   2.0000     -10.310902      -280.5739
  55   2.0000     -10.308035      -280.4959
  56   2.0000     -10.307774      -280.4888
  57   2.0000     -10.306330      -280.4495
  58   2.0000     -10.306299      -280.4487
  59   2.0000     -10.303219      -280.3648
  60   2.0000     -10.302536      -280.3463
  61   2.0000     -10.301954      -280.3304
  62   2.0000     -10.298314      -280.2314
  63   2.0000     -10.297730      -280.2155
  64   2.0000     -10.296071      -280.1703
  65   2.0000     -10.294459      -280.1265
  66   2.0000     -10.293217      -280.0927
  67   2.0000     -10.291458      -280.0448
  68   2.0000     -10.290699      -280.0241
  69   2.0000     -10.288547      -279.9656
  70   2.0000     -10.281497      -279.7737
  71   2.0000     -10.258191      -279.1396
  72   2.0000     -10.257026      -279.1079
  73   2.0000     -10.252603      -278.9875
  74   2.0000     -10.252292      -278.9790
  75   2.0000      -9.577863      -260.6269
  76   2.0000      -9.576976      -260.6028
  77   2.0000      -8.095932      -220.3015
  78   2.0000      -8.095717      -220.2957
  79   2.0000      -7.348516      -199.9633
  80   2.0000      -7.347643      -199.9395
  81   2.0000      -7.337885      -199.6740
  82   2.0000      -7.337336      -199.6591
  83   2.0000      -7.337002      -199.6500
  84   2.0000      -7.336441      -199.6347
  85   2.0000      -6.065295      -165.0451
  86   2.0000      -6.065090      -165.0395
  87   2.0000      -6.060705      -164.9202
  88   2.0000      -6.060451      -164.9132
  89   2.0000      -6.058196      -164.8519
  90   2.0000      -6.058024      -164.8472
  91   2.0000      -1.331378       -36.2286
  92   2.0000      -1.210497       -32.9393
  93   2.0000      -1.197985       -32.5988
  94   2.0000      -1.149026       -31.2666
  95   2.0000      -1.146815       -31.2064
  96   2.0000      -1.144222       -31.1359
  97   2.0000      -1.130651       -30.7666
  98   2.0000      -1.123414       -30.5697
  99   2.0000      -1.119359       -30.4593
 100   2.0000      -1.109196       -30.1827
 101   2.0000      -1.060568       -28.8595
 102   2.0000      -1.051837       -28.6219
 103   2.0000      -1.045925       -28.4611
 104   2.0000      -1.044583       -28.4245
 105   2.0000      -1.030227       -28.0339
 106   2.0000      -1.024320       -27.8732
 107   2.0000      -1.011455       -27.5231
 108   2.0000      -1.005626       -27.3645
 109   2.0000      -1.001095       -27.2412
 110   2.0000      -0.996799       -27.1243
 111   2.0000      -0.993415       -27.0322
 112   2.0000      -0.965833       -26.2817
 113   2.0000      -0.961558       -26.1653
 114   2.0000      -0.961050       -26.1515
 115   2.0000      -0.940561       -25.5940
 116   2.0000      -0.934654       -25.4332
 117   2.0000      -0.924657       -25.1612
 118   2.0000      -0.922635       -25.1062
 119   2.0000      -0.913726       -24.8637
 120   2.0000      -0.912629       -24.8339
 121   2.0000      -0.908674       -24.7263
 122   2.0000      -0.895517       -24.3682
 123   2.0000      -0.890847       -24.2412
 124   2.0000      -0.873028       -23.7563
 125   2.0000      -0.864459       -23.5231
 126   2.0000      -0.855368       -23.2757
 127   2.0000      -0.854774       -23.2596
 128   2.0000      -0.843864       -22.9627
 129   2.0000      -0.840410       -22.8687
 130   2.0000      -0.839133       -22.8340
 131   2.0000      -0.817614       -22.2484
 132   2.0000      -0.813209       -22.1285
 133   2.0000      -0.809192       -22.0192
 134   2.0000      -0.800066       -21.7709
 135   2.0000      -0.787918       -21.4403
 136   2.0000      -0.778483       -21.1836
 137   2.0000      -0.764937       -20.8150
 138   2.0000      -0.761514       -20.7219
 139   2.0000      -0.759436       -20.6653
 140   2.0000      -0.753584       -20.5061
 141   2.0000      -0.745041       -20.2736
 142   2.0000      -0.727893       -19.8070
 143   2.0000      -0.724651       -19.7188
 144   2.0000      -0.710489       -19.3334
 145   2.0000      -0.708910       -19.2904
 146   2.0000      -0.705037       -19.1850
 147   2.0000      -0.698506       -19.0073
 148   2.0000      -0.693883       -18.8815
 149   2.0000      -0.687056       -18.6957
 150   2.0000      -0.684198       -18.6180
 151   2.0000      -0.683666       -18.6035
 152   2.0000      -0.681460       -18.5435
 153   2.0000      -0.666435       -18.1346
 154   2.0000      -0.664230       -18.0746
 155   2.0000      -0.661343       -17.9961
 156   2.0000      -0.657580       -17.8937
 157   2.0000      -0.649988       -17.6871
 158   2.0000      -0.646558       -17.5937
 159   2.0000      -0.642139       -17.4735
 160   2.0000      -0.636824       -17.3289
 161   2.0000      -0.630436       -17.1550
 162   2.0000      -0.628749       -17.1091
 163   2.0000      -0.622594       -16.9417
 164   2.0000      -0.621691       -16.9171
 165   2.0000      -0.617640       -16.8068
 166   2.0000      -0.611763       -16.6469
 167   2.0000      -0.611337       -16.6353
 168   2.0000      -0.605402       -16.4738
 169   2.0000      -0.600294       -16.3348
 170   2.0000      -0.593717       -16.1559
 171   2.0000      -0.586585       -15.9618
 172   2.0000      -0.585632       -15.9359
 173   2.0000      -0.577956       -15.7270
 174   2.0000      -0.576713       -15.6932
 175   2.0000      -0.574888       -15.6435
 176   2.0000      -0.572661       -15.5829
 177   2.0000      -0.565655       -15.3923
 178   2.0000      -0.561751       -15.2860
 179   2.0000      -0.559264       -15.2183
 180   2.0000      -0.556711       -15.1489
 181   2.0000      -0.554938       -15.1006
 182   2.0000      -0.552889       -15.0449
 183   2.0000      -0.548709       -14.9311
 184   2.0000      -0.546268       -14.8647
 185   2.0000      -0.543869       -14.7994
 186   2.0000      -0.541113       -14.7244
 187   2.0000      -0.539390       -14.6775
 188   2.0000      -0.538490       -14.6531
 189   2.0000      -0.537457       -14.6249
 190   2.0000      -0.532690       -14.4952
 191   2.0000      -0.531804       -14.4711
 192   2.0000      -0.530112       -14.4251
 193   2.0000      -0.527340       -14.3496
 194   2.0000      -0.524773       -14.2798
 195   2.0000      -0.523794       -14.2532
 196   2.0000      -0.520170       -14.1545
 197   2.0000      -0.517358       -14.0780
 198   2.0000      -0.516247       -14.0478
 199   2.0000      -0.514491       -14.0000
 200   2.0000      -0.513142       -13.9633
 201   2.0000      -0.512291       -13.9401
 202   2.0000      -0.508641       -13.8408
 203   2.0000      -0.504124       -13.7179
 204   2.0000      -0.503693       -13.7062
 205   2.0000      -0.501776       -13.6540
 206   2.0000      -0.499539       -13.5932
 207   2.0000      -0.496069       -13.4987
 208   2.0000      -0.494278       -13.4500
 209   2.0000      -0.492990       -13.4149
 210   2.0000      -0.488466       -13.2918
 211   2.0000      -0.487077       -13.2540
 212   2.0000      -0.481276       -13.0962
 213   2.0000      -0.480623       -13.0784
 214   2.0000      -0.476375       -12.9628
 215   2.0000      -0.471822       -12.8389
 216   2.0000      -0.470864       -12.8129
 217   2.0000      -0.469066       -12.7639
 218   2.0000      -0.465398       -12.6641
 219   2.0000      -0.464898       -12.6505
 220   2.0000      -0.462439       -12.5836
 221   2.0000      -0.461217       -12.5504
 222   2.0000      -0.460599       -12.5335
 223   2.0000      -0.459408       -12.5011
 224   2.0000      -0.457415       -12.4469
 225   2.0000      -0.455736       -12.4012
 226   2.0000      -0.454782       -12.3752
 227   2.0000      -0.453443       -12.3388
 228   2.0000      -0.451532       -12.2868
 229   2.0000      -0.450378       -12.2554
 230   2.0000      -0.449391       -12.2285
 231   2.0000      -0.447543       -12.1783
 232   2.0000      -0.445029       -12.1099
 233   2.0000      -0.444855       -12.1051
 234   2.0000      -0.443417       -12.0660
 235   2.0000      -0.441408       -12.0113
 236   2.0000      -0.440187       -11.9781
 237   2.0000      -0.439386       -11.9563
 238   2.0000      -0.438312       -11.9271
 239   2.0000      -0.436975       -11.8907
 240   2.0000      -0.434783       -11.8310
 241   2.0000      -0.431111       -11.7311
 242   2.0000      -0.425652       -11.5826
 243   2.0000      -0.424596       -11.5538
 244   2.0000      -0.422074       -11.4852
 245   2.0000      -0.421762       -11.4767
 246   2.0000      -0.416173       -11.3247
 247   2.0000      -0.412943       -11.2367
 248   2.0000      -0.409542       -11.1442
 249   2.0000      -0.408275       -11.1097
 250   2.0000      -0.407915       -11.0999
 251   2.0000      -0.404601       -11.0097
 252   2.0000      -0.399090       -10.8598
 253   2.0000      -0.395801       -10.7703
 254   2.0000      -0.391347       -10.6491
 255   2.0000      -0.388449       -10.5702
 256   2.0000      -0.387219       -10.5368
 257   2.0000      -0.378660       -10.3039
 258   2.0000      -0.362497        -9.8640
 259   2.0000      -0.361726        -9.8431
 260   2.0000      -0.356498        -9.7008
 261   2.0000      -0.353774        -9.6267
 262   2.0000      -0.351195        -9.5565
 263   2.0000      -0.350396        -9.5348
 264   2.0000      -0.345526        -9.4022
 265   2.0000      -0.342975        -9.3328
 266   2.0000      -0.342755        -9.3268
 267   2.0000      -0.340482        -9.2650
 268   2.0000      -0.334071        -9.0905
 269   2.0000      -0.329037        -8.9536
 270   2.0000      -0.327505        -8.9119
 271   2.0000      -0.320674        -8.7260
 272   2.0000      -0.314140        -8.5482
 273   2.0000      -0.312155        -8.4942
 274   2.0000      -0.304350        -8.2818
 275   2.0000      -0.241153        -6.5621
 276   0.0000      -0.105793        -2.8788
 277   0.0000      -0.100817        -2.7434
 278   0.0000      -0.076819        -2.0903
 279   0.0000      -0.057998        -1.5782
 280   0.0000      -0.056882        -1.5478

MULLIKEN ATOMIC CHARGES
-----------------------
   0 C :    0.028682
   1 C :   -0.125043
   2 S :    0.193116
   3 C :   -0.167711
   4 Cl:    0.005109
   5 C :    0.074432
   6 C :    0.141842
   7 O :   -0.117900
   8 C :   -0.091598
   9 C :    0.288158
  10 C :   -0.321124
  11 C :   -0.194113
  12 N :    0.163112
  13 C :   -0.195745
  14 N :    0.165302
  15 C :   -0.032044
  16 C :    0.054695
  17 C :    0.059465
  18 C :    0.084701
  19 N :    0.226130
  20 O :   -0.222191
  21 O :   -0.221078
  22 C :    0.091913
  23 C :   -0.029155
  24 C :    0.034207
  25 C :   -0.007396
  26 C :    0.028774
  27 C :    0.104694
  28 N :   -0.265175
  29 C :    0.092222
  30 C :   -0.004494
  31 C :    0.151912
  32 O :   -0.197499
  33 C :   -0.045154
  34 C :   -0.058388
  35 C :    0.162939
  36 O :   -0.217315
  37 N :   -0.264175
  38 C :    0.095863
  39 C :   -0.009130
  40 C :    0.100967
  41 C :   -0.014242
  42 C :    0.041070
  43 C :   -0.102745
  44 C :    0.193178
  45 O :   -0.150840
  46 O :   -0.254755
  47 C :    0.173247
  48 C :   -0.075842
  49 C :    0.116831
  50 C :    0.069592
  51 C :   -0.077750
  52 C :    0.158953
  53 O :   -0.244900
  54 C :    0.169264
  55 O :   -0.168901
  56 C :    0.011207
  57 C :   -0.086385
  58 C :    0.052289
  59 C :    0.029481
  60 C :   -0.124823
  61 C :    0.144836
  62 O :   -0.121502
  63 C :    0.082346
  64 C :   -0.171707
  65 S :    0.191483
  66 C :   -0.119075
  67 C :    0.018401
  68 C :    0.264199
  69 C :   -0.306742
  70 C :   -0.183776
  71 N :    0.165083
  72 C :   -0.150923
  73 N :    0.132444
  74 Cl:    0.004215
  75 H :    0.055022
  76 H :    0.039215
  77 H :    0.004169
  78 H :    0.013675
  79 H :   -0.001844
  80 H :    0.023558
  81 H :   -0.012067
  82 H :    0.024987
  83 H :    0.041349
  84 H :    0.030127
  85 H :    0.022273
  86 H :    0.021081
  87 H :    0.041194
  88 H :    0.021338
  89 H :    0.020620
  90 H :    0.020939
  91 H :    0.042377
  92 H :    0.007984
  93 H :   -0.005017
  94 H :    0.032676
  95 H :    0.027027
  96 H :    0.020351
  97 H :    0.018163
  98 H :    0.008705
  99 H :    0.007577
 100 H :    0.013187
 101 H :    0.015932
 102 H :    0.020580
 103 H :    0.056602
 104 H :    0.019956
 105 H :    0.048853
 106 H :    0.018444
 107 H :    0.055942
Sum of atomic charges:   -0.0000000

LOEWDIN ATOMIC CHARGES
----------------------
   0 C :   -0.060243
   1 C :   -0.147600
   2 S :    0.482140
   3 C :   -0.270592
   4 Cl:    0.196500
   5 C :   -0.117710
   6 C :    0.080062
   7 O :   -0.117379
   8 C :   -0.080777
   9 C :    0.073543
  10 C :   -0.130913
  11 C :   -0.015525
  12 N :   -0.046122
  13 C :   -0.024522
  14 N :   -0.041021
  15 C :    0.077761
  16 C :   -0.038078
  17 C :    0.044697
  18 C :   -0.026675
  19 N :    0.281804
  20 O :   -0.190672
  21 O :   -0.193693
  22 C :    0.007594
  23 C :   -0.000451
  24 C :    0.020673
  25 C :    0.020889
  26 C :   -0.020729
  27 C :    0.081738
  28 N :   -0.002530
  29 C :    0.035012
  30 C :   -0.063906
  31 C :    0.079989
  32 O :   -0.199778
  33 C :   -0.117094
  34 C :   -0.124438
  35 C :    0.083409
  36 O :   -0.204105
  37 N :   -0.001084
  38 C :    0.034077
  39 C :   -0.063739
  40 C :    0.074238
  41 C :   -0.030622
  42 C :    0.010338
  43 C :   -0.062535
  44 C :    0.078383
  45 O :   -0.145141
  46 O :   -0.061240
  47 C :    0.068100
  48 C :   -0.027869
  49 C :   -0.026643
  50 C :   -0.028663
  51 C :   -0.029882
  52 C :    0.069577
  53 O :   -0.056226
  54 C :    0.079765
  55 O :   -0.150655
  56 C :   -0.060547
  57 C :    0.034109
  58 C :   -0.034561
  59 C :    0.073604
  60 C :   -0.084355
  61 C :    0.081477
  62 O :   -0.128604
  63 C :   -0.117688
  64 C :   -0.270952
  65 S :    0.479989
  66 C :   -0.147249
  67 C :   -0.058588
  68 C :    0.077695
  69 C :   -0.135841
  70 C :   -0.018625
  71 N :   -0.040064
  72 C :    0.006763
  73 N :   -0.054464
  74 Cl:    0.195096
  75 H :    0.038442
  76 H :    0.048574
  77 H :    0.041287
  78 H :    0.044997
  79 H :    0.038398
  80 H :    0.041251
  81 H :    0.027469
  82 H :    0.022542
  83 H :    0.036430
  84 H :    0.023118
  85 H :    0.031080
  86 H :    0.029134
  87 H :    0.035887
  88 H :    0.018147
  89 H :    0.029901
  90 H :    0.030994
  91 H :    0.026706
  92 H :    0.044871
  93 H :    0.026508
  94 H :    0.040967
  95 H :    0.025824
  96 H :    0.035118
  97 H :    0.027376
  98 H :    0.033204
  99 H :    0.029110
 100 H :    0.028180
 101 H :    0.037299
 102 H :    0.031012
 103 H :    0.062984
 104 H :    0.032924
 105 H :    0.036117
 106 H :    0.046067
 107 H :    0.039451

  Mayer bond orders larger than 0.100000
B(  0-C ,  1-C ) :   1.5425 B(  0-C ,  5-C ) :   1.2200 B(  0-C ,  9-C ) :   1.0047
B(  1-C ,  2-S ) :   1.1659 B(  1-C , 75-H ) :   0.9533 B(  2-S ,  3-C ) :   1.1544
B(  3-C ,  4-Cl) :   1.1327 B(  3-C ,  5-C ) :   1.4738 B(  5-C ,  6-C ) :   0.9529
B(  6-C ,  7-O ) :   2.2476 B(  6-C ,  8-C ) :   0.9187 B(  8-C ,  9-C ) :   1.0455
B(  8-C , 15-C ) :   1.7047 B(  9-C , 10-C ) :   1.6724 B( 10-C , 11-C ) :   1.1440
B( 10-C , 13-C ) :   1.1342 B( 11-C , 12-N ) :   2.9943 B( 13-C , 14-N ) :   2.9823
B( 15-C , 16-C ) :   1.0482 B( 15-C , 76-H ) :   0.9475 B( 16-C , 17-C ) :   1.3056
B( 16-C , 24-C ) :   1.3183 B( 17-C , 18-C ) :   1.4407 B( 17-C , 77-H ) :   0.9764
B( 18-C , 19-N ) :   0.8619 B( 18-C , 22-C ) :   1.3111 B( 19-N , 20-O ) :   1.5500
B( 19-N , 21-O ) :   1.5258 B( 20-O , 21-O ) :   0.2676 B( 22-C , 23-C ) :   1.3393
B( 22-C , 25-C ) :   1.0807 B( 23-C , 24-C ) :   1.3803 B( 23-C , 78-H ) :   0.9981
B( 24-C , 79-H ) :   1.0012 B( 25-C , 26-C ) :   1.6558 B( 25-C , 80-H ) :   0.9405
B( 26-C , 27-C ) :   1.1733 B( 26-C , 81-H ) :   0.9482 B( 27-C , 28-N ) :   1.1675
B( 27-C , 34-C ) :   1.3594 B( 28-N , 29-C ) :   0.9433 B( 28-N , 31-C ) :   1.0334
B( 29-C , 30-C ) :   1.1184 B( 29-C , 82-H ) :   0.9498 B( 29-C , 83-H ) :   0.9283
B( 30-C , 84-H ) :   0.9603 B( 30-C , 85-H ) :   0.9656 B( 30-C , 86-H ) :   0.9612
B( 31-C , 32-O ) :   2.1324 B( 31-C , 33-C ) :   0.9760 B( 33-C , 34-C ) :   1.2210
B( 33-C , 40-C ) :   1.3887 B( 34-C , 35-C ) :   0.9932 B( 35-C , 36-O ) :   2.0209
B( 35-C , 37-N ) :   1.0577 B( 36-O , 80-H ) :   0.1008 B( 37-N , 38-C ) :   0.9413
B( 37-N , 40-C ) :   1.1738 B( 38-C , 39-C ) :   1.1131 B( 38-C , 87-H ) :   0.9234
B( 38-C , 88-H ) :   0.9508 B( 39-C , 89-H ) :   0.9607 B( 39-C , 90-H ) :   0.9663
B( 39-C , 91-H ) :   0.9627 B( 40-C , 41-C ) :   1.1317 B( 41-C , 42-C ) :   1.7432
B( 41-C , 92-H ) :   0.9481 B( 42-C , 43-C ) :   1.0179 B( 42-C , 93-H ) :   0.9688
B( 43-C , 44-C ) :   0.8749 B( 43-C , 48-C ) :   0.9539 B( 43-C , 94-H ) :   0.9011
B( 44-C , 45-O ) :   2.2173 B( 44-C , 46-O ) :   1.1554 B( 46-O , 47-C ) :   0.9338
B( 47-C , 48-C ) :   1.0170 B( 47-C , 52-C ) :   0.9675 B( 47-C , 95-H ) :   0.9001
B( 48-C , 49-C ) :   1.0735 B( 48-C , 96-H ) :   0.9047 B( 49-C , 50-C ) :   1.0563
B( 49-C , 97-H ) :   0.9264 B( 49-C , 98-H ) :   0.9183 B( 50-C , 51-C ) :   1.0877
B( 50-C , 99-H ) :   0.9221 B( 50-C ,100-H ) :   0.9337 B( 51-C , 52-C ) :   1.0247
B( 51-C , 56-C ) :   0.9995 B( 51-C ,101-H ) :   0.8962 B( 52-C , 53-O ) :   0.9587
B( 52-C ,102-H ) :   0.9156 B( 53-O , 54-C ) :   1.1639 B( 54-C , 55-O ) :   2.1785
B( 54-C , 56-C ) :   0.9170 B( 56-C , 57-C ) :   1.0008 B( 56-C ,103-H ) :   0.8594
B( 57-C , 58-C ) :   1.8044 B( 57-C ,104-H ) :   0.9712 B( 58-C , 59-C ) :   1.0873
B( 58-C ,105-H ) :   0.9174 B( 59-C , 60-C ) :   1.6707 B( 59-C ,106-H ) :   0.9602
B( 60-C , 61-C ) :   0.9289 B( 60-C , 68-C ) :   1.0307 B( 61-C , 62-O ) :   2.2886
B( 61-C , 63-C ) :   0.9262 B( 63-C , 64-C ) :   1.4839 B( 63-C , 67-C ) :   1.2199
B( 64-C , 65-S ) :   1.1533 B( 64-C , 74-Cl) :   1.1329 B( 65-S , 66-C ) :   1.1635
B( 66-C , 67-C ) :   1.5499 B( 66-C ,107-H ) :   0.9563 B( 67-C , 68-C ) :   1.0191
B( 68-C , 69-C ) :   1.6610 B( 69-C , 70-C ) :   1.1278 B( 69-C , 72-C ) :   1.1650
B( 70-C , 71-N ) :   3.0077 B( 72-C , 73-N ) :   2.9004

-----------------------------------------------------------------------------
         ABSORPTION SPECTRUM VIA TRANSITION ELECTRIC DIPOLE MOMENTS
-----------------------------------------------------------------------------
State   Energy  Wavelength   fosc         T2         TX        TY        TZ
        (cm-1)    (nm)                  (au**2)     (au)      (au)      (au)
-----------------------------------------------------------------------------
   0   16009.7    624.6   0.612229859  12.58948  -1.95204   2.31059   1.85478
   1   21285.5    469.8   0.000010022   0.00016   0.01110   0.00564  -0.00028
   2   21714.9    460.5   0.063721898   0.96607   0.54956   0.61193  -0.53813
   3   25113.8    398.2   0.138512526   1.81573  -0.73653   0.22243   1.10625
   4   25401.7    393.7   0.290247180   3.76167   0.69272  -1.74502  -0.48655
   5   27105.9    368.9   0.001955372   0.02375   0.10199   0.02569  -0.11263
   6   28432.6    351.7   0.163119583   1.88871  -0.65249  -0.96042   0.73524
   7   28504.0    350.8   0.058402649   0.67453  -0.53853   0.52538   0.32937
   8   28896.6    346.1   0.086403290   0.98437   0.46619  -0.86218   0.15392
   9   29349.0    340.7   0.005756484   0.06457  -0.16187   0.07794   0.17971
  10   29731.3    336.3   0.045204393   0.50054   0.19589   0.34923  -0.58327
  11   30050.9    332.8   0.261296586   2.86254  -0.58190  -0.18594   1.57777
  12   30314.0    329.9   0.382646915   4.15557  -0.67091   1.74706   0.80823
  13   31312.3    319.4   0.000472739   0.00497  -0.00106   0.01122   0.06959
  14   31682.6    315.6   0.000909108   0.00945   0.02891  -0.04653  -0.08029
  15   32917.6    303.8   0.046946498   0.46952   0.07053  -0.00236  -0.68157
  16   32971.1    303.3   0.042841832   0.42777  -0.40592  -0.24158   0.45237
  17   33179.6    301.4   0.012119238   0.12025  -0.16078  -0.20993   0.22434
  18   33531.9    298.2   0.040955635   0.40210  -0.21586  -0.37761  -0.46142
  19   33805.7    295.8   0.042738256   0.41620  -0.12887   0.11461  -0.62166
  20   34356.9    291.1   0.078423112   0.75146   0.03053  -0.84565  -0.18815
  21   34443.1    290.3   0.048965526   0.46802  -0.29885  -0.32937  -0.51983
  22   35215.5    284.0   0.001733968   0.01621   0.01896   0.10319   0.07213
  23   35576.5    281.1   0.019508456   0.18052  -0.29753   0.27568   0.12650
  24   35793.5    279.4   0.007269146   0.06686   0.04923   0.19028  -0.16801
  25   36537.7    273.7   0.222608217   2.00575  -0.32071   0.42348  -1.31284
  26   36854.5    271.3   0.000003537   0.00003   0.00095  -0.00073   0.00549
  27   37226.3    268.6   0.152595539   1.34948  -0.38084   1.09747   0.00249
  28   37578.6    266.1   1.290188010  11.30285   1.10321   0.87060   3.05415
  29   37755.5    264.9   0.105034112   0.91585  -0.13680   0.92924   0.18342
  30   38042.3    262.9   0.375852325   3.25257  -0.00281   0.73027  -1.64902
  31   38179.4    261.9   0.035563065   0.30665   0.20808   0.25029   0.44800
  32   38315.9    261.0   0.000301066   0.00259   0.00599  -0.04087   0.02967
  33   38706.4    258.4   0.001327295   0.01129  -0.07669   0.06004  -0.04245
  34   38755.8    258.0   0.061963899   0.52635   0.24907   0.43119  -0.52763
  35   39152.0    255.4   0.000482950   0.00406   0.01333  -0.05491  -0.02947
  36   39302.9    254.4   0.005693374   0.04769  -0.04670   0.20794  -0.04765
  37   39651.2    252.2   0.118141797   0.98090   0.31620  -0.66701   0.66032
  38   39988.0    250.1   0.023734907   0.19540   0.14654   0.29140  -0.29835
  39   40104.5    249.3   0.033723210   0.27683  -0.26411   0.19818   0.40963

FINAL SINGLE POINT ENERGY     -4925.224032308495

DIPOLE MOMENT
-------------
                                X             Y             Z
Electronic contribution:    -28.73867      36.86441      -7.70136
Nuclear contribution   :     27.92854     -38.40726       7.75027
                        -----------------------------------------
Total Dipole Moment    :     -0.81013      -1.54285       0.04891
                        -----------------------------------------
Magnitude (a.u.)       :      1.74330
Magnitude (Debye)      :      4.43113

Rotational constants in cm-1:     0.001754     0.000176     0.000169
Rotational constants in MHz :    52.585336     5.275151     5.067937

                             ****ORCA TERMINATED NORMALLY****
TOTAL RUN TIME: 0 days 0 hours 10 minutes 55 seconds 973 msec
