                         Program Version 4.2.0 -  RELEASE  -
|  1> # ORCA input file
|  2> # SCF done       -154.443307377506          0.000862938753
|  3> ! CAM-B3LYP def2-SVP def2/J RIJCOSX Grid4 TightSCF
|  4> %maxcore 5000
|  5> %tddft
|  6>     Mode sTDDFT
|  7>     Ethresh 5.0
|  8>     maxcore 5000
|  9> end
| 10>
| 11> %pal
| 12>   nprocs 6
| 13>   end
| 14> * xyz 0 1
| 15>    C       -0.92620        -0.49309         2.26417
| 16>    C       -0.43552         0.49274         1.45250
| 17>    C        0.33321         0.24717         0.29403
| 18>    N        0.99004         0.11899        -0.63859
| 19>    C       -0.50223         1.87590         1.70847
| 20>    N       -0.44311         3.01100         1.87087
| 21>    C       -0.68469        -1.91959         2.08216
| 22>    C       -0.96092        -2.59860         3.30456
| 23>    C       -0.79064        -3.94662         3.43546
| 24>    C       -0.34280        -4.69417         2.32418
| 25>    C       -0.08160        -4.02589         1.09244
| 26>    C       -0.25662        -2.62730         0.98989
| 27>    C        0.35227        -4.78675        -0.01281
| 28>    C        0.52051        -6.14057         0.09131
| 29>    C        0.26426        -6.79694         1.30477
| 30>    C       -0.15645        -6.08880         2.39756
| 31>    C       -1.44138        -1.63264         4.29953
| 32>    O       -1.73723        -1.81740         5.45412
| 33>    C       -1.56144        -0.32954         3.55998
| 34>    C       -2.23308         0.67512         4.16244
| 35>    C       -2.71166         1.90295         3.62255
| 36>    S       -2.91173         3.30610         4.66100
| 37>    C       -3.50926         4.11506         3.21867
| 38>    N       -3.53976         3.33158         2.18036
| 39>    N       -3.09912         2.12538         2.40065
| 40>    C       -3.83116         5.50113         3.25923
| 41>    C       -4.10630         6.23784         2.16133
| 42>    C       -4.29125         7.65298         2.16018
| 43>    S       -5.25677         8.35411         0.87795
| 44>    C       -5.16318         9.90749         1.57035
| 45>    C       -4.39917         9.92416         2.70613
| 46>    C       -4.14668        11.06798         3.48263
| 47>    N       -3.92110        11.96796         4.15707
| 48>    C       -3.86263         8.63710         3.04227
| 49>    N       -3.02491         8.50527         4.12811
| 50>    C       -2.01109         7.59389         4.29454
| 51>    C       -1.41023         6.89093         3.23420
| 52>    N       -0.55392         5.92562         3.43779
| 53>    C       -0.26471         5.59479         4.69560
| 54>    N       -0.68361         6.27849         5.76283
| 55>    C       -1.50713         7.28004         5.56679
| 56>    C        0.43283         4.34467         4.91003
| 57>    C        1.26190         3.77739         4.00584
| 58>    C        1.65188         2.37759         3.91889
| 59>    C        1.19828         1.35687         4.71453
| 60>    C        1.45598        -0.00739         4.47341
| 61>    N        1.58753        -1.13550         4.29811
| 62>    C        0.35802         1.51199         5.83678
| 63>    N       -0.33930         1.55541         6.74791
| 64>    C        2.45888         2.21479         2.71760
| 65>    C        2.60953         3.48316         2.08744
| 66>    C        1.93871         4.51964         2.89090
| 67>    O        2.03071         5.71437         2.75654
| 68>    C        3.27804         3.62561         0.90678
| 69>    C        3.82033         2.48315         0.27724
| 70>    C        3.68139         1.21122         0.90364
| 71>    C        3.00223         1.09714         2.13681
| 72>    C        4.21594         0.07549         0.26237
| 73>    C        4.85640         0.18913        -0.94083
| 74>    C        4.99652         1.44244        -1.55496
| 75>    C        4.48974         2.56514        -0.95884
| 76>    H       -0.99618        -4.43547         4.37582
| 77>    H       -0.06159        -2.14953         0.04232
| 78>    H        0.55085        -4.27710        -0.94432
| 79>    H        0.85201        -6.71434        -0.76122
| 80>    H        0.40123        -7.86607         1.36854
| 81>    H       -0.35509        -6.58810         3.33446
| 82>    H       -2.47166         0.50588         5.20908
| 83>    H       -3.82513         5.94483         4.24336
| 84>    H       -4.20482         5.72868         1.21271
| 85>    H       -5.66256        10.74036         1.11575
| 86>    H       -3.11560         9.22090         4.83905
| 87>    H       -1.61539         7.13701         2.20174
| 88>    H       -1.80422         7.84134         6.44500
| 89>    H        0.16084         3.83531         5.82461
| 90>    H        3.37437         4.59859         0.44868
| 91>    H        2.92456         0.12040         2.58876
| 92>    H        4.10104        -0.88780         0.73744
| 93>    H        5.25697        -0.68713        -1.42798
| 94>    H        5.50563         1.51379        -2.50458
| 95>    H        4.59129         3.53265        -1.42831
| 96> *
| 97>
| 98>                          ****END OF INPUT****

CARTESIAN COORDINATES (ANGSTROEM)
---------------------------------
  C     -0.926200   -0.493090    2.264170
  C     -0.435520    0.492740    1.452500
  C      0.333210    0.247170    0.294030
  N      0.990040    0.118990   -0.638590
  C     -0.502230    1.875900    1.708470
  N     -0.443110    3.011000    1.870870
  C     -0.684690   -1.919590    2.082160
  C     -0.960920   -2.598600    3.304560
  C     -0.790640   -3.946620    3.435460
  C     -0.342800   -4.694170    2.324180
  C     -0.081600   -4.025890    1.092440
  C     -0.256620   -2.627300    0.989890
  C      0.352270   -4.786750   -0.012810
  C      0.520510   -6.140570    0.091310
  C      0.264260   -6.796940    1.304770
  C     -0.156450   -6.088800    2.397560
  C     -1.441380   -1.632640    4.299530
  O     -1.737230   -1.817400    5.454120
  C     -1.561440   -0.329540    3.559980
  C     -2.233080    0.675120    4.162440
  C     -2.711660    1.902950    3.622550
  S     -2.911730    3.306100    4.661000
  C     -3.509260    4.115060    3.218670
  N     -3.539760    3.331580    2.180360
  N     -3.099120    2.125380    2.400650
  C     -3.831160    5.501130    3.259230
  C     -4.106300    6.237840    2.161330
  C     -4.291250    7.652980    2.160180
  S     -5.256770    8.354110    0.877950
  C     -5.163180    9.907490    1.570350
  C     -4.399170    9.924160    2.706130
  C     -4.146680   11.067980    3.482630
  N     -3.921100   11.967960    4.157070
  C     -3.862630    8.637100    3.042270
  N     -3.024910    8.505270    4.128110
  C     -2.011090    7.593890    4.294540
  C     -1.410230    6.890930    3.234200
  N     -0.553920    5.925620    3.437790
  C     -0.264710    5.594790    4.695600
  N     -0.683610    6.278490    5.762830
  C     -1.507130    7.280040    5.566790
  C      0.432830    4.344670    4.910030
  C      1.261900    3.777390    4.005840
  C      1.651880    2.377590    3.918890
  C      1.198280    1.356870    4.714530
  C      1.455980   -0.007390    4.473410
  N      1.587530   -1.135500    4.298110
  C      0.358020    1.511990    5.836780
  N     -0.339300    1.555410    6.747910
  C      2.458880    2.214790    2.717600
  C      2.609530    3.483160    2.087440
  C      1.938710    4.519640    2.890900
  O      2.030710    5.714370    2.756540
  C      3.278040    3.625610    0.906780
  C      3.820330    2.483150    0.277240
  C      3.681390    1.211220    0.903640
  C      3.002230    1.097140    2.136810
  C      4.215940    0.075490    0.262370
  C      4.856400    0.189130   -0.940830
  C      4.996520    1.442440   -1.554960
  C      4.489740    2.565140   -0.958840
  H     -0.996180   -4.435470    4.375820
  H     -0.061590   -2.149530    0.042320
  H      0.550850   -4.277100   -0.944320
  H      0.852010   -6.714340   -0.761220
  H      0.401230   -7.866070    1.368540
  H     -0.355090   -6.588100    3.334460
  H     -2.471660    0.505880    5.209080
  H     -3.825130    5.944830    4.243360
  H     -4.204820    5.728680    1.212710
  H     -5.662560   10.740360    1.115750
  H     -3.115600    9.220900    4.839050
  H     -1.615390    7.137010    2.201740
  H     -1.804220    7.841340    6.445000
  H      0.160840    3.835310    5.824610
  H      3.374370    4.598590    0.448680
  H      2.924560    0.120400    2.588760
  H      4.101040   -0.887800    0.737440
  H      5.256970   -0.687130   -1.427980
  H      5.505630    1.513790   -2.504580
  H      4.591290    3.532650   -1.428310

 Total Charge           Charge          ....    0
 Multiplicity           Mult            ....    1
 Number of Electrons    NEL             ....  420
 Basis Dimension        Dim             ....  962

ORBITAL ENERGIES
----------------

  NO   OCC          E(Eh)            E(eV)
   0   2.0000     -88.986680     -2421.4507
   1   2.0000     -88.978534     -2421.2290
   2   2.0000     -19.212124      -522.7885
   3   2.0000     -19.200098      -522.4612
   4   2.0000     -14.478066      -393.9682
   5   2.0000     -14.447827      -393.1453
   6   2.0000     -14.440082      -392.9346
   7   2.0000     -14.424315      -392.5056
   8   2.0000     -14.420836      -392.4109
   9   2.0000     -14.417558      -392.3217
  10   2.0000     -14.416074      -392.2813
  11   2.0000     -14.415857      -392.2754
  12   2.0000     -14.413358      -392.2074
  13   2.0000     -14.413313      -392.2062
  14   2.0000     -10.362004      -281.9645
  15   2.0000     -10.357167      -281.8328
  16   2.0000     -10.352104      -281.6951
  17   2.0000     -10.348854      -281.6066
  18   2.0000     -10.347248      -281.5629
  19   2.0000     -10.343312      -281.4558
  20   2.0000     -10.342992      -281.4471
  21   2.0000     -10.342134      -281.4238
  22   2.0000     -10.340829      -281.3883
  23   2.0000     -10.338783      -281.3326
  24   2.0000     -10.338203      -281.3168
  25   2.0000     -10.338121      -281.3146
  26   2.0000     -10.331237      -281.1272
  27   2.0000     -10.328501      -281.0528
  28   2.0000     -10.325438      -280.9695
  29   2.0000     -10.324471      -280.9431
  30   2.0000     -10.324248      -280.9371
  31   2.0000     -10.321779      -280.8699
  32   2.0000     -10.319398      -280.8051
  33   2.0000     -10.318563      -280.7824
  34   2.0000     -10.318208      -280.7727
  35   2.0000     -10.317669      -280.7581
  36   2.0000     -10.308206      -280.5005
  37   2.0000     -10.304586      -280.4020
  38   2.0000     -10.301673      -280.3228
  39   2.0000     -10.301659      -280.3224
  40   2.0000     -10.298924      -280.2480
  41   2.0000     -10.293999      -280.1140
  42   2.0000     -10.293831      -280.1094
  43   2.0000     -10.293249      -280.0935
  44   2.0000     -10.293117      -280.0899
  45   2.0000     -10.292935      -280.0850
  46   2.0000     -10.290714      -280.0246
  47   2.0000     -10.289124      -279.9813
  48   2.0000     -10.286854      -279.9195
  49   2.0000     -10.286317      -279.9049
  50   2.0000     -10.284110      -279.8449
  51   2.0000     -10.283679      -279.8331
  52   2.0000     -10.282958      -279.8135
  53   2.0000     -10.282689      -279.8062
  54   2.0000     -10.282191      -279.7926
  55   2.0000     -10.282120      -279.7907
  56   2.0000     -10.276522      -279.6384
  57   2.0000     -10.276374      -279.6343
  58   2.0000     -10.275179      -279.6018
  59   2.0000     -10.274949      -279.5956
  60   2.0000     -10.274490      -279.5831
  61   2.0000      -8.082606      -219.9389
  62   2.0000      -8.074118      -219.7079
  63   2.0000      -6.051890      -164.6803
  64   2.0000      -6.047572      -164.5628
  65   2.0000      -6.044787      -164.4870
  66   2.0000      -6.042729      -164.4310
  67   2.0000      -6.039347      -164.3390
  68   2.0000      -6.036690      -164.2667
  69   2.0000      -1.147799       -31.2332
  70   2.0000      -1.128151       -30.6986
  71   2.0000      -1.116749       -30.3883
  72   2.0000      -1.099011       -29.9056
  73   2.0000      -1.075847       -29.2753
  74   2.0000      -1.021136       -27.7865
  75   2.0000      -1.015376       -27.6298
  76   2.0000      -1.014868       -27.6160
  77   2.0000      -1.000191       -27.2166
  78   2.0000      -0.998411       -27.1681
  79   2.0000      -0.996059       -27.1041
  80   2.0000      -0.994039       -27.0492
  81   2.0000      -0.989230       -26.9183
  82   2.0000      -0.985115       -26.8064
  83   2.0000      -0.969597       -26.3841
  84   2.0000      -0.961819       -26.1724
  85   2.0000      -0.951744       -25.8983
  86   2.0000      -0.933813       -25.4103
  87   2.0000      -0.918434       -24.9919
  88   2.0000      -0.918009       -24.9803
  89   2.0000      -0.910693       -24.7812
  90   2.0000      -0.901780       -24.5387
  91   2.0000      -0.892071       -24.2745
  92   2.0000      -0.886336       -24.1184
  93   2.0000      -0.877212       -23.8702
  94   2.0000      -0.871527       -23.7155
  95   2.0000      -0.867939       -23.6178
  96   2.0000      -0.856640       -23.3104
  97   2.0000      -0.846511       -23.0347
  98   2.0000      -0.824912       -22.4470
  99   2.0000      -0.824587       -22.4382
 100   2.0000      -0.818289       -22.2668
 101   2.0000      -0.796557       -21.6754
 102   2.0000      -0.791665       -21.5423
 103   2.0000      -0.766263       -20.8511
 104   2.0000      -0.760200       -20.6861
 105   2.0000      -0.758298       -20.6343
 106   2.0000      -0.752385       -20.4734
 107   2.0000      -0.743283       -20.2258
 108   2.0000      -0.729351       -19.8467
 109   2.0000      -0.723492       -19.6872
 110   2.0000      -0.706849       -19.2343
 111   2.0000      -0.699729       -19.0406
 112   2.0000      -0.698051       -18.9949
 113   2.0000      -0.693259       -18.8645
 114   2.0000      -0.688652       -18.7392
 115   2.0000      -0.683567       -18.6008
 116   2.0000      -0.676319       -18.4036
 117   2.0000      -0.672695       -18.3050
 118   2.0000      -0.670625       -18.2486
 119   2.0000      -0.667364       -18.1599
 120   2.0000      -0.649196       -17.6655
 121   2.0000      -0.636223       -17.3125
 122   2.0000      -0.632250       -17.2044
 123   2.0000      -0.629111       -17.1190
 124   2.0000      -0.620191       -16.8763
 125   2.0000      -0.613349       -16.6901
 126   2.0000      -0.603975       -16.4350
 127   2.0000      -0.602652       -16.3990
 128   2.0000      -0.597759       -16.2658
 129   2.0000      -0.595550       -16.2057
 130   2.0000      -0.591728       -16.1018
 131   2.0000      -0.575449       -15.6588
 132   2.0000      -0.570338       -15.5197
 133   2.0000      -0.564255       -15.3541
 134   2.0000      -0.558366       -15.1939
 135   2.0000      -0.554076       -15.0772
 136   2.0000      -0.548803       -14.9337
 137   2.0000      -0.543622       -14.7927
 138   2.0000      -0.543336       -14.7849
 139   2.0000      -0.542000       -14.7486
 140   2.0000      -0.538340       -14.6490
 141   2.0000      -0.536984       -14.6121
 142   2.0000      -0.533449       -14.5159
 143   2.0000      -0.528246       -14.3743
 144   2.0000      -0.527295       -14.3484
 145   2.0000      -0.524516       -14.2728
 146   2.0000      -0.521211       -14.1829
 147   2.0000      -0.519377       -14.1330
 148   2.0000      -0.516181       -14.0460
 149   2.0000      -0.513198       -13.9648
 150   2.0000      -0.508630       -13.8405
 151   2.0000      -0.507832       -13.8188
 152   2.0000      -0.505159       -13.7461
 153   2.0000      -0.502999       -13.6873
 154   2.0000      -0.502080       -13.6623
 155   2.0000      -0.497085       -13.5264
 156   2.0000      -0.492441       -13.4000
 157   2.0000      -0.491953       -13.3867
 158   2.0000      -0.488316       -13.2878
 159   2.0000      -0.484934       -13.1957
 160   2.0000      -0.484607       -13.1868
 161   2.0000      -0.480870       -13.0852
 162   2.0000      -0.478048       -13.0084
 163   2.0000      -0.475613       -12.9421
 164   2.0000      -0.463707       -12.6181
 165   2.0000      -0.461653       -12.5622
 166   2.0000      -0.459452       -12.5023
 167   2.0000      -0.455688       -12.3999
 168   2.0000      -0.451328       -12.2813
 169   2.0000      -0.450920       -12.2702
 170   2.0000      -0.450108       -12.2481
 171   2.0000      -0.449344       -12.2273
 172   2.0000      -0.446524       -12.1505
 173   2.0000      -0.442187       -12.0325
 174   2.0000      -0.439075       -11.9478
 175   2.0000      -0.437693       -11.9102
 176   2.0000      -0.435317       -11.8456
 177   2.0000      -0.433909       -11.8073
 178   2.0000      -0.431638       -11.7455
 179   2.0000      -0.428256       -11.6534
 180   2.0000      -0.428063       -11.6482
 181   2.0000      -0.426816       -11.6143
 182   2.0000      -0.424050       -11.5390
 183   2.0000      -0.418393       -11.3851
 184   2.0000      -0.416471       -11.3328
 185   2.0000      -0.414800       -11.2873
 186   2.0000      -0.408089       -11.1047
 187   2.0000      -0.405856       -11.0439
 188   2.0000      -0.402197       -10.9443
 189   2.0000      -0.395707       -10.7677
 190   2.0000      -0.391683       -10.6582
 191   2.0000      -0.387012       -10.5311
 192   2.0000      -0.385337       -10.4856
 193   2.0000      -0.378242       -10.2925
 194   2.0000      -0.374498       -10.1906
 195   2.0000      -0.367186        -9.9916
 196   2.0000      -0.362187        -9.8556
 197   2.0000      -0.352660        -9.5964
 198   2.0000      -0.335203        -9.1213
 199   2.0000      -0.331542        -9.0217
 200   2.0000      -0.330511        -8.9937
 201   2.0000      -0.328165        -8.9298
 202   2.0000      -0.326767        -8.8918
 203   2.0000      -0.314346        -8.5538
 204   2.0000      -0.311848        -8.4858
 205   2.0000      -0.304376        -8.2825
 206   2.0000      -0.291316        -7.9271
 207   2.0000      -0.290973        -7.9178
 208   2.0000      -0.282591        -7.6897
 209   2.0000      -0.274411        -7.4671
 210   0.0000      -0.097619        -2.6563
 211   0.0000      -0.086240        -2.3467
 212   0.0000      -0.059765        -1.6263
 213   0.0000      -0.048999        -1.3333
 214   0.0000      -0.040643        -1.1060

MULLIKEN ATOMIC CHARGES
-----------------------
   0 C :    0.324167
   1 C :   -0.336658
   2 C :   -0.184157
   3 N :    0.158416
   4 C :   -0.152993
   5 N :    0.156127
   6 C :    0.029431
   7 C :    0.048316
   8 C :   -0.076703
   9 C :    0.096917
  10 C :    0.096113
  11 C :   -0.085281
  12 C :   -0.018697
  13 C :    0.036777
  14 C :    0.034395
  15 C :   -0.015057
  16 C :    0.134268
  17 O :   -0.125945
  18 C :   -0.132962
  19 C :    0.087199
  20 C :   -0.126344
  21 S :    0.127245
  22 C :   -0.113993
  23 N :   -0.044691
  24 N :   -0.035636
  25 C :    0.101939
  26 C :    0.016347
  27 C :   -0.237613
  28 S :    0.173630
  29 C :   -0.048431
  30 C :   -0.102763
  31 C :   -0.215227
  32 N :    0.141816
  33 C :    0.175621
  34 N :   -0.021252
  35 C :   -0.015266
  36 C :    0.042720
  37 N :   -0.004131
  38 C :   -0.089675
  39 N :   -0.031918
  40 C :    0.021089
  41 C :    0.017871
  42 C :   -0.049962
  43 C :    0.332166
  44 C :   -0.384586
  45 C :   -0.159944
  46 N :    0.133695
  47 C :   -0.195916
  48 N :    0.156862
  49 C :    0.039461
  50 C :    0.008053
  51 C :    0.180046
  52 O :   -0.125347
  53 C :   -0.086199
  54 C :    0.109726
  55 C :    0.104625
  56 C :   -0.101092
  57 C :   -0.006347
  58 C :    0.042522
  59 C :    0.042528
  60 C :   -0.018093
  61 H :   -0.012763
  62 H :   -0.007858
  63 H :   -0.014276
  64 H :   -0.007276
  65 H :   -0.005300
  66 H :   -0.017441
  67 H :    0.045279
  68 H :    0.010554
  69 H :    0.025448
  70 H :    0.043969
  71 H :    0.146386
  72 H :    0.021683
  73 H :   -0.000147
  74 H :    0.033494
  75 H :   -0.017618
  76 H :   -0.010974
  77 H :   -0.018066
  78 H :   -0.011458
  79 H :   -0.009348
  80 H :   -0.021497
Sum of atomic charges:   -0.0000000

LOEWDIN ATOMIC CHARGES
----------------------
   0 C :    0.077238
   1 C :   -0.123300
   2 C :   -0.014584
   3 N :   -0.050408
   4 C :   -0.006045
   5 N :   -0.046051
   6 C :   -0.018739
   7 C :   -0.048313
   8 C :    0.038816
   9 C :   -0.005648
  10 C :   -0.004892
  11 C :    0.017175
  12 C :   -0.007508
  13 C :   -0.014985
  14 C :   -0.013659
  15 C :   -0.008144
  16 C :    0.085739
  17 O :   -0.126145
  18 C :   -0.060041
  19 C :    0.030937
  20 C :   -0.162224
  21 S :    0.428531
  22 C :   -0.133678
  23 N :   -0.071258
  24 N :   -0.048216
  25 C :   -0.052895
  26 C :   -0.005400
  27 C :   -0.212561
  28 S :    0.481406
  29 C :   -0.132253
  30 C :   -0.126531
  31 C :   -0.040058
  32 N :   -0.048494
  33 C :    0.012441
  34 N :    0.029195
  35 C :   -0.024110
  36 C :    0.029772
  37 N :   -0.028098
  38 C :   -0.003955
  39 N :   -0.061667
  40 C :    0.011838
  41 C :    0.055877
  42 C :   -0.055240
  43 C :    0.087160
  44 C :   -0.150189
  45 C :   -0.009329
  46 N :   -0.063512
  47 C :   -0.017362
  48 N :   -0.057033
  49 C :   -0.032677
  50 C :   -0.047405
  51 C :    0.088564
  52 O :   -0.121794
  53 C :    0.032189
  54 C :   -0.002661
  55 C :   -0.004683
  56 C :    0.015708
  57 C :    0.000825
  58 C :   -0.012191
  59 C :   -0.009152
  60 C :   -0.009878
  61 H :    0.040013
  62 H :    0.037594
  63 H :    0.032926
  64 H :    0.032150
  65 H :    0.032444
  66 H :    0.032115
  67 H :    0.053079
  68 H :    0.032661
  69 H :    0.042578
  70 H :    0.038948
  71 H :    0.095688
  72 H :    0.031154
  73 H :    0.025050
  74 H :    0.044013
  75 H :    0.038162
  76 H :    0.036000
  77 H :    0.031925
  78 H :    0.031010
  79 H :    0.031391
  80 H :    0.030655

  Mayer bond orders larger than 0.100000
B(  0-C ,  1-C ) :   1.6684 B(  0-C ,  6-C ) :   0.9989 B(  0-C , 18-C ) :   1.0027
B(  1-C ,  2-C ) :   1.1360 B(  1-C ,  4-C ) :   1.1830 B(  2-C ,  3-N ) :   2.9563
B(  4-C ,  5-N ) :   2.9252 B(  6-C ,  7-C ) :   1.2140 B(  6-C , 11-C ) :   1.4470
B(  7-C ,  8-C ) :   1.4700 B(  7-C , 16-C ) :   0.9266 B(  8-C ,  9-C ) :   1.1867
B(  8-C , 61-H ) :   1.0161 B(  9-C , 10-C ) :   1.2555 B(  9-C , 15-C ) :   1.2421
B( 10-C , 11-C ) :   1.2096 B( 10-C , 12-C ) :   1.2389 B( 11-C , 62-H ) :   0.9915
B( 12-C , 13-C ) :   1.4914 B( 12-C , 63-H ) :   0.9969 B( 13-C , 14-C ) :   1.2578
B( 13-C , 64-H ) :   0.9880 B( 14-C , 15-C ) :   1.4912 B( 14-C , 65-H ) :   0.9889
B( 15-C , 66-H ) :   0.9974 B( 16-C , 17-O ) :   2.2819 B( 16-C , 18-C ) :   0.9105
B( 18-C , 19-C ) :   1.7719 B( 19-C , 20-C ) :   1.0485 B( 19-C , 67-H ) :   0.9068
B( 20-C , 21-S ) :   1.1073 B( 20-C , 24-N ) :   1.6339 B( 21-S , 22-C ) :   1.1060
B( 22-C , 23-N ) :   1.6852 B( 22-C , 25-C ) :   1.1178 B( 23-N , 24-N ) :   1.2440
B( 25-C , 26-C ) :   1.7387 B( 25-C , 68-H ) :   0.9243 B( 26-C , 27-C ) :   1.0962
B( 26-C , 69-H ) :   0.9555 B( 27-C , 28-S ) :   1.1123 B( 27-C , 33-C ) :   1.4468
B( 28-S , 29-C ) :   1.2063 B( 28-S , 30-C ) :   0.1124 B( 29-C , 30-C ) :   1.5346
B( 29-C , 70-H ) :   0.9757 B( 30-C , 31-C ) :   1.0963 B( 30-C , 33-C ) :   1.2550
B( 31-C , 32-N ) :   3.0253 B( 33-C , 34-N ) :   1.1766 B( 34-N , 35-C ) :   1.1009
B( 34-N , 71-H ) :   0.8959 B( 35-C , 36-C ) :   1.2772 B( 35-C , 40-C ) :   1.3102
B( 36-C , 37-N ) :   1.6256 B( 36-C , 72-H ) :   0.9783 B( 37-N , 38-C ) :   1.4854
B( 38-C , 39-N ) :   1.5043 B( 38-C , 41-C ) :   1.0224 B( 39-N , 40-C ) :   1.5959
B( 40-C , 73-H ) :   0.9893 B( 41-C , 42-C ) :   1.6948 B( 41-C , 74-H ) :   0.9420
B( 42-C , 43-C ) :   1.0680 B( 42-C , 51-C ) :   0.9082 B( 43-C , 44-C ) :   1.6127
B( 43-C , 49-C ) :   0.9940 B( 44-C , 45-C ) :   1.1618 B( 44-C , 47-C ) :   1.1554
B( 45-C , 46-N ) :   2.9045 B( 47-C , 48-N ) :   2.9345 B( 49-C , 50-C ) :   1.2187
B( 49-C , 56-C ) :   1.4315 B( 50-C , 51-C ) :   0.9278 B( 50-C , 53-C ) :   1.4763
B( 51-C , 52-O ) :   2.2807 B( 53-C , 54-C ) :   1.1721 B( 53-C , 75-H ) :   1.0157
B( 54-C , 55-C ) :   1.2604 B( 54-C , 60-C ) :   1.2460 B( 55-C , 56-C ) :   1.2050
B( 55-C , 57-C ) :   1.2371 B( 56-C , 76-H ) :   0.9938 B( 57-C , 58-C ) :   1.4896
B( 57-C , 77-H ) :   0.9963 B( 58-C , 59-C ) :   1.2605 B( 58-C , 78-H ) :   0.9874
B( 59-C , 60-C ) :   1.4869 B( 59-C , 79-H ) :   0.9875 B( 60-C , 80-H ) :   0.9964

-----------------------------------------------------------------------------
         ABSORPTION SPECTRUM VIA TRANSITION ELECTRIC DIPOLE MOMENTS
-----------------------------------------------------------------------------
State   Energy  Wavelength   fosc         T2         TX        TY        TZ
        (cm-1)    (nm)                  (au**2)     (au)      (au)      (au)
-----------------------------------------------------------------------------
   0   21238.9    470.8   0.015702657   0.24340   0.34351   0.30204   0.18487
   1   23056.2    433.7   0.011743122   0.16768  -0.26512   0.28133  -0.13506
   2   24266.3    412.1   0.314087703   4.26112  -0.90380   1.84768   0.17424
   3   24643.6    405.8   0.189901033   2.53688   1.05589  -1.19087  -0.06171
   4   25398.7    393.7   0.091437723   1.18519   0.24335  -0.96790  -0.43490
   5   25543.5    391.5   0.081249991   1.04717  -0.09780  -1.00489   0.16677
   6   25746.0    388.4   0.533273179   6.81892   1.42916  -2.17082  -0.25291
   7   26706.0    374.4   0.029225422   0.36027  -0.38193   0.46191   0.03216
   8   27300.2    366.3   0.030931435   0.37300  -0.45801  -0.23615   0.32782
   9   27879.1    358.7   0.126750660   1.49674   0.80584   0.60610  -0.69283
  10   28107.7    355.8   0.009885578   0.11578   0.11944   0.20575  -0.24328
  11   28637.2    349.2   0.066287347   0.76204   0.28436   0.53439   0.62896
  12   28829.3    346.9   0.008631208   0.09856   0.25904   0.17137   0.04575
  13   29244.5    341.9   0.042204834   0.47511  -0.66679  -0.14688   0.09448
  14   29653.8    337.2   0.212443487   2.35851  -0.40396   1.37705   0.54687
  15   30065.4    332.6   0.236524972   2.58992   0.17790   1.59134  -0.16096
  16   31062.1    321.9   0.031011393   0.32867  -0.55437   0.05321   0.13608
  17   31446.3    318.0   0.023973993   0.25098  -0.24681   0.43537   0.02281
  18   32391.3    308.7   0.350736197   3.56474   0.01505  -1.82655   0.47772
  19   32767.1    305.2   0.599062684   6.01880   1.24759  -2.11160  -0.05895
  20   33008.9    302.9   0.207360926   2.06810  -0.61640  -0.83024   0.99943
  21   33347.1    299.9   0.158914865   1.56885  -1.01926  -0.28110   0.67152
  22   33827.5    295.6   0.059282868   0.57695  -0.12328   0.06656   0.74654
  23   33980.0    294.3   0.010368391   0.10045   0.10042   0.30036   0.01227
  24   34077.4    293.4   0.242104246   2.33890   0.15505  -1.48250   0.34212
  25   34316.1    291.4   0.016950276   0.16261   0.23677   0.30136  -0.12543
  26   34524.2    289.7   0.021799323   0.20787  -0.17422  -0.07432   0.41472
  27   34664.9    288.5   0.213056618   2.02339   0.51580  -0.46877  -1.24000
  28   34900.9    286.5   0.091068893   0.85903   0.63130  -0.39659  -0.55065
  29   35547.9    281.3   0.057144204   0.52922   0.13924  -0.56792  -0.43278
  30   35838.2    279.0   0.035692109   0.32787   0.08583  -0.41797   0.38185
  31   36217.3    276.1   0.199673529   1.81502   0.62386  -1.18343  -0.15907
  32   36249.3    275.9   0.008619144   0.07828   0.15808  -0.20664  -0.10290
  33   36665.8    272.7   0.015366325   0.13797   0.16988  -0.07900  -0.32074
  34   36773.8    271.9   0.007141620   0.06393   0.04901   0.04438   0.24406
  35   37132.6    269.3   0.066935864   0.59344  -0.17444   0.55119   0.50912
  36   37349.9    267.7   0.079676940   0.70229   0.51374  -0.05692  -0.65964
  37   37764.1    264.8   0.042978982   0.37467  -0.33631   0.36746   0.35573
  38   37923.4    263.7   0.060797328   0.52778  -0.30772   0.28500   0.59318
  39   38162.3    262.0   0.011795545   0.10176   0.04761  -0.22890   0.21702
  40   38609.2    259.0   0.084286814   0.71869  -0.37034   0.54760   0.53073
  41   38716.6    258.3   0.003755718   0.03194  -0.14620  -0.05293  -0.08808
  42   39153.6    255.4   0.176854507   1.48703  -0.13715   1.06229  -0.58288
  43   39508.5    253.1   0.048970254   0.40805  -0.26453  -0.40209   0.42000
  44   39960.7    250.2   0.063339308   0.52181  -0.14426  -0.70261  -0.08569
  45   40250.9    248.4   0.048014099   0.39271  -0.17485  -0.19229   0.57023

FINAL SINGLE POINT ENERGY     -3293.843666894899

DIPOLE MOMENT
-------------
                                X             Y             Z
Electronic contribution:    -15.41517      21.64837      13.73259
Nuclear contribution   :     14.74642     -22.17358     -15.58776
                        -----------------------------------------
Total Dipole Moment    :     -0.66875      -0.52521      -1.85517
                        -----------------------------------------
Magnitude (a.u.)       :      2.04077
Magnitude (Debye)      :      5.18721

Rotational constants in cm-1:     0.002487     0.000841     0.000759
Rotational constants in MHz :    74.559784    25.201506    22.759001

                             ****ORCA TERMINATED NORMALLY****
TOTAL RUN TIME: 0 days 0 hours 7 minutes 55 seconds 102 msec
