                         Program Version 4.2.0 -  RELEASE  -
|  1> # ORCA input file
|  2> # SCF done       -199.216389226869          0.000832296252
|  3> ! CAM-B3LYP def2-SVP def2/J RIJCOSX Grid4 TightSCF
|  4> %maxcore 5000
|  5> %tddft
|  6>     Mode sTDDFT
|  7>     Ethresh 5.0
|  8>     maxcore 5000
|  9> end
| 10>
| 11> %pal
| 12>   nprocs 6
| 13>   end
| 14> * xyz 0 1
| 15>    C        0.22556         0.47528        -0.43996
| 16>    C       -0.41322         1.34635        -1.27626
| 17>    C       -1.06544         0.95415        -2.46353
| 18>    N       -1.61116         0.68054        -3.43513
| 19>    C       -0.39221         2.74755        -1.10644
| 20>    N       -0.32694         3.89238        -1.06137
| 21>    C        0.48689        -0.93371        -0.70880
| 22>    C        1.56686        -1.36381         0.11863
| 23>    C        2.05512        -2.63789         0.05578
| 24>    C        1.46896        -3.55692        -0.84273
| 25>    C        0.37975        -3.13740        -1.66111
| 26>    C       -0.10049        -1.81021        -1.58112
| 27>    C       -0.20086        -4.06777        -2.54703
| 28>    C        0.27041        -5.34998        -2.62375
| 29>    C        1.34302        -5.76182        -1.81835
| 30>    C        1.92992        -4.88439        -0.94771
| 31>    C        1.98824        -0.25569         0.99143
| 32>    O        2.90241        -0.22385         1.78048
| 33>    C        0.98462         0.82695         0.74696
| 34>    C        0.81966         1.80339         1.66956
| 35>    C       -0.30195         2.66318         1.81732
| 36>    S       -0.27146         4.06468         2.87433
| 37>    C       -1.95407         4.27923         2.42479
| 38>    N       -2.37311         3.34989         1.60225
| 39>    N       -1.47521         2.47796         1.27027
| 40>    C       -2.74198         5.34372         2.93021
| 41>    C       -4.02777         5.53516         2.53779
| 42>    C       -4.83096         6.58139         3.05249
| 43>    N       -6.13379         6.80604         2.68102
| 44>    C       -6.91295         6.01841         1.75682
| 45>    C       -7.41794         4.72684         2.39557
| 46>    C       -6.69619         7.91092         3.35714
| 47>    O       -7.83403         8.29193         3.18661
| 48>    C       -5.62134         8.38494         4.20222
| 49>    C       -4.49786         7.55868         3.99455
| 50>    C       -3.43737         8.04581         4.84955
| 51>    O       -2.30146         7.65525         5.03492
| 52>    N       -3.99436         9.15078         5.51853
| 53>    C       -3.18017         9.88875         6.45536
| 54>    C       -2.57794        11.14170         5.82396
| 55>    C       -5.30179         9.37279         5.14116
| 56>    C       -6.23237        10.34546         5.56804
| 57>    C       -6.04118        11.40963         6.39720
| 58>    C       -7.01945        12.36983         6.77210
| 59>    C       -8.35590        12.41921         6.29294
| 60>    C       -9.30952        13.31652         6.87176
| 61>    N      -10.54304        13.41239         6.34746
| 62>    C      -10.89522        12.58444         5.40701
| 63>    C       -9.98741        11.63469         4.89564
| 64>    N       -8.74927        11.60759         5.29642
| 65>    C       -8.95919        14.14425         7.96713
| 66>    C       -7.59285        14.22552         8.32335
| 67>    C       -6.63593        13.34694         7.73636
| 68>    N       -5.34637        13.40357         8.12867
| 69>    C       -5.01686        14.26444         9.05259
| 70>    C       -5.96701        15.12828         9.63401
| 71>    N       -7.22016        15.10577         9.27508
| 72>    C       -9.92958        14.92156         8.65434
| 73>    C      -11.22666        14.54529         8.84215
| 74>    C      -12.32204        15.38593         9.28064
| 75>    C      -12.30103        16.75289         9.38642
| 76>    C      -13.40479        17.53117         9.79202
| 77>    N      -14.26296        18.21934        10.12139
| 78>    C      -11.19127        17.57129         9.08905
| 79>    N      -10.34415        18.31000         8.85319
| 80>    C      -13.48195        14.53126         9.50443
| 81>    C      -13.11861        13.18636         9.20885
| 82>    C      -11.69889        13.13218         8.81980
| 83>    O      -11.03704        12.12930         8.65067
| 84>    C      -14.00812        12.15751         9.32377
| 85>    C      -15.33017        12.43180         9.74057
| 86>    C      -15.70011        13.77378        10.04384
| 87>    C      -14.75504        14.81822         9.92084
| 88>    C      -17.01914        14.03508        10.46734
| 89>    C      -17.93089        13.02148        10.58437
| 90>    C      -17.56597        11.70065        10.28391
| 91>    C      -16.29360        11.41232         9.87046
| 92>    H        2.87736        -2.94209         0.68633
| 93>    H       -0.93229        -1.51951        -2.20367
| 94>    H       -1.02439        -3.74531        -3.16696
| 95>    H       -0.18074        -6.05476        -3.30600
| 96>    H        1.70143        -6.77769        -1.89127
| 97>    H        2.75606        -5.19557        -0.32527
| 98>    H        1.58637         1.88148         2.43191
| 99>    H       -2.27820         6.00351         3.65039
|100>    H       -4.44904         4.86122         1.80649
|101>    H       -6.31676         5.80374         0.86594
|102>    H       -7.76398         6.64358         1.47188
|103>    H       -6.58913         4.10153         2.71956
|104>    H       -8.01420         4.17141         1.67710
|105>    H       -8.03800         4.95697         3.25862
|106>    H       -2.37139         9.21021         6.74481
|107>    H       -3.76880        10.12797         7.34339
|108>    H       -1.91662        10.86022         5.00807
|109>    H       -2.00145        11.68576         6.56680
|110>    H       -3.35151        11.79723         5.43142
|111>    H       -7.21808        10.20398         5.14313
|112>    H       -5.07983        11.60833         6.84557
|113>    H      -11.88651        12.70593         4.99233
|114>    H      -10.25420        10.95155         4.10171
|115>    H       -3.97313        14.29842         9.33397
|116>    H       -5.68774        15.85711        10.38216
|117>    H       -9.56763        15.86254         9.04876
|118>    H      -13.70721        11.14539         9.09655
|119>    H      -15.06374        15.82220        10.16558
|120>    H      -17.29547        15.05379        10.69678
|121>    H      -18.93884        13.23190        10.90934
|122>    H      -18.29781        10.91279        10.38236
|123>    H      -16.00654        10.39695         9.63868
|124> *
|125>
|126>                          ****END OF INPUT****

CARTESIAN COORDINATES (ANGSTROEM)
---------------------------------
  C      0.225560    0.475280   -0.439960
  C     -0.413220    1.346350   -1.276260
  C     -1.065440    0.954150   -2.463530
  N     -1.611160    0.680540   -3.435130
  C     -0.392210    2.747550   -1.106440
  N     -0.326940    3.892380   -1.061370
  C      0.486890   -0.933710   -0.708800
  C      1.566860   -1.363810    0.118630
  C      2.055120   -2.637890    0.055780
  C      1.468960   -3.556920   -0.842730
  C      0.379750   -3.137400   -1.661110
  C     -0.100490   -1.810210   -1.581120
  C     -0.200860   -4.067770   -2.547030
  C      0.270410   -5.349980   -2.623750
  C      1.343020   -5.761820   -1.818350
  C      1.929920   -4.884390   -0.947710
  C      1.988240   -0.255690    0.991430
  O      2.902410   -0.223850    1.780480
  C      0.984620    0.826950    0.746960
  C      0.819660    1.803390    1.669560
  C     -0.301950    2.663180    1.817320
  S     -0.271460    4.064680    2.874330
  C     -1.954070    4.279230    2.424790
  N     -2.373110    3.349890    1.602250
  N     -1.475210    2.477960    1.270270
  C     -2.741980    5.343720    2.930210
  C     -4.027770    5.535160    2.537790
  C     -4.830960    6.581390    3.052490
  N     -6.133790    6.806040    2.681020
  C     -6.912950    6.018410    1.756820
  C     -7.417940    4.726840    2.395570
  C     -6.696190    7.910920    3.357140
  O     -7.834030    8.291930    3.186610
  C     -5.621340    8.384940    4.202220
  C     -4.497860    7.558680    3.994550
  C     -3.437370    8.045810    4.849550
  O     -2.301460    7.655250    5.034920
  N     -3.994360    9.150780    5.518530
  C     -3.180170    9.888750    6.455360
  C     -2.577940   11.141700    5.823960
  C     -5.301790    9.372790    5.141160
  C     -6.232370   10.345460    5.568040
  C     -6.041180   11.409630    6.397200
  C     -7.019450   12.369830    6.772100
  C     -8.355900   12.419210    6.292940
  C     -9.309520   13.316520    6.871760
  N    -10.543040   13.412390    6.347460
  C    -10.895220   12.584440    5.407010
  C     -9.987410   11.634690    4.895640
  N     -8.749270   11.607590    5.296420
  C     -8.959190   14.144250    7.967130
  C     -7.592850   14.225520    8.323350
  C     -6.635930   13.346940    7.736360
  N     -5.346370   13.403570    8.128670
  C     -5.016860   14.264440    9.052590
  C     -5.967010   15.128280    9.634010
  N     -7.220160   15.105770    9.275080
  C     -9.929580   14.921560    8.654340
  C    -11.226660   14.545290    8.842150
  C    -12.322040   15.385930    9.280640
  C    -12.301030   16.752890    9.386420
  C    -13.404790   17.531170    9.792020
  N    -14.262960   18.219340   10.121390
  C    -11.191270   17.571290    9.089050
  N    -10.344150   18.310000    8.853190
  C    -13.481950   14.531260    9.504430
  C    -13.118610   13.186360    9.208850
  C    -11.698890   13.132180    8.819800
  O    -11.037040   12.129300    8.650670
  C    -14.008120   12.157510    9.323770
  C    -15.330170   12.431800    9.740570
  C    -15.700110   13.773780   10.043840
  C    -14.755040   14.818220    9.920840
  C    -17.019140   14.035080   10.467340
  C    -17.930890   13.021480   10.584370
  C    -17.565970   11.700650   10.283910
  C    -16.293600   11.412320    9.870460
  H      2.877360   -2.942090    0.686330
  H     -0.932290   -1.519510   -2.203670
  H     -1.024390   -3.745310   -3.166960
  H     -0.180740   -6.054760   -3.306000
  H      1.701430   -6.777690   -1.891270
  H      2.756060   -5.195570   -0.325270
  H      1.586370    1.881480    2.431910
  H     -2.278200    6.003510    3.650390
  H     -4.449040    4.861220    1.806490
  H     -6.316760    5.803740    0.865940
  H     -7.763980    6.643580    1.471880
  H     -6.589130    4.101530    2.719560
  H     -8.014200    4.171410    1.677100
  H     -8.038000    4.956970    3.258620
  H     -2.371390    9.210210    6.744810
  H     -3.768800   10.127970    7.343390
  H     -1.916620   10.860220    5.008070
  H     -2.001450   11.685760    6.566800
  H     -3.351510   11.797230    5.431420
  H     -7.218080   10.203980    5.143130
  H     -5.079830   11.608330    6.845570
  H    -11.886510   12.705930    4.992330
  H    -10.254200   10.951550    4.101710
  H     -3.973130   14.298420    9.333970
  H     -5.687740   15.857110   10.382160
  H     -9.567630   15.862540    9.048760
  H    -13.707210   11.145390    9.096550
  H    -15.063740   15.822200   10.165580
  H    -17.295470   15.053790   10.696780
  H    -18.938840   13.231900   10.909340
  H    -18.297810   10.912790   10.382360
  H    -16.006540   10.396950    9.638680

 Total Charge           Charge          ....    0
 Multiplicity           Mult            ....    1
 Number of Electrons    NEL             ....  524
 Basis Dimension        Dim             .... 1242

ORBITAL ENERGIES
----------------

  NO   OCC          E(Eh)            E(eV)
   0   2.0000     -88.983896     -2421.3749
   1   2.0000     -19.220025      -523.0035
   2   2.0000     -19.208484      -522.6894
   3   2.0000     -19.195979      -522.3491
   4   2.0000     -19.192794      -522.2625
   5   2.0000     -14.455761      -393.3613
   6   2.0000     -14.454922      -393.3384
   7   2.0000     -14.453297      -393.2942
   8   2.0000     -14.447567      -393.1383
   9   2.0000     -14.439617      -392.9220
  10   2.0000     -14.436659      -392.8415
  11   2.0000     -14.429828      -392.6556
  12   2.0000     -14.429675      -392.6514
  13   2.0000     -14.415889      -392.2763
  14   2.0000     -14.411144      -392.1472
  15   2.0000     -14.409603      -392.1052
  16   2.0000     -14.408043      -392.0628
  17   2.0000     -10.377517      -282.3866
  18   2.0000     -10.376165      -282.3498
  19   2.0000     -10.370766      -282.2029
  20   2.0000     -10.360540      -281.9246
  21   2.0000     -10.352020      -281.6928
  22   2.0000     -10.351841      -281.6879
  23   2.0000     -10.345075      -281.5038
  24   2.0000     -10.344356      -281.4842
  25   2.0000     -10.339036      -281.3395
  26   2.0000     -10.337840      -281.3069
  27   2.0000     -10.335843      -281.2526
  28   2.0000     -10.333950      -281.2011
  29   2.0000     -10.333042      -281.1764
  30   2.0000     -10.332829      -281.1706
  31   2.0000     -10.332264      -281.1552
  32   2.0000     -10.332215      -281.1539
  33   2.0000     -10.331727      -281.1406
  34   2.0000     -10.329387      -281.0769
  35   2.0000     -10.327681      -281.0305
  36   2.0000     -10.326091      -280.9872
  37   2.0000     -10.324876      -280.9542
  38   2.0000     -10.317518      -280.7539
  39   2.0000     -10.313819      -280.6533
  40   2.0000     -10.312503      -280.6175
  41   2.0000     -10.310744      -280.5696
  42   2.0000     -10.309682      -280.5407
  43   2.0000     -10.309324      -280.5310
  44   2.0000     -10.308606      -280.5114
  45   2.0000     -10.305706      -280.4325
  46   2.0000     -10.305378      -280.4236
  47   2.0000     -10.304818      -280.4084
  48   2.0000     -10.301814      -280.3266
  49   2.0000     -10.301200      -280.3099
  50   2.0000     -10.299280      -280.2577
  51   2.0000     -10.299140      -280.2539
  52   2.0000     -10.299112      -280.2531
  53   2.0000     -10.298602      -280.2392
  54   2.0000     -10.298109      -280.2258
  55   2.0000     -10.296879      -280.1923
  56   2.0000     -10.294361      -280.1238
  57   2.0000     -10.294045      -280.1152
  58   2.0000     -10.292974      -280.0861
  59   2.0000     -10.292714      -280.0790
  60   2.0000     -10.292262      -280.0667
  61   2.0000     -10.291636      -280.0496
  62   2.0000     -10.287490      -279.9368
  63   2.0000     -10.287168      -279.9281
  64   2.0000     -10.287072      -279.9254
  65   2.0000     -10.286783      -279.9176
  66   2.0000     -10.286088      -279.8987
  67   2.0000     -10.284359      -279.8516
  68   2.0000     -10.283971      -279.8411
  69   2.0000     -10.283921      -279.8397
  70   2.0000     -10.283449      -279.8269
  71   2.0000     -10.283065      -279.8164
  72   2.0000     -10.282532      -279.8019
  73   2.0000     -10.266135      -279.3557
  74   2.0000     -10.265819      -279.3471
  75   2.0000     -10.263537      -279.2851
  76   2.0000     -10.260454      -279.2011
  77   2.0000      -8.080052      -219.8694
  78   2.0000      -6.048601      -164.5908
  79   2.0000      -6.045246      -164.4995
  80   2.0000      -6.042627      -164.4283
  81   2.0000      -1.154985       -31.4287
  82   2.0000      -1.136440       -30.9241
  83   2.0000      -1.135232       -30.8912
  84   2.0000      -1.129556       -30.7368
  85   2.0000      -1.124353       -30.5952
  86   2.0000      -1.096426       -29.8353
  87   2.0000      -1.087559       -29.5940
  88   2.0000      -1.065713       -28.9995
  89   2.0000      -1.056221       -28.7412
  90   2.0000      -1.019905       -27.7530
  91   2.0000      -1.017918       -27.6989
  92   2.0000      -1.011637       -27.5281
  93   2.0000      -1.010552       -27.4985
  94   2.0000      -0.998672       -27.1753
  95   2.0000      -0.992935       -27.0191
  96   2.0000      -0.991953       -26.9924
  97   2.0000      -0.987152       -26.8618
  98   2.0000      -0.974327       -26.5128
  99   2.0000      -0.968372       -26.3507
 100   2.0000      -0.961305       -26.1584
 101   2.0000      -0.954982       -25.9864
 102   2.0000      -0.937973       -25.5235
 103   2.0000      -0.929652       -25.2971
 104   2.0000      -0.921435       -25.0735
 105   2.0000      -0.921131       -25.0653
 106   2.0000      -0.911424       -24.8011
 107   2.0000      -0.898420       -24.4473
 108   2.0000      -0.893308       -24.3081
 109   2.0000      -0.889370       -24.2010
 110   2.0000      -0.882042       -24.0016
 111   2.0000      -0.878370       -23.9017
 112   2.0000      -0.875643       -23.8275
 113   2.0000      -0.874709       -23.8020
 114   2.0000      -0.868544       -23.6343
 115   2.0000      -0.858566       -23.3628
 116   2.0000      -0.842600       -22.9283
 117   2.0000      -0.829303       -22.5665
 118   2.0000      -0.824436       -22.4340
 119   2.0000      -0.820815       -22.3355
 120   2.0000      -0.812531       -22.1101
 121   2.0000      -0.805405       -21.9162
 122   2.0000      -0.797966       -21.7138
 123   2.0000      -0.791842       -21.5471
 124   2.0000      -0.775216       -21.0947
 125   2.0000      -0.771894       -21.0043
 126   2.0000      -0.762030       -20.7359
 127   2.0000      -0.760683       -20.6992
 128   2.0000      -0.755713       -20.5640
 129   2.0000      -0.734764       -19.9939
 130   2.0000      -0.733226       -19.9521
 131   2.0000      -0.730655       -19.8821
 132   2.0000      -0.721301       -19.6276
 133   2.0000      -0.711846       -19.3703
 134   2.0000      -0.709802       -19.3147
 135   2.0000      -0.703866       -19.1532
 136   2.0000      -0.702554       -19.1175
 137   2.0000      -0.699901       -19.0453
 138   2.0000      -0.694527       -18.8990
 139   2.0000      -0.693780       -18.8787
 140   2.0000      -0.680920       -18.5288
 141   2.0000      -0.677408       -18.4332
 142   2.0000      -0.675393       -18.3784
 143   2.0000      -0.667831       -18.1726
 144   2.0000      -0.663170       -18.0458
 145   2.0000      -0.654025       -17.7969
 146   2.0000      -0.651442       -17.7266
 147   2.0000      -0.645882       -17.5753
 148   2.0000      -0.638441       -17.3729
 149   2.0000      -0.632777       -17.2187
 150   2.0000      -0.629723       -17.1356
 151   2.0000      -0.613001       -16.6806
 152   2.0000      -0.608715       -16.5640
 153   2.0000      -0.604952       -16.4616
 154   2.0000      -0.603664       -16.4265
 155   2.0000      -0.602774       -16.4023
 156   2.0000      -0.602246       -16.3880
 157   2.0000      -0.597456       -16.2576
 158   2.0000      -0.592429       -16.1208
 159   2.0000      -0.587017       -15.9735
 160   2.0000      -0.585830       -15.9412
 161   2.0000      -0.575740       -15.6667
 162   2.0000      -0.572649       -15.5826
 163   2.0000      -0.567658       -15.4468
 164   2.0000      -0.565820       -15.3967
 165   2.0000      -0.562084       -15.2951
 166   2.0000      -0.558868       -15.2076
 167   2.0000      -0.555298       -15.1104
 168   2.0000      -0.553285       -15.0556
 169   2.0000      -0.548468       -14.9246
 170   2.0000      -0.547312       -14.8931
 171   2.0000      -0.543842       -14.7987
 172   2.0000      -0.542463       -14.7612
 173   2.0000      -0.540325       -14.7030
 174   2.0000      -0.536639       -14.6027
 175   2.0000      -0.535033       -14.5590
 176   2.0000      -0.532757       -14.4971
 177   2.0000      -0.531389       -14.4598
 178   2.0000      -0.529802       -14.4166
 179   2.0000      -0.529435       -14.4067
 180   2.0000      -0.524573       -14.2744
 181   2.0000      -0.521883       -14.2012
 182   2.0000      -0.521696       -14.1961
 183   2.0000      -0.520119       -14.1532
 184   2.0000      -0.518211       -14.1012
 185   2.0000      -0.517619       -14.0851
 186   2.0000      -0.516689       -14.0598
 187   2.0000      -0.513276       -13.9669
 188   2.0000      -0.512504       -13.9460
 189   2.0000      -0.511915       -13.9299
 190   2.0000      -0.508437       -13.8353
 191   2.0000      -0.506350       -13.7785
 192   2.0000      -0.503800       -13.7091
 193   2.0000      -0.496350       -13.5064
 194   2.0000      -0.495186       -13.4747
 195   2.0000      -0.492598       -13.4043
 196   2.0000      -0.490827       -13.3561
 197   2.0000      -0.490003       -13.3337
 198   2.0000      -0.487329       -13.2609
 199   2.0000      -0.485189       -13.2027
 200   2.0000      -0.481469       -13.1014
 201   2.0000      -0.479544       -13.0491
 202   2.0000      -0.473304       -12.8793
 203   2.0000      -0.468639       -12.7523
 204   2.0000      -0.467897       -12.7321
 205   2.0000      -0.466708       -12.6998
 206   2.0000      -0.461697       -12.5634
 207   2.0000      -0.460735       -12.5372
 208   2.0000      -0.458381       -12.4732
 209   2.0000      -0.454237       -12.3604
 210   2.0000      -0.451077       -12.2744
 211   2.0000      -0.450430       -12.2568
 212   2.0000      -0.447846       -12.1865
 213   2.0000      -0.445894       -12.1334
 214   2.0000      -0.443088       -12.0570
 215   2.0000      -0.443080       -12.0568
 216   2.0000      -0.440570       -11.9885
 217   2.0000      -0.439405       -11.9568
 218   2.0000      -0.437921       -11.9164
 219   2.0000      -0.434763       -11.8305
 220   2.0000      -0.434368       -11.8197
 221   2.0000      -0.431916       -11.7530
 222   2.0000      -0.430428       -11.7126
 223   2.0000      -0.429702       -11.6928
 224   2.0000      -0.429368       -11.6837
 225   2.0000      -0.426900       -11.6165
 226   2.0000      -0.426028       -11.5928
 227   2.0000      -0.422316       -11.4918
 228   2.0000      -0.420633       -11.4460
 229   2.0000      -0.419101       -11.4043
 230   2.0000      -0.416868       -11.3435
 231   2.0000      -0.415326       -11.3016
 232   2.0000      -0.413009       -11.2385
 233   2.0000      -0.406487       -11.0611
 234   2.0000      -0.403170       -10.9708
 235   2.0000      -0.399733       -10.8773
 236   2.0000      -0.396477       -10.7887
 237   2.0000      -0.395211       -10.7542
 238   2.0000      -0.388472       -10.5709
 239   2.0000      -0.384910       -10.4739
 240   2.0000      -0.382442       -10.4068
 241   2.0000      -0.374014       -10.1775
 242   2.0000      -0.372150       -10.1267
 243   2.0000      -0.364790        -9.9264
 244   2.0000      -0.351863        -9.5747
 245   2.0000      -0.350778        -9.5451
 246   2.0000      -0.345153        -9.3921
 247   2.0000      -0.339882        -9.2487
 248   2.0000      -0.338703        -9.2166
 249   2.0000      -0.336043        -9.1442
 250   2.0000      -0.334771        -9.1096
 251   2.0000      -0.333847        -9.0844
 252   2.0000      -0.326649        -8.8886
 253   2.0000      -0.319144        -8.6844
 254   2.0000      -0.318380        -8.6635
 255   2.0000      -0.316882        -8.6228
 256   2.0000      -0.311799        -8.4845
 257   2.0000      -0.307104        -8.3567
 258   2.0000      -0.293273        -7.9804
 259   2.0000      -0.292299        -7.9539
 260   2.0000      -0.278803        -7.5866
 261   2.0000      -0.235459        -6.4072
 262   0.0000      -0.120561        -3.2806
 263   0.0000      -0.099958        -2.7200
 264   0.0000      -0.075249        -2.0476
 265   0.0000      -0.066457        -1.8084
 266   0.0000      -0.055034        -1.4976

MULLIKEN ATOMIC CHARGES
-----------------------
   0 C :    0.273189
   1 C :   -0.280441
   2 C :   -0.184133
   3 N :    0.154967
   4 C :   -0.188530
   5 N :    0.161816
   6 C :    0.038877
   7 C :    0.007826
   8 C :   -0.078484
   9 C :    0.094209
  10 C :    0.095329
  11 C :   -0.079828
  12 C :   -0.016713
  13 C :    0.036638
  14 C :    0.036744
  15 C :   -0.015614
  16 C :    0.135769
  17 O :   -0.134726
  18 C :   -0.101361
  19 C :    0.094117
  20 C :   -0.111964
  21 S :    0.157136
  22 C :   -0.092996
  23 N :   -0.045124
  24 N :   -0.047890
  25 C :    0.076816
  26 C :   -0.024761
  27 C :    0.149766
  28 N :   -0.264357
  29 C :    0.095376
  30 C :    0.002459
  31 C :    0.152111
  32 O :   -0.188120
  33 C :   -0.040993
  34 C :   -0.055624
  35 C :    0.164101
  36 O :   -0.212452
  37 N :   -0.265145
  38 C :    0.102016
  39 C :    0.008773
  40 C :    0.135756
  41 C :   -0.007306
  42 C :   -0.095963
  43 C :    0.108096
  44 C :   -0.024065
  45 C :   -0.025347
  46 N :   -0.023003
  47 C :    0.047179
  48 C :    0.044402
  49 N :   -0.023183
  50 C :    0.061288
  51 C :   -0.037051
  52 C :   -0.037086
  53 N :   -0.024978
  54 C :    0.029406
  55 C :    0.034041
  56 N :   -0.007310
  57 C :   -0.059849
  58 C :   -0.051067
  59 C :    0.307652
  60 C :   -0.344148
  61 C :   -0.183893
  62 N :    0.144901
  63 C :   -0.198052
  64 N :    0.159377
  65 C :    0.058808
  66 C :   -0.009379
  67 C :    0.154047
  68 O :   -0.158986
  69 C :   -0.086610
  70 C :    0.099487
  71 C :    0.098549
  72 C :   -0.091849
  73 C :   -0.021017
  74 C :    0.037744
  75 C :    0.034396
  76 C :   -0.018705
  77 H :   -0.011241
  78 H :   -0.003786
  79 H :   -0.010239
  80 H :   -0.003646
  81 H :   -0.005151
  82 H :   -0.017205
  83 H :    0.025273
  84 H :    0.014174
  85 H :    0.007548
  86 H :    0.031053
  87 H :    0.042297
  88 H :    0.019183
  89 H :    0.026634
  90 H :    0.028307
  91 H :    0.038353
  92 H :    0.028552
  93 H :    0.025980
  94 H :    0.020060
  95 H :    0.025064
  96 H :    0.026116
  97 H :   -0.006588
  98 H :    0.018492
  99 H :    0.028633
 100 H :    0.017794
 101 H :    0.024266
 102 H :    0.042306
 103 H :   -0.017156
 104 H :   -0.009388
 105 H :   -0.009637
 106 H :   -0.006322
 107 H :   -0.005428
 108 H :   -0.019359
Sum of atomic charges:   -0.0000000

LOEWDIN ATOMIC CHARGES
----------------------
   0 C :    0.066620
   1 C :   -0.109167
   2 C :   -0.015378
   3 N :   -0.046804
   4 C :   -0.017022
   5 N :   -0.049285
   6 C :   -0.019750
   7 C :   -0.059604
   8 C :    0.034754
   9 C :   -0.009701
  10 C :   -0.003653
  11 C :    0.016163
  12 C :   -0.006222
  13 C :   -0.011630
  14 C :   -0.013186
  15 C :   -0.008546
  16 C :    0.084498
  17 O :   -0.135772
  18 C :   -0.051056
  19 C :    0.025416
  20 C :   -0.160351
  21 S :    0.436365
  22 C :   -0.138288
  23 N :   -0.068771
  24 N :   -0.047782
  25 C :   -0.008758
  26 C :   -0.004978
  27 C :    0.077375
  28 N :   -0.001316
  29 C :    0.036395
  30 C :   -0.060680
  31 C :    0.081400
  32 O :   -0.190865
  33 C :   -0.102584
  34 C :   -0.117688
  35 C :    0.082661
  36 O :   -0.199638
  37 N :   -0.000354
  38 C :    0.035609
  39 C :   -0.061320
  40 C :    0.070572
  41 C :   -0.004701
  42 C :   -0.009799
  43 C :    0.003594
  44 C :   -0.002815
  45 C :    0.020277
  46 N :   -0.022964
  47 C :    0.021927
  48 C :    0.025096
  49 N :   -0.017920
  50 C :   -0.031457
  51 C :    0.006394
  52 C :   -0.007801
  53 N :   -0.032491
  54 C :    0.008659
  55 C :    0.019372
  56 N :   -0.030823
  57 C :    0.081954
  58 C :   -0.072224
  59 C :    0.074142
  60 C :   -0.135426
  61 C :   -0.016687
  62 N :   -0.056507
  63 C :   -0.022169
  64 N :   -0.049869
  65 C :   -0.023861
  66 C :   -0.052942
  67 C :    0.084681
  68 O :   -0.152397
  69 C :    0.028474
  70 C :   -0.009089
  71 C :   -0.006517
  72 C :    0.017197
  73 C :   -0.005864
  74 C :   -0.014639
  75 C :   -0.013950
  76 C :   -0.010941
  77 H :    0.039680
  78 H :    0.039448
  79 H :    0.034666
  80 H :    0.033546
  81 H :    0.032881
  82 H :    0.031998
  83 H :    0.049115
  84 H :    0.038368
  85 H :    0.039499
  86 H :    0.026539
  87 H :    0.037370
  88 H :    0.023712
  89 H :    0.032126
  90 H :    0.031377
  91 H :    0.035590
  92 H :    0.024785
  93 H :    0.031396
  94 H :    0.030604
  95 H :    0.024121
  96 H :    0.042105
  97 H :    0.028449
  98 H :    0.029085
  99 H :    0.033824
 100 H :    0.028959
 101 H :    0.031969
 102 H :    0.046907
 103 H :    0.037236
 104 H :    0.038596
 105 H :    0.034502
 106 H :    0.032627
 107 H :    0.032334
 108 H :    0.030993

  Mayer bond orders larger than 0.100000
B(  0-C ,  1-C ) :   1.7021 B(  0-C ,  6-C ) :   0.9997 B(  0-C , 18-C ) :   1.0138
B(  1-C ,  2-C ) :   1.1381 B(  1-C ,  4-C ) :   1.1479 B(  2-C ,  3-N ) :   2.9855
B(  4-C ,  5-N ) :   3.0103 B(  6-C ,  7-C ) :   1.2113 B(  6-C , 11-C ) :   1.4566
B(  7-C ,  8-C ) :   1.4661 B(  7-C , 16-C ) :   0.9232 B(  8-C ,  9-C ) :   1.1889
B(  8-C , 77-H ) :   1.0173 B(  9-C , 10-C ) :   1.2552 B(  9-C , 15-C ) :   1.2413
B( 10-C , 11-C ) :   1.2039 B( 10-C , 12-C ) :   1.2396 B( 11-C , 78-H ) :   0.9949
B( 12-C , 13-C ) :   1.4900 B( 12-C , 79-H ) :   0.9985 B( 13-C , 14-C ) :   1.2572
B( 13-C , 80-H ) :   0.9893 B( 14-C , 15-C ) :   1.4907 B( 14-C , 81-H ) :   0.9890
B( 15-C , 82-H ) :   0.9989 B( 16-C , 17-O ) :   2.2812 B( 16-C , 18-C ) :   0.9244
B( 18-C , 19-C ) :   1.7279 B( 19-C , 20-C ) :   1.0853 B( 19-C , 83-H ) :   0.9327
B( 20-C , 21-S ) :   1.0999 B( 20-C , 24-N ) :   1.5960 B( 21-S , 22-C ) :   1.1250
B( 21-S , 24-N ) :   0.1005 B( 22-C , 23-N ) :   1.6271 B( 22-C , 25-C ) :   1.1148
B( 23-N , 24-N ) :   1.2778 B( 25-C , 26-C ) :   1.6423 B( 25-C , 84-H ) :   0.9226
B( 26-C , 27-C ) :   1.1353 B( 26-C , 85-H ) :   0.9739 B( 27-C , 28-N ) :   1.1716
B( 27-C , 34-C ) :   1.3197 B( 28-N , 29-C ) :   0.9429 B( 28-N , 31-C ) :   1.0323
B( 29-C , 30-C ) :   1.1207 B( 29-C , 86-H ) :   0.9505 B( 29-C , 87-H ) :   0.9288
B( 30-C , 88-H ) :   0.9687 B( 30-C , 89-H ) :   0.9679 B( 30-C , 90-H ) :   0.9638
B( 31-C , 32-O ) :   2.1284 B( 31-C , 33-C ) :   0.9769 B( 33-C , 34-C ) :   1.2663
B( 33-C , 40-C ) :   1.3206 B( 34-C , 35-C ) :   0.9818 B( 35-C , 36-O ) :   2.0173
B( 35-C , 37-N ) :   1.0714 B( 36-O , 84-H ) :   0.1139 B( 37-N , 38-C ) :   0.9413
B( 37-N , 40-C ) :   1.1567 B( 38-C , 39-C ) :   1.1197 B( 38-C , 91-H ) :   0.9245
B( 38-C , 92-H ) :   0.9498 B( 39-C , 93-H ) :   0.9607 B( 39-C , 94-H ) :   0.9683
B( 39-C , 95-H ) :   0.9670 B( 40-C , 41-C ) :   1.1797 B( 41-C , 42-C ) :   1.5004
B( 41-C , 96-H ) :   0.9260 B( 42-C , 43-C ) :   1.2102 B( 42-C , 97-H ) :   0.9532
B( 43-C , 44-C ) :   1.2004 B( 43-C , 50-C ) :   0.1317 B( 43-C , 52-C ) :   1.2130
B( 44-C , 45-C ) :   1.1644 B( 44-C , 49-N ) :   1.4586 B( 45-C , 46-N ) :   1.4433
B( 45-C , 50-C ) :   1.2377 B( 46-N , 47-C ) :   1.6670 B( 47-C , 48-C ) :   1.1878
B( 47-C , 98-H ) :   0.9736 B( 48-C , 49-N ) :   1.6634 B( 48-C , 99-H ) :   0.9749
B( 50-C , 51-C ) :   1.2380 B( 50-C , 57-C ) :   1.1799 B( 51-C , 52-C ) :   1.1697
B( 51-C , 56-N ) :   1.4838 B( 52-C , 53-N ) :   1.4529 B( 53-N , 54-C ) :   1.6797
B( 54-C , 55-C ) :   1.1955 B( 54-C ,100-H ) :   0.9750 B( 55-C , 56-N ) :   1.6816
B( 55-C ,101-H ) :   0.9753 B( 57-C , 58-C ) :   1.5803 B( 57-C ,102-H ) :   0.9270
B( 58-C , 59-C ) :   1.0796 B( 58-C , 67-C ) :   0.9357 B( 59-C , 60-C ) :   1.6354
B( 59-C , 65-C ) :   0.9869 B( 60-C , 61-C ) :   1.1460 B( 60-C , 63-C ) :   1.1428
B( 61-C , 62-N ) :   2.9620 B( 63-C , 64-N ) :   2.9827 B( 65-C , 66-C ) :   1.2145
B( 65-C , 72-C ) :   1.4463 B( 66-C , 67-C ) :   0.9447 B( 66-C , 69-C ) :   1.4712
B( 67-C , 68-O ) :   2.2168 B( 69-C , 70-C ) :   1.1773 B( 69-C ,103-H ) :   1.0170
B( 70-C , 71-C ) :   1.2565 B( 70-C , 76-C ) :   1.2436 B( 71-C , 72-C ) :   1.2049
B( 71-C , 73-C ) :   1.2396 B( 72-C ,104-H ) :   0.9904 B( 73-C , 74-C ) :   1.4901
B( 73-C ,105-H ) :   0.9975 B( 74-C , 75-C ) :   1.2585 B( 74-C ,106-H ) :   0.9883
B( 75-C , 76-C ) :   1.4889 B( 75-C ,107-H ) :   0.9894 B( 76-C ,108-H ) :   0.9978

-----------------------------------------------------------------------------
         ABSORPTION SPECTRUM VIA TRANSITION ELECTRIC DIPOLE MOMENTS
-----------------------------------------------------------------------------
State   Energy  Wavelength   fosc         T2         TX        TY        TZ
        (cm-1)    (nm)                  (au**2)     (au)      (au)      (au)
-----------------------------------------------------------------------------
   0   10862.2    920.6   1.179491274  35.74821  -3.02303   4.26156   2.90665
   1   16645.0    600.8   0.078924659   1.56101   0.12056  -1.08445  -0.60863
   2   19472.3    513.5   0.219272613   3.70716  -1.69799   0.68997   0.58986
   3   21717.7    460.5   0.050469431   0.76505  -0.79915  -0.32968  -0.13309
   4   21905.5    456.5   0.097623432   1.46716  -0.85123   0.73763   0.44550
   5   22511.7    444.2   0.045166939   0.66052  -0.67342   0.23480   0.38975
   6   23671.2    422.5   0.025951668   0.36093  -0.32227   0.26616   0.43154
   7   23729.3    421.4   0.020279595   0.28135   0.17815   0.03976  -0.49803
   8   24648.6    405.7   0.117436898   1.56851  -1.24845   0.09108  -0.03978
   9   24794.1    403.3   0.033998746   0.45143  -0.46277   0.42558   0.23696
  10   25650.6    389.9   0.011370559   0.14594  -0.21160   0.11827   0.29525
  11   25946.8    385.4   0.009690064   0.12295  -0.11007  -0.33287   0.00541
  12   26433.9    378.3   0.482690456   6.01151   1.21907  -1.73550  -1.23021
  13   26836.8    372.6   0.020998112   0.25759  -0.23053  -0.45215  -0.00270
  14   26939.3    371.2   0.064060397   0.78285   0.38276   0.79172   0.09759
  15   27095.9    369.1   0.021187976   0.25743  -0.37647   0.14479   0.30779
  16   27538.3    363.1   0.082923512   0.99133  -0.29016   0.93044   0.20352
  17   28091.4    356.0   0.027608145   0.32355   0.55039   0.14280   0.01518
  18   28778.3    347.5   0.063820590   0.73008   0.69068  -0.50145   0.03987
  19   29146.3    343.1   0.079769919   0.90101  -0.12377   0.72772   0.59676
  20   29189.2    342.6   0.149980140   1.69156   0.85269  -0.95150   0.24318
  21   29928.9    334.1   0.020787872   0.22866  -0.25064   0.24708  -0.32372
  22   30171.6    331.4   0.057763880   0.63028   0.25408   0.74069  -0.13075
  23   30606.9    326.7   0.002630148   0.02829   0.01014   0.12278  -0.11451
  24   30653.9    326.2   0.004395000   0.04720   0.19754  -0.08599   0.02801
  25   31224.2    320.3   0.046008032   0.48509   0.48210   0.50202   0.02539
  26   31617.9    316.3   0.005444173   0.05669  -0.22396   0.01581  -0.07924
  27   31811.1    314.4   0.249224380   2.57921   1.29490   0.80163  -0.50974
  28   32377.9    308.9   0.133847488   1.36093  -1.06569  -0.46509  -0.09451
  29   32554.1    307.2   0.017995018   0.18198   0.19061   0.37231   0.08383
  30   32967.3    303.3   0.234756179   2.34428   0.55225  -1.42722  -0.04825
  31   32972.2    303.3   0.020403711   0.20372  -0.30138  -0.32979   0.06427
  32   33107.8    302.0   0.430944578   4.28516   0.57034  -1.98598  -0.12552
  33   33414.4    299.3   0.010039188   0.09891   0.27639   0.14953  -0.01258
  34   33635.0    297.3   0.008615632   0.08433  -0.27391   0.08439  -0.04669
  35   33910.5    294.9   0.046115726   0.44770  -0.54620   0.01788   0.38607
  36   34063.5    293.6   0.212940816   2.05800  -1.11496  -0.18011  -0.88455
  37   34421.9    290.5   0.153694301   1.46994  -1.13567  -0.13632  -0.40201
  38   34893.4    286.6   0.020524655   0.19365   0.31743   0.13282   0.27430
  39   35143.2    284.6   0.020282661   0.19000  -0.30833   0.08862  -0.29509
  40   35242.9    283.7   0.128644242   1.20169  -0.80097   0.69444   0.27910
  41   35373.7    282.7   0.126918717   1.18119   0.23741  -1.06043  -0.01759
  42   35644.1    280.6   0.268953329   2.48407  -0.63589  -1.44153  -0.04141
  43   35803.9    279.3   0.013294514   0.12224   0.19354   0.14544  -0.25225
  44   36284.1    275.6   0.106212849   0.96369   0.29467   0.93163   0.09442
  45   36331.6    275.2   0.126993030   1.15072  -0.95372  -0.47766   0.11393
  46   36590.9    273.3   0.013962690   0.12562   0.32258   0.09031  -0.11579
  47   36677.0    272.7   0.091168414   0.81833  -0.50743  -0.70817   0.24359
  48   36713.8    272.4   0.230449358   2.06643  -0.58720  -1.30882  -0.09286
  49   37303.2    268.1   0.057246664   0.50522  -0.50575  -0.33423  -0.37111
  50   37508.5    266.6   0.228302357   2.00381  -0.18429   1.39703   0.13473
  51   37554.5    266.3   0.039968383   0.35037  -0.41566   0.35750  -0.22314
  52   37743.3    264.9   0.017881163   0.15597   0.27574  -0.27339   0.07204
  53   37987.8    263.2   0.021902950   0.18982  -0.04024  -0.28987  -0.32276
  54   38392.3    260.5   0.001076859   0.00923  -0.00979  -0.01014   0.09505
  55   38497.5    259.8   0.120150135   1.02747  -0.65288   0.49589  -0.59607
  56   39017.4    256.3   0.012929840   0.10910   0.05849  -0.30087  -0.12310
  57   39272.6    254.6   0.131501109   1.10234   0.84722  -0.18832   0.59084
  58   39592.0    252.6   0.003964635   0.03297   0.05690  -0.07556   0.15498
  59   39709.3    251.8   0.001403399   0.01163  -0.05630   0.02669   0.08805
  60   39819.5    251.1   0.077257764   0.63874  -0.68453   0.28469   0.29850
  61   39906.6    250.6   0.059129858   0.48780   0.61335  -0.07401  -0.32577
  62   39984.6    250.1   0.037567960   0.30931  -0.51858  -0.13379  -0.14996
  63   40169.7    248.9   0.007584716   0.06216   0.02645  -0.08215  -0.23391
  64   40290.0    248.2   0.049439092   0.40397  -0.05889   0.45314   0.44177

FINAL SINGLE POINT ENERGY     -3657.452412774646

DIPOLE MOMENT
-------------
                                X             Y             Z
Electronic contribution:     11.75749      14.93803      -0.08709
Nuclear contribution   :    -11.91291     -18.36923       1.05576
                        -----------------------------------------
Total Dipole Moment    :     -0.15542      -3.43120       0.96868
                        -----------------------------------------
Magnitude (a.u.)       :      3.56870
Magnitude (Debye)      :      9.07093

Rotational constants in cm-1:     0.002187     0.000196     0.000185
Rotational constants in MHz :    65.568282     5.867679     5.555190

                             ****ORCA TERMINATED NORMALLY****
TOTAL RUN TIME: 0 days 0 hours 11 minutes 16 seconds 198 msec
