                         Program Version 4.2.0 -  RELEASE  -
|  1> # ORCA input file
|  2> # SCF done       -190.693632166603          0.000556160749
|  3> ! CAM-B3LYP def2-SVP def2/J RIJCOSX Grid4 TightSCF
|  4> %maxcore 5000
|  5> %tddft
|  6>     Mode sTDDFT
|  7>     Ethresh 5.0
|  8>     maxcore 5000
|  9> end
| 10>
| 11> %pal
| 12>   nprocs 6
| 13>   end
| 14> * xyz 0 1
| 15>    C        0.95046         1.24066        -3.70700
| 16>    C        0.18851         1.09922        -4.83771
| 17>    C        0.48299         0.19136        -5.87788
| 18>    N        0.65972        -0.51968        -6.76161
| 19>    C       -1.00754         1.78711        -5.13459
| 20>    N       -1.99575         2.27990        -5.45147
| 21>    C        2.12748         0.44156        -3.39017
| 22>    C        2.55657         0.77360        -2.07502
| 23>    C        3.63546         0.17420        -1.49117
| 24>    C        4.35195        -0.80554        -2.21329
| 25>    C        3.93312        -1.14111        -3.53335
| 26>    C        2.81169        -0.50241        -4.11032
| 27>    C        4.65490        -2.12032        -4.24597
| 28>    C        5.73743        -2.73970        -3.68309
| 29>    C        6.14916        -2.40791        -2.38356
| 30>    C        5.47123        -1.46138        -1.66419
| 31>    C        1.67659         1.80959        -1.51276
| 32>    O        1.76519         2.28467        -0.39945
| 33>    C        0.70383         2.14065        -2.58684
| 34>    C       -0.21510         3.15094        -2.62357
| 35>    C       -0.62905         4.08215        -1.64410
| 36>    S       -1.80447         5.28144        -2.14763
| 37>    C       -1.88526         5.96984        -0.56433
| 38>    C       -1.02015         5.28420         0.30762
| 39>    C       -0.32627         4.23541        -0.30261
| 40>    C       -0.83345         5.59057         1.66659
| 41>    N       -0.65486         5.81589         2.77802
| 42>    C       -2.75893         7.05646        -0.32861
| 43>    C       -2.97326         7.63407         0.88560
| 44>    C       -3.88144         8.69988         1.07613
| 45>    N       -4.12703         9.27384         2.30277
| 46>    C       -3.47112         8.95746         3.54994
| 47>    C       -2.07339         9.56485         3.63027
| 48>    C       -5.09512        10.28501         2.22611
| 49>    O       -5.47922        10.92507         3.18648
| 50>    C       -5.46675        10.32284         0.82805
| 51>    C       -4.70308         9.34361         0.14918
| 52>    C       -5.07201         9.38099        -1.24847
| 53>    O       -4.68888         8.74372        -2.20975
| 54>    N       -6.04272        10.39382        -1.32508
| 55>    C       -6.69969        10.70168        -2.57234
| 56>    C       -8.07279        10.04129        -2.67026
| 57>    C       -6.29820        10.95875        -0.09615
| 58>    C       -7.24505        11.98825         0.11923
| 59>    C       -7.48715        12.49394         1.35833
| 60>    C       -8.43567        13.50250         1.65701
| 61>    S       -8.65597        13.99231         3.31160
| 62>    C       -9.89739        15.12917         2.88444
| 63>    C      -10.10451        15.12149         1.49846
| 64>    C       -9.28463        14.20898         0.82295
| 65>    C      -11.00130        15.94308         0.78994
| 66>    N      -11.69059        16.58045         0.13153
| 67>    C      -10.52161        15.87206         3.91235
| 68>    C      -11.58123        16.71624         3.77996
| 69>    C      -12.10734        17.37898         4.91331
| 70>    C      -13.20088        18.19614         4.91501
| 71>    C      -13.75542        18.90279         6.05551
| 72>    C      -13.32064        18.84239         7.35518
| 73>    C      -13.91122        19.55254         8.42185
| 74>    N      -14.33910        20.09960         9.33623
| 75>    C      -12.24195        18.06828         7.83059
| 76>    N      -11.38221        17.46916         8.30139
| 77>    C      -14.88523        19.69445         5.58123
| 78>    C      -15.05009        19.46643         4.18523
| 79>    C      -14.02626        18.51603         3.71728
| 80>    O      -13.89881        18.08159         2.59378
| 81>    C      -16.03636        20.07548         3.46465
| 82>    C      -16.92134        20.96092         4.11947
| 83>    C      -16.76332        21.19618         5.51587
| 84>    C      -15.73266        20.54985         6.23560
| 85>    C      -17.65166        22.08140         6.16019
| 86>    C      -18.64849        22.70499         5.46053
| 87>    C      -18.80295        22.47275         4.08554
| 88>    C      -17.95789        21.61934         3.42933
| 89>    H        3.93684         0.44491        -0.49009
| 90>    H        2.52561        -0.77677        -5.11294
| 91>    H        4.33347        -2.37317        -5.24568
| 92>    H        6.28274        -3.48946        -4.23642
| 93>    H        7.00600        -2.90619        -1.95538
| 94>    H        5.78320        -1.20184        -0.66314
| 95>    H       -0.73279         3.28619        -3.56611
| 96>    H        0.37761         3.60833         0.21494
| 97>    H       -3.29571         7.42898        -1.19213
| 98>    H       -2.45099         7.26594         1.75468
| 99>    H       -3.42754         7.87266         3.67841
|100>    H       -4.10207         9.38172         4.33594
|101>    H       -1.43013         9.17237         2.84620
|102>    H       -1.62867         9.32704         4.59203
|103>    H       -2.12945        10.64603         3.52830
|104>    H       -6.04986        10.31091        -3.36040
|105>    H       -6.77769        11.78643        -2.68692
|106>    H       -7.96922         8.96111        -2.60465
|107>    H       -8.53279        10.28840        -3.62295
|108>    H       -8.72654        10.37503        -1.86726
|109>    H       -7.78640        12.36358        -0.73655
|110>    H       -6.93199        12.10137         2.20059
|111>    H       -9.31858        14.08033        -0.24423
|112>    H      -10.10878        15.71599         4.90295
|113>    H      -12.04626        16.88613         2.82053
|114>    H      -11.58366        17.21120         5.84620
|115>    H      -16.13828        19.88346         2.40687
|116>    H      -15.64052        20.75121         7.29091
|117>    H      -17.52870        22.25664         7.21895
|118>    H      -19.32393        23.38110         5.96297
|119>    H      -19.59497        22.97355         3.54906
|120>    H      -18.07182        21.43649         2.37086
|121> *
|122>
|123>                          ****END OF INPUT****

CARTESIAN COORDINATES (ANGSTROEM)
---------------------------------
  C      0.950460    1.240660   -3.707000
  C      0.188510    1.099220   -4.837710
  C      0.482990    0.191360   -5.877880
  N      0.659720   -0.519680   -6.761610
  C     -1.007540    1.787110   -5.134590
  N     -1.995750    2.279900   -5.451470
  C      2.127480    0.441560   -3.390170
  C      2.556570    0.773600   -2.075020
  C      3.635460    0.174200   -1.491170
  C      4.351950   -0.805540   -2.213290
  C      3.933120   -1.141110   -3.533350
  C      2.811690   -0.502410   -4.110320
  C      4.654900   -2.120320   -4.245970
  C      5.737430   -2.739700   -3.683090
  C      6.149160   -2.407910   -2.383560
  C      5.471230   -1.461380   -1.664190
  C      1.676590    1.809590   -1.512760
  O      1.765190    2.284670   -0.399450
  C      0.703830    2.140650   -2.586840
  C     -0.215100    3.150940   -2.623570
  C     -0.629050    4.082150   -1.644100
  S     -1.804470    5.281440   -2.147630
  C     -1.885260    5.969840   -0.564330
  C     -1.020150    5.284200    0.307620
  C     -0.326270    4.235410   -0.302610
  C     -0.833450    5.590570    1.666590
  N     -0.654860    5.815890    2.778020
  C     -2.758930    7.056460   -0.328610
  C     -2.973260    7.634070    0.885600
  C     -3.881440    8.699880    1.076130
  N     -4.127030    9.273840    2.302770
  C     -3.471120    8.957460    3.549940
  C     -2.073390    9.564850    3.630270
  C     -5.095120   10.285010    2.226110
  O     -5.479220   10.925070    3.186480
  C     -5.466750   10.322840    0.828050
  C     -4.703080    9.343610    0.149180
  C     -5.072010    9.380990   -1.248470
  O     -4.688880    8.743720   -2.209750
  N     -6.042720   10.393820   -1.325080
  C     -6.699690   10.701680   -2.572340
  C     -8.072790   10.041290   -2.670260
  C     -6.298200   10.958750   -0.096150
  C     -7.245050   11.988250    0.119230
  C     -7.487150   12.493940    1.358330
  C     -8.435670   13.502500    1.657010
  S     -8.655970   13.992310    3.311600
  C     -9.897390   15.129170    2.884440
  C    -10.104510   15.121490    1.498460
  C     -9.284630   14.208980    0.822950
  C    -11.001300   15.943080    0.789940
  N    -11.690590   16.580450    0.131530
  C    -10.521610   15.872060    3.912350
  C    -11.581230   16.716240    3.779960
  C    -12.107340   17.378980    4.913310
  C    -13.200880   18.196140    4.915010
  C    -13.755420   18.902790    6.055510
  C    -13.320640   18.842390    7.355180
  C    -13.911220   19.552540    8.421850
  N    -14.339100   20.099600    9.336230
  C    -12.241950   18.068280    7.830590
  N    -11.382210   17.469160    8.301390
  C    -14.885230   19.694450    5.581230
  C    -15.050090   19.466430    4.185230
  C    -14.026260   18.516030    3.717280
  O    -13.898810   18.081590    2.593780
  C    -16.036360   20.075480    3.464650
  C    -16.921340   20.960920    4.119470
  C    -16.763320   21.196180    5.515870
  C    -15.732660   20.549850    6.235600
  C    -17.651660   22.081400    6.160190
  C    -18.648490   22.704990    5.460530
  C    -18.802950   22.472750    4.085540
  C    -17.957890   21.619340    3.429330
  H      3.936840    0.444910   -0.490090
  H      2.525610   -0.776770   -5.112940
  H      4.333470   -2.373170   -5.245680
  H      6.282740   -3.489460   -4.236420
  H      7.006000   -2.906190   -1.955380
  H      5.783200   -1.201840   -0.663140
  H     -0.732790    3.286190   -3.566110
  H      0.377610    3.608330    0.214940
  H     -3.295710    7.428980   -1.192130
  H     -2.450990    7.265940    1.754680
  H     -3.427540    7.872660    3.678410
  H     -4.102070    9.381720    4.335940
  H     -1.430130    9.172370    2.846200
  H     -1.628670    9.327040    4.592030
  H     -2.129450   10.646030    3.528300
  H     -6.049860   10.310910   -3.360400
  H     -6.777690   11.786430   -2.686920
  H     -7.969220    8.961110   -2.604650
  H     -8.532790   10.288400   -3.622950
  H     -8.726540   10.375030   -1.867260
  H     -7.786400   12.363580   -0.736550
  H     -6.931990   12.101370    2.200590
  H     -9.318580   14.080330   -0.244230
  H    -10.108780   15.715990    4.902950
  H    -12.046260   16.886130    2.820530
  H    -11.583660   17.211200    5.846200
  H    -16.138280   19.883460    2.406870
  H    -15.640520   20.751210    7.290910
  H    -17.528700   22.256640    7.218950
  H    -19.323930   23.381100    5.962970
  H    -19.594970   22.973550    3.549060
  H    -18.071820   21.436490    2.370860

 Total Charge           Charge          ....    0
 Multiplicity           Mult            ....    1
 Number of Electrons    NEL             ....  512
 Basis Dimension        Dim             .... 1204

ORBITAL ENERGIES
----------------

  NO   OCC          E(Eh)            E(eV)
   0   2.0000     -88.988422     -2421.4981
   1   2.0000     -88.986702     -2421.4513
   2   2.0000     -19.224527      -523.1260
   3   2.0000     -19.214628      -522.8566
   4   2.0000     -19.203861      -522.5636
   5   2.0000     -19.198496      -522.4176
   6   2.0000     -14.464474      -393.5984
   7   2.0000     -14.460516      -393.4906
   8   2.0000     -14.420520      -392.4023
   9   2.0000     -14.420090      -392.3906
  10   2.0000     -14.417394      -392.3172
  11   2.0000     -14.417268      -392.3138
  12   2.0000     -14.415773      -392.2731
  13   2.0000     -14.414326      -392.2337
  14   2.0000     -10.385548      -282.6051
  15   2.0000     -10.381493      -282.4948
  16   2.0000     -10.375543      -282.3329
  17   2.0000     -10.365042      -282.0471
  18   2.0000     -10.351424      -281.6766
  19   2.0000     -10.346495      -281.5424
  20   2.0000     -10.346217      -281.5349
  21   2.0000     -10.346019      -281.5295
  22   2.0000     -10.345080      -281.5039
  23   2.0000     -10.342279      -281.4277
  24   2.0000     -10.341703      -281.4120
  25   2.0000     -10.340588      -281.3817
  26   2.0000     -10.333312      -281.1837
  27   2.0000     -10.333024      -281.1759
  28   2.0000     -10.331868      -281.1444
  29   2.0000     -10.330746      -281.1139
  30   2.0000     -10.327719      -281.0315
  31   2.0000     -10.323193      -280.9084
  32   2.0000     -10.321277      -280.8562
  33   2.0000     -10.320239      -280.8280
  34   2.0000     -10.320230      -280.8277
  35   2.0000     -10.317867      -280.7634
  36   2.0000     -10.317688      -280.7586
  37   2.0000     -10.317248      -280.7466
  38   2.0000     -10.315482      -280.6985
  39   2.0000     -10.314976      -280.6848
  40   2.0000     -10.312357      -280.6135
  41   2.0000     -10.310296      -280.5574
  42   2.0000     -10.309410      -280.5333
  43   2.0000     -10.308882      -280.5189
  44   2.0000     -10.307495      -280.4812
  45   2.0000     -10.307087      -280.4701
  46   2.0000     -10.306284      -280.4482
  47   2.0000     -10.306250      -280.4473
  48   2.0000     -10.305965      -280.4396
  49   2.0000     -10.301744      -280.3247
  50   2.0000     -10.300756      -280.2978
  51   2.0000     -10.300519      -280.2914
  52   2.0000     -10.300336      -280.2864
  53   2.0000     -10.300036      -280.2782
  54   2.0000     -10.299798      -280.2718
  55   2.0000     -10.296570      -280.1839
  56   2.0000     -10.296321      -280.1771
  57   2.0000     -10.295593      -280.1573
  58   2.0000     -10.295200      -280.1466
  59   2.0000     -10.294741      -280.1341
  60   2.0000     -10.291881      -280.0563
  61   2.0000     -10.289294      -279.9859
  62   2.0000     -10.288797      -279.9724
  63   2.0000     -10.288526      -279.9650
  64   2.0000     -10.288051      -279.9521
  65   2.0000     -10.286712      -279.9157
  66   2.0000     -10.285577      -279.8848
  67   2.0000     -10.284947      -279.8676
  68   2.0000     -10.284783      -279.8632
  69   2.0000     -10.284345      -279.8512
  70   2.0000     -10.273613      -279.5592
  71   2.0000     -10.272013      -279.5157
  72   2.0000     -10.271371      -279.4982
  73   2.0000     -10.262229      -279.2494
  74   2.0000      -8.083984      -219.9764
  75   2.0000      -8.082310      -219.9308
  76   2.0000      -6.053051      -164.7119
  77   2.0000      -6.051339      -164.6653
  78   2.0000      -6.048923      -164.5996
  79   2.0000      -6.047256      -164.5542
  80   2.0000      -6.046443      -164.5321
  81   2.0000      -6.044750      -164.4860
  82   2.0000      -1.144145       -31.1338
  83   2.0000      -1.139408       -31.0049
  84   2.0000      -1.136186       -30.9172
  85   2.0000      -1.129680       -30.7401
  86   2.0000      -1.073901       -29.2223
  87   2.0000      -1.064640       -28.9703
  88   2.0000      -1.025151       -27.8958
  89   2.0000      -1.024663       -27.8825
  90   2.0000      -1.021571       -27.7984
  91   2.0000      -1.018144       -27.7051
  92   2.0000      -1.002646       -27.2834
  93   2.0000      -0.999042       -27.1853
  94   2.0000      -0.998050       -27.1583
  95   2.0000      -0.996796       -27.1242
  96   2.0000      -0.994942       -27.0738
  97   2.0000      -0.993771       -27.0419
  98   2.0000      -0.975047       -26.5324
  99   2.0000      -0.970833       -26.4177
 100   2.0000      -0.942151       -25.6372
 101   2.0000      -0.937864       -25.5206
 102   2.0000      -0.933876       -25.4121
 103   2.0000      -0.925836       -25.1933
 104   2.0000      -0.923746       -25.1364
 105   2.0000      -0.916505       -24.9394
 106   2.0000      -0.906884       -24.6776
 107   2.0000      -0.893649       -24.3174
 108   2.0000      -0.888332       -24.1728
 109   2.0000      -0.883890       -24.0519
 110   2.0000      -0.882847       -24.0235
 111   2.0000      -0.880175       -23.9508
 112   2.0000      -0.878444       -23.9037
 113   2.0000      -0.872821       -23.7507
 114   2.0000      -0.869662       -23.6647
 115   2.0000      -0.847876       -23.0719
 116   2.0000      -0.837028       -22.7767
 117   2.0000      -0.831442       -22.6247
 118   2.0000      -0.827101       -22.5066
 119   2.0000      -0.826512       -22.4905
 120   2.0000      -0.810089       -22.0436
 121   2.0000      -0.801934       -21.8217
 122   2.0000      -0.783161       -21.3109
 123   2.0000      -0.776550       -21.1310
 124   2.0000      -0.766707       -20.8632
 125   2.0000      -0.766575       -20.8596
 126   2.0000      -0.760918       -20.7056
 127   2.0000      -0.744270       -20.2526
 128   2.0000      -0.739824       -20.1316
 129   2.0000      -0.733081       -19.9482
 130   2.0000      -0.719874       -19.5888
 131   2.0000      -0.713609       -19.4183
 132   2.0000      -0.707861       -19.2619
 133   2.0000      -0.705117       -19.1872
 134   2.0000      -0.703172       -19.1343
 135   2.0000      -0.699918       -19.0457
 136   2.0000      -0.697780       -18.9876
 137   2.0000      -0.689605       -18.7651
 138   2.0000      -0.685611       -18.6564
 139   2.0000      -0.683350       -18.5949
 140   2.0000      -0.680035       -18.5047
 141   2.0000      -0.670499       -18.2452
 142   2.0000      -0.663520       -18.0553
 143   2.0000      -0.657512       -17.8918
 144   2.0000      -0.644721       -17.5438
 145   2.0000      -0.640702       -17.4344
 146   2.0000      -0.635974       -17.3057
 147   2.0000      -0.629319       -17.1246
 148   2.0000      -0.624194       -16.9852
 149   2.0000      -0.619617       -16.8606
 150   2.0000      -0.611011       -16.6264
 151   2.0000      -0.608734       -16.5645
 152   2.0000      -0.606182       -16.4950
 153   2.0000      -0.605349       -16.4724
 154   2.0000      -0.596154       -16.2222
 155   2.0000      -0.592547       -16.1240
 156   2.0000      -0.589055       -16.0290
 157   2.0000      -0.583836       -15.8870
 158   2.0000      -0.580653       -15.8004
 159   2.0000      -0.574256       -15.6263
 160   2.0000      -0.563995       -15.3471
 161   2.0000      -0.562069       -15.2947
 162   2.0000      -0.556390       -15.1402
 163   2.0000      -0.554801       -15.0969
 164   2.0000      -0.551584       -15.0094
 165   2.0000      -0.549537       -14.9537
 166   2.0000      -0.545115       -14.8333
 167   2.0000      -0.543329       -14.7847
 168   2.0000      -0.540693       -14.7130
 169   2.0000      -0.539013       -14.6673
 170   2.0000      -0.538253       -14.6466
 171   2.0000      -0.536809       -14.6073
 172   2.0000      -0.536075       -14.5873
 173   2.0000      -0.535716       -14.5776
 174   2.0000      -0.529668       -14.4130
 175   2.0000      -0.527404       -14.3514
 176   2.0000      -0.524496       -14.2723
 177   2.0000      -0.522133       -14.2080
 178   2.0000      -0.520685       -14.1686
 179   2.0000      -0.519421       -14.1342
 180   2.0000      -0.518296       -14.1035
 181   2.0000      -0.517285       -14.0760
 182   2.0000      -0.515767       -14.0347
 183   2.0000      -0.514000       -13.9867
 184   2.0000      -0.512843       -13.9552
 185   2.0000      -0.509441       -13.8626
 186   2.0000      -0.504683       -13.7331
 187   2.0000      -0.502426       -13.6717
 188   2.0000      -0.500135       -13.6094
 189   2.0000      -0.498396       -13.5621
 190   2.0000      -0.496509       -13.5107
 191   2.0000      -0.490672       -13.3519
 192   2.0000      -0.489261       -13.3135
 193   2.0000      -0.485447       -13.2097
 194   2.0000      -0.484519       -13.1844
 195   2.0000      -0.482806       -13.1378
 196   2.0000      -0.478929       -13.0323
 197   2.0000      -0.476184       -12.9576
 198   2.0000      -0.473375       -12.8812
 199   2.0000      -0.471889       -12.8407
 200   2.0000      -0.468733       -12.7549
 201   2.0000      -0.466714       -12.6999
 202   2.0000      -0.463593       -12.6150
 203   2.0000      -0.462056       -12.5732
 204   2.0000      -0.457941       -12.4612
 205   2.0000      -0.454451       -12.3662
 206   2.0000      -0.452849       -12.3226
 207   2.0000      -0.452251       -12.3064
 208   2.0000      -0.450737       -12.2652
 209   2.0000      -0.449708       -12.2372
 210   2.0000      -0.448868       -12.2143
 211   2.0000      -0.447334       -12.1726
 212   2.0000      -0.446310       -12.1447
 213   2.0000      -0.444527       -12.0962
 214   2.0000      -0.444345       -12.0912
 215   2.0000      -0.443424       -12.0662
 216   2.0000      -0.443175       -12.0594
 217   2.0000      -0.441045       -12.0015
 218   2.0000      -0.439761       -11.9665
 219   2.0000      -0.438979       -11.9452
 220   2.0000      -0.437034       -11.8923
 221   2.0000      -0.436512       -11.8781
 222   2.0000      -0.433401       -11.7934
 223   2.0000      -0.431757       -11.7487
 224   2.0000      -0.430271       -11.7083
 225   2.0000      -0.429952       -11.6996
 226   2.0000      -0.428161       -11.6509
 227   2.0000      -0.425715       -11.5843
 228   2.0000      -0.422577       -11.4989
 229   2.0000      -0.419824       -11.4240
 230   2.0000      -0.416328       -11.3289
 231   2.0000      -0.414904       -11.2901
 232   2.0000      -0.412562       -11.2264
 233   2.0000      -0.408564       -11.1176
 234   2.0000      -0.405354       -11.0302
 235   2.0000      -0.402508       -10.9528
 236   2.0000      -0.392447       -10.6790
 237   2.0000      -0.380677       -10.3587
 238   2.0000      -0.378331       -10.2949
 239   2.0000      -0.369786       -10.0624
 240   2.0000      -0.358319        -9.7503
 241   2.0000      -0.351814        -9.5733
 242   2.0000      -0.347976        -9.4689
 243   2.0000      -0.346098        -9.4178
 244   2.0000      -0.344244        -9.3674
 245   2.0000      -0.341892        -9.3033
 246   2.0000      -0.336143        -9.1469
 247   2.0000      -0.333528        -9.0758
 248   2.0000      -0.324665        -8.8346
 249   2.0000      -0.320945        -8.7333
 250   2.0000      -0.315816        -8.5938
 251   2.0000      -0.303441        -8.2570
 252   2.0000      -0.295913        -8.0522
 253   2.0000      -0.292415        -7.9570
 254   2.0000      -0.282795        -7.6952
 255   2.0000      -0.242150        -6.5892
 256   0.0000      -0.120021        -3.2660
 257   0.0000      -0.103851        -2.8259
 258   0.0000      -0.081609        -2.2207
 259   0.0000      -0.063069        -1.7162
 260   0.0000      -0.058161        -1.5826

MULLIKEN ATOMIC CHARGES
-----------------------
   0 C :    0.317150
   1 C :   -0.353303
   2 C :   -0.180899
   3 N :    0.146538
   4 C :   -0.196669
   5 N :    0.159815
   6 C :    0.044917
   7 C :   -0.005933
   8 C :   -0.076026
   9 C :    0.095856
  10 C :    0.093765
  11 C :   -0.076712
  12 C :   -0.016788
  13 C :    0.034755
  14 C :    0.037005
  15 C :   -0.014354
  16 C :    0.163305
  17 O :   -0.154048
  18 C :   -0.083789
  19 C :    0.055467
  20 C :   -0.109915
  21 S :    0.198919
  22 C :   -0.049356
  23 C :   -0.092087
  24 C :    0.036744
  25 C :   -0.155376
  26 N :    0.118134
  27 C :    0.053790
  28 C :   -0.026148
  29 C :    0.133574
  30 N :   -0.253815
  31 C :    0.092735
  32 C :    0.008701
  33 C :    0.168015
  34 O :   -0.213332
  35 C :   -0.070585
  36 C :   -0.060185
  37 C :    0.165591
  38 O :   -0.203816
  39 N :   -0.258007
  40 C :    0.097593
  41 C :    0.001661
  42 C :    0.137945
  43 C :   -0.026444
  44 C :    0.087669
  45 C :   -0.075992
  46 S :    0.199374
  47 C :   -0.059959
  48 C :   -0.043925
  49 C :    0.005892
  50 C :   -0.188671
  51 N :    0.145053
  52 C :    0.056572
  53 C :   -0.021121
  54 C :   -0.048863
  55 C :   -0.059198
  56 C :    0.337737
  57 C :   -0.350708
  58 C :   -0.184978
  59 N :    0.151711
  60 C :   -0.191759
  61 N :    0.144445
  62 C :    0.045880
  63 C :   -0.003035
  64 C :    0.147357
  65 O :   -0.132552
  66 C :   -0.079409
  67 C :    0.097736
  68 C :    0.095915
  69 C :   -0.084288
  70 C :   -0.019546
  71 C :    0.036365
  72 C :    0.035623
  73 C :   -0.017030
  74 H :   -0.012462
  75 H :   -0.008025
  76 H :   -0.008489
  77 H :   -0.002734
  78 H :   -0.003701
  79 H :   -0.016636
  80 H :    0.010367
  81 H :    0.026531
  82 H :    0.006341
  83 H :   -0.012735
  84 H :    0.037960
  85 H :    0.042993
  86 H :    0.018695
  87 H :    0.030454
  88 H :    0.025105
  89 H :    0.046799
  90 H :    0.025339
  91 H :    0.034098
  92 H :    0.027122
  93 H :    0.015435
  94 H :   -0.026194
  95 H :    0.010277
  96 H :    0.001523
  97 H :    0.008298
  98 H :    0.054419
  99 H :    0.010359
 100 H :   -0.009919
 101 H :   -0.008657
 102 H :   -0.008179
 103 H :   -0.004574
 104 H :   -0.004808
 105 H :   -0.015685
Sum of atomic charges:   -0.0000000

LOEWDIN ATOMIC CHARGES
----------------------
   0 C :    0.076374
   1 C :   -0.138656
   2 C :   -0.016531
   3 N :   -0.052043
   4 C :   -0.025857
   5 N :   -0.048577
   6 C :   -0.026896
   7 C :   -0.056302
   8 C :    0.033970
   9 C :   -0.008074
  10 C :   -0.005760
  11 C :    0.020725
  12 C :   -0.004706
  13 C :   -0.012415
  14 C :   -0.011038
  15 C :   -0.008973
  16 C :    0.089113
  17 O :   -0.140937
  18 C :   -0.087241
  19 C :    0.045850
  20 C :   -0.179717
  21 S :    0.502076
  22 C :   -0.125268
  23 C :   -0.110312
  24 C :    0.021742
  25 C :   -0.023089
  26 N :   -0.057767
  27 C :   -0.010580
  28 C :   -0.016881
  29 C :    0.068461
  30 N :    0.005441
  31 C :    0.036653
  32 C :   -0.058428
  33 C :    0.079043
  34 O :   -0.202788
  35 C :   -0.120366
  36 C :   -0.110331
  37 C :    0.082086
  38 O :   -0.194297
  39 N :    0.000783
  40 C :    0.036339
  41 C :   -0.060688
  42 C :    0.079629
  43 C :   -0.041068
  44 C :    0.011412
  45 C :   -0.165280
  46 S :    0.499408
  47 C :   -0.147766
  48 C :   -0.087006
  49 C :   -0.013460
  50 C :   -0.034757
  51 N :   -0.032842
  52 C :   -0.004108
  53 C :   -0.009218
  54 C :    0.061863
  55 C :   -0.082000
  56 C :    0.075171
  57 C :   -0.137641
  58 C :   -0.017115
  59 N :   -0.053007
  60 C :   -0.019851
  61 N :   -0.053841
  62 C :   -0.026276
  63 C :   -0.055304
  64 C :    0.082484
  65 O :   -0.131169
  66 C :    0.033091
  67 C :   -0.007630
  68 C :   -0.006273
  69 C :    0.019311
  70 C :   -0.005511
  71 C :   -0.013613
  72 C :   -0.011979
  73 C :   -0.009434
  74 H :    0.039264
  75 H :    0.039207
  76 H :    0.035087
  77 H :    0.033856
  78 H :    0.033370
  79 H :    0.032233
  80 H :    0.043881
  81 H :    0.042504
  82 H :    0.037496
  83 H :    0.037357
  84 H :    0.028178
  85 H :    0.037920
  86 H :    0.023598
  87 H :    0.034841
  88 H :    0.029930
  89 H :    0.039358
  90 H :    0.023551
  91 H :    0.033872
  92 H :    0.032403
  93 H :    0.021708
  94 H :    0.028896
  95 H :    0.037618
  96 H :    0.039924
  97 H :    0.038163
  98 H :    0.041254
  99 H :    0.041727
 100 H :    0.040202
 101 H :    0.038878
 102 H :    0.034877
 103 H :    0.033209
 104 H :    0.032874
 105 H :    0.032405

  Mayer bond orders larger than 0.100000
B(  0-C ,  1-C ) :   1.6245 B(  0-C ,  6-C ) :   0.9862 B(  0-C , 18-C ) :   1.0725
B(  1-C ,  2-C ) :   1.1500 B(  1-C ,  4-C ) :   1.1381 B(  2-C ,  3-N ) :   2.9620
B(  4-C ,  5-N ) :   2.9759 B(  6-C ,  7-C ) :   1.2133 B(  6-C , 11-C ) :   1.4491
B(  7-C ,  8-C ) :   1.4692 B(  7-C , 16-C ) :   0.9572 B(  8-C ,  9-C ) :   1.1811
B(  8-C , 74-H ) :   1.0157 B(  9-C , 10-C ) :   1.2524 B(  9-C , 15-C ) :   1.2442
B( 10-C , 11-C ) :   1.2092 B( 10-C , 12-C ) :   1.2410 B( 11-C , 75-H ) :   0.9883
B( 12-C , 13-C ) :   1.4899 B( 12-C , 76-H ) :   0.9967 B( 13-C , 14-C ) :   1.2577
B( 13-C , 77-H ) :   0.9891 B( 14-C , 15-C ) :   1.4896 B( 14-C , 78-H ) :   0.9895
B( 15-C , 79-H ) :   0.9973 B( 16-C , 17-O ) :   2.1660 B( 16-C , 18-C ) :   0.9333
B( 18-C , 19-C ) :   1.6152 B( 19-C , 20-C ) :   1.1922 B( 19-C , 80-H ) :   0.9103
B( 20-C , 21-S ) :   1.1073 B( 20-C , 24-C ) :   1.4244 B( 21-S , 22-C ) :   1.1849
B( 22-C , 23-C ) :   1.3738 B( 22-C , 27-C ) :   1.1649 B( 23-C , 24-C ) :   1.3164
B( 23-C , 25-C ) :   1.1218 B( 24-C , 81-H ) :   0.9807 B( 25-C , 26-N ) :   2.9648
B( 27-C , 28-C ) :   1.5999 B( 27-C , 82-H ) :   0.9245 B( 28-C , 29-C ) :   1.1785
B( 28-C , 83-H ) :   0.9447 B( 29-C , 30-N ) :   1.1599 B( 29-C , 36-C ) :   1.3302
B( 30-N , 31-C ) :   0.9366 B( 30-N , 33-C ) :   1.0740 B( 31-C , 32-C ) :   1.1230
B( 31-C , 84-H ) :   0.9477 B( 31-C , 85-H ) :   0.9271 B( 32-C , 86-H ) :   0.9676
B( 32-C , 87-H ) :   0.9677 B( 32-C , 88-H ) :   0.9633 B( 33-C , 34-O ) :   2.0105
B( 33-C , 35-C ) :   0.9865 B( 34-O , 95-H ) :   0.1251 B( 35-C , 36-C ) :   1.2669
B( 35-C , 42-C ) :   1.3251 B( 36-C , 37-C ) :   0.9811 B( 37-C , 38-O ) :   2.0309
B( 37-C , 39-N ) :   1.0619 B( 38-O , 82-H ) :   0.1123 B( 39-N , 40-C ) :   0.9432
B( 39-N , 42-C ) :   1.1592 B( 40-C , 41-C ) :   1.1191 B( 40-C , 89-H ) :   0.9280
B( 40-C , 90-H ) :   0.9502 B( 41-C , 91-H ) :   0.9638 B( 41-C , 92-H ) :   0.9684
B( 41-C , 93-H ) :   0.9687 B( 42-C , 43-C ) :   1.1749 B( 43-C , 44-C ) :   1.6150
B( 43-C , 94-H ) :   0.9629 B( 44-C , 45-C ) :   1.1264 B( 44-C , 95-H ) :   0.9296
B( 45-C , 46-S ) :   1.1410 B( 45-C , 49-C ) :   1.4345 B( 46-S , 47-C ) :   1.1482
B( 47-C , 48-C ) :   1.4156 B( 47-C , 52-C ) :   1.1299 B( 48-C , 49-C ) :   1.3391
B( 48-C , 50-C ) :   1.1107 B( 49-C , 96-H ) :   0.9998 B( 50-C , 51-N ) :   2.9933
B( 52-C , 53-C ) :   1.5878 B( 52-C , 97-H ) :   0.9584 B( 53-C , 54-C ) :   1.1571
B( 53-C , 98-H ) :   0.9681 B( 54-C , 55-C ) :   1.5482 B( 54-C , 99-H ) :   0.9622
B( 55-C , 56-C ) :   1.0618 B( 55-C , 64-C ) :   0.9329 B( 56-C , 57-C ) :   1.6229
B( 56-C , 62-C ) :   0.9887 B( 57-C , 58-C ) :   1.1468 B( 57-C , 60-C ) :   1.1483
B( 58-C , 59-N ) :   2.9628 B( 60-C , 61-N ) :   2.9578 B( 62-C , 63-C ) :   1.2140
B( 62-C , 69-C ) :   1.4486 B( 63-C , 64-C ) :   0.9425 B( 63-C , 66-C ) :   1.4731
B( 64-C , 65-O ) :   2.2160 B( 66-C , 67-C ) :   1.1796 B( 66-C ,100-H ) :   1.0160
B( 67-C , 68-C ) :   1.2528 B( 67-C , 73-C ) :   1.2449 B( 68-C , 69-C ) :   1.2096
B( 68-C , 70-C ) :   1.2396 B( 69-C ,101-H ) :   0.9877 B( 70-C , 71-C ) :   1.4904
B( 70-C ,102-H ) :   0.9966 B( 71-C , 72-C ) :   1.2582 B( 71-C ,103-H ) :   0.9888
B( 72-C , 73-C ) :   1.4896 B( 72-C ,104-H ) :   0.9889 B( 73-C ,105-H ) :   0.9972

-----------------------------------------------------------------------------
         ABSORPTION SPECTRUM VIA TRANSITION ELECTRIC DIPOLE MOMENTS
-----------------------------------------------------------------------------
State   Energy  Wavelength   fosc         T2         TX        TY        TZ
        (cm-1)    (nm)                  (au**2)     (au)      (au)      (au)
-----------------------------------------------------------------------------
   0   12458.3    802.7   1.701500326  44.96221   4.32410  -4.89011  -1.53336
   1   17986.4    556.0   0.040248923   0.73669   0.61759  -0.19078  -0.56469
   2   22111.8    452.2   0.855947927  12.74379   1.48923  -1.85185  -2.66395
   3   22548.0    443.5   0.049906835   0.72866   0.70516  -0.15974   0.45375
   4   23975.4    417.1   0.458951048   6.30197   0.97397  -1.80976  -1.44156
   5   24673.2    405.3   0.244602643   3.26371   1.24558  -1.21803  -0.47816
   6   25547.3    391.4   0.152449217   1.96451  -0.89607   0.99329   0.41827
   7   25787.1    387.8   0.002714952   0.03466   0.11448  -0.12247  -0.08097
   8   25850.5    386.8   0.192025392   2.44548   0.94436  -1.15127  -0.47774
   9   27001.8    370.3   0.046351454   0.56513  -0.54277   0.48620   0.18477
  10   27833.6    359.3   0.026130259   0.30906  -0.34587   0.22699  -0.37137
  11   27843.0    359.2   0.006588801   0.07791   0.07817  -0.18152  -0.19709
  12   27983.0    357.4   0.012849809   0.15117   0.18307  -0.20751   0.27312
  13   28115.7    355.7   0.021475569   0.25146   0.33792  -0.36551  -0.06056
  14   28606.6    349.6   0.034644606   0.39870   0.54388  -0.32062  -0.00983
  15   28897.4    346.1   0.131753237   1.50099  -0.98074   0.72751  -0.09933
  16   29660.3    337.2   0.162083824   1.79904   1.02562  -0.85744   0.10929
  17   30402.3    328.9   0.058322625   0.63155  -0.56988   0.02250  -0.55343
  18   31273.4    319.8   0.000091575   0.00096  -0.00811   0.02275   0.01951
  19   32615.8    306.6   0.554270475   5.59461   1.83557  -1.25094   0.81269
  20   32669.0    306.1   0.463238622   4.66815   1.77483  -1.16496   0.40125
  21   32747.1    305.4   0.124431267   1.25093   0.88825  -0.67507  -0.07885
  22   33247.6    300.8   0.000848787   0.00840   0.00199  -0.01057   0.09104
  23   33381.3    299.6   0.000654258   0.00645   0.05317  -0.00446   0.06005
  24   33677.8    296.9   0.036232382   0.35418  -0.01001   0.11325   0.58417
  25   33845.3    295.5   0.067962869   0.66107   0.34726  -0.55597  -0.48102
  26   33917.5    294.8   0.009737070   0.09451  -0.15126   0.02560  -0.26641
  27   34503.2    289.8   0.142585592   1.36048   0.90239  -0.50598   0.53865
  28   34610.6    288.9   0.067318557   0.64033  -0.58537   0.35047  -0.41814
  29   34723.3    288.0   0.046109038   0.43716  -0.35760   0.16410  -0.53137
  30   34974.7    285.9   0.082700985   0.77845   0.34717  -0.13805   0.79929
  31   35445.9    282.1   0.031161675   0.28942   0.21195  -0.10009   0.48423
  32   35846.5    279.0   0.038796848   0.35631   0.35527  -0.15569   0.45371
  33   35990.2    277.9   0.005373229   0.04915  -0.04564   0.02231   0.21580
  34   36527.5    273.8   0.076133540   0.68617   0.65082  -0.26672   0.43756
  35   37063.6    269.8   0.223692166   1.98691  -0.11968  -0.44291  -1.33282
  36   37488.7    266.7   0.137437383   1.20692  -0.62559   0.28718  -0.85620
  37   37784.7    264.7   0.198682088   1.73108   0.84597  -0.17213   0.99287
  38   38284.5    261.2   0.001200695   0.01032  -0.03467  -0.00748  -0.09522
  39   38458.5    260.0   0.059458154   0.50897  -0.00058   0.45951   0.54574
  40   38643.6    258.8   0.040758367   0.34723   0.19521   0.10559   0.54587
  41   38797.7    257.7   0.159726514   1.35534  -0.90930   0.72320   0.07406
  42   39094.3    255.8   0.091738632   0.77253   0.62347  -0.42767   0.44823
  43   39250.8    254.8   0.073234627   0.61425   0.50670  -0.40685   0.43816
  44   39293.4    254.5   0.004620617   0.03871  -0.13920   0.13674  -0.02527
  45   39435.9    253.6   0.042564609   0.35533  -0.41684   0.41061   0.11391
  46   39719.6    251.8   0.104246369   0.86404   0.05551  -0.47867  -0.79488
  47   40004.1    250.0   0.175568491   1.44483  -0.30756   0.51650   1.04090
  48   40101.4    249.4   0.040720948   0.33430  -0.21871   0.38141   0.37549

FINAL SINGLE POINT ENERGY     -3836.776423085852

DIPOLE MOMENT
-------------
                                X             Y             Z
Electronic contribution:      0.42241      -4.12990       1.38112
Nuclear contribution   :      0.47277       3.79782      -2.31911
                        -----------------------------------------
Total Dipole Moment    :      0.89518      -0.33207      -0.93799
                        -----------------------------------------
Magnitude (a.u.)       :      1.33845
Magnitude (Debye)      :      3.40206

Rotational constants in cm-1:     0.003512     0.000150     0.000145
Rotational constants in MHz :   105.288598     4.503954     4.339298

                             ****ORCA TERMINATED NORMALLY****
TOTAL RUN TIME: 0 days 0 hours 9 minutes 13 seconds 3 msec
