                         Program Version 4.2.0 -  RELEASE  -
|  1> # ORCA input file
|  2> # SCF done       -170.343717186746          0.000639959296
|  3> ! CAM-B3LYP def2-SVP def2/J RIJCOSX Grid4 TightSCF
|  4> %maxcore 5000
|  5> %tddft
|  6>     Mode sTDDFT
|  7>     Ethresh 5.0
|  8>     maxcore 5000
|  9> end
| 10>
| 11> %pal
| 12>   nprocs 6
| 13>   end
| 14> * xyz 0 1
| 15>    C        1.26836         0.67678         0.16696
| 16>    C        0.43004         1.16829        -0.79270
| 17>    C        0.85568         1.53922        -2.08526
| 18>    N        1.16002         1.85402        -3.14602
| 19>    C       -0.97103         1.24374        -0.63811
| 20>    N       -2.11730         1.23977        -0.58729
| 21>    C        2.66336         0.30021        -0.02721
| 22>    C        3.03597        -0.61692         1.00059
| 23>    C        4.28117        -1.17684         1.04505
| 24>    C        5.22832        -0.83014         0.05618
| 25>    C        4.86879         0.10209        -0.96072
| 26>    C        3.57025         0.66013        -0.98765
| 27>    C        5.82819         0.44736        -1.93439
| 28>    C        7.08050        -0.10323        -1.90963
| 29>    C        7.43232        -1.02339        -0.91042
| 30>    C        6.52619        -1.37912         0.05117
| 31>    C        1.90829        -0.79958         1.92862
| 32>    O        1.82877        -1.53528         2.88326
| 33>    C        0.87773         0.18867         1.47854
| 34>    C       -0.09251         0.57855         2.33578
| 35>    C       -0.90684         1.74084         2.23671
| 36>    S       -2.34887         1.95445         3.21529
| 37>    C       -2.48029         3.52749         2.44632
| 38>    N       -1.50597         3.75428         1.60817
| 39>    N       -0.65506         2.78161         1.49104
| 40>    C       -3.54662         4.42371         2.74373
| 41>    C       -3.67218         5.60659         2.10516
| 42>    C       -4.68801         6.59850         2.31289
| 43>    C       -5.68447         6.58521         3.27972
| 44>    F       -5.77691         5.57156         4.15559
| 45>    C       -6.63178         7.61022         3.41505
| 46>    F       -7.53390         7.47085         4.40288
| 47>    C       -6.68831         8.73932         2.60700
| 48>    C       -5.68609         8.79194         1.59905
| 49>    C       -4.70947         7.74282         1.46651
| 50>    N       -3.85708         7.97888         0.47275
| 51>    S       -4.23725         9.36889        -0.22694
| 52>    N       -5.50101         9.74924         0.69126
| 53>    C       -7.69356         9.74217         2.83069
| 54>    C       -7.84171        10.86013         2.09667
| 55>    C       -8.84040        11.87526         2.32356
| 56>    C       -9.02854        12.90674         1.39303
| 57>    N       -9.93142        13.85317         1.53852
| 58>    C      -10.69687        13.79098         2.62242
| 59>    N      -10.57420        12.90164         3.60183
| 60>    C       -9.66349        11.96330         3.45500
| 61>    C      -11.73745        14.82256         2.77891
| 62>    C      -12.99411        14.60421         2.36992
| 63>    C      -14.16900        15.47120         2.44240
| 64>    C      -14.21768        16.72195         2.98743
| 65>    C      -15.38118        17.52111         3.04145
| 66>    N      -16.29107        18.21613         3.11525
| 67>    C      -13.11780        17.38754         3.57265
| 68>    N      -12.27147        17.98746         4.06277
| 69>    C      -15.27831        14.74876         1.83692
| 70>    C      -14.82457        13.46760         1.40332
| 71>    C      -13.39478        13.32211         1.70987
| 72>    O      -12.67134        12.38218         1.47588
| 73>    C      -15.66230        12.57365         0.79906
| 74>    C      -17.01526        12.92319         0.59530
| 75>    C      -17.47618        14.20302         1.02189
| 76>    C      -16.58837        15.10794         1.64466
| 77>    C      -18.82853        14.54299         0.81030
| 78>    C      -19.68525        13.66245         0.20836
| 79>    C      -19.23072        12.40226        -0.20961
| 80>    C      -17.92452        12.04053        -0.02054
| 81>    H        4.54091        -1.87550         1.82648
| 82>    H        3.32477         1.36988        -1.76221
| 83>    H        5.55172         1.15339        -2.70351
| 84>    H        7.80763         0.16668        -2.66070
| 85>    H        8.42489        -1.44830        -0.90646
| 86>    H        6.79132        -2.08660         0.82315
| 87>    H       -0.20967        -0.01408         3.23599
| 88>    H       -4.24242         4.09238         3.49818
| 89>    H       -2.94829         5.85722         1.34204
| 90>    H       -8.36189         9.53857         3.65585
| 91>    H       -7.17838        11.02831         1.25949
| 92>    H       -8.42511        12.96517         0.49508
| 93>    H       -9.58176        11.26876         4.28058
| 94>    H      -11.42472        15.74957         3.23875
| 95>    H      -15.29452        11.60939         0.48103
| 96>    H      -16.96743        16.06851         1.95581
| 97>    H      -19.17367        15.51380         1.13422
| 98>    H      -20.71882        13.93161         0.05084
| 99>    H      -19.92110        11.71990        -0.68229
|100>    H      -17.56897        11.07212        -0.34046
|101> *
|102>
|103>                          ****END OF INPUT****

CARTESIAN COORDINATES (ANGSTROEM)
---------------------------------
  C      1.268360    0.676780    0.166960
  C      0.430040    1.168290   -0.792700
  C      0.855680    1.539220   -2.085260
  N      1.160020    1.854020   -3.146020
  C     -0.971030    1.243740   -0.638110
  N     -2.117300    1.239770   -0.587290
  C      2.663360    0.300210   -0.027210
  C      3.035970   -0.616920    1.000590
  C      4.281170   -1.176840    1.045050
  C      5.228320   -0.830140    0.056180
  C      4.868790    0.102090   -0.960720
  C      3.570250    0.660130   -0.987650
  C      5.828190    0.447360   -1.934390
  C      7.080500   -0.103230   -1.909630
  C      7.432320   -1.023390   -0.910420
  C      6.526190   -1.379120    0.051170
  C      1.908290   -0.799580    1.928620
  O      1.828770   -1.535280    2.883260
  C      0.877730    0.188670    1.478540
  C     -0.092510    0.578550    2.335780
  C     -0.906840    1.740840    2.236710
  S     -2.348870    1.954450    3.215290
  C     -2.480290    3.527490    2.446320
  N     -1.505970    3.754280    1.608170
  N     -0.655060    2.781610    1.491040
  C     -3.546620    4.423710    2.743730
  C     -3.672180    5.606590    2.105160
  C     -4.688010    6.598500    2.312890
  C     -5.684470    6.585210    3.279720
  F     -5.776910    5.571560    4.155590
  C     -6.631780    7.610220    3.415050
  F     -7.533900    7.470850    4.402880
  C     -6.688310    8.739320    2.607000
  C     -5.686090    8.791940    1.599050
  C     -4.709470    7.742820    1.466510
  N     -3.857080    7.978880    0.472750
  S     -4.237250    9.368890   -0.226940
  N     -5.501010    9.749240    0.691260
  C     -7.693560    9.742170    2.830690
  C     -7.841710   10.860130    2.096670
  C     -8.840400   11.875260    2.323560
  C     -9.028540   12.906740    1.393030
  N     -9.931420   13.853170    1.538520
  C    -10.696870   13.790980    2.622420
  N    -10.574200   12.901640    3.601830
  C     -9.663490   11.963300    3.455000
  C    -11.737450   14.822560    2.778910
  C    -12.994110   14.604210    2.369920
  C    -14.169000   15.471200    2.442400
  C    -14.217680   16.721950    2.987430
  C    -15.381180   17.521110    3.041450
  N    -16.291070   18.216130    3.115250
  C    -13.117800   17.387540    3.572650
  N    -12.271470   17.987460    4.062770
  C    -15.278310   14.748760    1.836920
  C    -14.824570   13.467600    1.403320
  C    -13.394780   13.322110    1.709870
  O    -12.671340   12.382180    1.475880
  C    -15.662300   12.573650    0.799060
  C    -17.015260   12.923190    0.595300
  C    -17.476180   14.203020    1.021890
  C    -16.588370   15.107940    1.644660
  C    -18.828530   14.542990    0.810300
  C    -19.685250   13.662450    0.208360
  C    -19.230720   12.402260   -0.209610
  C    -17.924520   12.040530   -0.020540
  H      4.540910   -1.875500    1.826480
  H      3.324770    1.369880   -1.762210
  H      5.551720    1.153390   -2.703510
  H      7.807630    0.166680   -2.660700
  H      8.424890   -1.448300   -0.906460
  H      6.791320   -2.086600    0.823150
  H     -0.209670   -0.014080    3.235990
  H     -4.242420    4.092380    3.498180
  H     -2.948290    5.857220    1.342040
  H     -8.361890    9.538570    3.655850
  H     -7.178380   11.028310    1.259490
  H     -8.425110   12.965170    0.495080
  H     -9.581760   11.268760    4.280580
  H    -11.424720   15.749570    3.238750
  H    -15.294520   11.609390    0.481030
  H    -16.967430   16.068510    1.955810
  H    -19.173670   15.513800    1.134220
  H    -20.718820   13.931610    0.050840
  H    -19.921100   11.719900   -0.682290
  H    -17.568970   11.072120   -0.340460

 Total Charge           Charge          ....    0
 Multiplicity           Mult            ....    1
 Number of Electrons    NEL             ....  456
 Basis Dimension        Dim             .... 1032

ORBITAL ENERGIES
----------------

  NO   OCC          E(Eh)            E(eV)
   0   2.0000     -89.035004     -2422.7656
   1   2.0000     -88.980881     -2421.2929
   2   2.0000     -24.812936      -675.1943
   3   2.0000     -24.806705      -675.0248
   4   2.0000     -19.221155      -523.0342
   5   2.0000     -19.219037      -522.9766
   6   2.0000     -14.450188      -393.2096
   7   2.0000     -14.450088      -393.2069
   8   2.0000     -14.449719      -393.1969
   9   2.0000     -14.442212      -392.9926
  10   2.0000     -14.420506      -392.4019
  11   2.0000     -14.420424      -392.3997
  12   2.0000     -14.414527      -392.2392
  13   2.0000     -14.413227      -392.2038
  14   2.0000     -14.412935      -392.1959
  15   2.0000     -14.410106      -392.1189
  16   2.0000     -10.392026      -282.7814
  17   2.0000     -10.387868      -282.6683
  18   2.0000     -10.370188      -282.1872
  19   2.0000     -10.369784      -282.1762
  20   2.0000     -10.350944      -281.6635
  21   2.0000     -10.349980      -281.6373
  22   2.0000     -10.349611      -281.6272
  23   2.0000     -10.349097      -281.6133
  24   2.0000     -10.345574      -281.5174
  25   2.0000     -10.343130      -281.4509
  26   2.0000     -10.340583      -281.3816
  27   2.0000     -10.339762      -281.3592
  28   2.0000     -10.338119      -281.3145
  29   2.0000     -10.324386      -280.9408
  30   2.0000     -10.323501      -280.9168
  31   2.0000     -10.322969      -280.9023
  32   2.0000     -10.322485      -280.8891
  33   2.0000     -10.322106      -280.8788
  34   2.0000     -10.318078      -280.7692
  35   2.0000     -10.316785      -280.7340
  36   2.0000     -10.316165      -280.7171
  37   2.0000     -10.315926      -280.7106
  38   2.0000     -10.312749      -280.6242
  39   2.0000     -10.307844      -280.4907
  40   2.0000     -10.307695      -280.4867
  41   2.0000     -10.304601      -280.4024
  42   2.0000     -10.303945      -280.3846
  43   2.0000     -10.302066      -280.3335
  44   2.0000     -10.301850      -280.3276
  45   2.0000     -10.301415      -280.3158
  46   2.0000     -10.301065      -280.3062
  47   2.0000     -10.300626      -280.2943
  48   2.0000     -10.298474      -280.2357
  49   2.0000     -10.298331      -280.2318
  50   2.0000     -10.297872      -280.2194
  51   2.0000     -10.297828      -280.2181
  52   2.0000     -10.296035      -280.1693
  53   2.0000     -10.294515      -280.1280
  54   2.0000     -10.293101      -280.0895
  55   2.0000     -10.292127      -280.0630
  56   2.0000     -10.290810      -280.0272
  57   2.0000     -10.290401      -280.0161
  58   2.0000     -10.289836      -280.0007
  59   2.0000     -10.289589      -279.9939
  60   2.0000     -10.289108      -279.9809
  61   2.0000     -10.288815      -279.9729
  62   2.0000     -10.286786      -279.9177
  63   2.0000     -10.286335      -279.9054
  64   2.0000     -10.286050      -279.8977
  65   2.0000     -10.285319      -279.8778
  66   2.0000      -8.126802      -221.1415
  67   2.0000      -8.077234      -219.7927
  68   2.0000      -6.098092      -165.9375
  69   2.0000      -6.090221      -165.7233
  70   2.0000      -6.089125      -165.6935
  71   2.0000      -6.045784      -164.5141
  72   2.0000      -6.042492      -164.4246
  73   2.0000      -6.039745      -164.3498
  74   2.0000      -1.333608       -36.2893
  75   2.0000      -1.314446       -35.7679
  76   2.0000      -1.151466       -31.3330
  77   2.0000      -1.137665       -30.9574
  78   2.0000      -1.136857       -30.9354
  79   2.0000      -1.134371       -30.8678
  80   2.0000      -1.087177       -29.5836
  81   2.0000      -1.022406       -27.8211
  82   2.0000      -1.016779       -27.6680
  83   2.0000      -1.002408       -27.2769
  84   2.0000      -0.998647       -27.1746
  85   2.0000      -0.997572       -27.1453
  86   2.0000      -0.994087       -27.0505
  87   2.0000      -0.990805       -26.9612
  88   2.0000      -0.986421       -26.8419
  89   2.0000      -0.980744       -26.6874
  90   2.0000      -0.975117       -26.5343
  91   2.0000      -0.973221       -26.4827
  92   2.0000      -0.952018       -25.9057
  93   2.0000      -0.935794       -25.4642
  94   2.0000      -0.932984       -25.3878
  95   2.0000      -0.926107       -25.2007
  96   2.0000      -0.919956       -25.0333
  97   2.0000      -0.910289       -24.7702
  98   2.0000      -0.898747       -24.4562
  99   2.0000      -0.894089       -24.3294
 100   2.0000      -0.885585       -24.0980
 101   2.0000      -0.881241       -23.9798
 102   2.0000      -0.878382       -23.9020
 103   2.0000      -0.871572       -23.7167
 104   2.0000      -0.864285       -23.5184
 105   2.0000      -0.853705       -23.2305
 106   2.0000      -0.832496       -22.6534
 107   2.0000      -0.828474       -22.5439
 108   2.0000      -0.828329       -22.5400
 109   2.0000      -0.803710       -21.8701
 110   2.0000      -0.798201       -21.7202
 111   2.0000      -0.777787       -21.1647
 112   2.0000      -0.765831       -20.8393
 113   2.0000      -0.761008       -20.7081
 114   2.0000      -0.752864       -20.4865
 115   2.0000      -0.745226       -20.2786
 116   2.0000      -0.741046       -20.1649
 117   2.0000      -0.731697       -19.9105
 118   2.0000      -0.726262       -19.7626
 119   2.0000      -0.711548       -19.3622
 120   2.0000      -0.708790       -19.2871
 121   2.0000      -0.707068       -19.2403
 122   2.0000      -0.701778       -19.0964
 123   2.0000      -0.698897       -19.0179
 124   2.0000      -0.691462       -18.8156
 125   2.0000      -0.689248       -18.7554
 126   2.0000      -0.678965       -18.4756
 127   2.0000      -0.674429       -18.3521
 128   2.0000      -0.665769       -18.1165
 129   2.0000      -0.658764       -17.9259
 130   2.0000      -0.648886       -17.6571
 131   2.0000      -0.644332       -17.5332
 132   2.0000      -0.642299       -17.4779
 133   2.0000      -0.635582       -17.2951
 134   2.0000      -0.630583       -17.1590
 135   2.0000      -0.628201       -17.0942
 136   2.0000      -0.616553       -16.7773
 137   2.0000      -0.611612       -16.6428
 138   2.0000      -0.610424       -16.6105
 139   2.0000      -0.607684       -16.5359
 140   2.0000      -0.602179       -16.3861
 141   2.0000      -0.598963       -16.2986
 142   2.0000      -0.597688       -16.2639
 143   2.0000      -0.583016       -15.8647
 144   2.0000      -0.578661       -15.7462
 145   2.0000      -0.567573       -15.4445
 146   2.0000      -0.562164       -15.2973
 147   2.0000      -0.561612       -15.2822
 148   2.0000      -0.557608       -15.1733
 149   2.0000      -0.555956       -15.1283
 150   2.0000      -0.554233       -15.0814
 151   2.0000      -0.550397       -14.9771
 152   2.0000      -0.549084       -14.9413
 153   2.0000      -0.546455       -14.8698
 154   2.0000      -0.545991       -14.8572
 155   2.0000      -0.542218       -14.7545
 156   2.0000      -0.539490       -14.6803
 157   2.0000      -0.538708       -14.6590
 158   2.0000      -0.537169       -14.6171
 159   2.0000      -0.533254       -14.5106
 160   2.0000      -0.524796       -14.2804
 161   2.0000      -0.521981       -14.2038
 162   2.0000      -0.520826       -14.1724
 163   2.0000      -0.516963       -14.0673
 164   2.0000      -0.516529       -14.0555
 165   2.0000      -0.515084       -14.0161
 166   2.0000      -0.512995       -13.9593
 167   2.0000      -0.511123       -13.9084
 168   2.0000      -0.510075       -13.8799
 169   2.0000      -0.505491       -13.7551
 170   2.0000      -0.502874       -13.6839
 171   2.0000      -0.501052       -13.6343
 172   2.0000      -0.496386       -13.5073
 173   2.0000      -0.494827       -13.4649
 174   2.0000      -0.489368       -13.3164
 175   2.0000      -0.488859       -13.3025
 176   2.0000      -0.488340       -13.2884
 177   2.0000      -0.487999       -13.2791
 178   2.0000      -0.484201       -13.1758
 179   2.0000      -0.478613       -13.0237
 180   2.0000      -0.471660       -12.8345
 181   2.0000      -0.468229       -12.7412
 182   2.0000      -0.465788       -12.6747
 183   2.0000      -0.457640       -12.4530
 184   2.0000      -0.454651       -12.3717
 185   2.0000      -0.453129       -12.3303
 186   2.0000      -0.452158       -12.3039
 187   2.0000      -0.448443       -12.2027
 188   2.0000      -0.447049       -12.1648
 189   2.0000      -0.444227       -12.0880
 190   2.0000      -0.442238       -12.0339
 191   2.0000      -0.439587       -11.9618
 192   2.0000      -0.438220       -11.9246
 193   2.0000      -0.436458       -11.8766
 194   2.0000      -0.434996       -11.8368
 195   2.0000      -0.431408       -11.7392
 196   2.0000      -0.430963       -11.7271
 197   2.0000      -0.428035       -11.6474
 198   2.0000      -0.425309       -11.5732
 199   2.0000      -0.424003       -11.5377
 200   2.0000      -0.416473       -11.3328
 201   2.0000      -0.413219       -11.2443
 202   2.0000      -0.410084       -11.1589
 203   2.0000      -0.406088       -11.0502
 204   2.0000      -0.405746       -11.0409
 205   2.0000      -0.401768       -10.9327
 206   2.0000      -0.396564       -10.7911
 207   2.0000      -0.392925       -10.6920
 208   2.0000      -0.392148       -10.6709
 209   2.0000      -0.384079       -10.4513
 210   2.0000      -0.383163       -10.4264
 211   2.0000      -0.380552       -10.3553
 212   2.0000      -0.375414       -10.2155
 213   2.0000      -0.373769       -10.1708
 214   2.0000      -0.362087        -9.8529
 215   2.0000      -0.347461        -9.4549
 216   2.0000      -0.344071        -9.3626
 217   2.0000      -0.340225        -9.2580
 218   2.0000      -0.337824        -9.1926
 219   2.0000      -0.333675        -9.0798
 220   2.0000      -0.330034        -8.9807
 221   2.0000      -0.322868        -8.7857
 222   2.0000      -0.319474        -8.6933
 223   2.0000      -0.315342        -8.5809
 224   2.0000      -0.306272        -8.3341
 225   2.0000      -0.297484        -8.0950
 226   2.0000      -0.292535        -7.9603
 227   2.0000      -0.267965        -7.2917
 228   0.0000      -0.102726        -2.7953
 229   0.0000      -0.088713        -2.4140
 230   0.0000      -0.083518        -2.2726
 231   0.0000      -0.056978        -1.5505
 232   0.0000      -0.055493        -1.5100

MULLIKEN ATOMIC CHARGES
-----------------------
   0 C :    0.271865
   1 C :   -0.283335
   2 C :   -0.182840
   3 N :    0.155460
   4 C :   -0.187985
   5 N :    0.161003
   6 C :    0.042390
   7 C :    0.009343
   8 C :   -0.080475
   9 C :    0.094743
  10 C :    0.097698
  11 C :   -0.083334
  12 C :   -0.018597
  13 C :    0.037162
  14 C :    0.037691
  15 C :   -0.016095
  16 C :    0.133915
  17 O :   -0.135516
  18 C :   -0.100897
  19 C :    0.096815
  20 C :   -0.115795
  21 S :    0.131701
  22 C :   -0.086971
  23 N :   -0.044287
  24 N :   -0.044770
  25 C :    0.072258
  26 C :   -0.021751
  27 C :    0.031542
  28 C :    0.170560
  29 F :   -0.169939
  30 C :    0.178051
  31 F :   -0.174292
  32 C :    0.019543
  33 C :    0.031894
  34 C :    0.000657
  35 N :   -0.268952
  36 S :    0.527292
  37 N :   -0.290829
  38 C :   -0.036281
  39 C :    0.028992
  40 C :    0.033851
  41 C :    0.032792
  42 N :   -0.058773
  43 C :   -0.040067
  44 N :   -0.059332
  45 C :    0.037790
  46 C :    0.006492
  47 C :   -0.061874
  48 C :    0.340592
  49 C :   -0.345118
  50 C :   -0.182829
  51 N :    0.155064
  52 C :   -0.192989
  53 N :    0.168516
  54 C :    0.040275
  55 C :   -0.002028
  56 C :    0.162727
  57 O :   -0.135723
  58 C :   -0.074863
  59 C :    0.099444
  60 C :    0.096617
  61 C :   -0.081990
  62 C :   -0.016926
  63 C :    0.037043
  64 C :    0.037565
  65 C :   -0.015741
  66 H :   -0.010928
  67 H :   -0.003099
  68 H :   -0.009769
  69 H :   -0.003911
  70 H :   -0.005738
  71 H :   -0.017338
  72 H :    0.023303
  73 H :    0.004198
  74 H :    0.034637
  75 H :   -0.010864
  76 H :    0.010441
  77 H :    0.006976
  78 H :    0.009442
  79 H :    0.054838
  80 H :   -0.012588
  81 H :   -0.007778
  82 H :   -0.008095
  83 H :   -0.002889
  84 H :   -0.002328
  85 H :   -0.016662
Sum of atomic charges:   -0.0000000

LOEWDIN ATOMIC CHARGES
----------------------
   0 C :    0.067714
   1 C :   -0.109408
   2 C :   -0.015253
   3 N :   -0.047131
   4 C :   -0.016202
   5 N :   -0.049943
   6 C :   -0.019427
   7 C :   -0.059610
   8 C :    0.034456
   9 C :   -0.009625
  10 C :   -0.003495
  11 C :    0.016277
  12 C :   -0.006211
  13 C :   -0.011803
  14 C :   -0.013203
  15 C :   -0.008781
  16 C :    0.084512
  17 O :   -0.136362
  18 C :   -0.052332
  19 C :    0.026523
  20 C :   -0.162385
  21 S :    0.417464
  22 C :   -0.131113
  23 N :   -0.069205
  24 N :   -0.047882
  25 C :   -0.049403
  26 C :    0.032308
  27 C :   -0.059842
  28 C :    0.078589
  29 F :   -0.039647
  30 C :    0.069775
  31 F :   -0.048593
  32 C :   -0.044493
  33 C :   -0.042133
  34 C :   -0.042291
  35 N :   -0.274806
  36 S :    0.655051
  37 N :   -0.282546
  38 C :   -0.023625
  39 C :    0.006424
  40 C :   -0.070255
  41 C :    0.059635
  42 N :   -0.075497
  43 C :    0.026518
  44 N :   -0.073801
  45 C :    0.064932
  46 C :    0.085370
  47 C :   -0.066911
  48 C :    0.076007
  49 C :   -0.125157
  50 C :   -0.016079
  51 N :   -0.045936
  52 C :   -0.018676
  53 N :   -0.040915
  54 C :   -0.026297
  55 C :   -0.057046
  56 C :    0.089058
  57 O :   -0.127621
  58 C :    0.035495
  59 C :   -0.006951
  60 C :   -0.005266
  61 C :    0.022218
  62 C :   -0.004247
  63 C :   -0.011519
  64 C :   -0.010178
  65 C :   -0.008486
  66 H :    0.039631
  67 H :    0.039589
  68 H :    0.034757
  69 H :    0.033473
  70 H :    0.032757
  71 H :    0.031914
  72 H :    0.048404
  73 H :    0.029584
  74 H :    0.047896
  75 H :    0.029724
  76 H :    0.031263
  77 H :    0.027108
  78 H :    0.025596
  79 H :    0.052887
  80 H :    0.039786
  81 H :    0.039386
  82 H :    0.035243
  83 H :    0.034037
  84 H :    0.033788
  85 H :    0.032439

  Mayer bond orders larger than 0.100000
B(  0-C ,  1-C ) :   1.7048 B(  0-C ,  6-C ) :   1.0003 B(  0-C , 18-C ) :   1.0113
B(  1-C ,  2-C ) :   1.1371 B(  1-C ,  4-C ) :   1.1490 B(  2-C ,  3-N ) :   2.9875
B(  4-C ,  5-N ) :   3.0110 B(  6-C ,  7-C ) :   1.2120 B(  6-C , 11-C ) :   1.4556
B(  7-C ,  8-C ) :   1.4666 B(  7-C , 16-C ) :   0.9230 B(  8-C ,  9-C ) :   1.1900
B(  8-C , 66-H ) :   1.0165 B(  9-C , 10-C ) :   1.2548 B(  9-C , 15-C ) :   1.2417
B( 10-C , 11-C ) :   1.2041 B( 10-C , 12-C ) :   1.2400 B( 11-C , 67-H ) :   0.9951
B( 12-C , 13-C ) :   1.4905 B( 12-C , 68-H ) :   0.9981 B( 13-C , 14-C ) :   1.2579
B( 13-C , 69-H ) :   0.9886 B( 14-C , 15-C ) :   1.4916 B( 14-C , 70-H ) :   0.9884
B( 15-C , 71-H ) :   0.9982 B( 16-C , 17-O ) :   2.2811 B( 16-C , 18-C ) :   0.9234
B( 18-C , 19-C ) :   1.7378 B( 19-C , 20-C ) :   1.0747 B( 19-C , 72-H ) :   0.9333
B( 20-C , 21-S ) :   1.0931 B( 20-C , 24-N ) :   1.6152 B( 21-S , 22-C ) :   1.1161
B( 21-S , 24-N ) :   0.1039 B( 22-C , 23-N ) :   1.6524 B( 22-C , 25-C ) :   1.0935
B( 23-N , 24-N ) :   1.2634 B( 25-C , 26-C ) :   1.6806 B( 25-C , 73-H ) :   0.9472
B( 26-C , 27-C ) :   1.1280 B( 26-C , 74-H ) :   0.9812 B( 27-C , 28-C ) :   1.3638
B( 27-C , 32-C ) :   0.1279 B( 27-C , 34-C ) :   1.1517 B( 28-C , 29-F ) :   1.1311
B( 28-C , 30-C ) :   1.1593 B( 30-C , 31-F ) :   1.1379 B( 30-C , 32-C ) :   1.3932
B( 32-C , 33-C ) :   1.1534 B( 32-C , 38-C ) :   1.1366 B( 33-C , 34-C ) :   1.1456
B( 33-C , 37-N ) :   1.5301 B( 34-C , 35-N ) :   1.5707 B( 35-N , 36-S ) :   1.2708
B( 35-N , 37-N ) :   0.1449 B( 36-S , 37-N ) :   1.2547 B( 38-C , 39-C ) :   1.6876
B( 38-C , 75-H ) :   0.9667 B( 39-C , 40-C ) :   1.0465 B( 39-C , 76-H ) :   0.9602
B( 40-C , 41-C ) :   1.3204 B( 40-C , 45-C ) :   1.3166 B( 41-C , 42-N ) :   1.5543
B( 41-C , 77-H ) :   0.9876 B( 42-N , 43-C ) :   1.5089 B( 43-C , 44-N ) :   1.4964
B( 43-C , 46-C ) :   0.9113 B( 44-N , 45-C ) :   1.5690 B( 45-C , 78-H ) :   0.9828
B( 46-C , 47-C ) :   1.8867 B( 46-C , 79-H ) :   0.9301 B( 47-C , 48-C ) :   0.9984
B( 47-C , 56-C ) :   0.9143 B( 48-C , 49-C ) :   1.6749 B( 48-C , 54-C ) :   1.0016
B( 49-C , 50-C ) :   1.1392 B( 49-C , 52-C ) :   1.1471 B( 50-C , 51-N ) :   2.9684
B( 52-C , 53-N ) :   2.9785 B( 54-C , 55-C ) :   1.2154 B( 54-C , 61-C ) :   1.4408
B( 55-C , 56-C ) :   0.9453 B( 55-C , 58-C ) :   1.4688 B( 56-C , 57-O ) :   2.2275
B( 58-C , 59-C ) :   1.1847 B( 58-C , 80-H ) :   1.0158 B( 59-C , 60-C ) :   1.2528
B( 59-C , 65-C ) :   1.2410 B( 60-C , 61-C ) :   1.2145 B( 60-C , 62-C ) :   1.2370
B( 61-C , 81-H ) :   0.9887 B( 62-C , 63-C ) :   1.4929 B( 62-C , 82-H ) :   0.9970
B( 63-C , 64-C ) :   1.2571 B( 63-C , 83-H ) :   0.9885 B( 64-C , 65-C ) :   1.4927
B( 64-C , 84-H ) :   0.9880 B( 65-C , 85-H ) :   0.9974

-----------------------------------------------------------------------------
         ABSORPTION SPECTRUM VIA TRANSITION ELECTRIC DIPOLE MOMENTS
-----------------------------------------------------------------------------
State   Energy  Wavelength   fosc         T2         TX        TY        TZ
        (cm-1)    (nm)                  (au**2)     (au)      (au)      (au)
-----------------------------------------------------------------------------
   0   20741.1    482.1   1.546675677  24.54952  -3.32363   3.61015   0.68540
   1   24276.8    411.9   0.160415909   2.17536   1.08601  -0.89122   0.44907
   2   25000.9    400.0   0.047621556   0.62708  -0.26689   0.59881  -0.44415
   3   26370.0    379.2   0.024542644   0.30640   0.55350  -0.00148   0.00592
   4   26768.8    373.6   0.000649172   0.00798  -0.07544   0.04367   0.01963
   5   27925.3    358.1   0.013730219   0.16187   0.20760  -0.10137   0.32938
   6   28021.1    356.9   0.098674004   1.15929   0.79374   0.56122   0.46291
   7   29341.0    340.8   0.003984972   0.04471   0.19452   0.08291   0.00022
   8   29718.3    336.5   0.046893477   0.51947  -0.31999  -0.02439   0.64536
   9   30330.8    329.7   0.055196185   0.59910   0.21539   0.64076   0.37701
  10   30873.3    323.9   0.064704314   0.68996   0.79942  -0.20460   0.09499
  11   31666.9    315.8   0.518237316   5.38764  -1.81432   1.40142  -0.36322
  12   31831.8    314.2   0.008763114   0.09063  -0.20783   0.21743  -0.01257
  13   32809.2    304.8   0.002278143   0.02286   0.12243  -0.08387  -0.02893
  14   32927.0    303.7   0.085195340   0.85180  -0.59673   0.70312   0.03661
  15   33284.6    300.4   0.000038560   0.00038  -0.01712  -0.00918  -0.00205
  16   33483.8    298.7   0.140780087   1.38415  -1.14719  -0.18079  -0.18818
  17   33938.0    294.7   0.824960590   8.00245   2.54059  -1.17440  -0.41066
  18   34413.9    290.6   0.141500008   1.35362   0.98464  -0.56038   0.26473
  19   34764.8    287.6   0.890245999   8.43036  -1.56729  -2.19288  -1.07948
  20   34853.9    286.9   0.206307790   1.94868  -0.28040   0.67096   1.19158
  21   35323.8    283.1   0.142808682   1.33095   0.71724   0.59889  -0.67665
  22   35356.1    282.8   0.004494609   0.04185   0.14002   0.13705  -0.05884
  23   35678.6    280.3   0.006700651   0.06183  -0.17539   0.06863  -0.16234
  24   37201.0    268.8   0.071346469   0.63138   0.75714  -0.06191   0.23299
  25   37310.9    268.0   0.100066051   0.88293  -0.90200   0.14320   0.22094
  26   37784.4    264.7   0.050795717   0.44258  -0.47526   0.45054   0.11712
  27   38161.8    262.0   0.061375152   0.52947   0.62187  -0.23685   0.29436
  28   38246.9    261.5   0.134292037   1.15592   0.76569  -0.58328   0.47898
  29   38920.3    256.9   0.061218580   0.51782  -0.53639  -0.42051  -0.23084
  30   39398.1    253.8   0.146222009   1.22184   0.34266  -0.57246   0.88131
  31   39557.5    252.8   0.005017658   0.04176  -0.16128   0.12364  -0.02141
  32   39958.2    250.3   0.008668665   0.07142   0.13269   0.19045  -0.13245
  33   40014.0    249.9   0.000168795   0.00139  -0.00447  -0.02402  -0.02814
  34   40312.8    248.1   0.002032846   0.01660  -0.10417   0.07583   0.00004

FINAL SINGLE POINT ENERGY     -3607.512200804141

DIPOLE MOMENT
-------------
                                X             Y             Z
Electronic contribution:      4.74189      -0.74605      14.90608
Nuclear contribution   :     -4.26832      -0.96668     -15.24038
                        -----------------------------------------
Total Dipole Moment    :      0.47357      -1.71273      -0.33430
                        -----------------------------------------
Magnitude (a.u.)       :      1.80816
Magnitude (Debye)      :      4.59599

Rotational constants in cm-1:     0.003290     0.000206     0.000203
Rotational constants in MHz :    98.639554     6.162840     6.099712

                             ****ORCA TERMINATED NORMALLY****
TOTAL RUN TIME: 0 days 0 hours 6 minutes 30 seconds 255 msec
