                         Program Version 4.2.0 -  RELEASE  -
|  1> # ORCA input file
|  2> # SCF done       -182.031321343149          0.000463471624
|  3> ! CAM-B3LYP def2-SVP def2/J RIJCOSX Grid4 TightSCF
|  4> %maxcore 5000
|  5> %tddft
|  6>     Mode sTDDFT
|  7>     Ethresh 5.0
|  8>     maxcore 5000
|  9> end
| 10>
| 11> %pal
| 12>   nprocs 6
| 13>   end
| 14> * xyz 0 1
| 15>    C      -10.30930         1.68543         5.63160
| 16>    N       -9.86262         1.41680         4.37527
| 17>    C      -10.04141         0.17630         3.66299
| 18>    C      -11.47733         0.00977         3.17331
| 19>    C       -9.23124         2.54080         3.80253
| 20>    O       -8.75046         2.54067         2.68274
| 21>    C       -9.31380         3.54979         4.82771
| 22>    C       -9.99360         2.97626         5.94986
| 23>    C      -10.07726         3.98753         6.98469
| 24>    O      -10.55949         3.98477         8.09420
| 25>    N       -9.44044         5.11052         6.41585
| 26>    C       -9.27849         6.33218         7.16576
| 27>    C       -7.87622         6.45665         7.75689
| 28>    C       -8.97998         4.86008         5.14302
| 29>    C       -8.30173         5.81967         4.34620
| 30>    C       -7.86944         5.54252         3.09126
| 31>    C       -7.18967         6.46130         2.25509
| 32>    S       -6.77189         8.08163         2.75162
| 33>    C       -6.04121         8.43599         1.21693
| 34>    C       -6.12581         7.32478         0.37071
| 35>    C       -6.76734         6.22658         0.96280
| 36>    C       -5.61417         7.25823        -0.93634
| 37>    N       -5.20766         7.15382        -2.00445
| 38>    C       -5.47474         9.71675         1.00781
| 39>    C       -4.96336        10.16780        -0.16670
| 40>    C       -4.38839        11.45192        -0.31518
| 41>    S       -3.80816        12.00673        -1.86999
| 42>    C       -3.25407        13.54315        -1.26098
| 43>    C       -3.52741        13.62101         0.10530
| 44>    C       -4.16215        12.45315         0.61189
| 45>    O       -4.40754        12.57595         1.93229
| 46>    C       -3.93901        13.80586         2.27162
| 47>    N       -4.07262        14.21096         3.62284
| 48>    O       -3.64517        15.31456         3.90025
| 49>    O       -4.59972        13.43946         4.39367
| 50>    C       -3.39437        14.49105         1.21749
| 51>    C       -2.59233        14.50028        -2.06686
| 52>    S       -1.90897        15.93474        -1.34711
| 53>    C       -1.32483        16.47356        -2.86441
| 54>    C       -1.62153        15.61104        -3.88484
| 55>    C       -1.21980        15.80158        -5.30549
| 56>    O       -1.03627        14.88944        -6.05998
| 57>    O       -1.06610        17.07374        -5.70160
| 58>    C       -2.33836        14.47227        -3.42611
| 59>    S       -2.98300        13.20512        -4.47833
| 60>    C       -1.53847        12.33807        -4.87977
| 61>    C       -1.56703        11.23731        -5.65595
| 62>    C       -0.37870        10.53198        -5.96528
| 63>    C       -0.32021         9.40025        -6.72480
| 64>    C        0.87172         8.64601        -7.06725
| 65>    C        2.14865         8.87265        -6.62054
| 66>    C        3.26792         8.10052        -6.99545
| 67>    N        4.22256         7.51884        -7.25827
| 68>    C        2.53750         9.87918        -5.71307
| 69>    N        2.93948        10.65703        -4.96898
| 70>    C        0.47128         7.56253        -7.95872
| 71>    C       -0.94079         7.61416        -8.13375
| 72>    C       -1.48999         8.75003        -7.37199
| 73>    O       -2.65649         9.07478        -7.30213
| 74>    C       -1.60688         6.70898        -8.90780
| 75>    C       -0.87670         5.69060        -9.56030
| 76>    C        0.53754         5.63605        -9.39800
| 77>    C        1.19933         6.58670        -8.58745
| 78>    C        1.25729         4.61802       -10.05634
| 79>    C        0.61274         3.69639       -10.83556
| 80>    C       -0.78029         3.74996       -10.99281
| 81>    C       -1.50895         4.72605       -10.36903
| 82>    H      -10.81244         0.93466         6.21223
| 83>    H       -9.76250        -0.65635         4.31584
| 84>    H       -9.35728         0.20877         2.81073
| 85>    H      -12.17107         0.00097         4.01116
| 86>    H      -11.57519        -0.92542         2.62930
| 87>    H      -11.74372         0.82876         2.50961
| 88>    H      -10.01314         6.28769         7.97482
| 89>    H       -9.50982         7.18904         6.52663
| 90>    H       -7.68027         5.61980         8.42266
| 91>    H       -7.79731         7.37904         8.32541
| 92>    H       -7.12011         6.46135         6.97477
| 93>    H       -8.13276         6.80374         4.76236
| 94>    H       -8.04118         4.56040         2.66893
| 95>    H       -6.91928         5.28690         0.46194
| 96>    H       -5.46875        10.37258         1.86839
| 97>    H       -4.97854         9.54873        -1.05098
| 98>    H       -2.97037        15.47272         1.26277
| 99>    H       -0.75489        17.38256        -2.90041
|100>    H       -1.29205        17.72047        -5.02103
|101>    H       -0.62352        12.73627        -4.46979
|102>    H       -2.50279        10.87175        -6.05129
|103>    H        0.53826        10.94339        -5.56341
|104>    H       -2.67931         6.76935        -9.01976
|105>    H        2.27063         6.51679        -8.48590
|106>    H        2.32962         4.58030        -9.93140
|107>    H        1.17294         2.92013       -11.33514
|108>    H       -1.27288         3.01397       -11.61070
|109>    H       -2.58184         4.77267       -10.48624
|110> *
|111>
|112>                          ****END OF INPUT****

CARTESIAN COORDINATES (ANGSTROEM)
---------------------------------
  C    -10.309300    1.685430    5.631600
  N     -9.862620    1.416800    4.375270
  C    -10.041410    0.176300    3.662990
  C    -11.477330    0.009770    3.173310
  C     -9.231240    2.540800    3.802530
  O     -8.750460    2.540670    2.682740
  C     -9.313800    3.549790    4.827710
  C     -9.993600    2.976260    5.949860
  C    -10.077260    3.987530    6.984690
  O    -10.559490    3.984770    8.094200
  N     -9.440440    5.110520    6.415850
  C     -9.278490    6.332180    7.165760
  C     -7.876220    6.456650    7.756890
  C     -8.979980    4.860080    5.143020
  C     -8.301730    5.819670    4.346200
  C     -7.869440    5.542520    3.091260
  C     -7.189670    6.461300    2.255090
  S     -6.771890    8.081630    2.751620
  C     -6.041210    8.435990    1.216930
  C     -6.125810    7.324780    0.370710
  C     -6.767340    6.226580    0.962800
  C     -5.614170    7.258230   -0.936340
  N     -5.207660    7.153820   -2.004450
  C     -5.474740    9.716750    1.007810
  C     -4.963360   10.167800   -0.166700
  C     -4.388390   11.451920   -0.315180
  S     -3.808160   12.006730   -1.869990
  C     -3.254070   13.543150   -1.260980
  C     -3.527410   13.621010    0.105300
  C     -4.162150   12.453150    0.611890
  O     -4.407540   12.575950    1.932290
  C     -3.939010   13.805860    2.271620
  N     -4.072620   14.210960    3.622840
  O     -3.645170   15.314560    3.900250
  O     -4.599720   13.439460    4.393670
  C     -3.394370   14.491050    1.217490
  C     -2.592330   14.500280   -2.066860
  S     -1.908970   15.934740   -1.347110
  C     -1.324830   16.473560   -2.864410
  C     -1.621530   15.611040   -3.884840
  C     -1.219800   15.801580   -5.305490
  O     -1.036270   14.889440   -6.059980
  O     -1.066100   17.073740   -5.701600
  C     -2.338360   14.472270   -3.426110
  S     -2.983000   13.205120   -4.478330
  C     -1.538470   12.338070   -4.879770
  C     -1.567030   11.237310   -5.655950
  C     -0.378700   10.531980   -5.965280
  C     -0.320210    9.400250   -6.724800
  C      0.871720    8.646010   -7.067250
  C      2.148650    8.872650   -6.620540
  C      3.267920    8.100520   -6.995450
  N      4.222560    7.518840   -7.258270
  C      2.537500    9.879180   -5.713070
  N      2.939480   10.657030   -4.968980
  C      0.471280    7.562530   -7.958720
  C     -0.940790    7.614160   -8.133750
  C     -1.489990    8.750030   -7.371990
  O     -2.656490    9.074780   -7.302130
  C     -1.606880    6.708980   -8.907800
  C     -0.876700    5.690600   -9.560300
  C      0.537540    5.636050   -9.398000
  C      1.199330    6.586700   -8.587450
  C      1.257290    4.618020  -10.056340
  C      0.612740    3.696390  -10.835560
  C     -0.780290    3.749960  -10.992810
  C     -1.508950    4.726050  -10.369030
  H    -10.812440    0.934660    6.212230
  H     -9.762500   -0.656350    4.315840
  H     -9.357280    0.208770    2.810730
  H    -12.171070    0.000970    4.011160
  H    -11.575190   -0.925420    2.629300
  H    -11.743720    0.828760    2.509610
  H    -10.013140    6.287690    7.974820
  H     -9.509820    7.189040    6.526630
  H     -7.680270    5.619800    8.422660
  H     -7.797310    7.379040    8.325410
  H     -7.120110    6.461350    6.974770
  H     -8.132760    6.803740    4.762360
  H     -8.041180    4.560400    2.668930
  H     -6.919280    5.286900    0.461940
  H     -5.468750   10.372580    1.868390
  H     -4.978540    9.548730   -1.050980
  H     -2.970370   15.472720    1.262770
  H     -0.754890   17.382560   -2.900410
  H     -1.292050   17.720470   -5.021030
  H     -0.623520   12.736270   -4.469790
  H     -2.502790   10.871750   -6.051290
  H      0.538260   10.943390   -5.563410
  H     -2.679310    6.769350   -9.019760
  H      2.270630    6.516790   -8.485900
  H      2.329620    4.580300   -9.931400
  H      1.172940    2.920130  -11.335140
  H     -1.272880    3.013970  -11.610700
  H     -2.581840    4.772670  -10.486240

 Total Charge           Charge          ....    0
 Multiplicity           Mult            ....    1
 Number of Electrons    NEL             ....  492
 Basis Dimension        Dim             .... 1094

ORBITAL ENERGIES
----------------

  NO   OCC          E(Eh)            E(eV)
   0   2.0000     -89.002290     -2421.8754
   1   2.0000     -88.993945     -2421.6484
   2   2.0000     -88.979395     -2421.2524
   3   2.0000     -88.968153     -2420.9465
   4   2.0000     -19.331636      -526.0406
   5   2.0000     -19.278489      -524.5944
   6   2.0000     -19.259688      -524.0827
   7   2.0000     -19.257752      -524.0301
   8   2.0000     -19.218784      -522.9697
   9   2.0000     -19.207172      -522.6537
  10   2.0000     -19.187193      -522.1101
  11   2.0000     -19.184141      -522.0270
  12   2.0000     -14.671692      -399.2370
  13   2.0000     -14.451079      -393.2339
  14   2.0000     -14.449286      -393.1851
  15   2.0000     -14.412836      -392.1932
  16   2.0000     -14.409387      -392.0994
  17   2.0000     -14.406433      -392.0190
  18   2.0000     -10.425127      -283.6821
  19   2.0000     -10.406604      -283.1781
  20   2.0000     -10.370382      -282.1925
  21   2.0000     -10.369166      -282.1594
  22   2.0000     -10.366935      -282.0986
  23   2.0000     -10.357880      -281.8523
  24   2.0000     -10.353507      -281.7333
  25   2.0000     -10.347591      -281.5723
  26   2.0000     -10.343305      -281.4556
  27   2.0000     -10.340501      -281.3793
  28   2.0000     -10.338285      -281.3190
  29   2.0000     -10.336818      -281.2791
  30   2.0000     -10.332717      -281.1675
  31   2.0000     -10.332484      -281.1612
  32   2.0000     -10.332152      -281.1522
  33   2.0000     -10.332081      -281.1502
  34   2.0000     -10.325583      -280.9734
  35   2.0000     -10.325474      -280.9704
  36   2.0000     -10.325330      -280.9665
  37   2.0000     -10.321179      -280.8536
  38   2.0000     -10.320874      -280.8453
  39   2.0000     -10.320438      -280.8334
  40   2.0000     -10.313895      -280.6553
  41   2.0000     -10.312632      -280.6210
  42   2.0000     -10.309914      -280.5470
  43   2.0000     -10.309874      -280.5459
  44   2.0000     -10.309609      -280.5387
  45   2.0000     -10.307271      -280.4751
  46   2.0000     -10.306634      -280.4578
  47   2.0000     -10.305722      -280.4330
  48   2.0000     -10.302823      -280.3541
  49   2.0000     -10.299885      -280.2741
  50   2.0000     -10.294762      -280.1347
  51   2.0000     -10.293263      -280.0939
  52   2.0000     -10.290635      -280.0224
  53   2.0000     -10.290358      -280.0149
  54   2.0000     -10.289157      -279.9822
  55   2.0000     -10.288424      -279.9622
  56   2.0000     -10.287557      -279.9386
  57   2.0000     -10.280431      -279.7447
  58   2.0000     -10.280424      -279.7446
  59   2.0000     -10.279939      -279.7314
  60   2.0000     -10.279737      -279.7259
  61   2.0000     -10.279576      -279.7215
  62   2.0000     -10.279098      -279.7085
  63   2.0000     -10.264002      -279.2977
  64   2.0000     -10.262622      -279.2601
  65   2.0000     -10.256548      -279.0949
  66   2.0000     -10.255057      -279.0543
  67   2.0000      -8.097721      -220.3502
  68   2.0000      -8.087161      -220.0628
  69   2.0000      -8.074886      -219.7288
  70   2.0000      -8.063000      -219.4054
  71   2.0000      -6.067068      -165.0933
  72   2.0000      -6.062702      -164.9745
  73   2.0000      -6.059941      -164.8994
  74   2.0000      -6.056636      -164.8094
  75   2.0000      -6.052204      -164.6888
  76   2.0000      -6.049376      -164.6119
  77   2.0000      -6.043994      -164.4654
  78   2.0000      -6.040031      -164.3576
  79   2.0000      -6.037184      -164.2801
  80   2.0000      -6.033199      -164.1717
  81   2.0000      -6.028859      -164.0536
  82   2.0000      -6.023399      -163.9050
  83   2.0000      -1.343399       -36.5558
  84   2.0000      -1.251178       -34.0463
  85   2.0000      -1.202563       -32.7234
  86   2.0000      -1.160054       -31.5667
  87   2.0000      -1.128748       -30.7148
  88   2.0000      -1.122095       -30.5337
  89   2.0000      -1.121757       -30.5246
  90   2.0000      -1.118245       -30.4290
  91   2.0000      -1.059682       -28.8354
  92   2.0000      -1.051317       -28.6078
  93   2.0000      -1.037568       -28.2337
  94   2.0000      -1.017523       -27.6882
  95   2.0000      -1.010699       -27.5025
  96   2.0000      -1.010184       -27.4885
  97   2.0000      -0.991872       -26.9902
  98   2.0000      -0.990858       -26.9626
  99   2.0000      -0.986105       -26.8333
 100   2.0000      -0.964265       -26.2390
 101   2.0000      -0.957010       -26.0416
 102   2.0000      -0.948017       -25.7968
 103   2.0000      -0.931863       -25.3573
 104   2.0000      -0.924186       -25.1484
 105   2.0000      -0.918406       -24.9911
 106   2.0000      -0.913669       -24.8622
 107   2.0000      -0.908895       -24.7323
 108   2.0000      -0.901385       -24.5279
 109   2.0000      -0.891827       -24.2678
 110   2.0000      -0.880853       -23.9692
 111   2.0000      -0.873695       -23.7745
 112   2.0000      -0.873468       -23.7683
 113   2.0000      -0.867670       -23.6105
 114   2.0000      -0.859266       -23.3818
 115   2.0000      -0.848603       -23.0917
 116   2.0000      -0.824703       -22.4413
 117   2.0000      -0.821016       -22.3410
 118   2.0000      -0.818485       -22.2721
 119   2.0000      -0.814784       -22.1714
 120   2.0000      -0.806675       -21.9508
 121   2.0000      -0.797943       -21.7131
 122   2.0000      -0.777239       -21.1497
 123   2.0000      -0.768216       -20.9042
 124   2.0000      -0.759123       -20.6568
 125   2.0000      -0.754086       -20.5197
 126   2.0000      -0.753281       -20.4978
 127   2.0000      -0.739292       -20.1172
 128   2.0000      -0.735572       -20.0159
 129   2.0000      -0.711230       -19.3536
 130   2.0000      -0.709439       -19.3048
 131   2.0000      -0.705743       -19.2042
 132   2.0000      -0.705705       -19.2032
 133   2.0000      -0.698266       -19.0008
 134   2.0000      -0.696561       -18.9544
 135   2.0000      -0.686841       -18.6899
 136   2.0000      -0.686013       -18.6674
 137   2.0000      -0.680852       -18.5269
 138   2.0000      -0.677615       -18.4389
 139   2.0000      -0.671811       -18.2809
 140   2.0000      -0.657236       -17.8843
 141   2.0000      -0.656672       -17.8689
 142   2.0000      -0.654873       -17.8200
 143   2.0000      -0.649359       -17.6700
 144   2.0000      -0.641667       -17.4606
 145   2.0000      -0.637651       -17.3514
 146   2.0000      -0.627015       -17.0619
 147   2.0000      -0.626005       -17.0345
 148   2.0000      -0.612816       -16.6756
 149   2.0000      -0.609553       -16.5868
 150   2.0000      -0.607801       -16.5391
 151   2.0000      -0.599431       -16.3113
 152   2.0000      -0.598277       -16.2799
 153   2.0000      -0.596153       -16.2221
 154   2.0000      -0.587685       -15.9917
 155   2.0000      -0.587300       -15.9812
 156   2.0000      -0.585528       -15.9330
 157   2.0000      -0.583569       -15.8797
 158   2.0000      -0.571654       -15.5555
 159   2.0000      -0.566062       -15.4033
 160   2.0000      -0.562598       -15.3091
 161   2.0000      -0.561939       -15.2911
 162   2.0000      -0.560061       -15.2400
 163   2.0000      -0.556227       -15.1357
 164   2.0000      -0.552693       -15.0396
 165   2.0000      -0.539747       -14.6872
 166   2.0000      -0.539478       -14.6799
 167   2.0000      -0.538368       -14.6497
 168   2.0000      -0.534094       -14.5334
 169   2.0000      -0.531750       -14.4697
 170   2.0000      -0.528976       -14.3942
 171   2.0000      -0.528269       -14.3749
 172   2.0000      -0.528159       -14.3719
 173   2.0000      -0.526435       -14.3250
 174   2.0000      -0.524755       -14.2793
 175   2.0000      -0.518206       -14.1011
 176   2.0000      -0.517544       -14.0831
 177   2.0000      -0.513746       -13.9798
 178   2.0000      -0.512170       -13.9369
 179   2.0000      -0.511455       -13.9174
 180   2.0000      -0.509362       -13.8604
 181   2.0000      -0.506428       -13.7806
 182   2.0000      -0.504373       -13.7247
 183   2.0000      -0.500057       -13.6073
 184   2.0000      -0.498711       -13.5706
 185   2.0000      -0.495684       -13.4882
 186   2.0000      -0.489956       -13.3324
 187   2.0000      -0.489223       -13.3124
 188   2.0000      -0.485962       -13.2237
 189   2.0000      -0.484600       -13.1866
 190   2.0000      -0.480207       -13.0671
 191   2.0000      -0.478997       -13.0342
 192   2.0000      -0.476919       -12.9776
 193   2.0000      -0.473291       -12.8789
 194   2.0000      -0.469664       -12.7802
 195   2.0000      -0.468299       -12.7431
 196   2.0000      -0.464874       -12.6499
 197   2.0000      -0.464356       -12.6358
 198   2.0000      -0.461653       -12.5622
 199   2.0000      -0.456112       -12.4114
 200   2.0000      -0.455731       -12.4011
 201   2.0000      -0.453093       -12.3293
 202   2.0000      -0.450364       -12.2550
 203   2.0000      -0.449366       -12.2279
 204   2.0000      -0.442470       -12.0402
 205   2.0000      -0.442312       -12.0359
 206   2.0000      -0.441449       -12.0124
 207   2.0000      -0.437674       -11.9097
 208   2.0000      -0.434913       -11.8346
 209   2.0000      -0.433758       -11.8031
 210   2.0000      -0.433018       -11.7830
 211   2.0000      -0.431859       -11.7515
 212   2.0000      -0.429735       -11.6937
 213   2.0000      -0.427948       -11.6451
 214   2.0000      -0.426193       -11.5973
 215   2.0000      -0.424879       -11.5615
 216   2.0000      -0.422195       -11.4885
 217   2.0000      -0.418750       -11.3948
 218   2.0000      -0.412967       -11.2374
 219   2.0000      -0.412285       -11.2189
 220   2.0000      -0.409401       -11.1404
 221   2.0000      -0.405304       -11.0289
 222   2.0000      -0.403026       -10.9669
 223   2.0000      -0.400933       -10.9100
 224   2.0000      -0.398842       -10.8530
 225   2.0000      -0.395216       -10.7544
 226   2.0000      -0.393381       -10.7044
 227   2.0000      -0.387524       -10.5451
 228   2.0000      -0.380640       -10.3577
 229   2.0000      -0.373970       -10.1762
 230   2.0000      -0.368342       -10.0231
 231   2.0000      -0.360481        -9.8092
 232   2.0000      -0.355235        -9.6664
 233   2.0000      -0.343378        -9.3438
 234   2.0000      -0.342229        -9.3125
 235   2.0000      -0.340676        -9.2703
 236   2.0000      -0.339236        -9.2311
 237   2.0000      -0.326961        -8.8971
 238   2.0000      -0.326363        -8.8808
 239   2.0000      -0.311824        -8.4852
 240   2.0000      -0.310313        -8.4440
 241   2.0000      -0.309036        -8.4093
 242   2.0000      -0.290483        -7.9045
 243   2.0000      -0.276659        -7.5283
 244   2.0000      -0.266359        -7.2480
 245   2.0000      -0.240891        -6.5550
 246   0.0000      -0.102792        -2.7971
 247   0.0000      -0.083408        -2.2696
 248   0.0000      -0.076976        -2.0946
 249   0.0000      -0.050589        -1.3766
 250   0.0000      -0.047887        -1.3031

MULLIKEN ATOMIC CHARGES
-----------------------
   0 C :    0.030169
   1 N :   -0.255245
   2 C :    0.111850
   3 C :   -0.003213
   4 C :    0.174321
   5 O :   -0.223180
   6 C :   -0.107492
   7 C :    0.011288
   8 C :    0.161551
   9 O :   -0.183952
  10 N :   -0.269256
  11 C :    0.097167
  12 C :    0.003471
  13 C :    0.155126
  14 C :   -0.044123
  15 C :    0.046650
  16 C :   -0.047043
  17 S :    0.144535
  18 C :   -0.045036
  19 C :   -0.069854
  20 C :    0.020181
  21 C :   -0.171851
  22 N :    0.120207
  23 C :    0.022470
  24 C :    0.057899
  25 C :   -0.191935
  26 S :    0.209528
  27 C :   -0.121918
  28 C :    0.086143
  29 C :    0.198481
  30 O :   -0.182442
  31 C :    0.249416
  32 N :    0.273078
  33 O :   -0.242080
  34 O :   -0.226364
  35 C :   -0.096834
  36 C :   -0.068997
  37 S :    0.156734
  38 C :   -0.124103
  39 C :   -0.006262
  40 C :    0.183935
  41 O :   -0.160393
  42 O :   -0.148547
  43 C :   -0.116257
  44 S :    0.103906
  45 C :   -0.002723
  46 C :    0.044467
  47 C :   -0.038516
  48 C :   -0.081241
  49 C :    0.337842
  50 C :   -0.352696
  51 C :   -0.182805
  52 N :    0.143835
  53 C :   -0.192596
  54 N :    0.136968
  55 C :    0.045093
  56 C :   -0.003492
  57 C :    0.150578
  58 O :   -0.152722
  59 C :   -0.080420
  60 C :    0.098670
  61 C :    0.096143
  62 C :   -0.085819
  63 C :   -0.021196
  64 C :    0.034826
  65 C :    0.036299
  66 C :   -0.017525
  67 H :    0.014066
  68 H :    0.018504
  69 H :    0.042445
  70 H :    0.015990
  71 H :    0.022979
  72 H :    0.030366
  73 H :    0.044249
  74 H :    0.021644
  75 H :    0.030990
  76 H :    0.023907
  77 H :    0.014068
  78 H :   -0.020715
  79 H :    0.020609
  80 H :    0.013166
  81 H :    0.008144
  82 H :   -0.004155
  83 H :    0.019269
  84 H :    0.040464
  85 H :    0.181323
  86 H :    0.057711
  87 H :    0.033806
  88 H :    0.008895
  89 H :   -0.013236
  90 H :   -0.009030
  91 H :   -0.009084
  92 H :   -0.006865
  93 H :   -0.006900
  94 H :   -0.017309
Sum of atomic charges:   -0.0000000

LOEWDIN ATOMIC CHARGES
----------------------
   0 C :    0.085622
   1 N :    0.001640
   2 C :    0.038331
   3 C :   -0.060700
   4 C :    0.075797
   5 O :   -0.212620
   6 C :   -0.134976
   7 C :   -0.126790
   8 C :    0.082461
   9 O :   -0.189209
  10 N :   -0.009293
  11 C :    0.035369
  12 C :   -0.061455
  13 C :    0.085922
  14 C :   -0.060923
  15 C :    0.020494
  16 C :   -0.170842
  17 S :    0.462003
  18 C :   -0.129424
  19 C :   -0.110476
  20 C :   -0.002906
  21 C :   -0.028087
  22 N :   -0.056182
  23 C :   -0.043451
  24 C :   -0.017633
  25 C :   -0.196578
  26 S :    0.502010
  27 C :   -0.197405
  28 C :   -0.077796
  29 C :    0.025067
  30 O :    0.010006
  31 C :    0.032318
  32 N :    0.271375
  33 O :   -0.203916
  34 O :   -0.188117
  35 C :   -0.019105
  36 C :   -0.177880
  37 S :    0.479615
  38 C :   -0.179989
  39 C :   -0.119690
  40 C :    0.080443
  41 O :   -0.137658
  42 O :   -0.021696
  43 C :   -0.201129
  44 S :    0.405346
  45 C :   -0.092835
  46 C :   -0.064814
  47 C :    0.076948
  48 C :   -0.099559
  49 C :    0.079051
  50 C :   -0.144184
  51 C :   -0.016859
  52 N :   -0.059179
  53 C :   -0.018931
  54 N :   -0.060239
  55 C :   -0.025447
  56 C :   -0.053847
  57 C :    0.085489
  58 O :   -0.144943
  59 C :    0.030967
  60 C :   -0.008118
  61 C :   -0.006905
  62 C :    0.018504
  63 C :   -0.006036
  64 C :   -0.015504
  65 C :   -0.013795
  66 C :   -0.010242
  67 H :    0.031998
  68 H :    0.024434
  69 H :    0.036131
  70 H :    0.022512
  71 H :    0.030161
  72 H :    0.031546
  73 H :    0.038009
  74 H :    0.022062
  75 H :    0.032764
  76 H :    0.030793
  77 H :    0.021117
  78 H :    0.021783
  79 H :    0.045162
  80 H :    0.047606
  81 H :    0.034377
  82 H :    0.039980
  83 H :    0.040675
  84 H :    0.028102
  85 H :    0.094268
  86 H :    0.032852
  87 H :    0.035944
  88 H :    0.042410
  89 H :    0.038796
  90 H :    0.038641
  91 H :    0.034453
  92 H :    0.032315
  93 H :    0.031984
  94 H :    0.031704

  Mayer bond orders larger than 0.100000
B(  0-C ,  1-N ) :   1.1860 B(  0-C ,  7-C ) :   1.4610 B(  0-C , 67-H ) :   0.9905
B(  1-N ,  2-C ) :   0.9431 B(  1-N ,  4-C ) :   1.0646 B(  2-C ,  3-C ) :   1.1179
B(  2-C , 68-H ) :   0.9540 B(  2-C , 69-H ) :   0.9346 B(  3-C , 70-H ) :   0.9694
B(  3-C , 71-H ) :   0.9689 B(  3-C , 72-H ) :   0.9673 B(  4-C ,  5-O ) :   1.9991
B(  4-C ,  6-C ) :   1.0109 B(  5-O , 79-H ) :   0.1215 B(  6-C ,  7-C ) :   1.2004
B(  6-C , 13-C ) :   1.3767 B(  7-C ,  8-C ) :   0.9480 B(  8-C ,  9-O ) :   2.1778
B(  8-C , 10-N ) :   1.0161 B( 10-N , 11-C ) :   0.9479 B( 10-N , 13-C ) :   1.1578
B( 11-C , 12-C ) :   1.1195 B( 11-C , 73-H ) :   0.9280 B( 11-C , 74-H ) :   0.9503
B( 12-C , 75-H ) :   0.9639 B( 12-C , 76-H ) :   0.9680 B( 12-C , 77-H ) :   0.9685
B( 13-C , 14-C ) :   1.1666 B( 14-C , 15-C ) :   1.5863 B( 14-C , 78-H ) :   0.9608
B( 15-C , 16-C ) :   1.1540 B( 15-C , 79-H ) :   0.9488 B( 16-C , 17-S ) :   1.0920
B( 16-C , 20-C ) :   1.4556 B( 17-S , 18-C ) :   1.1470 B( 18-C , 19-C ) :   1.4373
B( 18-C , 23-C ) :   1.1611 B( 19-C , 20-C ) :   1.2777 B( 19-C , 21-C ) :   1.1151
B( 20-C , 80-H ) :   1.0132 B( 21-C , 22-N ) :   2.9688 B( 23-C , 24-C ) :   1.6587
B( 23-C , 81-H ) :   0.9459 B( 24-C , 25-C ) :   1.1556 B( 24-C , 82-H ) :   0.9430
B( 25-C , 26-S ) :   1.1062 B( 25-C , 27-C ) :   0.1141 B( 25-C , 29-C ) :   1.4231
B( 26-S , 27-C ) :   1.1575 B( 27-C , 28-C ) :   1.3555 B( 27-C , 36-C ) :   1.1862
B( 28-C , 29-C ) :   1.2502 B( 28-C , 35-C ) :   1.0827 B( 29-C , 30-O ) :   1.1063
B( 30-O , 31-C ) :   1.1261 B( 31-C , 32-N ) :   0.9132 B( 31-C , 35-C ) :   1.5718
B( 32-N , 33-O ) :   1.5343 B( 32-N , 34-O ) :   1.5126 B( 33-O , 34-O ) :   0.2833
B( 35-C , 83-H ) :   1.0118 B( 36-C , 37-S ) :   1.1570 B( 36-C , 43-C ) :   1.5051
B( 37-S , 38-C ) :   1.1696 B( 38-C , 39-C ) :   1.5405 B( 38-C , 84-H ) :   0.9686
B( 39-C , 40-C ) :   0.8908 B( 39-C , 43-C ) :   1.2743 B( 40-C , 41-O ) :   2.1576
B( 40-C , 42-O ) :   1.2508 B( 42-O , 85-H ) :   0.9511 B( 43-C , 44-S ) :   1.0608
B( 44-S , 45-C ) :   1.0458 B( 45-C , 46-C ) :   1.6576 B( 45-C , 86-H ) :   0.9409
B( 46-C , 47-C ) :   1.1899 B( 46-C , 87-H ) :   0.9570 B( 47-C , 48-C ) :   1.5740
B( 47-C , 88-H ) :   0.9533 B( 48-C , 49-C ) :   1.0646 B( 48-C , 57-C ) :   0.9419
B( 49-C , 50-C ) :   1.6222 B( 49-C , 55-C ) :   0.9905 B( 50-C , 51-C ) :   1.1462
B( 50-C , 53-C ) :   1.1464 B( 51-C , 52-N ) :   2.9616 B( 53-C , 54-N ) :   2.9610
B( 55-C , 56-C ) :   1.2161 B( 55-C , 62-C ) :   1.4492 B( 56-C , 57-C ) :   0.9412
B( 56-C , 59-C ) :   1.4765 B( 57-C , 58-O ) :   2.2034 B( 59-C , 60-C ) :   1.1786
B( 59-C , 89-H ) :   1.0148 B( 60-C , 61-C ) :   1.2568 B( 60-C , 66-C ) :   1.2449
B( 61-C , 62-C ) :   1.2074 B( 61-C , 63-C ) :   1.2397 B( 62-C , 90-H ) :   0.9884
B( 63-C , 64-C ) :   1.4906 B( 63-C , 91-H ) :   0.9966 B( 64-C , 65-C ) :   1.2596
B( 64-C , 92-H ) :   0.9881 B( 65-C , 66-C ) :   1.4891 B( 65-C , 93-H ) :   0.9885
B( 66-C , 94-H ) :   0.9970

-----------------------------------------------------------------------------
         ABSORPTION SPECTRUM VIA TRANSITION ELECTRIC DIPOLE MOMENTS
-----------------------------------------------------------------------------
State   Energy  Wavelength   fosc         T2         TX        TY        TZ
        (cm-1)    (nm)                  (au**2)     (au)      (au)      (au)
-----------------------------------------------------------------------------
   0   16907.5    591.5   1.156680476  22.52208  -2.33294  -3.42911   2.30666
   1   20344.3    491.5   0.091810322   1.48568  -0.30490   0.60549   1.01296
   2   22314.0    448.1   0.239410511   3.53217   1.14236   0.96952  -1.13455
   3   23469.6    426.1   0.352732210   4.94783   1.07389   1.63684  -1.05610
   4   24672.2    405.3   0.254453549   3.39528   0.91936  -1.43135  -0.70803
   5   25548.3    391.4   0.072527726   0.93458  -0.67350  -0.45387   0.52439
   6   25911.9    385.9   0.439969494   5.58983  -1.25064   1.89657   0.65477
   7   27726.9    360.7   0.338904988   4.02395  -0.42157   1.61557   1.11183
   8   28048.1    356.5   0.012084961   0.14185   0.18971  -0.32115   0.05217
   9   28426.9    351.8   0.000047219   0.00055  -0.01696   0.01463  -0.00672
  10   28559.7    350.1   0.001037319   0.01196  -0.05706   0.02653   0.08943
  11   29512.2    338.8   0.002866793   0.03198  -0.03984   0.15007   0.08872
  12   29963.7    333.7   0.007590842   0.08340   0.22341  -0.14935  -0.10575
  13   30258.3    330.5   0.006241910   0.06791   0.13637   0.06345   0.21281
  14   30403.9    328.9   0.060285309   0.65277   0.12725   0.38156   0.70070
  15   31335.6    319.1   0.000489722   0.00515  -0.06438  -0.01655  -0.02694
  16   32014.9    312.4   0.086692659   0.89147  -0.35680  -0.62484  -0.61135
  17   32274.3    309.8   0.676322223   6.89879   0.39662   1.99411   1.66283
  18   32795.6    304.9   0.056462672   0.56679  -0.29683  -0.41496   0.55362
  19   32802.0    304.9   0.009326410   0.09360   0.17458   0.24735  -0.04408
  20   33621.7    297.4   0.078045466   0.76419  -0.47064  -0.19481   0.71045
  21   33800.2    295.9   0.274739696   2.67595  -0.12215  -0.83317  -1.40245
  22   34485.6    290.0   0.764161801   7.29496  -0.92388  -1.73279  -1.85442
  23   34530.2    289.6   0.064865623   0.61843   0.46838   0.44296  -0.45038
  24   35028.6    285.5   0.002577291   0.02422   0.05601   0.11666   0.08645
  25   35126.6    284.7   0.013877625   0.13006   0.24373   0.26570  -0.00792
  26   35588.4    281.0   0.042664171   0.39467   0.22612   0.58580  -0.01932
  27   36084.2    277.1   0.048161592   0.43940  -0.21741   0.06398   0.62293
  28   36574.0    273.4   0.046589536   0.41936  -0.09206  -0.57215  -0.28902
  29   36681.7    272.6   0.000552633   0.00496  -0.00747  -0.06527  -0.02538
  30   37058.3    269.8   0.048906075   0.43446   0.26147   0.08340  -0.59928
  31   37410.8    267.3   0.004259774   0.03749  -0.00272   0.07857   0.17693
  32   37876.9    264.0   0.138049737   1.19988   0.46320   0.03508  -0.99201
  33   38272.5    261.3   0.004346290   0.03739   0.17304   0.04760   0.07196
  34   38494.3    259.8   0.058903832   0.50376  -0.18484   0.22302   0.64796
  35   38618.5    258.9   0.239577510   2.04233   0.45478  -0.31463  -1.31777
  36   38882.0    257.2   0.009216577   0.07804  -0.19497  -0.12267  -0.15803
  37   39379.2    253.9   0.080133184   0.66992   0.38792  -0.07251  -0.71706
  38   39517.0    253.1   0.087635553   0.73008  -0.79566   0.25006   0.18567
  39   39575.0    252.7   0.087491926   0.72782   0.76359  -0.09603   0.36813

FINAL SINGLE POINT ENERGY     -4403.010174916081

DIPOLE MOMENT
-------------
                                X             Y             Z
Electronic contribution:     35.52412      65.97120     -23.94614
Nuclear contribution   :    -37.24949     -64.98085      23.85423
                        -----------------------------------------
Total Dipole Moment    :     -1.72537       0.99035      -0.09191
                        -----------------------------------------
Magnitude (a.u.)       :      1.99152
Magnitude (Debye)      :      5.06203

Rotational constants in cm-1:     0.000906     0.000390     0.000286
Rotational constants in MHz :    27.150227    11.686180     8.578142

                             ****ORCA TERMINATED NORMALLY****
TOTAL RUN TIME: 0 days 0 hours 8 minutes 11 seconds 475 msec
