                         Program Version 4.2.0 -  RELEASE  -
|  1> # ORCA input file
|  2> # SCF done       -187.181219431581          0.000384597846
|  3> ! CAM-B3LYP def2-SVP def2/J RIJCOSX Grid4 TightSCF
|  4> %maxcore 5000
|  5> %tddft
|  6>     Mode sTDDFT
|  7>     Ethresh 5.0
|  8>     maxcore 5000
|  9> end
| 10>
| 11> %pal
| 12>   nprocs 6
| 13>   end
| 14> * xyz 0 1
| 15>    C       -3.00706        -2.18326        -1.16058
| 16>    C       -2.35528        -1.82756        -0.03563
| 17>    C       -1.11440        -1.17395        -0.29386
| 18>    C       -0.19244        -0.65516         0.63234
| 19>    C       -0.41271        -0.68338         2.06555
| 20>    C        0.50504        -0.93133         3.04512
| 21>    C       -0.03788        -0.81951         4.34369
| 22>    C       -1.35749        -0.47596         4.37760
| 23>    S       -1.96078        -0.29274         2.76526
| 24>    C       -2.23505        -0.26174         5.55578
| 25>   Cl        0.90377        -1.09793         5.75811
| 26>    C        0.96014        -0.08036         0.10473
| 27>    C        1.21692         0.02194        -1.28446
| 28>    C        0.28515        -0.48139        -2.21240
| 29>    C       -0.85408        -1.08292        -1.68189
| 30>    S       -2.16191        -1.76697        -2.60910
| 31>    C        0.46559        -0.36537        -3.64544
| 32>    C        0.15124        -1.28221        -4.60691
| 33>    C        0.40096        -0.81277        -5.91485
| 34>    C        0.89091         0.45875        -5.97651
| 35>    S        1.06616         1.09999        -4.37777
| 36>    C        1.25702         1.26121        -7.17077
| 37>   Cl        0.10293        -1.77965        -7.30815
| 38>    C        2.45776         0.65468        -1.54498
| 39>    C        3.11464         1.05872        -0.41908
| 40>    S        2.23563         0.65044         1.03759
| 41>    C        4.36776         1.73791        -0.34148
| 42>    C        5.19192         2.10838        -1.37860
| 43>    C        6.36100         2.77120        -0.97320
| 44>    C        7.35252         3.30973        -1.94830
| 45>    C        6.42456         2.91070         0.39969
| 46>    S        5.02508         2.23270         1.18054
| 47>    C        7.45396         3.54316         1.19581
| 48>    C        7.14448         4.39877         2.26165
| 49>    F        5.86159         4.65284         2.55025
| 50>    C        8.11945         5.03180         3.01053
| 51>    F        7.71639         5.86564         3.97937
| 52>    C        9.48924         4.85755         2.75733
| 53>    C        9.79575         3.98593         1.70181
| 54>    C        8.81982         3.34341         0.96112
| 55>    F        9.21273         2.47467         0.02075
| 56>    F       11.07871         3.73496         1.39885
| 57>    C       10.51294         5.52525         3.52602
| 58>    C       10.40776         6.09696         4.77698
| 59>    C       11.58405         6.70197         5.22818
| 60>    C       11.72392         7.35139         6.55881
| 61>    C       12.62768         6.57340         4.31663
| 62>    S       12.11501         5.70946         2.89516
| 63>    C       13.92070         7.13399         4.42205
| 64>    C       15.05466         6.78333         3.75462
| 65>    C       16.16028         7.76640         3.61314
| 66>    O       16.29810         8.79587         4.22423
| 67>    C       17.00497         7.22112         2.51872
| 68>    C       16.53134         5.94999         2.14188
| 69>    C       15.41006         5.59440         3.01130
| 70>    C       14.98652         4.32016         3.27624
| 71>    C       15.45495         3.17595         2.59787
| 72>    N       15.80551         2.22093         2.06789
| 73>    C       14.11180         4.01298         4.34095
| 74>    N       13.45010         3.73334         5.23556
| 75>    C       17.12867         5.24345         1.11316
| 76>    C       18.20930         5.82638         0.46713
| 77>    C       18.70083         7.07859         0.83283
| 78>    C       18.09106         7.78546         1.87210
| 79>    F       18.56170         8.98032         2.21191
| 80>    F       19.74687         7.60213         0.18945
| 81>    F       18.79615         5.17397        -0.53774
| 82>    H       -3.95069        -2.68564        -1.24449
| 83>    H       -2.73112        -2.02349         0.95098
| 84>    H        1.52326        -1.21888         2.86071
| 85>    H       -1.70264        -0.53810         6.46248
| 86>    H       -3.14015        -0.86215         5.47600
| 87>    H       -2.53186         0.78469         5.62799
| 88>    H       -0.21290        -2.27129        -4.40150
| 89>    H        1.03515         0.69564        -8.07219
| 90>    H        2.31898         1.50581        -7.15994
| 91>    H        0.69811         2.19610        -7.19136
| 92>    H        2.85124         0.80217        -2.53239
| 93>    H        4.96057         1.91383        -2.40973
| 94>    H        6.84591         3.59469        -2.86725
| 95>    H        8.09570         2.55075        -2.19065
| 96>    H        7.87127         4.17704        -1.54655
| 97>    H        9.50886         6.07429         5.36398
| 98>    H       10.74847         7.48320         7.01810
| 99>    H       12.21000         8.32159         6.46992
|100>    H       12.33564         6.73069         7.21296
|101>    H       14.00750         8.01882         5.04606
|102>    H       16.78289         4.27501         0.79074
|103> *
|104>
|105>                          ****END OF INPUT****

CARTESIAN COORDINATES (ANGSTROEM)
---------------------------------
  C     -3.007060   -2.183260   -1.160580
  C     -2.355280   -1.827560   -0.035630
  C     -1.114400   -1.173950   -0.293860
  C     -0.192440   -0.655160    0.632340
  C     -0.412710   -0.683380    2.065550
  C      0.505040   -0.931330    3.045120
  C     -0.037880   -0.819510    4.343690
  C     -1.357490   -0.475960    4.377600
  S     -1.960780   -0.292740    2.765260
  C     -2.235050   -0.261740    5.555780
  Cl     0.903770   -1.097930    5.758110
  C      0.960140   -0.080360    0.104730
  C      1.216920    0.021940   -1.284460
  C      0.285150   -0.481390   -2.212400
  C     -0.854080   -1.082920   -1.681890
  S     -2.161910   -1.766970   -2.609100
  C      0.465590   -0.365370   -3.645440
  C      0.151240   -1.282210   -4.606910
  C      0.400960   -0.812770   -5.914850
  C      0.890910    0.458750   -5.976510
  S      1.066160    1.099990   -4.377770
  C      1.257020    1.261210   -7.170770
  Cl     0.102930   -1.779650   -7.308150
  C      2.457760    0.654680   -1.544980
  C      3.114640    1.058720   -0.419080
  S      2.235630    0.650440    1.037590
  C      4.367760    1.737910   -0.341480
  C      5.191920    2.108380   -1.378600
  C      6.361000    2.771200   -0.973200
  C      7.352520    3.309730   -1.948300
  C      6.424560    2.910700    0.399690
  S      5.025080    2.232700    1.180540
  C      7.453960    3.543160    1.195810
  C      7.144480    4.398770    2.261650
  F      5.861590    4.652840    2.550250
  C      8.119450    5.031800    3.010530
  F      7.716390    5.865640    3.979370
  C      9.489240    4.857550    2.757330
  C      9.795750    3.985930    1.701810
  C      8.819820    3.343410    0.961120
  F      9.212730    2.474670    0.020750
  F     11.078710    3.734960    1.398850
  C     10.512940    5.525250    3.526020
  C     10.407760    6.096960    4.776980
  C     11.584050    6.701970    5.228180
  C     11.723920    7.351390    6.558810
  C     12.627680    6.573400    4.316630
  S     12.115010    5.709460    2.895160
  C     13.920700    7.133990    4.422050
  C     15.054660    6.783330    3.754620
  C     16.160280    7.766400    3.613140
  O     16.298100    8.795870    4.224230
  C     17.004970    7.221120    2.518720
  C     16.531340    5.949990    2.141880
  C     15.410060    5.594400    3.011300
  C     14.986520    4.320160    3.276240
  C     15.454950    3.175950    2.597870
  N     15.805510    2.220930    2.067890
  C     14.111800    4.012980    4.340950
  N     13.450100    3.733340    5.235560
  C     17.128670    5.243450    1.113160
  C     18.209300    5.826380    0.467130
  C     18.700830    7.078590    0.832830
  C     18.091060    7.785460    1.872100
  F     18.561700    8.980320    2.211910
  F     19.746870    7.602130    0.189450
  F     18.796150    5.173970   -0.537740
  H     -3.950690   -2.685640   -1.244490
  H     -2.731120   -2.023490    0.950980
  H      1.523260   -1.218880    2.860710
  H     -1.702640   -0.538100    6.462480
  H     -3.140150   -0.862150    5.476000
  H     -2.531860    0.784690    5.627990
  H     -0.212900   -2.271290   -4.401500
  H      1.035150    0.695640   -8.072190
  H      2.318980    1.505810   -7.159940
  H      0.698110    2.196100   -7.191360
  H      2.851240    0.802170   -2.532390
  H      4.960570    1.913830   -2.409730
  H      6.845910    3.594690   -2.867250
  H      8.095700    2.550750   -2.190650
  H      7.871270    4.177040   -1.546550
  H      9.508860    6.074290    5.363980
  H     10.748470    7.483200    7.018100
  H     12.210000    8.321590    6.469920
  H     12.335640    6.730690    7.212960
  H     14.007500    8.018820    5.046060
  H     16.782890    4.275010    0.790740

 Total Charge           Charge          ....    0
 Multiplicity           Mult            ....    1
 Number of Electrons    NEL             ....  530
 Basis Dimension        Dim             .... 1075

ORBITAL ENERGIES
----------------

  NO   OCC          E(Eh)            E(eV)
   0   2.0000    -101.583031     -2764.2148
   1   2.0000    -101.581610     -2764.1761
   2   2.0000     -88.973441     -2421.0904
   3   2.0000     -88.962240     -2420.7856
   4   2.0000     -88.957977     -2420.6696
   5   2.0000     -88.956527     -2420.6302
   6   2.0000     -88.952565     -2420.5223
   7   2.0000     -88.948780     -2420.4194
   8   2.0000     -24.813435      -675.2079
   9   2.0000     -24.811672      -675.1599
  10   2.0000     -24.811352      -675.1512
  11   2.0000     -24.810686      -675.1331
  12   2.0000     -24.809431      -675.0989
  13   2.0000     -24.807108      -675.0357
  14   2.0000     -24.805856      -675.0017
  15   2.0000     -19.222091      -523.0597
  16   2.0000     -14.421729      -392.4352
  17   2.0000     -14.419026      -392.3616
  18   2.0000     -10.399991      -282.9982
  19   2.0000     -10.397326      -282.9256
  20   2.0000     -10.394429      -282.8468
  21   2.0000     -10.390422      -282.7378
  22   2.0000     -10.390338      -282.7355
  23   2.0000     -10.387550      -282.6596
  24   2.0000     -10.386656      -282.6353
  25   2.0000     -10.378621      -282.4166
  26   2.0000     -10.351979      -281.6917
  27   2.0000     -10.349921      -281.6357
  28   2.0000     -10.334894      -281.2268
  29   2.0000     -10.332116      -281.1512
  30   2.0000     -10.328480      -281.0522
  31   2.0000     -10.327847      -281.0350
  32   2.0000     -10.327269      -281.0193
  33   2.0000     -10.323606      -280.9196
  34   2.0000     -10.320799      -280.8432
  35   2.0000     -10.318026      -280.7678
  36   2.0000     -10.316560      -280.7279
  37   2.0000     -10.314515      -280.6722
  38   2.0000     -10.313060      -280.6326
  39   2.0000     -10.313000      -280.6310
  40   2.0000     -10.311845      -280.5996
  41   2.0000     -10.311373      -280.5867
  42   2.0000     -10.310474      -280.5623
  43   2.0000     -10.306499      -280.4541
  44   2.0000     -10.305522      -280.4275
  45   2.0000     -10.305294      -280.4213
  46   2.0000     -10.305202      -280.4188
  47   2.0000     -10.303673      -280.3772
  48   2.0000     -10.302897      -280.3561
  49   2.0000     -10.302851      -280.3548
  50   2.0000     -10.302246      -280.3384
  51   2.0000     -10.297564      -280.2110
  52   2.0000     -10.297225      -280.2017
  53   2.0000     -10.295580      -280.1570
  54   2.0000     -10.291123      -280.0357
  55   2.0000     -10.289420      -279.9893
  56   2.0000     -10.288258      -279.9577
  57   2.0000     -10.286062      -279.8980
  58   2.0000     -10.281886      -279.7843
  59   2.0000     -10.278076      -279.6807
  60   2.0000     -10.277230      -279.6576
  61   2.0000     -10.277196      -279.6567
  62   2.0000     -10.276720      -279.6438
  63   2.0000     -10.276595      -279.6404
  64   2.0000     -10.275547      -279.6119
  65   2.0000     -10.272161      -279.5197
  66   2.0000     -10.272131      -279.5189
  67   2.0000      -9.537805      -259.5369
  68   2.0000      -9.536392      -259.4984
  69   2.0000      -8.068326      -219.5503
  70   2.0000      -8.057824      -219.2646
  71   2.0000      -8.053554      -219.1484
  72   2.0000      -8.052197      -219.1114
  73   2.0000      -8.048054      -218.9987
  74   2.0000      -8.044535      -218.9029
  75   2.0000      -7.308047      -198.8621
  76   2.0000      -7.306631      -198.8235
  77   2.0000      -7.297876      -198.5853
  78   2.0000      -7.297801      -198.5833
  79   2.0000      -7.296465      -198.5469
  80   2.0000      -7.296386      -198.5448
  81   2.0000      -6.037714      -164.2945
  82   2.0000      -6.033397      -164.1771
  83   2.0000      -6.030343      -164.0940
  84   2.0000      -6.027136      -164.0067
  85   2.0000      -6.022937      -163.8924
  86   2.0000      -6.022866      -163.8905
  87   2.0000      -6.021505      -163.8535
  88   2.0000      -6.019889      -163.8095
  89   2.0000      -6.018715      -163.7776
  90   2.0000      -6.017743      -163.7511
  91   2.0000      -6.017350      -163.7404
  92   2.0000      -6.015623      -163.6934
  93   2.0000      -6.014256      -163.6562
  94   2.0000      -6.014216      -163.6551
  95   2.0000      -6.013560      -163.6373
  96   2.0000      -6.009793      -163.5348
  97   2.0000      -6.009313      -163.5217
  98   2.0000      -6.006057      -163.4331
  99   2.0000      -1.338452       -36.4211
 100   2.0000      -1.335098       -36.3299
 101   2.0000      -1.333473       -36.2857
 102   2.0000      -1.327826       -36.1320
 103   2.0000      -1.316928       -35.8354
 104   2.0000      -1.316724       -35.8299
 105   2.0000      -1.315626       -35.8000
 106   2.0000      -1.140012       -31.0213
 107   2.0000      -1.029405       -28.0115
 108   2.0000      -1.013643       -27.5826
 109   2.0000      -1.012005       -27.5380
 110   2.0000      -1.008821       -27.4514
 111   2.0000      -1.002770       -27.2868
 112   2.0000      -1.000910       -27.2361
 113   2.0000      -0.997952       -27.1557
 114   2.0000      -0.993696       -27.0399
 115   2.0000      -0.986944       -26.8561
 116   2.0000      -0.972198       -26.4549
 117   2.0000      -0.965000       -26.2590
 118   2.0000      -0.943388       -25.6709
 119   2.0000      -0.939066       -25.5533
 120   2.0000      -0.923623       -25.1331
 121   2.0000      -0.912146       -24.8208
 122   2.0000      -0.907983       -24.7075
 123   2.0000      -0.898292       -24.4438
 124   2.0000      -0.892867       -24.2961
 125   2.0000      -0.879362       -23.9287
 126   2.0000      -0.877622       -23.8813
 127   2.0000      -0.870227       -23.6801
 128   2.0000      -0.861974       -23.4555
 129   2.0000      -0.859940       -23.4001
 130   2.0000      -0.849919       -23.1275
 131   2.0000      -0.847721       -23.0677
 132   2.0000      -0.837304       -22.7842
 133   2.0000      -0.828530       -22.5454
 134   2.0000      -0.809904       -22.0386
 135   2.0000      -0.806844       -21.9553
 136   2.0000      -0.804869       -21.9016
 137   2.0000      -0.799839       -21.7647
 138   2.0000      -0.794299       -21.6140
 139   2.0000      -0.783895       -21.3309
 140   2.0000      -0.781548       -21.2670
 141   2.0000      -0.779970       -21.2241
 142   2.0000      -0.765361       -20.8265
 143   2.0000      -0.753551       -20.5052
 144   2.0000      -0.744421       -20.2567
 145   2.0000      -0.740629       -20.1535
 146   2.0000      -0.730804       -19.8862
 147   2.0000      -0.721599       -19.6357
 148   2.0000      -0.714090       -19.4314
 149   2.0000      -0.699032       -19.0216
 150   2.0000      -0.693421       -18.8690
 151   2.0000      -0.687761       -18.7149
 152   2.0000      -0.682261       -18.5653
 153   2.0000      -0.671818       -18.2811
 154   2.0000      -0.664584       -18.0843
 155   2.0000      -0.664219       -18.0743
 156   2.0000      -0.657410       -17.8890
 157   2.0000      -0.652199       -17.7472
 158   2.0000      -0.650737       -17.7074
 159   2.0000      -0.650037       -17.6884
 160   2.0000      -0.647831       -17.6284
 161   2.0000      -0.637408       -17.3448
 162   2.0000      -0.635997       -17.3064
 163   2.0000      -0.628258       -17.0958
 164   2.0000      -0.626323       -17.0431
 165   2.0000      -0.621673       -16.9166
 166   2.0000      -0.617355       -16.7991
 167   2.0000      -0.612344       -16.6627
 168   2.0000      -0.608514       -16.5585
 169   2.0000      -0.607851       -16.5405
 170   2.0000      -0.606119       -16.4933
 171   2.0000      -0.599940       -16.3252
 172   2.0000      -0.594830       -16.1862
 173   2.0000      -0.593341       -16.1456
 174   2.0000      -0.587465       -15.9857
 175   2.0000      -0.584043       -15.8926
 176   2.0000      -0.582494       -15.8505
 177   2.0000      -0.582058       -15.8386
 178   2.0000      -0.576075       -15.6758
 179   2.0000      -0.573107       -15.5950
 180   2.0000      -0.565845       -15.3974
 181   2.0000      -0.562899       -15.3173
 182   2.0000      -0.559393       -15.2219
 183   2.0000      -0.554606       -15.0916
 184   2.0000      -0.554233       -15.0814
 185   2.0000      -0.547847       -14.9077
 186   2.0000      -0.544609       -14.8196
 187   2.0000      -0.542365       -14.7585
 188   2.0000      -0.537343       -14.6218
 189   2.0000      -0.536649       -14.6029
 190   2.0000      -0.532215       -14.4823
 191   2.0000      -0.528584       -14.3835
 192   2.0000      -0.526229       -14.3194
 193   2.0000      -0.522360       -14.2141
 194   2.0000      -0.521355       -14.1868
 195   2.0000      -0.518405       -14.1065
 196   2.0000      -0.517570       -14.0838
 197   2.0000      -0.515547       -14.0287
 198   2.0000      -0.512636       -13.9495
 199   2.0000      -0.511095       -13.9076
 200   2.0000      -0.508925       -13.8485
 201   2.0000      -0.506029       -13.7697
 202   2.0000      -0.505414       -13.7530
 203   2.0000      -0.503505       -13.7011
 204   2.0000      -0.502060       -13.6617
 205   2.0000      -0.499906       -13.6031
 206   2.0000      -0.498004       -13.5514
 207   2.0000      -0.493084       -13.4175
 208   2.0000      -0.486412       -13.2359
 209   2.0000      -0.483400       -13.1540
 210   2.0000      -0.481663       -13.1067
 211   2.0000      -0.480999       -13.0887
 212   2.0000      -0.479374       -13.0444
 213   2.0000      -0.478157       -13.0113
 214   2.0000      -0.475055       -12.9269
 215   2.0000      -0.474325       -12.9070
 216   2.0000      -0.473213       -12.8768
 217   2.0000      -0.466819       -12.7028
 218   2.0000      -0.464430       -12.6378
 219   2.0000      -0.463859       -12.6222
 220   2.0000      -0.462710       -12.5910
 221   2.0000      -0.460866       -12.5408
 222   2.0000      -0.458601       -12.4792
 223   2.0000      -0.456926       -12.4336
 224   2.0000      -0.454895       -12.3783
 225   2.0000      -0.453526       -12.3411
 226   2.0000      -0.450934       -12.2705
 227   2.0000      -0.448679       -12.2092
 228   2.0000      -0.446451       -12.1485
 229   2.0000      -0.444789       -12.1033
 230   2.0000      -0.443257       -12.0616
 231   2.0000      -0.435778       -11.8581
 232   2.0000      -0.433673       -11.8008
 233   2.0000      -0.430927       -11.7261
 234   2.0000      -0.429438       -11.6856
 235   2.0000      -0.423944       -11.5361
 236   2.0000      -0.421104       -11.4588
 237   2.0000      -0.420539       -11.4435
 238   2.0000      -0.419289       -11.4094
 239   2.0000      -0.415714       -11.3122
 240   2.0000      -0.412450       -11.2233
 241   2.0000      -0.409915       -11.1544
 242   2.0000      -0.409211       -11.1352
 243   2.0000      -0.400979       -10.9112
 244   2.0000      -0.390458       -10.6249
 245   2.0000      -0.380501       -10.3539
 246   2.0000      -0.379597       -10.3294
 247   2.0000      -0.376661       -10.2495
 248   2.0000      -0.373507       -10.1636
 249   2.0000      -0.357669        -9.7327
 250   2.0000      -0.348110        -9.4726
 251   2.0000      -0.344878        -9.3846
 252   2.0000      -0.332242        -9.0408
 253   2.0000      -0.330909        -9.0045
 254   2.0000      -0.328309        -8.9338
 255   2.0000      -0.321780        -8.7561
 256   2.0000      -0.319315        -8.6890
 257   2.0000      -0.316872        -8.6225
 258   2.0000      -0.314149        -8.5484
 259   2.0000      -0.312840        -8.5128
 260   2.0000      -0.299072        -8.1382
 261   2.0000      -0.292330        -7.9547
 262   2.0000      -0.285796        -7.7769
 263   2.0000      -0.266114        -7.2413
 264   2.0000      -0.242919        -6.6102
 265   0.0000      -0.099170        -2.6986
 266   0.0000      -0.068418        -1.8618
 267   0.0000      -0.051836        -1.4105
 268   0.0000      -0.030899        -0.8408
 269   0.0000      -0.011504        -0.3130

MULLIKEN ATOMIC CHARGES
-----------------------
   0 C :   -0.041435
   1 C :   -0.003300
   2 C :    0.056317
   3 C :    0.137624
   4 C :   -0.214280
   5 C :    0.036561
   6 C :    0.084640
   7 C :   -0.268602
   8 S :    0.137414
   9 C :    0.126574
  10 Cl:   -0.089857
  11 C :   -0.135336
  12 C :    0.088084
  13 C :    0.137590
  14 C :   -0.158920
  15 S :    0.107798
  16 C :   -0.210769
  17 C :    0.035169
  18 C :    0.086036
  19 C :   -0.268494
  20 S :    0.130977
  21 C :    0.127367
  22 Cl:   -0.090096
  23 C :   -0.091166
  24 C :    0.013414
  25 S :    0.116052
  26 C :   -0.039356
  27 C :   -0.056976
  28 C :   -0.031440
  29 C :    0.118784
  30 C :   -0.135722
  31 S :    0.164757
  32 C :   -0.088787
  33 C :    0.187717
  34 F :   -0.161574
  35 C :    0.162242
  36 F :   -0.167888
  37 C :    0.025048
  38 C :    0.157779
  39 C :    0.177652
  40 F :   -0.162606
  41 F :   -0.168510
  42 C :   -0.065536
  43 C :   -0.027756
  44 C :   -0.012139
  45 C :    0.116441
  46 C :   -0.143891
  47 S :    0.169782
  48 C :    0.037393
  49 C :   -0.137182
  50 C :    0.138198
  51 O :   -0.119463
  52 C :   -0.068978
  53 C :    0.041014
  54 C :    0.228369
  55 C :   -0.303495
  56 C :   -0.182382
  57 N :    0.166250
  58 C :   -0.199904
  59 N :    0.173576
  60 C :   -0.090745
  61 C :    0.231789
  62 C :    0.153114
  63 C :    0.153561
  64 F :   -0.137963
  65 F :   -0.153577
  66 F :   -0.159227
  67 H :    0.026818
  68 H :   -0.010264
  69 H :   -0.006827
  70 H :    0.023946
  71 H :    0.028940
  72 H :    0.037908
  73 H :   -0.007021
  74 H :    0.023782
  75 H :    0.032006
  76 H :    0.033667
  77 H :   -0.016977
  78 H :   -0.024939
  79 H :    0.015570
  80 H :    0.043690
  81 H :    0.017318
  82 H :   -0.004525
  83 H :    0.019231
  84 H :    0.035119
  85 H :    0.054129
  86 H :    0.023120
  87 H :    0.017581
Sum of atomic charges:   -0.0000000

LOEWDIN ATOMIC CHARGES
----------------------
   0 C :   -0.160773
   1 C :   -0.070498
   2 C :   -0.043398
   3 C :   -0.054343
   4 C :   -0.172379
   5 C :   -0.075532
   6 C :   -0.177549
   7 C :   -0.199180
   8 S :    0.446029
   9 C :   -0.060926
  10 Cl:    0.127975
  11 C :   -0.142386
  12 C :   -0.041484
  13 C :   -0.054101
  14 C :   -0.146570
  15 S :    0.415858
  16 C :   -0.170371
  17 C :   -0.074911
  18 C :   -0.177102
  19 C :   -0.199809
  20 S :    0.443266
  21 C :   -0.060989
  22 Cl:    0.128016
  23 C :   -0.059991
  24 C :   -0.168381
  25 S :    0.412141
  26 C :   -0.177007
  27 C :   -0.056220
  28 C :   -0.035062
  29 C :   -0.047163
  30 C :   -0.193719
  31 S :    0.452985
  32 C :   -0.075799
  33 C :    0.056166
  34 F :   -0.044294
  35 C :    0.065876
  36 F :   -0.039560
  37 C :   -0.082686
  38 C :    0.058494
  39 C :    0.058989
  40 F :   -0.036491
  41 F :   -0.045974
  42 C :   -0.141227
  43 C :   -0.048201
  44 C :   -0.009261
  45 C :   -0.041586
  46 C :   -0.196539
  47 S :    0.484778
  48 C :    0.058526
  49 C :   -0.103767
  50 C :    0.083757
  51 O :   -0.128659
  52 C :   -0.082043
  53 C :   -0.000708
  54 C :    0.057883
  55 C :   -0.132004
  56 C :   -0.021782
  57 N :   -0.042023
  58 C :   -0.031391
  59 N :   -0.043214
  60 C :   -0.031330
  61 C :    0.080165
  62 C :    0.038449
  63 C :    0.086378
  64 F :   -0.021318
  65 F :   -0.034181
  66 F :   -0.036206
  67 H :    0.025710
  68 H :    0.019808
  69 H :    0.027261
  70 H :    0.033968
  71 H :    0.037124
  72 H :    0.040145
  73 H :    0.026794
  74 H :    0.034022
  75 H :    0.037983
  76 H :    0.038745
  77 H :    0.016095
  78 H :    0.029075
  79 H :    0.033633
  80 H :    0.041496
  81 H :    0.031691
  82 H :    0.031669
  83 H :    0.037184
  84 H :    0.040002
  85 H :    0.049880
  86 H :    0.049643
  87 H :    0.052429

  Mayer bond orders larger than 0.100000
B(  0-C ,  1-C ) :   1.6498 B(  0-C , 15-S ) :   1.1072 B(  0-C , 67-H ) :   0.9658
B(  1-C ,  2-C ) :   1.1799 B(  1-C , 68-H ) :   0.9785 B(  2-C ,  3-C ) :   1.3138
B(  2-C , 14-C ) :   1.2765 B(  3-C ,  4-C ) :   0.9807 B(  3-C , 11-C ) :   1.4185
B(  4-C ,  5-C ) :   1.5556 B(  4-C ,  8-S ) :   1.1324 B(  5-C ,  6-C ) :   1.2219
B(  5-C , 69-H ) :   0.9955 B(  6-C ,  7-C ) :   1.6060 B(  6-C , 10-Cl) :   1.0049
B(  7-C ,  8-S ) :   1.1283 B(  7-C ,  9-C ) :   1.0832 B(  9-C , 70-H ) :   0.9439
B(  9-C , 71-H ) :   0.9476 B(  9-C , 72-H ) :   0.9490 B( 11-C , 12-C ) :   1.2726
B( 11-C , 25-S ) :   1.0607 B( 12-C , 13-C ) :   1.3051 B( 12-C , 23-C ) :   1.1654
B( 13-C , 14-C ) :   1.4202 B( 13-C , 16-C ) :   0.9851 B( 14-C , 15-S ) :   1.0739
B( 16-C , 17-C ) :   1.5564 B( 16-C , 20-S ) :   1.1284 B( 17-C , 18-C ) :   1.2189
B( 17-C , 73-H ) :   0.9955 B( 18-C , 19-C ) :   1.6066 B( 18-C , 22-Cl) :   1.0041
B( 19-C , 20-S ) :   1.1268 B( 19-C , 21-C ) :   1.0828 B( 21-C , 74-H ) :   0.9436
B( 21-C , 75-H ) :   0.9484 B( 21-C , 76-H ) :   0.9484 B( 23-C , 24-C ) :   1.6135
B( 23-C , 77-H ) :   0.9770 B( 24-C , 25-S ) :   1.0600 B( 24-C , 26-C ) :   1.0886
B( 26-C , 27-C ) :   1.5158 B( 26-C , 30-C ) :   0.1108 B( 26-C , 31-S ) :   1.1448
B( 27-C , 28-C ) :   1.2625 B( 27-C , 78-H ) :   1.0004 B( 28-C , 29-C ) :   1.1041
B( 28-C , 30-C ) :   1.5577 B( 29-C , 79-H ) :   0.9486 B( 29-C , 80-H ) :   0.9396
B( 29-C , 81-H ) :   0.9432 B( 30-C , 31-S ) :   1.1131 B( 30-C , 32-C ) :   0.9967
B( 32-C , 33-C ) :   1.3086 B( 32-C , 37-C ) :   0.1199 B( 32-C , 39-C ) :   1.3277
B( 33-C , 34-F ) :   1.1736 B( 33-C , 35-C ) :   1.3112 B( 35-C , 36-F ) :   1.1469
B( 35-C , 37-C ) :   1.2836 B( 37-C , 38-C ) :   1.2833 B( 37-C , 42-C ) :   1.0756
B( 38-C , 39-C ) :   1.3027 B( 38-C , 41-F ) :   1.1469 B( 39-C , 40-F ) :   1.1642
B( 42-C , 43-C ) :   1.4837 B( 42-C , 47-S ) :   1.1603 B( 43-C , 44-C ) :   1.2943
B( 43-C , 82-H ) :   0.9956 B( 44-C , 45-C ) :   1.1126 B( 44-C , 46-C ) :   1.4283
B( 45-C , 83-H ) :   0.9470 B( 45-C , 84-H ) :   0.9341 B( 45-C , 85-H ) :   0.9421
B( 46-C , 47-S ) :   1.0946 B( 46-C , 48-C ) :   1.1504 B( 48-C , 49-C ) :   1.6491
B( 48-C , 86-H ) :   0.9398 B( 49-C , 50-C ) :   0.9508 B( 49-C , 54-C ) :   1.0467
B( 50-C , 51-O ) :   2.3036 B( 50-C , 52-C ) :   0.9064 B( 52-C , 53-C ) :   1.3535
B( 52-C , 63-C ) :   1.2770 B( 53-C , 54-C ) :   1.0157 B( 53-C , 60-C ) :   1.3349
B( 54-C , 55-C ) :   1.6709 B( 55-C , 56-C ) :   1.1285 B( 55-C , 58-C ) :   1.1547
B( 56-C , 57-N ) :   2.9995 B( 58-C , 59-N ) :   3.0197 B( 60-C , 61-C ) :   1.3266
B( 60-C , 87-H ) :   1.0000 B( 61-C , 62-C ) :   1.2968 B( 61-C , 66-F ) :   1.1453
B( 62-C , 63-C ) :   1.2610 B( 62-C , 65-F ) :   1.1725 B( 63-C , 64-F ) :   1.2468

-----------------------------------------------------------------------------
         ABSORPTION SPECTRUM VIA TRANSITION ELECTRIC DIPOLE MOMENTS
-----------------------------------------------------------------------------
State   Energy  Wavelength   fosc         T2         TX        TY        TZ
        (cm-1)    (nm)                  (au**2)     (au)      (au)      (au)
-----------------------------------------------------------------------------
   0   20312.5    492.3   0.846860991  13.72536   3.58548   0.60499   0.70972
   1   23553.0    424.6   0.150796689   2.10776   0.09385   0.97196   1.07436
   2   26377.0    379.1   0.611355396   7.63034   1.63139   0.74903   2.09949
   3   26975.2    370.7   0.519671327   6.34220   1.97614   1.49790   0.43973
   4   27960.4    357.6   0.034428804   0.40537  -0.25498   0.28550   0.50877
   5   30050.1    332.8   0.179388589   1.96528   0.91161   0.52413  -0.92711
   6   30127.2    331.9   0.298686486   3.26387  -1.59038  -0.85425  -0.06941
   7   30257.9    330.5   0.056111086   0.61050  -0.65405   0.06402   0.42263
   8   30858.8    324.1   0.105160643   1.12189  -0.65298  -0.40379   0.72970
   9   32062.5    311.9   0.116489320   1.19609   0.91939   0.57951  -0.12241
  10   32299.2    309.6   0.020179682   0.20568   0.41570  -0.09330  -0.15547
  11   32428.8    308.4   0.537136534   5.45292  -1.83116  -1.34151   0.54784
  12   33066.5    302.4   0.029792064   0.29661  -0.40698   0.23423   0.27589
  13   34582.3    289.2   0.011338402   0.10794   0.17963   0.26912   0.05696
  14   34860.3    286.9   0.102787226   0.97070  -0.65923  -0.46901   0.56227
  15   35163.3    284.4   0.007666414   0.07178   0.06700   0.13482  -0.22161
  16   35290.1    283.4   0.154598169   1.44221   0.55705   0.26555  -1.03023
  17   36106.5    277.0   0.018902348   0.17235  -0.02671  -0.32982  -0.25071
  18   36162.2    276.5   0.074738030   0.68040  -0.68985  -0.45064  -0.03776
  19   36322.7    275.3   0.081977189   0.74300  -0.22029  -0.43055  -0.71352
  20   36926.8    270.8   0.139960495   1.24778   0.50641  -0.27786  -0.95610
  21   37082.0    269.7   0.067197229   0.59657  -0.30564  -0.52223  -0.48004
  22   37645.3    265.6   0.300204511   2.62532  -0.88986  -0.77943   1.10723
  23   37671.9    265.4   0.246944186   2.15802   0.79779   1.23179   0.06511
  24   38282.9    261.2   0.098400302   0.84619   0.74256   0.51772  -0.16359
  25   38537.5    259.5   0.072191873   0.61671   0.08548   0.17846  -0.75997
  26   38930.2    256.9   0.001767790   0.01495  -0.03320   0.07588   0.08994
  27   39568.5    252.7   0.018552629   0.15436  -0.11554  -0.32443   0.18910
  28   39586.0    252.6   0.003317278   0.02759  -0.01788  -0.12450  -0.10848
  29   39681.5    252.0   0.052422794   0.43492   0.39793   0.00401  -0.52588

FINAL SINGLE POINT ENERGY     -6068.644074986212

DIPOLE MOMENT
-------------
                                X             Y             Z
Electronic contribution:     63.59452      14.06204       2.92406
Nuclear contribution   :    -65.80955     -13.19059      -3.47658
                        -----------------------------------------
Total Dipole Moment    :     -2.21503       0.87145      -0.55252
                        -----------------------------------------
Magnitude (a.u.)       :      2.44357
Magnitude (Debye)      :      6.21107

Rotational constants in cm-1:     0.001542     0.000262     0.000233
Rotational constants in MHz :    46.231043     7.869174     6.990947

                             ****ORCA TERMINATED NORMALLY****
TOTAL RUN TIME: 0 days 0 hours 7 minutes 43 seconds 17 msec
