                         Program Version 4.2.0 -  RELEASE  -
|  1> # ORCA input file
|  2> # SCF done       -153.650380967809          0.000404785351
|  3> ! CAM-B3LYP def2-SVP def2/J RIJCOSX Grid4 TightSCF
|  4> %maxcore 5000
|  5> %tddft
|  6>     Mode sTDDFT
|  7>     Ethresh 5.0
|  8>     maxcore 5000
|  9> end
| 10>
| 11> %pal
| 12>   nprocs 6
| 13>   end
| 14> * xyz 0 1
| 15>    C        0.02505        -1.30989        -1.73231
| 16>    C        0.50642        -0.65703        -0.61766
| 17>    C        0.25749         0.72078        -0.37023
| 18>    N        0.78940         1.18692         0.79498
| 19>    C        1.42719         0.28132         1.41904
| 20>    S        1.46720        -1.30530         0.67912
| 21>    C       -0.49718         1.48164        -1.26663
| 22>    C       -0.98246         0.81963        -2.38305
| 23>    C       -0.72935        -0.55928        -2.62445
| 24>    N       -1.27014        -1.02989        -3.78574
| 25>    C       -1.88647        -0.11944        -4.42483
| 26>    S       -1.90656         1.47475        -3.70299
| 27>    C       -0.71714         2.90870        -1.01994
| 28>    C       -1.97410         3.48247        -0.92327
| 29>    C       -2.16702         4.86634        -0.67335
| 30>    N       -3.47643         5.23659        -0.57393
| 31>    C       -4.26374         4.24890        -0.72725
| 32>    S       -3.52242         2.69394        -1.01630
| 33>    C       -1.07951         5.73018        -0.50717
| 34>    C        0.17942         5.15226        -0.59336
| 35>    C        0.37123         3.76970        -0.85513
| 36>    N        1.67698         3.39536        -0.96705
| 37>    C        2.46362         4.38268        -0.80201
| 38>    S        1.72506         5.93391        -0.48465
| 39>    C       -1.28747         7.15415        -0.24818
| 40>    C       -2.13586         7.93958        -1.01501
| 41>    C       -2.33419         9.32262        -0.76587
| 42>    N       -3.19793         9.92697        -1.63163
| 43>    C       -3.63050         9.11359        -2.51173
| 44>    S       -3.06062         7.46858        -2.40780
| 45>    C       -1.69077         9.96826         0.29577
| 46>    C       -0.85288         9.17974         1.07108
| 47>    C       -0.63718         7.80128         0.80783
| 48>    N        0.22740         7.19650         1.67191
| 49>    C        0.68541         8.01671         2.53254
| 50>    S        0.11521         9.66193         2.42990
| 51>    C       -1.91866        11.38890         0.55838
| 52>    C       -1.83458        12.36203        -0.42795
| 53>    C       -2.06524        13.73912        -0.16829
| 54>    N       -1.93754        14.54553        -1.25954
| 55>    C       -1.59705        13.88488        -2.29321
| 56>    S       -1.40297        12.16007        -2.09694
| 57>    C       -2.40598        14.18407         1.11176
| 58>    C       -2.49401        13.21355         2.09578
| 59>    C       -2.25397        11.83809         1.83986
| 60>    N       -2.39133        11.03657         2.93534
| 61>    C       -2.68586        11.70223         3.97899
| 62>    S       -2.85479        13.42968         3.78447
| 63>    C       -2.62830        15.61021         1.36369
| 64>    C       -3.81553        16.11623         1.86817
| 65>    C       -4.02632        17.50758         2.07682
| 66>    N       -5.26426        17.81712         2.56061
| 67>    C       -5.98584        16.78114         2.71381
| 68>    S       -5.26108        15.24584         2.28999
| 69>    C       -3.03108        18.42920         1.77942
| 70>    C       -1.84702        17.93057         1.27966
| 71>    C       -1.62920        16.54132         1.06966
| 72>    N       -0.38852        16.23271         0.59639
| 73>    C        0.32081        17.27269         0.41731
| 74>    S       -0.41854        18.80840         0.81757
| 75>    H        0.21852        -2.35176        -1.92306
| 76>    H        1.92262         0.44152         2.35661
| 77>    H       -2.38091        -0.28202        -5.36266
| 78>    H       -5.33230         4.33105        -0.68708
| 79>    H        3.53211         4.30043        -0.84943
| 80>    H       -4.31584         9.39573        -3.28718
| 81>    H        1.38380         7.73791         3.29748
| 82>    H       -1.44028        14.33293        -3.25516
| 83>    H       -2.83170        11.25749         4.94393
| 84>    H       -6.99273        16.80755         3.08251
| 85>    H       -3.19787        19.48153         1.93465
| 86>    H        1.32756        17.24911         0.04840
| 87> *
| 88>
| 89>                          ****END OF INPUT****

CARTESIAN COORDINATES (ANGSTROEM)
---------------------------------
  C      0.025050   -1.309890   -1.732310
  C      0.506420   -0.657030   -0.617660
  C      0.257490    0.720780   -0.370230
  N      0.789400    1.186920    0.794980
  C      1.427190    0.281320    1.419040
  S      1.467200   -1.305300    0.679120
  C     -0.497180    1.481640   -1.266630
  C     -0.982460    0.819630   -2.383050
  C     -0.729350   -0.559280   -2.624450
  N     -1.270140   -1.029890   -3.785740
  C     -1.886470   -0.119440   -4.424830
  S     -1.906560    1.474750   -3.702990
  C     -0.717140    2.908700   -1.019940
  C     -1.974100    3.482470   -0.923270
  C     -2.167020    4.866340   -0.673350
  N     -3.476430    5.236590   -0.573930
  C     -4.263740    4.248900   -0.727250
  S     -3.522420    2.693940   -1.016300
  C     -1.079510    5.730180   -0.507170
  C      0.179420    5.152260   -0.593360
  C      0.371230    3.769700   -0.855130
  N      1.676980    3.395360   -0.967050
  C      2.463620    4.382680   -0.802010
  S      1.725060    5.933910   -0.484650
  C     -1.287470    7.154150   -0.248180
  C     -2.135860    7.939580   -1.015010
  C     -2.334190    9.322620   -0.765870
  N     -3.197930    9.926970   -1.631630
  C     -3.630500    9.113590   -2.511730
  S     -3.060620    7.468580   -2.407800
  C     -1.690770    9.968260    0.295770
  C     -0.852880    9.179740    1.071080
  C     -0.637180    7.801280    0.807830
  N      0.227400    7.196500    1.671910
  C      0.685410    8.016710    2.532540
  S      0.115210    9.661930    2.429900
  C     -1.918660   11.388900    0.558380
  C     -1.834580   12.362030   -0.427950
  C     -2.065240   13.739120   -0.168290
  N     -1.937540   14.545530   -1.259540
  C     -1.597050   13.884880   -2.293210
  S     -1.402970   12.160070   -2.096940
  C     -2.405980   14.184070    1.111760
  C     -2.494010   13.213550    2.095780
  C     -2.253970   11.838090    1.839860
  N     -2.391330   11.036570    2.935340
  C     -2.685860   11.702230    3.978990
  S     -2.854790   13.429680    3.784470
  C     -2.628300   15.610210    1.363690
  C     -3.815530   16.116230    1.868170
  C     -4.026320   17.507580    2.076820
  N     -5.264260   17.817120    2.560610
  C     -5.985840   16.781140    2.713810
  S     -5.261080   15.245840    2.289990
  C     -3.031080   18.429200    1.779420
  C     -1.847020   17.930570    1.279660
  C     -1.629200   16.541320    1.069660
  N     -0.388520   16.232710    0.596390
  C      0.320810   17.272690    0.417310
  S     -0.418540   18.808400    0.817570
  H      0.218520   -2.351760   -1.923060
  H      1.922620    0.441520    2.356610
  H     -2.380910   -0.282020   -5.362660
  H     -5.332300    4.331050   -0.687080
  H      3.532110    4.300430   -0.849430
  H     -4.315840    9.395730   -3.287180
  H      1.383800    7.737910    3.297480
  H     -1.440280   14.332930   -3.255160
  H     -2.831700   11.257490    4.943930
  H     -6.992730   16.807550    3.082510
  H     -3.197870   19.481530    1.934650
  H      1.327560   17.249110    0.048400

 Total Charge           Charge          ....    0
 Multiplicity           Mult            ....    1
 Number of Electrons    NEL             ....  482
 Basis Dimension        Dim             ....  940

ORBITAL ENERGIES
----------------

  NO   OCC          E(Eh)            E(eV)
   0   2.0000     -88.955172     -2420.5933
   1   2.0000     -88.954948     -2420.5872
   2   2.0000     -88.953463     -2420.5468
   3   2.0000     -88.953125     -2420.5376
   4   2.0000     -88.951686     -2420.4984
   5   2.0000     -88.951321     -2420.4885
   6   2.0000     -88.950318     -2420.4612
   7   2.0000     -88.949783     -2420.4466
   8   2.0000     -88.947066     -2420.3727
   9   2.0000     -88.947025     -2420.3716
  10   2.0000     -14.406866      -392.0307
  11   2.0000     -14.406822      -392.0296
  12   2.0000     -14.404877      -391.9766
  13   2.0000     -14.404395      -391.9635
  14   2.0000     -14.403535      -391.9401
  15   2.0000     -14.403198      -391.9309
  16   2.0000     -14.402141      -391.9022
  17   2.0000     -14.401592      -391.8872
  18   2.0000     -14.397988      -391.7892
  19   2.0000     -14.397822      -391.7847
  20   2.0000     -10.331465      -281.1335
  21   2.0000     -10.331344      -281.1302
  22   2.0000     -10.329590      -281.0824
  23   2.0000     -10.329228      -281.0726
  24   2.0000     -10.328894      -281.0635
  25   2.0000     -10.328577      -281.0549
  26   2.0000     -10.327358      -281.0217
  27   2.0000     -10.326850      -281.0079
  28   2.0000     -10.323655      -280.9209
  29   2.0000     -10.323621      -280.9200
  30   2.0000     -10.305482      -280.4264
  31   2.0000     -10.305459      -280.4258
  32   2.0000     -10.303898      -280.3833
  33   2.0000     -10.303710      -280.3782
  34   2.0000     -10.303709      -280.3782
  35   2.0000     -10.303542      -280.3736
  36   2.0000     -10.303513      -280.3728
  37   2.0000     -10.303459      -280.3714
  38   2.0000     -10.303358      -280.3686
  39   2.0000     -10.303296      -280.3670
  40   2.0000     -10.302702      -280.3508
  41   2.0000     -10.302449      -280.3439
  42   2.0000     -10.301665      -280.3226
  43   2.0000     -10.301546      -280.3193
  44   2.0000     -10.301183      -280.3095
  45   2.0000     -10.301162      -280.3089
  46   2.0000     -10.300065      -280.2790
  47   2.0000     -10.299954      -280.2760
  48   2.0000     -10.298792      -280.2444
  49   2.0000     -10.298709      -280.2421
  50   2.0000     -10.291051      -280.0337
  51   2.0000     -10.290996      -280.0322
  52   2.0000     -10.290772      -280.0261
  53   2.0000     -10.290759      -280.0258
  54   2.0000     -10.290569      -280.0206
  55   2.0000     -10.290358      -280.0149
  56   2.0000     -10.290160      -280.0095
  57   2.0000     -10.290091      -280.0076
  58   2.0000     -10.280437      -279.7449
  59   2.0000     -10.280347      -279.7425
  60   2.0000      -8.051231      -219.0851
  61   2.0000      -8.051065      -219.0806
  62   2.0000      -8.049676      -219.0428
  63   2.0000      -8.049248      -219.0312
  64   2.0000      -8.048357      -219.0069
  65   2.0000      -8.048073      -218.9992
  66   2.0000      -8.046173      -218.9475
  67   2.0000      -8.045609      -218.9322
  68   2.0000      -8.042856      -218.8572
  69   2.0000      -8.042843      -218.8569
  70   2.0000      -6.020595      -163.8287
  71   2.0000      -6.020443      -163.8246
  72   2.0000      -6.019062      -163.7870
  73   2.0000      -6.018647      -163.7757
  74   2.0000      -6.017703      -163.7500
  75   2.0000      -6.017404      -163.7419
  76   2.0000      -6.016486      -163.7169
  77   2.0000      -6.016312      -163.7122
  78   2.0000      -6.015586      -163.6924
  79   2.0000      -6.015025      -163.6771
  80   2.0000      -6.014946      -163.6750
  81   2.0000      -6.014499      -163.6628
  82   2.0000      -6.013752      -163.6425
  83   2.0000      -6.013473      -163.6349
  84   2.0000      -6.012951      -163.6207
  85   2.0000      -6.012765      -163.6157
  86   2.0000      -6.012271      -163.6022
  87   2.0000      -6.012250      -163.6017
  88   2.0000      -6.011386      -163.5781
  89   2.0000      -6.011333      -163.5767
  90   2.0000      -6.010938      -163.5659
  91   2.0000      -6.010816      -163.5626
  92   2.0000      -6.009928      -163.5385
  93   2.0000      -6.009623      -163.5302
  94   2.0000      -6.008095      -163.4886
  95   2.0000      -6.008094      -163.4885
  96   2.0000      -6.007889      -163.4830
  97   2.0000      -6.007329      -163.4677
  98   2.0000      -6.004553      -163.3922
  99   2.0000      -6.004551      -163.3921
 100   2.0000      -1.068099       -29.0645
 101   2.0000      -1.066486       -29.0206
 102   2.0000      -1.063980       -28.9524
 103   2.0000      -1.063060       -28.9273
 104   2.0000      -1.061050       -28.8726
 105   2.0000      -1.057329       -28.7714
 106   2.0000      -1.057091       -28.7649
 107   2.0000      -1.056145       -28.7392
 108   2.0000      -1.053324       -28.6624
 109   2.0000      -1.052916       -28.6513
 110   2.0000      -0.956221       -26.0201
 111   2.0000      -0.954538       -25.9743
 112   2.0000      -0.950001       -25.8508
 113   2.0000      -0.943348       -25.6698
 114   2.0000      -0.928470       -25.2649
 115   2.0000      -0.924311       -25.1518
 116   2.0000      -0.911588       -24.8056
 117   2.0000      -0.901344       -24.5268
 118   2.0000      -0.893456       -24.3122
 119   2.0000      -0.886594       -24.1255
 120   2.0000      -0.881801       -23.9950
 121   2.0000      -0.880589       -23.9620
 122   2.0000      -0.876078       -23.8393
 123   2.0000      -0.872558       -23.7435
 124   2.0000      -0.870338       -23.6831
 125   2.0000      -0.846865       -23.0444
 126   2.0000      -0.841570       -22.9003
 127   2.0000      -0.832015       -22.6403
 128   2.0000      -0.820979       -22.3400
 129   2.0000      -0.820088       -22.3157
 130   2.0000      -0.811730       -22.0883
 131   2.0000      -0.810933       -22.0666
 132   2.0000      -0.807222       -21.9656
 133   2.0000      -0.798053       -21.7161
 134   2.0000      -0.780122       -21.2282
 135   2.0000      -0.748663       -20.3722
 136   2.0000      -0.734115       -19.9763
 137   2.0000      -0.727830       -19.8053
 138   2.0000      -0.725120       -19.7315
 139   2.0000      -0.724824       -19.7235
 140   2.0000      -0.710617       -19.3369
 141   2.0000      -0.699695       -19.0397
 142   2.0000      -0.685863       -18.6633
 143   2.0000      -0.674945       -18.3662
 144   2.0000      -0.674331       -18.3495
 145   2.0000      -0.668694       -18.1961
 146   2.0000      -0.667979       -18.1766
 147   2.0000      -0.657050       -17.8792
 148   2.0000      -0.646470       -17.5914
 149   2.0000      -0.645888       -17.5755
 150   2.0000      -0.644469       -17.5369
 151   2.0000      -0.643788       -17.5183
 152   2.0000      -0.642562       -17.4850
 153   2.0000      -0.635169       -17.2838
 154   2.0000      -0.623815       -16.9749
 155   2.0000      -0.613209       -16.6863
 156   2.0000      -0.610728       -16.6188
 157   2.0000      -0.604013       -16.4360
 158   2.0000      -0.597870       -16.2689
 159   2.0000      -0.592694       -16.1280
 160   2.0000      -0.579701       -15.7745
 161   2.0000      -0.577822       -15.7233
 162   2.0000      -0.572464       -15.5775
 163   2.0000      -0.570395       -15.5212
 164   2.0000      -0.568354       -15.4657
 165   2.0000      -0.540438       -14.7061
 166   2.0000      -0.534635       -14.5482
 167   2.0000      -0.532144       -14.4804
 168   2.0000      -0.532059       -14.4781
 169   2.0000      -0.530068       -14.4239
 170   2.0000      -0.529896       -14.4192
 171   2.0000      -0.528180       -14.3725
 172   2.0000      -0.527981       -14.3671
 173   2.0000      -0.526906       -14.3378
 174   2.0000      -0.524635       -14.2761
 175   2.0000      -0.523923       -14.2567
 176   2.0000      -0.523118       -14.2348
 177   2.0000      -0.520565       -14.1653
 178   2.0000      -0.519454       -14.1351
 179   2.0000      -0.516347       -14.0505
 180   2.0000      -0.515388       -14.0244
 181   2.0000      -0.495961       -13.4958
 182   2.0000      -0.493973       -13.4417
 183   2.0000      -0.492272       -13.3954
 184   2.0000      -0.490461       -13.3461
 185   2.0000      -0.488536       -13.2937
 186   2.0000      -0.488430       -13.2909
 187   2.0000      -0.486825       -13.2472
 188   2.0000      -0.485657       -13.2154
 189   2.0000      -0.483207       -13.1487
 190   2.0000      -0.480962       -13.0876
 191   2.0000      -0.480746       -13.0818
 192   2.0000      -0.475314       -12.9339
 193   2.0000      -0.475064       -12.9272
 194   2.0000      -0.472128       -12.8473
 195   2.0000      -0.470330       -12.7983
 196   2.0000      -0.446762       -12.1570
 197   2.0000      -0.446483       -12.1494
 198   2.0000      -0.444585       -12.0978
 199   2.0000      -0.443964       -12.0809
 200   2.0000      -0.441494       -12.0137
 201   2.0000      -0.433813       -11.8046
 202   2.0000      -0.427457       -11.6317
 203   2.0000      -0.417064       -11.3489
 204   2.0000      -0.413893       -11.2626
 205   2.0000      -0.409643       -11.1470
 206   2.0000      -0.405316       -11.0292
 207   2.0000      -0.404495       -11.0069
 208   2.0000      -0.403409       -10.9773
 209   2.0000      -0.398888       -10.8543
 210   2.0000      -0.396797       -10.7974
 211   2.0000      -0.395022       -10.7491
 212   2.0000      -0.385005       -10.4765
 213   2.0000      -0.383562       -10.4373
 214   2.0000      -0.380284       -10.3481
 215   2.0000      -0.377893       -10.2830
 216   2.0000      -0.365958        -9.9582
 217   2.0000      -0.364318        -9.9136
 218   2.0000      -0.359132        -9.7725
 219   2.0000      -0.351209        -9.5569
 220   2.0000      -0.348380        -9.4799
 221   2.0000      -0.345766        -9.4088
 222   2.0000      -0.342674        -9.3246
 223   2.0000      -0.341786        -9.3005
 224   2.0000      -0.338901        -9.2220
 225   2.0000      -0.338484        -9.2106
 226   2.0000      -0.333515        -9.0754
 227   2.0000      -0.329301        -8.9607
 228   2.0000      -0.323802        -8.8111
 229   2.0000      -0.322679        -8.7805
 230   2.0000      -0.319903        -8.7050
 231   2.0000      -0.297022        -8.0824
 232   2.0000      -0.296294        -8.0626
 233   2.0000      -0.295267        -8.0346
 234   2.0000      -0.293948        -7.9987
 235   2.0000      -0.292566        -7.9611
 236   2.0000      -0.284301        -7.7362
 237   2.0000      -0.283237        -7.7073
 238   2.0000      -0.278392        -7.5754
 239   2.0000      -0.269449        -7.3321
 240   2.0000      -0.255313        -6.9474
 241   0.0000      -0.038333        -1.0431
 242   0.0000      -0.022884        -0.6227
 243   0.0000      -0.016506        -0.4492
 244   0.0000      -0.014874        -0.4047
 245   0.0000      -0.011817        -0.3215

MULLIKEN ATOMIC CHARGES
-----------------------
   0 C :   -0.093568
   1 C :   -0.025850
   2 C :    0.018090
   3 N :   -0.032885
   4 C :    0.012189
   5 S :    0.083472
   6 C :   -0.029437
   7 C :   -0.117620
   8 C :    0.069728
   9 N :   -0.059706
  10 C :    0.003894
  11 S :    0.112162
  12 C :   -0.049590
  13 C :   -0.108739
  14 C :   -0.006568
  15 N :   -0.048588
  16 C :    0.011442
  17 S :    0.118790
  18 C :   -0.030833
  19 C :   -0.083424
  20 C :    0.030617
  21 N :   -0.045010
  22 C :    0.008467
  23 S :    0.127908
  24 C :   -0.032930
  25 C :   -0.084178
  26 C :   -0.008009
  27 N :   -0.055014
  28 C :    0.013149
  29 S :    0.130652
  30 C :   -0.034146
  31 C :   -0.086133
  32 C :   -0.003948
  33 N :   -0.056160
  34 C :    0.012818
  35 S :    0.133310
  36 C :   -0.033337
  37 C :   -0.081159
  38 C :    0.030772
  39 N :   -0.040951
  40 C :    0.009968
  41 S :    0.128070
  42 C :   -0.054847
  43 C :   -0.107867
  44 C :   -0.003541
  45 N :   -0.046621
  46 C :    0.012941
  47 S :    0.118972
  48 C :   -0.038951
  49 C :   -0.117115
  50 C :    0.075439
  51 N :   -0.060361
  52 C :    0.003579
  53 S :    0.115647
  54 C :   -0.100685
  55 C :   -0.025239
  56 C :    0.025088
  57 N :   -0.032570
  58 C :    0.011208
  59 S :    0.083555
  60 H :   -0.024345
  61 H :    0.039025
  62 H :    0.039842
  63 H :    0.041304
  64 H :    0.036401
  65 H :    0.036603
  66 H :    0.036736
  67 H :    0.034185
  68 H :    0.039252
  69 H :    0.040098
  70 H :   -0.024044
  71 H :    0.038593
Sum of atomic charges:    0.0000000

LOEWDIN ATOMIC CHARGES
----------------------
   0 C :   -0.030563
   1 C :   -0.168541
   2 C :   -0.020680
   3 N :   -0.077477
   4 C :   -0.100668
   5 S :    0.373596
   6 C :   -0.038047
   7 C :   -0.169257
   8 C :   -0.034305
   9 N :   -0.090153
  10 C :   -0.105790
  11 S :    0.384559
  12 C :   -0.037939
  13 C :   -0.168178
  14 C :   -0.037547
  15 N :   -0.095801
  16 C :   -0.104397
  17 S :    0.390814
  18 C :   -0.036418
  19 C :   -0.152154
  20 C :   -0.017104
  21 N :   -0.087506
  22 C :   -0.105111
  23 S :    0.413065
  24 C :   -0.037528
  25 C :   -0.153266
  26 C :   -0.034444
  27 N :   -0.103010
  28 C :   -0.106194
  29 S :    0.415625
  30 C :   -0.037700
  31 C :   -0.153581
  32 C :   -0.033981
  33 N :   -0.102596
  34 C :   -0.105838
  35 S :    0.417745
  36 C :   -0.036589
  37 C :   -0.152027
  38 C :   -0.017248
  39 N :   -0.087265
  40 C :   -0.104617
  41 S :    0.413407
  42 C :   -0.038260
  43 C :   -0.167805
  44 C :   -0.036809
  45 N :   -0.096221
  46 C :   -0.104189
  47 S :    0.391039
  48 C :   -0.038050
  49 C :   -0.169442
  50 C :   -0.033910
  51 N :   -0.090661
  52 C :   -0.105600
  53 S :    0.386881
  54 C :   -0.030855
  55 C :   -0.168759
  56 C :   -0.021005
  57 N :   -0.078511
  58 C :   -0.101545
  59 S :    0.373895
  60 H :    0.038008
  61 H :    0.019141
  62 H :    0.018978
  63 H :    0.019962
  64 H :    0.018013
  65 H :    0.018493
  66 H :    0.018599
  67 H :    0.017636
  68 H :    0.019569
  69 H :    0.019128
  70 H :    0.038041
  71 H :    0.018944

  Mayer bond orders larger than 0.100000
B(  0-C ,  1-C ) :   1.3250 B(  0-C ,  6-C ) :   0.1159 B(  0-C ,  8-C ) :   1.3535
B(  0-C , 60-H ) :   1.0265 B(  1-C ,  2-C ) :   1.2845 B(  1-C ,  5-S ) :   1.0492
B(  2-C ,  3-N ) :   1.3288 B(  2-C ,  6-C ) :   1.4256 B(  3-N ,  4-C ) :   1.7762
B(  3-N ,  5-S ) :   0.1091 B(  4-C ,  5-S ) :   1.1036 B(  4-C , 61-H ) :   0.9626
B(  6-C ,  7-C ) :   1.4506 B(  6-C , 12-C ) :   0.9097 B(  7-C ,  8-C ) :   1.2670
B(  7-C , 11-S ) :   1.0675 B(  8-C ,  9-N ) :   1.2856 B(  9-N , 10-C ) :   1.7899
B(  9-N , 11-S ) :   0.1067 B( 10-C , 11-S ) :   1.0986 B( 10-C , 62-H ) :   0.9630
B( 12-C , 13-C ) :   1.4449 B( 12-C , 18-C ) :   0.1061 B( 12-C , 20-C ) :   1.4121
B( 13-C , 14-C ) :   1.2575 B( 13-C , 17-S ) :   1.0649 B( 14-C , 15-N ) :   1.3297
B( 14-C , 18-C ) :   1.4100 B( 15-N , 16-C ) :   1.7589 B( 15-N , 17-S ) :   0.1070
B( 16-C , 17-S ) :   1.1065 B( 16-C , 63-H ) :   0.9627 B( 18-C , 19-C ) :   1.4409
B( 18-C , 24-C ) :   0.9071 B( 19-C , 20-C ) :   1.2695 B( 19-C , 23-S ) :   1.0689
B( 20-C , 21-N ) :   1.3364 B( 21-N , 22-C ) :   1.7596 B( 21-N , 23-S ) :   0.1098
B( 22-C , 23-S ) :   1.1197 B( 22-C , 64-H ) :   0.9624 B( 24-C , 25-C ) :   1.4415
B( 24-C , 30-C ) :   0.1059 B( 24-C , 32-C ) :   1.4032 B( 25-C , 26-C ) :   1.2664
B( 25-C , 29-S ) :   1.0686 B( 26-C , 27-N ) :   1.3317 B( 26-C , 30-C ) :   1.4042
B( 27-N , 28-C ) :   1.7455 B( 27-N , 29-S ) :   0.1087 B( 28-C , 29-S ) :   1.1270
B( 28-C , 65-H ) :   0.9627 B( 30-C , 31-C ) :   1.4433 B( 30-C , 36-C ) :   0.9079
B( 31-C , 32-C ) :   1.2652 B( 31-C , 35-S ) :   1.0695 B( 32-C , 33-N ) :   1.3320
B( 33-N , 34-C ) :   1.7453 B( 33-N , 35-S ) :   0.1086 B( 34-C , 35-S ) :   1.1279
B( 34-C , 66-H ) :   0.9627 B( 36-C , 37-C ) :   1.4380 B( 36-C , 42-C ) :   0.1076
B( 36-C , 44-C ) :   1.4123 B( 37-C , 38-C ) :   1.2695 B( 37-C , 41-S ) :   1.0696
B( 38-C , 39-N ) :   1.3372 B( 38-C , 42-C ) :   1.4137 B( 39-N , 40-C ) :   1.7587
B( 39-N , 41-S ) :   0.1100 B( 40-C , 41-S ) :   1.1206 B( 40-C , 67-H ) :   0.9626
B( 42-C , 43-C ) :   1.4473 B( 42-C , 48-C ) :   0.9082 B( 43-C , 44-C ) :   1.2568
B( 43-C , 47-S ) :   1.0657 B( 44-C , 45-N ) :   1.3306 B( 45-N , 46-C ) :   1.7571
B( 45-N , 47-S ) :   0.1069 B( 46-C , 47-S ) :   1.1070 B( 46-C , 68-H ) :   0.9628
B( 48-C , 49-C ) :   1.4520 B( 48-C , 54-C ) :   0.1165 B( 48-C , 56-C ) :   1.4296
B( 49-C , 50-C ) :   1.2665 B( 49-C , 53-S ) :   1.0682 B( 50-C , 51-N ) :   1.2845
B( 50-C , 54-C ) :   1.3509 B( 51-N , 52-C ) :   1.7899 B( 51-N , 53-S ) :   0.1067
B( 52-C , 53-S ) :   1.0994 B( 52-C , 69-H ) :   0.9626 B( 54-C , 55-C ) :   1.3222
B( 54-C , 70-H ) :   1.0282 B( 55-C , 56-C ) :   1.2852 B( 55-C , 59-S ) :   1.0490
B( 56-C , 57-N ) :   1.3267 B( 57-N , 58-C ) :   1.7770 B( 57-N , 59-S ) :   0.1091
B( 58-C , 59-S ) :   1.1036 B( 58-C , 71-H ) :   0.9622

-----------------------------------------------------------------------------
         ABSORPTION SPECTRUM VIA TRANSITION ELECTRIC DIPOLE MOMENTS
-----------------------------------------------------------------------------
State   Energy  Wavelength   fosc         T2         TX        TY        TZ
        (cm-1)    (nm)                  (au**2)     (au)      (au)      (au)
-----------------------------------------------------------------------------
   0   30174.6    331.4   1.171206912  12.77815  -0.21495   3.46338   0.85845
   1   33496.4    298.5   0.018919176   0.18594  -0.21843  -0.11838   0.35244
   2   33927.1    294.7   0.000709647   0.00689  -0.00096   0.06771   0.04797
   3   34658.3    288.5   0.014278493   0.13563   0.35947   0.03650  -0.07124
   4   35201.2    284.1   0.066328096   0.62032  -0.04884  -0.77496  -0.13177
   5   35345.4    282.9   0.070765595   0.65912   0.10763  -0.77350   0.22189
   6   35523.3    281.5   0.028177436   0.26113   0.50487   0.06234   0.04848
   7   36298.1    275.5   0.031524671   0.28592   0.03401   0.52384   0.10175
   8   36442.6    274.4   0.006122422   0.05531  -0.03446  -0.20344   0.11284
   9   37187.3    268.9   0.084415397   0.74731   0.23494  -0.66112   0.50501
  10   37957.0    263.5   0.037037851   0.32124   0.49937   0.12197  -0.23872
  11   38811.9    257.7   0.030790918   0.26118  -0.48331   0.16604  -0.00396
  12   39304.1    254.4   0.106666110   0.89344   0.12238   0.88127  -0.31910
  13   39674.9    252.0   0.150626351   1.24986  -0.30548  -1.07285   0.07442

FINAL SINGLE POINT ENERGY     -6057.215638699462

DIPOLE MOMENT
-------------
                                X             Y             Z
Electronic contribution:      0.03394      -0.02507       0.17745
Nuclear contribution   :      0.10274       0.03105      -0.07780
                        -----------------------------------------
Total Dipole Moment    :      0.13668       0.00598       0.09965
                        -----------------------------------------
Magnitude (a.u.)       :      0.16926
Magnitude (Debye)      :      0.43022

Rotational constants in cm-1:     0.003206     0.000425     0.000416
Rotational constants in MHz :    96.100935    12.748490    12.470929

                             ****ORCA TERMINATED NORMALLY****
TOTAL RUN TIME: 0 days 0 hours 6 minutes 41 seconds 303 msec
