                         Program Version 4.2.0 -  RELEASE  -
|  1> # ORCA input file
|  2> # SCF done       -194.586195554449          0.019296820912
|  3> ! CAM-B3LYP def2-SVP def2/J RIJCOSX Grid4 TightSCF
|  4> %maxcore 5000
|  5> %tddft
|  6>     Mode sTDDFT
|  7>     Ethresh 5.0
|  8>     maxcore 5000
|  9> end
| 10>
| 11> %pal
| 12>   nprocs 6
| 13>   end
| 14> * xyz 0 1
| 15>    C        2.38580        -6.30786         3.18630
| 16>    O        2.12886        -5.12244         3.04903
| 17>    C        2.90435        -6.91098         4.43172
| 18>    C        3.29939        -8.23475         4.18100
| 19>    C        3.79452        -9.00974         5.21841
| 20>    C        3.89470        -8.44611         6.48313
| 21>    C        3.51495        -7.12986         6.70205
| 22>    C        3.01096        -6.33548         5.68080
| 23>   Br        3.71389        -6.38903         8.43559
| 24>    C        3.06743        -8.52283         2.76680
| 25>    C        3.53134        -9.63890         2.11690
| 26>    C        4.26364       -10.66746         2.74642
| 27>    N        4.87017       -11.53981         3.18420
| 28>    C        3.42149        -9.90767         0.73635
| 29>    N        3.40066       -10.20947        -0.37248
| 30>    C        2.34676        -7.39721         2.19617
| 31>    C        1.71620        -7.47888         0.97011
| 32>    C        0.83422        -6.61900         0.29599
| 33>    C        0.38780        -5.38385         0.72973
| 34>    C       -0.55306        -4.61006         0.08094
| 35>    C       -1.04721        -4.93368        -1.26276
| 36>    C       -0.75113        -6.08996        -1.89982
| 37>    S        0.23628        -7.31821        -1.22754
| 38>    C       -1.80928        -3.80170        -1.65632
| 39>    C       -1.80727        -2.84292        -0.63076
| 40>    C       -2.56778        -1.70048        -0.97082
| 41>    C       -3.10799        -1.81053        -2.21045
| 42>    S       -2.72497        -3.29925        -3.01761
| 43>    C       -1.06031        -3.34743         0.47606
| 44>    C       -0.78697        -2.73837         1.72464
| 45>    C       -0.58531        -3.47696         2.84978
| 46>    C        0.01384        -3.06447         4.06339
| 47>    S       -0.24812        -4.03673         5.47620
| 48>    C        0.82334        -3.05454         6.43820
| 49>    C        1.33643        -2.00555         5.67417
| 50>    C        0.91394        -2.03700         4.33541
| 51>    C        1.51522        -1.16318         3.26451
| 52>    N        1.78159        -1.95371         2.07238
| 53>    C        2.76939        -0.46678         3.81478
| 54>    C        2.45281         0.17166         5.15594
| 55>    C        2.22123        -0.91332         6.21841
| 56>    N        1.64209        -0.38287         7.44684
| 57>    C        1.05740        -3.51359         7.76093
| 58>    C        1.98420        -3.04979         8.63533
| 59>    C        2.24904        -3.58229         9.92910
| 60>    C        1.51879        -4.55751        10.57441
| 61>    C        1.82606        -5.07142        11.82807
| 62>    C        3.06825        -4.71458        12.51586
| 63>    C        3.91949        -3.75303        12.08891
| 64>    S        3.66272        -2.84774        10.66434
| 65>    C        3.13664        -5.56305        13.65507
| 66>    C        2.01310        -6.38674        13.69600
| 67>    C        2.02339        -7.24512        14.81649
| 68>    C        3.13379        -7.05705        15.57779
| 69>    S        4.20244        -5.83714        14.97408
| 70>    C        1.15498        -6.06615        12.58244
| 71>    C       -0.09926        -6.65176        12.36860
| 72>    C       -1.13961        -6.13654        11.63407
| 73>    C       -2.37704        -6.77695        11.48248
| 74>    C       -2.66193        -8.11558        11.63908
| 75>    C       -4.03233        -8.54443        11.98178
| 76>    O       -5.04514        -7.87906        11.95588
| 77>    C       -3.89273        -9.95532        12.42278
| 78>    C       -2.56510       -10.37362        12.22985
| 79>    C       -1.81882        -9.27886        11.60658
| 80>    C       -0.64637        -9.42537        10.90032
| 81>    C        0.08671       -10.62271        10.84122
| 82>    N        0.71795       -11.57563        10.79669
| 83>    C       -0.09093        -8.41445        10.09512
| 84>    N        0.37234        -7.64584         9.37948
| 85>    C       -2.18237       -11.64587        12.61895
| 86>    C       -3.13100       -12.48269        13.19053
| 87>    C       -4.43894       -12.05424        13.35789
| 88>    C       -4.84505       -10.78275        12.97757
| 89>   Br       -5.70544       -13.24092        14.13784
| 90>    H        4.09481       -10.03391         5.06963
| 91>    H        4.27275        -9.03738         7.30310
| 92>    H        2.70854        -5.31373         5.85284
| 93>    H        1.86245        -8.41817         0.44877
| 94>    H        0.83477        -4.98736         1.62911
| 95>    H       -1.12905        -6.32909        -2.88191
| 96>    H       -2.70651        -0.84608        -0.33394
| 97>    H       -3.72583        -1.10097        -2.72487
| 98>    H       -0.73276        -1.66236         1.75359
| 99>    H       -0.91510        -4.50856         2.84158
|100>    H        0.79091        -0.38270         2.98178
|101>    H        2.23322        -2.82694         2.31975
|102>    H        2.38717        -1.44231         1.44234
|103>    H        3.10675         0.28643         3.09892
|104>    H        3.56783        -1.20390         3.93680
|105>    H        1.55115         0.78430         5.06098
|106>    H        3.26960         0.82125         5.47888
|107>    H        3.19646        -1.34805         6.48157
|108>    H        0.70604        -0.03699         7.27014
|109>    H        2.20124         0.39055         7.78929
|110>    H        0.45951        -4.37225         8.03682
|111>    H        2.59914        -2.21243         8.35574
|112>    H        0.67832        -4.98034        10.04651
|113>    H        4.81427        -3.48837        12.62982
|114>    H        1.26041        -7.96434        15.05373
|115>    H        3.40435        -7.56797        16.48101
|116>    H       -0.28766        -7.55916        12.93134
|117>    H       -1.06742        -5.12041        11.26617
|118>    H       -3.24032        -6.14866        11.29295
|119>    H       -1.16883       -11.99372        12.49863
|120>    H       -2.84929       -13.47634        13.50671
|121>    H       -5.86029       -10.44803        13.10766
|122> *
|123>
|124>                          ****END OF INPUT****

CARTESIAN COORDINATES (ANGSTROEM)
---------------------------------
  C      2.385800   -6.307860    3.186300
  O      2.128860   -5.122440    3.049030
  C      2.904350   -6.910980    4.431720
  C      3.299390   -8.234750    4.181000
  C      3.794520   -9.009740    5.218410
  C      3.894700   -8.446110    6.483130
  C      3.514950   -7.129860    6.702050
  C      3.010960   -6.335480    5.680800
  Br     3.713890   -6.389030    8.435590
  C      3.067430   -8.522830    2.766800
  C      3.531340   -9.638900    2.116900
  C      4.263640  -10.667460    2.746420
  N      4.870170  -11.539810    3.184200
  C      3.421490   -9.907670    0.736350
  N      3.400660  -10.209470   -0.372480
  C      2.346760   -7.397210    2.196170
  C      1.716200   -7.478880    0.970110
  C      0.834220   -6.619000    0.295990
  C      0.387800   -5.383850    0.729730
  C     -0.553060   -4.610060    0.080940
  C     -1.047210   -4.933680   -1.262760
  C     -0.751130   -6.089960   -1.899820
  S      0.236280   -7.318210   -1.227540
  C     -1.809280   -3.801700   -1.656320
  C     -1.807270   -2.842920   -0.630760
  C     -2.567780   -1.700480   -0.970820
  C     -3.107990   -1.810530   -2.210450
  S     -2.724970   -3.299250   -3.017610
  C     -1.060310   -3.347430    0.476060
  C     -0.786970   -2.738370    1.724640
  C     -0.585310   -3.476960    2.849780
  C      0.013840   -3.064470    4.063390
  S     -0.248120   -4.036730    5.476200
  C      0.823340   -3.054540    6.438200
  C      1.336430   -2.005550    5.674170
  C      0.913940   -2.037000    4.335410
  C      1.515220   -1.163180    3.264510
  N      1.781590   -1.953710    2.072380
  C      2.769390   -0.466780    3.814780
  C      2.452810    0.171660    5.155940
  C      2.221230   -0.913320    6.218410
  N      1.642090   -0.382870    7.446840
  C      1.057400   -3.513590    7.760930
  C      1.984200   -3.049790    8.635330
  C      2.249040   -3.582290    9.929100
  C      1.518790   -4.557510   10.574410
  C      1.826060   -5.071420   11.828070
  C      3.068250   -4.714580   12.515860
  C      3.919490   -3.753030   12.088910
  S      3.662720   -2.847740   10.664340
  C      3.136640   -5.563050   13.655070
  C      2.013100   -6.386740   13.696000
  C      2.023390   -7.245120   14.816490
  C      3.133790   -7.057050   15.577790
  S      4.202440   -5.837140   14.974080
  C      1.154980   -6.066150   12.582440
  C     -0.099260   -6.651760   12.368600
  C     -1.139610   -6.136540   11.634070
  C     -2.377040   -6.776950   11.482480
  C     -2.661930   -8.115580   11.639080
  C     -4.032330   -8.544430   11.981780
  O     -5.045140   -7.879060   11.955880
  C     -3.892730   -9.955320   12.422780
  C     -2.565100  -10.373620   12.229850
  C     -1.818820   -9.278860   11.606580
  C     -0.646370   -9.425370   10.900320
  C      0.086710  -10.622710   10.841220
  N      0.717950  -11.575630   10.796690
  C     -0.090930   -8.414450   10.095120
  N      0.372340   -7.645840    9.379480
  C     -2.182370  -11.645870   12.618950
  C     -3.131000  -12.482690   13.190530
  C     -4.438940  -12.054240   13.357890
  C     -4.845050  -10.782750   12.977570
  Br    -5.705440  -13.240920   14.137840
  H      4.094810  -10.033910    5.069630
  H      4.272750   -9.037380    7.303100
  H      2.708540   -5.313730    5.852840
  H      1.862450   -8.418170    0.448770
  H      0.834770   -4.987360    1.629110
  H     -1.129050   -6.329090   -2.881910
  H     -2.706510   -0.846080   -0.333940
  H     -3.725830   -1.100970   -2.724870
  H     -0.732760   -1.662360    1.753590
  H     -0.915100   -4.508560    2.841580
  H      0.790910   -0.382700    2.981780
  H      2.233220   -2.826940    2.319750
  H      2.387170   -1.442310    1.442340
  H      3.106750    0.286430    3.098920
  H      3.567830   -1.203900    3.936800
  H      1.551150    0.784300    5.060980
  H      3.269600    0.821250    5.478880
  H      3.196460   -1.348050    6.481570
  H      0.706040   -0.036990    7.270140
  H      2.201240    0.390550    7.789290
  H      0.459510   -4.372250    8.036820
  H      2.599140   -2.212430    8.355740
  H      0.678320   -4.980340   10.046510
  H      4.814270   -3.488370   12.629820
  H      1.260410   -7.964340   15.053730
  H      3.404350   -7.567970   16.481010
  H     -0.287660   -7.559160   12.931340
  H     -1.067420   -5.120410   11.266170
  H     -3.240320   -6.148660   11.292950
  H     -1.168830  -11.993720   12.498630
  H     -2.849290  -13.476340   13.506710
  H     -5.860290  -10.448030   13.107660

 Total Charge           Charge          ....    0
 Multiplicity           Mult            ....    1
 Number of Electrons    NEL             ....  600
 Basis Dimension        Dim             .... 1266

ORBITAL ENERGIES
----------------

  NO   OCC          E(Eh)            E(eV)
   0   2.0000    -482.861670    -13139.3340
   1   2.0000    -482.861021    -13139.3164
   2   2.0000     -88.984392     -2421.3884
   3   2.0000     -88.970816     -2421.0190
   4   2.0000     -88.963642     -2420.8238
   5   2.0000     -88.957847     -2420.6661
   6   2.0000     -88.954843     -2420.5843
   7   2.0000     -62.538911     -1701.7703
   8   2.0000     -62.538730     -1701.7654
   9   2.0000     -56.372804     -1533.9820
  10   2.0000     -56.372551     -1533.9751
  11   2.0000     -56.370234     -1533.9121
  12   2.0000     -56.370174     -1533.9104
  13   2.0000     -56.370054     -1533.9072
  14   2.0000     -56.370047     -1533.9069
  15   2.0000     -19.221050      -523.0314
  16   2.0000     -19.198420      -522.4156
  17   2.0000     -14.409615      -392.1056
  18   2.0000     -14.405632      -391.9972
  19   2.0000     -14.402196      -391.9037
  20   2.0000     -14.397373      -391.7724
  21   2.0000     -14.396281      -391.7427
  22   2.0000     -14.382553      -391.3692
  23   2.0000     -10.371484      -282.2224
  24   2.0000     -10.349968      -281.6369
  25   2.0000     -10.335304      -281.2379
  26   2.0000     -10.334428      -281.2141
  27   2.0000     -10.333845      -281.1982
  28   2.0000     -10.332568      -281.1635
  29   2.0000     -10.332515      -281.1620
  30   2.0000     -10.331308      -281.1292
  31   2.0000     -10.330267      -281.1009
  32   2.0000     -10.325806      -280.9795
  33   2.0000     -10.321340      -280.8580
  34   2.0000     -10.318852      -280.7903
  35   2.0000     -10.318077      -280.7692
  36   2.0000     -10.312580      -280.6196
  37   2.0000     -10.311251      -280.5834
  38   2.0000     -10.309113      -280.5252
  39   2.0000     -10.305584      -280.4292
  40   2.0000     -10.305555      -280.4284
  41   2.0000     -10.305439      -280.4252
  42   2.0000     -10.305222      -280.4193
  43   2.0000     -10.303665      -280.3770
  44   2.0000     -10.301912      -280.3293
  45   2.0000     -10.301381      -280.3148
  46   2.0000     -10.301214      -280.3103
  47   2.0000     -10.299720      -280.2696
  48   2.0000     -10.299193      -280.2553
  49   2.0000     -10.299170      -280.2547
  50   2.0000     -10.298318      -280.2315
  51   2.0000     -10.297021      -280.1962
  52   2.0000     -10.297005      -280.1957
  53   2.0000     -10.295468      -280.1539
  54   2.0000     -10.295413      -280.1524
  55   2.0000     -10.294622      -280.1309
  56   2.0000     -10.294306      -280.1223
  57   2.0000     -10.294082      -280.1162
  58   2.0000     -10.293641      -280.1042
  59   2.0000     -10.293015      -280.0872
  60   2.0000     -10.292307      -280.0679
  61   2.0000     -10.291166      -280.0369
  62   2.0000     -10.290590      -280.0212
  63   2.0000     -10.290283      -280.0128
  64   2.0000     -10.288904      -279.9753
  65   2.0000     -10.287898      -279.9479
  66   2.0000     -10.287570      -279.9390
  67   2.0000     -10.285935      -279.8945
  68   2.0000     -10.284894      -279.8662
  69   2.0000     -10.283879      -279.8386
  70   2.0000     -10.283312      -279.8232
  71   2.0000     -10.282439      -279.7994
  72   2.0000     -10.281112      -279.7633
  73   2.0000     -10.281075      -279.7623
  74   2.0000     -10.279459      -279.7183
  75   2.0000     -10.277646      -279.6690
  76   2.0000     -10.276173      -279.6289
  77   2.0000     -10.275871      -279.6207
  78   2.0000     -10.274972      -279.5962
  79   2.0000     -10.272622      -279.5322
  80   2.0000     -10.272031      -279.5162
  81   2.0000     -10.270371      -279.4710
  82   2.0000     -10.270103      -279.4637
  83   2.0000      -8.768100      -238.5921
  84   2.0000      -8.767988      -238.5891
  85   2.0000      -8.079841      -219.8636
  86   2.0000      -8.066196      -219.4923
  87   2.0000      -8.059185      -219.3016
  88   2.0000      -8.053259      -219.1403
  89   2.0000      -8.050520      -219.0658
  90   2.0000      -6.603988      -179.7036
  91   2.0000      -6.603765      -179.6976
  92   2.0000      -6.590148      -179.3271
  93   2.0000      -6.590095      -179.3256
  94   2.0000      -6.589798      -179.3175
  95   2.0000      -6.589754      -179.3163
  96   2.0000      -6.049079      -164.6038
  97   2.0000      -6.044626      -164.4826
  98   2.0000      -6.042275      -164.4187
  99   2.0000      -6.035724      -164.2404
 100   2.0000      -6.031293      -164.1198
 101   2.0000      -6.028647      -164.0478
 102   2.0000      -6.027983      -164.0298
 103   2.0000      -6.024353      -163.9310
 104   2.0000      -6.022700      -163.8860
 105   2.0000      -6.021165      -163.8442
 106   2.0000      -6.019573      -163.8009
 107   2.0000      -6.018483      -163.7712
 108   2.0000      -6.015658      -163.6944
 109   2.0000      -6.015259      -163.6835
 110   2.0000      -6.012868      -163.6185
 111   2.0000      -2.719931       -74.0131
 112   2.0000      -2.719702       -74.0068
 113   2.0000      -2.716112       -73.9092
 114   2.0000      -2.715963       -73.9051
 115   2.0000      -2.715861       -73.9023
 116   2.0000      -2.715678       -73.8973
 117   2.0000      -2.704861       -73.6030
 118   2.0000      -2.704852       -73.6028
 119   2.0000      -2.704838       -73.6024
 120   2.0000      -2.704827       -73.6021
 121   2.0000      -1.133616       -30.8473
 122   2.0000      -1.112633       -30.2763
 123   2.0000      -1.013239       -27.5716
 124   2.0000      -1.011544       -27.5255
 125   2.0000      -1.010971       -27.5099
 126   2.0000      -1.007656       -27.4197
 127   2.0000      -1.004797       -27.3419
 128   2.0000      -0.994549       -27.0630
 129   2.0000      -0.987322       -26.8664
 130   2.0000      -0.985478       -26.8162
 131   2.0000      -0.980611       -26.6838
 132   2.0000      -0.980490       -26.6805
 133   2.0000      -0.978073       -26.6147
 134   2.0000      -0.975274       -26.5386
 135   2.0000      -0.966668       -26.3044
 136   2.0000      -0.955928       -26.0121
 137   2.0000      -0.950570       -25.8663
 138   2.0000      -0.934908       -25.4401
 139   2.0000      -0.934030       -25.4162
 140   2.0000      -0.915092       -24.9009
 141   2.0000      -0.909848       -24.7582
 142   2.0000      -0.902272       -24.5521
 143   2.0000      -0.901105       -24.5203
 144   2.0000      -0.893244       -24.3064
 145   2.0000      -0.891286       -24.2531
 146   2.0000      -0.885008       -24.0823
 147   2.0000      -0.880682       -23.9646
 148   2.0000      -0.874599       -23.7990
 149   2.0000      -0.863328       -23.4924
 150   2.0000      -0.855504       -23.2795
 151   2.0000      -0.854379       -23.2488
 152   2.0000      -0.847947       -23.0738
 153   2.0000      -0.843418       -22.9506
 154   2.0000      -0.841339       -22.8940
 155   2.0000      -0.831239       -22.6192
 156   2.0000      -0.825855       -22.4727
 157   2.0000      -0.821054       -22.3420
 158   2.0000      -0.811949       -22.0942
 159   2.0000      -0.803510       -21.8646
 160   2.0000      -0.787374       -21.4255
 161   2.0000      -0.785974       -21.3874
 162   2.0000      -0.773337       -21.0436
 163   2.0000      -0.763559       -20.7775
 164   2.0000      -0.760200       -20.6861
 165   2.0000      -0.751234       -20.4421
 166   2.0000      -0.749121       -20.3846
 167   2.0000      -0.737080       -20.0570
 168   2.0000      -0.727167       -19.7872
 169   2.0000      -0.722060       -19.6482
 170   2.0000      -0.716380       -19.4937
 171   2.0000      -0.707429       -19.2501
 172   2.0000      -0.697786       -18.9877
 173   2.0000      -0.690869       -18.7995
 174   2.0000      -0.687930       -18.7195
 175   2.0000      -0.684931       -18.6379
 176   2.0000      -0.677553       -18.4372
 177   2.0000      -0.669068       -18.2063
 178   2.0000      -0.667922       -18.1751
 179   2.0000      -0.664252       -18.0752
 180   2.0000      -0.659391       -17.9430
 181   2.0000      -0.657261       -17.8850
 182   2.0000      -0.648035       -17.6339
 183   2.0000      -0.640382       -17.4257
 184   2.0000      -0.636362       -17.3163
 185   2.0000      -0.634653       -17.2698
 186   2.0000      -0.629266       -17.1232
 187   2.0000      -0.620724       -16.8908
 188   2.0000      -0.613374       -16.6908
 189   2.0000      -0.610620       -16.6158
 190   2.0000      -0.601707       -16.3733
 191   2.0000      -0.599792       -16.3212
 192   2.0000      -0.596182       -16.2229
 193   2.0000      -0.591956       -16.1079
 194   2.0000      -0.589112       -16.0305
 195   2.0000      -0.586225       -15.9520
 196   2.0000      -0.581933       -15.8352
 197   2.0000      -0.575006       -15.6467
 198   2.0000      -0.574343       -15.6287
 199   2.0000      -0.568535       -15.4706
 200   2.0000      -0.563591       -15.3361
 201   2.0000      -0.562745       -15.3131
 202   2.0000      -0.558052       -15.1854
 203   2.0000      -0.554905       -15.0997
 204   2.0000      -0.551472       -15.0063
 205   2.0000      -0.544628       -14.8201
 206   2.0000      -0.540481       -14.7072
 207   2.0000      -0.536413       -14.5965
 208   2.0000      -0.535277       -14.5656
 209   2.0000      -0.534052       -14.5323
 210   2.0000      -0.531666       -14.4674
 211   2.0000      -0.530048       -14.4233
 212   2.0000      -0.524142       -14.2626
 213   2.0000      -0.522435       -14.2162
 214   2.0000      -0.522218       -14.2103
 215   2.0000      -0.521415       -14.1884
 216   2.0000      -0.519120       -14.1260
 217   2.0000      -0.517095       -14.0709
 218   2.0000      -0.514372       -13.9968
 219   2.0000      -0.513067       -13.9613
 220   2.0000      -0.512599       -13.9485
 221   2.0000      -0.511185       -13.9100
 222   2.0000      -0.505712       -13.7611
 223   2.0000      -0.503335       -13.6964
 224   2.0000      -0.501195       -13.6382
 225   2.0000      -0.497736       -13.5441
 226   2.0000      -0.491555       -13.3759
 227   2.0000      -0.488758       -13.2998
 228   2.0000      -0.485301       -13.2057
 229   2.0000      -0.483978       -13.1697
 230   2.0000      -0.483019       -13.1436
 231   2.0000      -0.477269       -12.9871
 232   2.0000      -0.475650       -12.9431
 233   2.0000      -0.475097       -12.9280
 234   2.0000      -0.473354       -12.8806
 235   2.0000      -0.470427       -12.8010
 236   2.0000      -0.468659       -12.7529
 237   2.0000      -0.466749       -12.7009
 238   2.0000      -0.464948       -12.6519
 239   2.0000      -0.463928       -12.6241
 240   2.0000      -0.460980       -12.5439
 241   2.0000      -0.457318       -12.4443
 242   2.0000      -0.455669       -12.3994
 243   2.0000      -0.454299       -12.3621
 244   2.0000      -0.450983       -12.2719
 245   2.0000      -0.446294       -12.1443
 246   2.0000      -0.443692       -12.0735
 247   2.0000      -0.442818       -12.0497
 248   2.0000      -0.442030       -12.0283
 249   2.0000      -0.441315       -12.0088
 250   2.0000      -0.439363       -11.9557
 251   2.0000      -0.438396       -11.9294
 252   2.0000      -0.437247       -11.8981
 253   2.0000      -0.435600       -11.8533
 254   2.0000      -0.434880       -11.8337
 255   2.0000      -0.434170       -11.8144
 256   2.0000      -0.429734       -11.6936
 257   2.0000      -0.428315       -11.6550
 258   2.0000      -0.423396       -11.5212
 259   2.0000      -0.422944       -11.5089
 260   2.0000      -0.420557       -11.4439
 261   2.0000      -0.419449       -11.4138
 262   2.0000      -0.419007       -11.4018
 263   2.0000      -0.416202       -11.3254
 264   2.0000      -0.414510       -11.2794
 265   2.0000      -0.413227       -11.2445
 266   2.0000      -0.410083       -11.1589
 267   2.0000      -0.409087       -11.1318
 268   2.0000      -0.408247       -11.1090
 269   2.0000      -0.407166       -11.0796
 270   2.0000      -0.404909       -11.0181
 271   2.0000      -0.403489       -10.9795
 272   2.0000      -0.402706       -10.9582
 273   2.0000      -0.400127       -10.8880
 274   2.0000      -0.398462       -10.8427
 275   2.0000      -0.381536       -10.3821
 276   2.0000      -0.379589       -10.3292
 277   2.0000      -0.368435       -10.0256
 278   2.0000      -0.357934        -9.7399
 279   2.0000      -0.356119        -9.6905
 280   2.0000      -0.354441        -9.6448
 281   2.0000      -0.350963        -9.5502
 282   2.0000      -0.343330        -9.3425
 283   2.0000      -0.340330        -9.2609
 284   2.0000      -0.339542        -9.2394
 285   2.0000      -0.337115        -9.1734
 286   2.0000      -0.334798        -9.1103
 287   2.0000      -0.324468        -8.8292
 288   2.0000      -0.322567        -8.7775
 289   2.0000      -0.321544        -8.7497
 290   2.0000      -0.312502        -8.5036
 291   2.0000      -0.305645        -8.3170
 292   2.0000      -0.301139        -8.1944
 293   2.0000      -0.298919        -8.1340
 294   2.0000      -0.293107        -7.9758
 295   2.0000      -0.292161        -7.9501
 296   2.0000      -0.280453        -7.6315
 297   2.0000      -0.265400        -7.2219
 298   2.0000      -0.237753        -6.4696
 299   2.0000      -0.220734        -6.0065
 300   0.0000      -0.098841        -2.6896
 301   0.0000      -0.086481        -2.3533
 302   0.0000      -0.063599        -1.7306
 303   0.0000      -0.054114        -1.4725
 304   0.0000      -0.044646        -1.2149

MULLIKEN ATOMIC CHARGES
-----------------------
   0 C :    0.149372
   1 O :   -0.183197
   2 C :    0.013006
   3 C :    0.028722
   4 C :   -0.028566
   5 C :    0.049791
   6 C :    0.012095
   7 C :   -0.015321
   8 Br:   -0.016685
   9 C :    0.290688
  10 C :   -0.358302
  11 C :   -0.189506
  12 N :    0.152192
  13 C :   -0.196548
  14 N :    0.154287
  15 C :   -0.084568
  16 C :    0.059268
  17 C :   -0.125821
  18 C :   -0.028311
  19 C :    0.023875
  20 C :    0.061703
  21 C :   -0.115971
  22 S :    0.139990
  23 C :   -0.102695
  24 C :    0.054675
  25 C :    0.016432
  26 C :   -0.070776
  27 S :    0.135336
  28 C :    0.064025
  29 C :    0.067513
  30 C :   -0.003427
  31 C :   -0.118306
  32 S :    0.135144
  33 C :   -0.137258
  34 C :   -0.047544
  35 C :   -0.037009
  36 C :    0.053364
  37 N :   -0.177955
  38 C :    0.062183
  39 C :    0.075744
  40 C :    0.041294
  41 N :   -0.176918
  42 C :    0.057947
  43 C :    0.069669
  44 C :   -0.078099
  45 C :   -0.037181
  46 C :    0.067212
  47 C :    0.055159
  48 C :   -0.132205
  49 S :    0.154515
  50 C :   -0.116062
  51 C :    0.068540
  52 C :    0.003787
  53 C :   -0.064829
  54 S :    0.128297
  55 C :    0.065935
  56 C :    0.009019
  57 C :   -0.035649
  58 C :    0.055323
  59 C :   -0.151794
  60 C :    0.138388
  61 O :   -0.152047
  62 C :   -0.003719
  63 C :    0.014625
  64 C :    0.255449
  65 C :   -0.350646
  66 C :   -0.187895
  67 N :    0.145263
  68 C :   -0.184925
  69 N :    0.146079
  70 C :   -0.030395
  71 C :    0.045074
  72 C :   -0.001060
  73 C :   -0.022982
  74 Br:   -0.033273
  75 H :    0.010683
  76 H :    0.007976
  77 H :   -0.012410
  78 H :    0.007008
  79 H :    0.013995
  80 H :    0.038440
  81 H :   -0.015838
  82 H :    0.029617
  83 H :   -0.015973
  84 H :   -0.000430
  85 H :   -0.001444
  86 H :    0.112618
  87 H :    0.089537
  88 H :   -0.005138
  89 H :   -0.003413
  90 H :   -0.013589
  91 H :   -0.005782
  92 H :    0.006836
  93 H :    0.095019
  94 H :    0.093805
  95 H :   -0.002231
  96 H :   -0.026380
  97 H :    0.003718
  98 H :    0.037387
  99 H :   -0.014385
 100 H :    0.028334
 101 H :    0.004131
 102 H :   -0.005173
 103 H :    0.016041
 104 H :    0.005154
 105 H :    0.000769
 106 H :   -0.002419
Sum of atomic charges:    0.0000000

LOEWDIN ATOMIC CHARGES
----------------------
   0 C :    0.093291
   1 O :   -0.158513
   2 C :   -0.037023
   3 C :   -0.015768
   4 C :    0.008180
   5 C :   -0.009835
   6 C :   -0.095660
   7 C :   -0.004190
   8 Br:    0.132188
   9 C :    0.077423
  10 C :   -0.147130
  11 C :   -0.019580
  12 N :   -0.055923
  13 C :   -0.026299
  14 N :   -0.053883
  15 C :   -0.110567
  16 C :    0.042897
  17 C :   -0.198462
  18 C :    0.034709
  19 C :   -0.030174
  20 C :   -0.065103
  21 C :   -0.128205
  22 S :    0.450647
  23 C :   -0.183488
  24 C :   -0.046869
  25 C :   -0.057981
  26 C :   -0.161969
  27 S :    0.426451
  28 C :   -0.008235
  29 C :    0.007259
  30 C :   -0.043490
  31 C :   -0.159767
  32 S :    0.455274
  33 C :   -0.169150
  34 C :   -0.054480
  35 C :   -0.056814
  36 C :    0.018032
  37 N :   -0.081802
  38 C :   -0.040333
  39 C :   -0.040555
  40 C :    0.014703
  41 N :   -0.088050
  42 C :   -0.021581
  43 C :   -0.048303
  44 C :   -0.144057
  45 C :   -0.019179
  46 C :    0.018401
  47 C :   -0.045449
  48 C :   -0.149026
  49 S :    0.483397
  50 C :   -0.211447
  51 C :   -0.032497
  52 C :   -0.063289
  53 C :   -0.160410
  54 S :    0.421783
  55 C :   -0.070216
  56 C :    0.051794
  57 C :   -0.072105
  58 C :    0.067963
  59 C :   -0.123955
  60 C :    0.079722
  61 O :   -0.153172
  62 C :   -0.037221
  63 C :   -0.014027
  64 C :    0.065069
  65 C :   -0.161830
  66 C :   -0.024430
  67 N :   -0.068351
  68 C :   -0.006262
  69 N :   -0.071242
  70 C :    0.001841
  71 C :   -0.018709
  72 C :   -0.101469
  73 C :   -0.003941
  74 Br:    0.104104
  75 H :    0.043237
  76 H :    0.041724
  77 H :    0.038770
  78 H :    0.040587
  79 H :    0.040573
  80 H :    0.037998
  81 H :    0.032281
  82 H :    0.024577
  83 H :    0.029141
  84 H :    0.027839
  85 H :    0.020162
  86 H :    0.054454
  87 H :    0.052415
  88 H :    0.021199
  89 H :    0.021272
  90 H :    0.018198
  91 H :    0.021613
  92 H :    0.023566
  93 H :    0.056119
  94 H :    0.053467
  95 H :    0.031990
  96 H :    0.021753
  97 H :    0.040893
  98 H :    0.037340
  99 H :    0.031462
 100 H :    0.024486
 101 H :    0.035193
 102 H :    0.030124
 103 H :    0.042941
 104 H :    0.041174
 105 H :    0.038039
 106 H :    0.041753

  Mayer bond orders larger than 0.100000
B(  0-C ,  1-O ) :   2.0675 B(  0-C ,  2-C ) :   0.9557 B(  0-C , 15-C ) :   0.9695
B(  1-O , 79-H ) :   0.1108 B(  2-C ,  3-C ) :   1.3283 B(  2-C ,  7-C ) :   1.3800
B(  3-C ,  4-C ) :   1.3722 B(  3-C ,  9-C ) :   0.9845 B(  4-C ,  5-C ) :   1.3780
B(  4-C , 75-H ) :   0.9841 B(  5-C ,  6-C ) :   1.3927 B(  5-C , 76-H ) :   0.9842
B(  6-C ,  7-C ) :   1.3345 B(  6-C ,  8-Br) :   0.9971 B(  7-C , 77-H ) :   1.0087
B(  9-C , 10-C ) :   1.6103 B(  9-C , 15-C ) :   1.0985 B( 10-C , 11-C ) :   1.1482
B( 10-C , 13-C ) :   1.1411 B( 11-C , 12-N ) :   2.9804 B( 13-C , 14-N ) :   2.9812
B( 15-C , 16-C ) :   1.5231 B( 16-C , 17-C ) :   1.2806 B( 16-C , 78-H ) :   0.9108
B( 17-C , 18-C ) :   1.4105 B( 17-C , 22-S ) :   1.0262 B( 18-C , 19-C ) :   1.3208
B( 18-C , 79-H ) :   0.9400 B( 19-C , 20-C ) :   1.0354 B( 19-C , 28-C ) :   1.3433
B( 20-C , 21-C ) :   1.5816 B( 20-C , 23-C ) :   1.1968 B( 21-C , 22-S ) :   1.1681
B( 21-C , 80-H ) :   0.9433 B( 23-C , 24-C ) :   1.3985 B( 23-C , 27-S ) :   1.0888
B( 24-C , 25-C ) :   1.2112 B( 24-C , 28-C ) :   1.1225 B( 25-C , 26-C ) :   1.5982
B( 25-C , 81-H ) :   1.0004 B( 26-C , 27-S ) :   1.1399 B( 26-C , 82-H ) :   0.9672
B( 28-C , 29-C ) :   1.1895 B( 29-C , 30-C ) :   1.6279 B( 29-C , 83-H ) :   0.9428
B( 30-C , 31-C ) :   1.1451 B( 30-C , 84-H ) :   0.9474 B( 31-C , 32-S ) :   1.1199
B( 31-C , 35-C ) :   1.4706 B( 32-S , 33-C ) :   1.1355 B( 33-C , 34-C ) :   1.4427
B( 33-C , 42-C ) :   1.1612 B( 34-C , 35-C ) :   1.3659 B( 34-C , 40-C ) :   1.0030
B( 35-C , 36-C ) :   0.9917 B( 36-C , 37-N ) :   1.1315 B( 36-C , 38-C ) :   1.0705
B( 36-C , 85-H ) :   0.8710 B( 37-N , 86-H ) :   0.9412 B( 37-N , 87-H ) :   0.9696
B( 38-C , 39-C ) :   1.0572 B( 38-C , 88-H ) :   0.9232 B( 38-C , 89-H ) :   0.9278
B( 39-C , 40-C ) :   1.0716 B( 39-C , 90-H ) :   0.9208 B( 39-C , 91-H ) :   0.9237
B( 40-C , 41-N ) :   1.0852 B( 40-C , 92-H ) :   0.8704 B( 41-N , 93-H ) :   0.9613
B( 41-N , 94-H ) :   0.9690 B( 42-C , 43-C ) :   1.6807 B( 42-C , 95-H ) :   0.9409
B( 43-C , 44-C ) :   1.1281 B( 43-C , 96-H ) :   0.9374 B( 44-C , 45-C ) :   1.4677
B( 44-C , 49-S ) :   1.0997 B( 45-C , 46-C ) :   1.3009 B( 45-C , 97-H ) :   0.9612
B( 46-C , 47-C ) :   1.0766 B( 46-C , 55-C ) :   1.2925 B( 47-C , 48-C ) :   1.5763
B( 47-C , 50-C ) :   1.1760 B( 48-C , 49-S ) :   1.1565 B( 48-C , 98-H ) :   0.9420
B( 50-C , 51-C ) :   1.4473 B( 50-C , 54-S ) :   1.0713 B( 51-C , 52-C ) :   1.2281
B( 51-C , 55-C ) :   1.0859 B( 52-C , 53-C ) :   1.5802 B( 52-C , 99-H ) :   0.9991
B( 53-C , 54-S ) :   1.1592 B( 53-C ,100-H ) :   0.9665 B( 55-C , 56-C ) :   1.2864
B( 56-C , 57-C ) :   1.4736 B( 56-C ,101-H ) :   0.9517 B( 57-C , 58-C ) :   1.2674
B( 57-C ,102-H ) :   0.9625 B( 58-C , 59-C ) :   1.5111 B( 58-C ,103-H ) :   0.9417
B( 59-C , 60-C ) :   0.9764 B( 59-C , 64-C ) :   1.0956 B( 60-C , 61-O ) :   2.2610
B( 60-C , 62-C ) :   0.9079 B( 62-C , 63-C ) :   1.3424 B( 62-C , 73-C ) :   1.3860
B( 63-C , 64-C ) :   0.9907 B( 63-C , 70-C ) :   1.3799 B( 64-C , 65-C ) :   1.6064
B( 65-C , 66-C ) :   1.1393 B( 65-C , 68-C ) :   1.1629 B( 66-C , 67-N ) :   2.9913
B( 68-C , 69-N ) :   2.9930 B( 70-C , 71-C ) :   1.3689 B( 70-C ,104-H ) :   0.9880
B( 71-C , 72-C ) :   1.4029 B( 71-C ,105-H ) :   0.9846 B( 72-C , 73-C ) :   1.3324
B( 72-C , 74-Br) :   0.9838 B( 73-C ,106-H ) :   1.0087

-----------------------------------------------------------------------------
         ABSORPTION SPECTRUM VIA TRANSITION ELECTRIC DIPOLE MOMENTS
-----------------------------------------------------------------------------
State   Energy  Wavelength   fosc         T2         TX        TY        TZ
        (cm-1)    (nm)                  (au**2)     (au)      (au)      (au)
-----------------------------------------------------------------------------
   0   11122.9    899.0   0.337512883   9.98960  -1.65795   0.02206   2.69078
   1   13868.5    721.1   0.617203802  14.65128   0.42182   3.69493  -0.90602
   2   17593.7    568.4   0.049139627   0.91950   0.06595   0.92989   0.22460
   3   18618.9    537.1   0.048587276   0.85910   0.50778  -0.53273   0.56344
   4   19721.8    507.1   0.758435160  12.66040  -1.84918   0.03260  -3.03972
   5   21130.5    473.2   0.028360608   0.44186  -0.36877  -0.04217   0.55144
   6   21376.8    467.8   0.212345613   3.27021   1.48687  -0.61591   0.82468
   7   21870.9    457.2   0.093624217   1.40928   0.64152   0.24221   0.96906
   8   22794.8    438.7   0.179295791   2.58946   0.17863   0.71263  -1.43168
   9   23863.3    419.1   0.082642179   1.14011   0.09383  -1.05210   0.15615
  10   24397.1    409.9   0.046982819   0.63398  -0.37895  -0.34970  -0.60670
  11   25221.8    396.5   0.587225686   7.66487  -1.68735   0.03995  -2.19457
  12   25594.9    390.7   0.051565756   0.66326   0.63659   0.02028   0.50755
  13   26232.2    381.2   0.277764955   3.48593   0.88184  -0.33898   1.61040
  14   27098.6    369.0   0.044355396   0.53886   0.58894   0.37594  -0.22512
  15   27418.6    364.7   0.054910256   0.65930   0.59368   0.16156  -0.52986
  16   27505.4    363.6   0.096300788   1.15262   1.06103   0.14238  -0.08101
  17   27755.0    360.3   0.129456646   1.53553  -0.56036  -0.17670  -1.09101
  18   28798.1    347.2   0.120276351   1.37497  -0.20217  -0.31998   1.10982
  19   29165.0    342.9   0.037630120   0.42477   0.11158  -0.22143   0.60273
  20   29278.8    341.5   0.027590688   0.31023   0.33115  -0.21121  -0.39492
  21   29513.9    338.8   0.046163711   0.51493   0.34127   0.33481   0.53513
  22   30445.9    328.5   0.038188098   0.41293  -0.06279  -0.63784  -0.04637
  23   30555.8    327.3   0.084839011   0.91407   0.46610   0.75331  -0.35965
  24   30644.2    326.3   0.024345961   0.26155   0.35107   0.14004  -0.34452
  25   30847.2    324.2   0.042840327   0.45721  -0.23819   0.09800  -0.62519
  26   31080.0    321.8   0.024071670   0.25498  -0.41066   0.18124  -0.23127
  27   31285.7    319.6   0.011663569   0.12273   0.12035   0.08242   0.31852
  28   31560.9    316.8   0.078072357   0.81437  -0.65409  -0.37796   0.49365
  29   32024.6    312.3   0.090966690   0.93514  -0.37534   0.30218  -0.83842
  30   32159.9    310.9   0.025177559   0.25774   0.50608  -0.02751  -0.02942
  31   32640.1    306.4   0.092268887   0.93063  -0.88763   0.23277  -0.29760
  32   32732.4    305.5   0.018693659   0.18802  -0.02168   0.16017   0.40236
  33   32836.4    304.5   0.082409101   0.82622   0.11740   0.89646  -0.09379
  34   33329.6    300.0   0.299710634   2.96038  -0.39060   0.47069   1.60819
  35   33393.6    299.5   0.024385931   0.24041   0.01195   0.48946   0.02643
  36   33588.5    297.7   0.242580293   2.37761  -0.38633  -0.89018  -1.19831
  37   33734.1    296.4   0.051735648   0.50489  -0.51033   0.28299  -0.40543
  38   33962.5    294.4   0.272621929   2.64264   0.62918  -0.25959  -1.47627
  39   34178.4    292.6   0.145846136   1.40481  -0.27656  -1.02691  -0.52324
  40   34229.6    292.1   0.015876667   0.15270   0.11356   0.35301  -0.12324
  41   34774.8    287.6   0.253058221   2.39570   1.54040   0.00394   0.15114
  42   35027.9    285.5   0.091371791   0.85876   0.77910   0.49330  -0.09180
  43   35192.6    284.2   0.155017140   1.45012   0.79244   0.83087  -0.36306
  44   35334.7    283.0   0.080358168   0.74869   0.39201   0.19904  -0.74525
  45   35973.3    278.0   0.082148401   0.75179  -0.22458  -0.41281  -0.72866
  46   36029.5    277.6   0.238501983   2.17926   0.71879  -0.36263   1.23738
  47   36137.8    276.7   0.073950454   0.67368  -0.38766   0.72119  -0.05733
  48   36347.7    275.1   0.036277800   0.32858  -0.24767   0.17277   0.48723
  49   36766.8    272.0   0.061377577   0.54958  -0.26633   0.62084  -0.30528
  50   36863.6    271.3   0.001086852   0.00971  -0.03109  -0.06038  -0.07138
  51   36983.2    270.4   0.149329784   1.32928  -1.12398  -0.17025   0.19229
  52   37159.6    269.1   0.029081897   0.25765  -0.28366   0.33337  -0.25700
  53   37280.3    268.2   0.025752314   0.22741   0.27993   0.38584  -0.01335
  54   37580.3    266.1   0.154653117   1.35480  -0.10709   1.15892  -0.01516
  55   37945.3    263.5   0.010638102   0.09230   0.00596   0.22367  -0.20551
  56   38069.0    262.7   0.016925894   0.14637   0.12955  -0.18374   0.30956
  57   38179.4    261.9   0.090872757   0.78357   0.76005  -0.21592  -0.39909
  58   38326.6    260.9   0.014982512   0.12869   0.35605   0.01011  -0.04268
  59   38806.6    257.7   0.046314215   0.39290   0.61394  -0.10121  -0.07573
  60   38880.1    257.2   0.003447481   0.02919   0.01524   0.02225  -0.16871
  61   38994.8    256.4   0.008473288   0.07154  -0.22007   0.11543   0.09889
  62   39056.5    256.0   0.012289806   0.10359   0.21921  -0.09453  -0.21588
  63   39119.7    255.6   0.024671697   0.20762  -0.35986   0.09796   0.26179
  64   39415.4    253.7   0.045162632   0.37721  -0.57702   0.18858   0.09327
  65   39635.8    252.3   0.019515261   0.16209  -0.34889   0.18804  -0.07077
  66   39769.6    251.4   0.023561311   0.19504   0.01659   0.12888   0.42208
  67   39974.6    250.2   0.061833223   0.50923   0.08412  -0.55728  -0.43771
  68   40051.9    249.7   0.015279192   0.12559   0.17296  -0.08496   0.29742
  69   40238.9    248.5   0.025513555   0.20874   0.01650  -0.25532  -0.37852

FINAL SINGLE POINT ENERGY     -9919.151770757015

DIPOLE MOMENT
-------------
                                X             Y             Z
Electronic contribution:    -37.35361    -116.79765      93.79866
Nuclear contribution   :     37.63147     122.33606     -93.81935
                        -----------------------------------------
Total Dipole Moment    :      0.27786       5.53841      -0.02069
                        -----------------------------------------
Magnitude (a.u.)       :      5.54541
Magnitude (Debye)      :     14.09532

Rotational constants in cm-1:     0.000829     0.000365     0.000322
Rotational constants in MHz :    24.856491    10.941087     9.646622

                             ****ORCA TERMINATED NORMALLY****
TOTAL RUN TIME: 0 days 0 hours 12 minutes 58 seconds 92 msec
