                         Program Version 4.2.0 -  RELEASE  -
|  1> # ORCA input file
|  2> # SCF done       -170.874656290220          0.000732944298
|  3> ! CAM-B3LYP def2-SVP def2/J RIJCOSX Grid4 TightSCF
|  4> %maxcore 5000
|  5> %tddft
|  6>     Mode sTDDFT
|  7>     Ethresh 5.0
|  8>     maxcore 5000
|  9> end
| 10>
| 11> %pal
| 12>   nprocs 6
| 13>   end
| 14> * xyz 0 1
| 15>    C       -4.74121        -0.81678        -0.31764
| 16>    C       -4.86887        -1.39657         0.91737
| 17>    C       -3.87602        -2.18997         1.52484
| 18>    N       -3.08180        -2.80483         2.08181
| 19>    C       -5.98642        -1.21432         1.75764
| 20>    N       -6.88384        -1.09815         2.46387
| 21>    C       -3.59917        -0.95554        -1.21357
| 22>    C       -3.75380        -0.05924        -2.30402
| 23>    C       -2.80798         0.07262        -3.29178
| 24>    C       -1.66087        -0.72393        -3.20578
| 25>    C       -1.53064        -1.63476        -2.13083
| 26>    C       -2.48677        -1.76814        -1.13117
| 27>    S       -0.03937        -2.52053        -2.21967
| 28>    C        0.38733        -1.66568        -3.68126
| 29>    C       -0.54172        -0.76450        -4.08182
| 30>   Br        2.01300        -2.04773        -4.53180
| 31>    C       -5.03081         0.64400        -2.15763
| 32>    O       -5.51256         1.49364        -2.90056
| 33>    C       -5.65810         0.11101        -0.93947
| 34>    C       -6.91760         0.49129        -0.55412
| 35>    N       -7.58276         1.40685        -1.27509
| 36>    C       -8.84241         1.86010        -1.08790
| 37>    S       -9.88815         1.20397         0.12892
| 38>    C      -11.12985         2.30837        -0.37545
| 39>    N      -12.35952         2.26308         0.29910
| 40>    O      -13.22392         3.04119        -0.05584
| 41>    O      -12.46385         1.44270         1.19218
| 42>    C      -10.75894         3.12663        -1.40547
| 43>    C       -9.43764         2.89119        -1.84013
| 44>    C       -8.74347         3.60492        -2.86298
| 45>    C       -9.19362         4.68869        -3.54983
| 46>    C       -8.33388         5.35918        -4.44596
| 47>    C       -8.61907         6.51281        -5.12211
| 48>    C       -7.70021         7.26731        -5.87414
| 49>    C       -6.32693         7.15048        -5.91177
| 50>    C       -5.44770         7.98821        -6.64397
| 51>    C       -4.12132         7.72970        -6.45457
| 52>    C       -3.87638         6.66504        -5.56240
| 53>    S       -5.37910         6.00276        -4.98433
| 54>    C       -2.67656         6.12426        -5.12662
| 55>    C       -1.35597         6.50312        -5.43288
| 56>    C       -0.40910         5.74688        -4.79946
| 57>    C       -0.93911         4.73916        -3.96542
| 58>    S       -2.68206         4.76913        -4.01912
| 59>    C       -0.23829         3.81162        -3.21223
| 60>    C       -0.87526         2.87749        -2.40802
| 61>    C       -0.34869         1.83295        -1.67360
| 62>    C        0.93971         1.20102        -1.66676
| 63>    C        1.89366         1.23828        -2.66211
| 64>    C        3.17606         0.66973        -2.54567
| 65>    N        4.24976         0.26525        -2.48878
| 66>    C        1.65835         1.73284        -3.95720
| 67>    N        1.48267         2.03300        -5.05283
| 68>    C        0.98829         0.30970        -0.50747
| 69>    C       -0.28892         0.29953         0.10795
| 70>    C       -1.17443         1.23171        -0.61086
| 71>    O       -2.34843         1.45981        -0.37709
| 72>    C       -0.59461        -0.52099         1.16489
| 73>    C        0.39933        -1.38898         1.62712
| 74>    C        1.67620        -1.36067         1.01878
| 75>    C        1.99106        -0.51852        -0.04215
| 76>    S        2.75014        -2.51634         1.74350
| 77>    C        1.47843        -3.02603         2.82540
| 78>    C        0.31157        -2.35977         2.66119
| 79>   Br        1.81938        -4.38789         4.06682
| 80>    H       -2.93869         0.77417        -4.10079
| 81>    H       -2.33975        -2.47695        -0.33343
| 82>    H       -0.43647        -0.14611        -4.95489
| 83>    H       -7.41802         0.07570         0.31126
| 84>    H       -7.02980         1.76392        -2.07853
| 85>    H      -11.42430         3.86005        -1.82184
| 86>    H       -7.73771         3.27365        -3.08654
| 87>    H      -10.18350         5.08778        -3.38319
| 88>    H       -7.36288         4.90431        -4.57240
| 89>    H       -9.62893         6.90021        -5.07517
| 90>    H       -8.10680         8.08540        -6.45581
| 91>    H       -5.82430         8.76579        -7.28523
| 92>    H       -3.32365         8.27652        -6.92409
| 93>    H       -1.13519         7.31740        -6.09957
| 94>    H        0.65198         5.88037        -4.91131
| 95>    H        0.83905         3.85816        -3.25748
| 96>    H       -1.94607         3.00763        -2.26754
| 97>    H       -1.57445        -0.51248         1.61457
| 98>    H        2.97823        -0.53674        -0.47332
| 99>    H       -0.58370        -2.55197         3.22392
|100> *
|101>
|102>                          ****END OF INPUT****

CARTESIAN COORDINATES (ANGSTROEM)
---------------------------------
  C     -4.741210   -0.816780   -0.317640
  C     -4.868870   -1.396570    0.917370
  C     -3.876020   -2.189970    1.524840
  N     -3.081800   -2.804830    2.081810
  C     -5.986420   -1.214320    1.757640
  N     -6.883840   -1.098150    2.463870
  C     -3.599170   -0.955540   -1.213570
  C     -3.753800   -0.059240   -2.304020
  C     -2.807980    0.072620   -3.291780
  C     -1.660870   -0.723930   -3.205780
  C     -1.530640   -1.634760   -2.130830
  C     -2.486770   -1.768140   -1.131170
  S     -0.039370   -2.520530   -2.219670
  C      0.387330   -1.665680   -3.681260
  C     -0.541720   -0.764500   -4.081820
  Br     2.013000   -2.047730   -4.531800
  C     -5.030810    0.644000   -2.157630
  O     -5.512560    1.493640   -2.900560
  C     -5.658100    0.111010   -0.939470
  C     -6.917600    0.491290   -0.554120
  N     -7.582760    1.406850   -1.275090
  C     -8.842410    1.860100   -1.087900
  S     -9.888150    1.203970    0.128920
  C    -11.129850    2.308370   -0.375450
  N    -12.359520    2.263080    0.299100
  O    -13.223920    3.041190   -0.055840
  O    -12.463850    1.442700    1.192180
  C    -10.758940    3.126630   -1.405470
  C     -9.437640    2.891190   -1.840130
  C     -8.743470    3.604920   -2.862980
  C     -9.193620    4.688690   -3.549830
  C     -8.333880    5.359180   -4.445960
  C     -8.619070    6.512810   -5.122110
  C     -7.700210    7.267310   -5.874140
  C     -6.326930    7.150480   -5.911770
  C     -5.447700    7.988210   -6.643970
  C     -4.121320    7.729700   -6.454570
  C     -3.876380    6.665040   -5.562400
  S     -5.379100    6.002760   -4.984330
  C     -2.676560    6.124260   -5.126620
  C     -1.355970    6.503120   -5.432880
  C     -0.409100    5.746880   -4.799460
  C     -0.939110    4.739160   -3.965420
  S     -2.682060    4.769130   -4.019120
  C     -0.238290    3.811620   -3.212230
  C     -0.875260    2.877490   -2.408020
  C     -0.348690    1.832950   -1.673600
  C      0.939710    1.201020   -1.666760
  C      1.893660    1.238280   -2.662110
  C      3.176060    0.669730   -2.545670
  N      4.249760    0.265250   -2.488780
  C      1.658350    1.732840   -3.957200
  N      1.482670    2.033000   -5.052830
  C      0.988290    0.309700   -0.507470
  C     -0.288920    0.299530    0.107950
  C     -1.174430    1.231710   -0.610860
  O     -2.348430    1.459810   -0.377090
  C     -0.594610   -0.520990    1.164890
  C      0.399330   -1.388980    1.627120
  C      1.676200   -1.360670    1.018780
  C      1.991060   -0.518520   -0.042150
  S      2.750140   -2.516340    1.743500
  C      1.478430   -3.026030    2.825400
  C      0.311570   -2.359770    2.661190
  Br     1.819380   -4.387890    4.066820
  H     -2.938690    0.774170   -4.100790
  H     -2.339750   -2.476950   -0.333430
  H     -0.436470   -0.146110   -4.954890
  H     -7.418020    0.075700    0.311260
  H     -7.029800    1.763920   -2.078530
  H    -11.424300    3.860050   -1.821840
  H     -7.737710    3.273650   -3.086540
  H    -10.183500    5.087780   -3.383190
  H     -7.362880    4.904310   -4.572400
  H     -9.628930    6.900210   -5.075170
  H     -8.106800    8.085400   -6.455810
  H     -5.824300    8.765790   -7.285230
  H     -3.323650    8.276520   -6.924090
  H     -1.135190    7.317400   -6.099570
  H      0.651980    5.880370   -4.911310
  H      0.839050    3.858160   -3.257480
  H     -1.946070    3.007630   -2.267540
  H     -1.574450   -0.512480    1.614570
  H      2.978230   -0.536740   -0.473320
  H     -0.583700   -2.551970    3.223920

 Total Charge           Charge          ....    0
 Multiplicity           Mult            ....    1
 Number of Electrons    NEL             ....  532
 Basis Dimension        Dim             .... 1066

ORBITAL ENERGIES
----------------

  NO   OCC          E(Eh)            E(eV)
   0   2.0000    -482.879532    -13139.8201
   1   2.0000    -482.873980    -13139.6690
   2   2.0000     -88.997535     -2421.7461
   3   2.0000     -88.974091     -2421.1081
   4   2.0000     -88.972734     -2421.0712
   5   2.0000     -88.967322     -2420.9239
   6   2.0000     -88.964036     -2420.8345
   7   2.0000     -62.556917     -1702.2602
   8   2.0000     -62.551712     -1702.1186
   9   2.0000     -56.390909     -1534.4747
  10   2.0000     -56.388141     -1534.3993
  11   2.0000     -56.388122     -1534.3988
  12   2.0000     -56.385650     -1534.3315
  13   2.0000     -56.382959     -1534.2583
  14   2.0000     -56.382918     -1534.2572
  15   2.0000     -19.245652      -523.7008
  16   2.0000     -19.244444      -523.6679
  17   2.0000     -19.236538      -523.4528
  18   2.0000     -19.208773      -522.6973
  19   2.0000     -14.656909      -398.8348
  20   2.0000     -14.499349      -394.5473
  21   2.0000     -14.422799      -392.4643
  22   2.0000     -14.421364      -392.4253
  23   2.0000     -14.405498      -391.9935
  24   2.0000     -14.403123      -391.9289
  25   2.0000     -10.382536      -282.5232
  26   2.0000     -10.382182      -282.5135
  27   2.0000     -10.372862      -282.2599
  28   2.0000     -10.355691      -281.7927
  29   2.0000     -10.355057      -281.7754
  30   2.0000     -10.354745      -281.7669
  31   2.0000     -10.348334      -281.5925
  32   2.0000     -10.345891      -281.5260
  33   2.0000     -10.343941      -281.4730
  34   2.0000     -10.342400      -281.4310
  35   2.0000     -10.334997      -281.2296
  36   2.0000     -10.329951      -281.0923
  37   2.0000     -10.329159      -281.0707
  38   2.0000     -10.329110      -281.0694
  39   2.0000     -10.327325      -281.0208
  40   2.0000     -10.326953      -281.0107
  41   2.0000     -10.324328      -280.9392
  42   2.0000     -10.324062      -280.9320
  43   2.0000     -10.320358      -280.8312
  44   2.0000     -10.315045      -280.6866
  45   2.0000     -10.314271      -280.6656
  46   2.0000     -10.313665      -280.6491
  47   2.0000     -10.312568      -280.6192
  48   2.0000     -10.311515      -280.5906
  49   2.0000     -10.310154      -280.5536
  50   2.0000     -10.309738      -280.5422
  51   2.0000     -10.308208      -280.5006
  52   2.0000     -10.308095      -280.4975
  53   2.0000     -10.307419      -280.4791
  54   2.0000     -10.306401      -280.4514
  55   2.0000     -10.305711      -280.4326
  56   2.0000     -10.305055      -280.4148
  57   2.0000     -10.302772      -280.3527
  58   2.0000     -10.301918      -280.3294
  59   2.0000     -10.301883      -280.3285
  60   2.0000     -10.299833      -280.2727
  61   2.0000     -10.299126      -280.2535
  62   2.0000     -10.297126      -280.1990
  63   2.0000     -10.296404      -280.1794
  64   2.0000     -10.295634      -280.1585
  65   2.0000     -10.295224      -280.1473
  66   2.0000     -10.294005      -280.1141
  67   2.0000     -10.291093      -280.0349
  68   2.0000     -10.289219      -279.9839
  69   2.0000     -10.286807      -279.9183
  70   2.0000     -10.281746      -279.7805
  71   2.0000     -10.281659      -279.7782
  72   2.0000     -10.281628      -279.7773
  73   2.0000      -8.786229      -239.0854
  74   2.0000      -8.781147      -238.9472
  75   2.0000      -8.092862      -220.2180
  76   2.0000      -8.069303      -219.5769
  77   2.0000      -8.068580      -219.5572
  78   2.0000      -8.063551      -219.4204
  79   2.0000      -8.060094      -219.3263
  80   2.0000      -6.622598      -180.2101
  81   2.0000      -6.617402      -180.0687
  82   2.0000      -6.608005      -179.8130
  83   2.0000      -6.607630      -179.8027
  84   2.0000      -6.602925      -179.6747
  85   2.0000      -6.602700      -179.6686
  86   2.0000      -6.062486      -164.9686
  87   2.0000      -6.058135      -164.8502
  88   2.0000      -6.054312      -164.7462
  89   2.0000      -6.039025      -164.3302
  90   2.0000      -6.038276      -164.3098
  91   2.0000      -6.034717      -164.2130
  92   2.0000      -6.034036      -164.1945
  93   2.0000      -6.033131      -164.1698
  94   2.0000      -6.030626      -164.1017
  95   2.0000      -6.029792      -164.0790
  96   2.0000      -6.029787      -164.0789
  97   2.0000      -6.029106      -164.0603
  98   2.0000      -6.025512      -163.9625
  99   2.0000      -6.024751      -163.9418
 100   2.0000      -6.021309      -163.8481
 101   2.0000      -2.738458       -74.5172
 102   2.0000      -2.734377       -74.4062
 103   2.0000      -2.734150       -74.4000
 104   2.0000      -2.733287       -74.3765
 105   2.0000      -2.729197       -74.2652
 106   2.0000      -2.729086       -74.2622
 107   2.0000      -2.722524       -74.0837
 108   2.0000      -2.722507       -74.0832
 109   2.0000      -2.717553       -73.9484
 110   2.0000      -2.717533       -73.9478
 111   2.0000      -1.327018       -36.1100
 112   2.0000      -1.151505       -31.3341
 113   2.0000      -1.146333       -31.1933
 114   2.0000      -1.120721       -30.4964
 115   2.0000      -1.108478       -30.1632
 116   2.0000      -1.026302       -27.9271
 117   2.0000      -1.020583       -27.7715
 118   2.0000      -1.017582       -27.6898
 119   2.0000      -1.015822       -27.6419
 120   2.0000      -1.011138       -27.5145
 121   2.0000      -1.002460       -27.2783
 122   2.0000      -1.001481       -27.2517
 123   2.0000      -0.997146       -27.1337
 124   2.0000      -0.992211       -26.9994
 125   2.0000      -0.983873       -26.7725
 126   2.0000      -0.978158       -26.6170
 127   2.0000      -0.945953       -25.7407
 128   2.0000      -0.942215       -25.6390
 129   2.0000      -0.933305       -25.3965
 130   2.0000      -0.925469       -25.1833
 131   2.0000      -0.914205       -24.8768
 132   2.0000      -0.909778       -24.7563
 133   2.0000      -0.904020       -24.5996
 134   2.0000      -0.896943       -24.4071
 135   2.0000      -0.888139       -24.1675
 136   2.0000      -0.885543       -24.0968
 137   2.0000      -0.881671       -23.9915
 138   2.0000      -0.874194       -23.7880
 139   2.0000      -0.870306       -23.6822
 140   2.0000      -0.868718       -23.6390
 141   2.0000      -0.853629       -23.2284
 142   2.0000      -0.847562       -23.0633
 143   2.0000      -0.844028       -22.9672
 144   2.0000      -0.828841       -22.5539
 145   2.0000      -0.826661       -22.4946
 146   2.0000      -0.817157       -22.2360
 147   2.0000      -0.803454       -21.8631
 148   2.0000      -0.793409       -21.5898
 149   2.0000      -0.773556       -21.0495
 150   2.0000      -0.765219       -20.8227
 151   2.0000      -0.756844       -20.5948
 152   2.0000      -0.750278       -20.4161
 153   2.0000      -0.740563       -20.1517
 154   2.0000      -0.731886       -19.9156
 155   2.0000      -0.718245       -19.5445
 156   2.0000      -0.706924       -19.2364
 157   2.0000      -0.695749       -18.9323
 158   2.0000      -0.693768       -18.8784
 159   2.0000      -0.691139       -18.8068
 160   2.0000      -0.684134       -18.6162
 161   2.0000      -0.677938       -18.4476
 162   2.0000      -0.672629       -18.3032
 163   2.0000      -0.664966       -18.0946
 164   2.0000      -0.660282       -17.9672
 165   2.0000      -0.654366       -17.8062
 166   2.0000      -0.652150       -17.7459
 167   2.0000      -0.645625       -17.5684
 168   2.0000      -0.639993       -17.4151
 169   2.0000      -0.638316       -17.3695
 170   2.0000      -0.636235       -17.3128
 171   2.0000      -0.635363       -17.2891
 172   2.0000      -0.625066       -17.0089
 173   2.0000      -0.621622       -16.9152
 174   2.0000      -0.613246       -16.6873
 175   2.0000      -0.612017       -16.6538
 176   2.0000      -0.606712       -16.5095
 177   2.0000      -0.597187       -16.2503
 178   2.0000      -0.592278       -16.1167
 179   2.0000      -0.590398       -16.0656
 180   2.0000      -0.583744       -15.8845
 181   2.0000      -0.580437       -15.7945
 182   2.0000      -0.579061       -15.7571
 183   2.0000      -0.569216       -15.4891
 184   2.0000      -0.564245       -15.3539
 185   2.0000      -0.561299       -15.2737
 186   2.0000      -0.560560       -15.2536
 187   2.0000      -0.550239       -14.9728
 188   2.0000      -0.549538       -14.9537
 189   2.0000      -0.547657       -14.9025
 190   2.0000      -0.540756       -14.7147
 191   2.0000      -0.538853       -14.6629
 192   2.0000      -0.535976       -14.5847
 193   2.0000      -0.532469       -14.4892
 194   2.0000      -0.528674       -14.3860
 195   2.0000      -0.526399       -14.3240
 196   2.0000      -0.523988       -14.2584
 197   2.0000      -0.520303       -14.1582
 198   2.0000      -0.519377       -14.1330
 199   2.0000      -0.518961       -14.1216
 200   2.0000      -0.512590       -13.9483
 201   2.0000      -0.506286       -13.7767
 202   2.0000      -0.504449       -13.7267
 203   2.0000      -0.501416       -13.6442
 204   2.0000      -0.500158       -13.6100
 205   2.0000      -0.495313       -13.4781
 206   2.0000      -0.493908       -13.4399
 207   2.0000      -0.493237       -13.4217
 208   2.0000      -0.491799       -13.3825
 209   2.0000      -0.487876       -13.2758
 210   2.0000      -0.485256       -13.2045
 211   2.0000      -0.483210       -13.1488
 212   2.0000      -0.481017       -13.0891
 213   2.0000      -0.476765       -12.9734
 214   2.0000      -0.475935       -12.9509
 215   2.0000      -0.474502       -12.9118
 216   2.0000      -0.465887       -12.6774
 217   2.0000      -0.461679       -12.5629
 218   2.0000      -0.460641       -12.5347
 219   2.0000      -0.458722       -12.4825
 220   2.0000      -0.457930       -12.4609
 221   2.0000      -0.452278       -12.3071
 222   2.0000      -0.451532       -12.2868
 223   2.0000      -0.450520       -12.2593
 224   2.0000      -0.447052       -12.1649
 225   2.0000      -0.444942       -12.1075
 226   2.0000      -0.440850       -11.9961
 227   2.0000      -0.440521       -11.9872
 228   2.0000      -0.438054       -11.9201
 229   2.0000      -0.435620       -11.8538
 230   2.0000      -0.434168       -11.8143
 231   2.0000      -0.432135       -11.7590
 232   2.0000      -0.430339       -11.7101
 233   2.0000      -0.429430       -11.6854
 234   2.0000      -0.425528       -11.5792
 235   2.0000      -0.419748       -11.4219
 236   2.0000      -0.417577       -11.3628
 237   2.0000      -0.413886       -11.2624
 238   2.0000      -0.412245       -11.2178
 239   2.0000      -0.408767       -11.1231
 240   2.0000      -0.406549       -11.0627
 241   2.0000      -0.399765       -10.8782
 242   2.0000      -0.392226       -10.6730
 243   2.0000      -0.390789       -10.6339
 244   2.0000      -0.386611       -10.5202
 245   2.0000      -0.382815       -10.4169
 246   2.0000      -0.374023       -10.1777
 247   2.0000      -0.373930       -10.1751
 248   2.0000      -0.368983       -10.0405
 249   2.0000      -0.367560       -10.0018
 250   2.0000      -0.365701        -9.9512
 251   2.0000      -0.363397        -9.8885
 252   2.0000      -0.358880        -9.7656
 253   2.0000      -0.358272        -9.7491
 254   2.0000      -0.351315        -9.5598
 255   2.0000      -0.344440        -9.3727
 256   2.0000      -0.340227        -9.2581
 257   2.0000      -0.334545        -9.1034
 258   2.0000      -0.323247        -8.7960
 259   2.0000      -0.320206        -8.7133
 260   2.0000      -0.302488        -8.2311
 261   2.0000      -0.297164        -8.0862
 262   2.0000      -0.292310        -7.9542
 263   2.0000      -0.280218        -7.6251
 264   2.0000      -0.273524        -7.4430
 265   2.0000      -0.231161        -6.2902
 266   0.0000      -0.120935        -3.2908
 267   0.0000      -0.089746        -2.4421
 268   0.0000      -0.070432        -1.9165
 269   0.0000      -0.069249        -1.8843
 270   0.0000      -0.053900        -1.4667

MULLIKEN ATOMIC CHARGES
-----------------------
   0 C :    0.339081
   1 C :   -0.346179
   2 C :   -0.181563
   3 N :    0.146547
   4 C :   -0.200549
   5 N :    0.145236
   6 C :    0.024708
   7 C :    0.032448
   8 C :   -0.090128
   9 C :    0.125123
  10 C :   -0.113395
  11 C :   -0.024248
  12 S :    0.188172
  13 C :   -0.141626
  14 C :    0.051630
  15 Br:    0.047871
  16 C :    0.184033
  17 O :   -0.228109
  18 C :   -0.126158
  19 C :    0.026339
  20 N :   -0.013729
  21 C :   -0.108486
  22 S :    0.186175
  23 C :    0.003363
  24 N :    0.273846
  25 O :   -0.246551
  26 O :   -0.253068
  27 C :    0.006149
  28 C :    0.143155
  29 C :   -0.043180
  30 C :    0.016461
  31 C :    0.002703
  32 C :    0.000467
  33 C :    0.027413
  34 C :   -0.036486
  35 C :    0.051074
  36 C :    0.024039
  37 C :   -0.015751
  38 S :    0.070613
  39 C :   -0.055951
  40 C :    0.044351
  41 C :    0.034419
  42 C :   -0.019102
  43 S :    0.098279
  44 C :    0.006424
  45 C :   -0.012225
  46 C :   -0.098960
  47 C :    0.289099
  48 C :   -0.355183
  49 C :   -0.178828
  50 N :    0.135304
  51 C :   -0.216617
  52 N :    0.139648
  53 C :    0.012116
  54 C :    0.018552
  55 C :    0.132737
  56 O :   -0.181911
  57 C :   -0.083593
  58 C :    0.098131
  59 C :   -0.083576
  60 C :   -0.033311
  61 S :    0.175801
  62 C :   -0.127817
  63 C :    0.050172
  64 Br:    0.018269
  65 H :   -0.012870
  66 H :   -0.005513
  67 H :    0.006958
  68 H :    0.047254
  69 H :    0.188778
  70 H :    0.012972
  71 H :   -0.000604
  72 H :   -0.006763
  73 H :    0.026224
  74 H :   -0.005567
  75 H :   -0.000987
  76 H :   -0.000232
  77 H :   -0.004992
  78 H :   -0.001779
  79 H :    0.004281
  80 H :    0.010432
  81 H :    0.016259
  82 H :   -0.021654
  83 H :   -0.012054
  84 H :    0.006186
Sum of atomic charges:   -0.0000000

LOEWDIN ATOMIC CHARGES
----------------------
   0 C :    0.091610
   1 C :   -0.151928
   2 C :   -0.008595
   3 N :   -0.064236
   4 C :   -0.020626
   5 N :   -0.055503
   6 C :   -0.016742
   7 C :   -0.044878
   8 C :    0.025452
   9 C :   -0.034827
  10 C :   -0.147614
  11 C :   -0.006286
  12 S :    0.443755
  13 C :   -0.271505
  14 C :   -0.065933
  15 Br:    0.159295
  16 C :    0.107242
  17 O :   -0.176427
  18 C :   -0.131977
  19 C :    0.109942
  20 N :    0.074366
  21 C :   -0.102415
  22 S :    0.477146
  23 C :   -0.199524
  24 N :    0.272919
  25 O :   -0.212477
  26 O :   -0.219904
  27 C :    0.005939
  28 C :   -0.094017
  29 C :   -0.006269
  30 C :   -0.019728
  31 C :   -0.004091
  32 C :   -0.048203
  33 C :   -0.021392
  34 C :   -0.156297
  35 C :   -0.005410
  36 C :   -0.045805
  37 C :   -0.146792
  38 S :    0.413915
  39 C :   -0.193281
  40 C :   -0.004556
  41 C :   -0.038583
  42 C :   -0.099206
  43 S :    0.404643
  44 C :   -0.071579
  45 C :    0.043818
  46 C :   -0.111162
  47 C :    0.070521
  48 C :   -0.161210
  49 C :   -0.025644
  50 N :   -0.067469
  51 C :   -0.021979
  52 N :   -0.075515
  53 C :   -0.022381
  54 C :   -0.055310
  55 C :    0.082188
  56 O :   -0.168922
  57 C :    0.017687
  58 C :   -0.036325
  59 C :   -0.147061
  60 C :   -0.017124
  61 S :    0.424679
  62 C :   -0.274971
  63 C :   -0.062293
  64 Br:    0.132676
  65 H :    0.040047
  66 H :    0.039371
  67 H :    0.042022
  68 H :    0.036733
  69 H :    0.083929
  70 H :    0.045847
  71 H :    0.034145
  72 H :    0.029348
  73 H :    0.013825
  74 H :    0.033197
  75 H :    0.040113
  76 H :    0.038508
  77 H :    0.035415
  78 H :    0.037223
  79 H :    0.040762
  80 H :    0.038633
  81 H :    0.030239
  82 H :    0.036550
  83 H :    0.039097
  84 H :    0.041172

  Mayer bond orders larger than 0.100000
B(  0-C ,  1-C ) :   1.6260 B(  0-C ,  6-C ) :   1.0076 B(  0-C , 18-C ) :   1.0903
B(  1-C ,  2-C ) :   1.1554 B(  1-C ,  4-C ) :   1.1404 B(  2-C ,  3-N ) :   2.9412
B(  4-C ,  5-N ) :   2.9638 B(  6-C ,  7-C ) :   1.2709 B(  6-C , 11-C ) :   1.4260
B(  7-C ,  8-C ) :   1.4107 B(  7-C , 16-C ) :   0.9869 B(  8-C ,  9-C ) :   1.2295
B(  8-C , 65-H ) :   1.0216 B(  9-C , 10-C ) :   1.3161 B(  9-C , 14-C ) :   1.1650
B( 10-C , 11-C ) :   1.3143 B( 10-C , 12-S ) :   1.0943 B( 11-C , 66-H ) :   0.9750
B( 12-S , 13-C ) :   1.0884 B( 13-C , 14-C ) :   1.6026 B( 13-C , 15-Br) :   1.0387
B( 14-C , 67-H ) :   0.9962 B( 16-C , 17-O ) :   2.0220 B( 16-C , 18-C ) :   0.9985
B( 17-O , 69-H ) :   0.1449 B( 18-C , 19-C ) :   1.4843 B( 19-C , 20-N ) :   1.3091
B( 19-C , 68-H ) :   0.9312 B( 20-N , 21-C ) :   1.2162 B( 20-N , 69-H ) :   0.8193
B( 21-C , 22-S ) :   1.1445 B( 21-C , 28-C ) :   1.3487 B( 22-S , 23-C ) :   1.0770
B( 23-C , 24-N ) :   0.9617 B( 23-C , 27-C ) :   1.5148 B( 24-N , 25-O ) :   1.5361
B( 24-N , 26-O ) :   1.5184 B( 25-O , 26-O ) :   0.2630 B( 27-C , 28-C ) :   1.2085
B( 27-C , 70-H ) :   1.0011 B( 28-C , 29-C ) :   1.0752 B( 29-C , 30-C ) :   1.6433
B( 29-C , 71-H ) :   0.9745 B( 30-C , 31-C ) :   1.1810 B( 30-C , 72-H ) :   0.9896
B( 31-C , 32-C ) :   1.5552 B( 31-C , 73-H ) :   0.9604 B( 32-C , 33-C ) :   1.2107
B( 32-C , 74-H ) :   0.9733 B( 33-C , 34-C ) :   1.5461 B( 33-C , 75-H ) :   0.9643
B( 34-C , 35-C ) :   1.1668 B( 34-C , 38-S ) :   1.0314 B( 35-C , 36-C ) :   1.5670
B( 35-C , 76-H ) :   0.9982 B( 36-C , 37-C ) :   1.2047 B( 36-C , 77-H ) :   0.9951
B( 37-C , 38-S ) :   1.0803 B( 37-C , 39-C ) :   1.4494 B( 39-C , 40-C ) :   1.2307
B( 39-C , 43-S ) :   1.0437 B( 40-C , 41-C ) :   1.5283 B( 40-C , 78-H ) :   0.9959
B( 41-C , 42-C ) :   1.1939 B( 41-C , 79-H ) :   1.0008 B( 42-C , 43-S ) :   1.0907
B( 42-C , 44-C ) :   1.4689 B( 44-C , 45-C ) :   1.2439 B( 44-C , 80-H ) :   0.9658
B( 45-C , 46-C ) :   1.5017 B( 45-C , 81-H ) :   0.9290 B( 46-C , 47-C ) :   1.0932
B( 46-C , 55-C ) :   0.9790 B( 47-C , 48-C ) :   1.5703 B( 47-C , 53-C ) :   1.0136
B( 48-C , 49-C ) :   1.1341 B( 48-C , 51-C ) :   1.1843 B( 49-C , 50-N ) :   2.9621
B( 51-C , 52-N ) :   2.9571 B( 53-C , 54-C ) :   1.2702 B( 53-C , 60-C ) :   1.4087
B( 54-C , 55-C ) :   0.9351 B( 54-C , 57-C ) :   1.4061 B( 55-C , 56-O ) :   2.1540
B( 57-C , 58-C ) :   1.2543 B( 57-C , 82-H ) :   1.0178 B( 58-C , 59-C ) :   1.3091
B( 58-C , 63-C ) :   1.1688 B( 59-C , 60-C ) :   1.3146 B( 59-C , 61-S ) :   1.0856
B( 60-C , 83-H ) :   0.9824 B( 61-S , 62-C ) :   1.0791 B( 62-C , 63-C ) :   1.6126
B( 62-C , 64-Br) :   1.0169 B( 63-C , 84-H ) :   0.9961

-----------------------------------------------------------------------------
         ABSORPTION SPECTRUM VIA TRANSITION ELECTRIC DIPOLE MOMENTS
-----------------------------------------------------------------------------
State   Energy  Wavelength   fosc         T2         TX        TY        TZ
        (cm-1)    (nm)                  (au**2)     (au)      (au)      (au)
-----------------------------------------------------------------------------
   0    9551.7   1046.9   0.448670636  15.46402  -3.68237   1.08291  -0.85525
   1   16989.5    588.6   0.246475916   4.77605   1.90572  -1.01589   0.33499
   2   19085.5    524.0   0.489661236   8.44631   1.43227  -2.13034   1.36255
   3   19872.2    503.2   0.443737375   7.35115  -1.12283   2.19299  -1.13190
   4   20430.7    489.5   0.206118269   3.32131   0.01558   1.50525  -1.02727
   5   21431.9    466.6   0.099585788   1.52972   1.13130  -0.38095   0.32367
   6   23052.5    433.8   0.198426113   2.83372  -0.79273   1.17984  -0.90181
   7   23929.8    417.9   0.195254727   2.68620  -0.19291  -1.04203   1.25027
   8   24288.5    411.7   0.193626212   2.62445  -0.74054  -1.19900   0.79903
   9   24529.5    407.7   0.389793591   5.23145   2.20193  -0.52657  -0.32506
  10   26152.6    382.4   0.439203696   5.52874   1.27434   1.41991  -1.37429
  11   26564.5    376.4   0.103159404   1.27845   0.83219  -0.05741  -0.76329
  12   26698.2    374.6   0.058204018   0.71771   0.81205  -0.20374  -0.12948
  13   27420.4    364.7   0.182623557   2.19259  -1.44318   0.19816   0.26565
  14   27680.7    361.3   0.086701286   1.03115  -0.96174   0.32197   0.05034
  15   28696.7    348.5   0.032972659   0.37827   0.15266  -0.47734   0.35653
  16   28801.5    347.2   0.146575544   1.67541   1.15125  -0.40524  -0.43105
  17   29009.7    344.7   0.217866022   2.47242   1.20066  -0.16016  -1.00258
  18   29344.8    340.8   0.275076765   3.08602   0.67603   1.03847  -1.24522
  19   29526.9    338.7   0.095942440   1.06972  -0.93050   0.20217   0.40375
  20   30111.1    332.1   0.003318031   0.03628   0.00052  -0.18955   0.01861
  21   30481.0    328.1   0.123544467   1.33435  -0.32503  -0.59460   0.93550
  22   30657.1    326.2   0.058934156   0.63287  -0.36841   0.56969  -0.41544
  23   31184.8    320.7   0.044234611   0.46698   0.37917   0.02626  -0.56790
  24   31535.4    317.1   0.270045924   2.81913  -0.44148   0.90900  -1.34087
  25   31958.2    312.9   0.006040968   0.06223   0.08609  -0.13029   0.19453
  26   32387.1    308.8   0.191101007   1.94252   0.73174   0.55583  -1.04792
  27   32607.0    306.7   0.071317175   0.72004   0.66285  -0.33452  -0.41082
  28   32732.0    305.5   0.024205552   0.24345   0.15426  -0.07499   0.46264
  29   33063.9    302.4   0.053202800   0.52973   0.51820  -0.03779  -0.50968
  30   33279.0    300.5   0.004655760   0.04606   0.18234  -0.02430  -0.11053
  31   33404.7    299.4   0.202548155   1.99616   1.09167   0.09116  -0.89225
  32   33562.2    298.0   0.005770441   0.05660   0.23305   0.04709  -0.00852
  33   33771.2    296.1   0.037441201   0.36499   0.00087  -0.33959   0.49966
  34   34102.5    293.2   0.025117392   0.24247  -0.35603   0.10949   0.32207
  35   34338.5    291.2   0.097350769   0.93333   0.33827  -0.59038   0.68582
  36   34492.1    289.9   0.108820547   1.03864   0.48843   0.33602  -0.82896
  37   34820.8    287.2   0.115024237   1.08749   0.39060   0.58673  -0.76856
  38   34980.0    285.9   0.043666427   0.41096  -0.25010  -0.48016   0.34330
  39   35383.1    282.6   0.216494450   2.01431  -0.38740  -0.55196   1.24883
  40   35940.5    278.2   0.030494058   0.27932   0.36108   0.12822  -0.36401
  41   36057.0    277.3   0.003808764   0.03478  -0.03890   0.15786  -0.09133
  42   36270.4    275.7   0.014528737   0.13187  -0.30979   0.12297   0.14416
  43   36322.4    275.3   0.002619418   0.02374  -0.12627   0.07663  -0.04387
  44   36639.4    272.9   0.007139673   0.06415   0.21407   0.09904   0.09229
  45   37118.8    269.4   0.005654978   0.05015  -0.06100  -0.09049   0.19557
  46   37223.3    268.6   0.000055717   0.00049  -0.00033   0.00195  -0.02211
  47   37428.7    267.2   0.064241344   0.56505   0.29257   0.16643  -0.67212
  48   37474.1    266.9   0.069779956   0.61302   0.00889  -0.22511   0.74984
  49   37978.3    263.3   0.016959906   0.14702  -0.32498   0.10337   0.17526
  50   38434.6    260.2   0.056560018   0.48447  -0.58678   0.13882   0.34768
  51   38588.9    259.1   0.040275564   0.34360   0.11786  -0.37830   0.43198
  52   38913.6    257.0   0.055164852   0.46670  -0.58727   0.33875  -0.08401
  53   39271.6    254.6   0.073893136   0.61944  -0.21740   0.46741  -0.59474
  54   39669.6    252.1   0.188000129   1.56018  -1.14321   0.48128   0.14704
  55   40064.6    249.6   0.018940995   0.15564  -0.05429   0.34031  -0.19204

FINAL SINGLE POINT ENERGY     -9605.510477579486

DIPOLE MOMENT
-------------
                                X             Y             Z
Electronic contribution:    113.77108    -117.78072      50.16439
Nuclear contribution   :   -114.68131     121.10205     -53.34245
                        -----------------------------------------
Total Dipole Moment    :     -0.91023       3.32133      -3.17806
                        -----------------------------------------
Magnitude (a.u.)       :      4.68613
Magnitude (Debye)      :     11.91119

Rotational constants in cm-1:     0.001128     0.000577     0.000418
Rotational constants in MHz :    33.805816    17.291487    12.540995

                             ****ORCA TERMINATED NORMALLY****
TOTAL RUN TIME: 0 days 0 hours 11 minutes 10 seconds 86 msec
