                         Program Version 4.2.0 -  RELEASE  -
|  1> # ORCA input file
|  2> # SCF done       -165.265518689941          0.000552765793
|  3> ! CAM-B3LYP def2-SVP def2/J RIJCOSX Grid4 TightSCF
|  4> %maxcore 5000
|  5> %tddft
|  6>     Mode sTDDFT
|  7>     Ethresh 5.0
|  8>     maxcore 5000
|  9> end
| 10>
| 11> %pal
| 12>   nprocs 6
| 13>   end
| 14> * xyz 0 1
| 15>    C       -6.02651        -0.55868         3.80829
| 16>    C       -4.85959        -0.52576         3.08465
| 17>    C       -3.93687        -1.58958         3.03718
| 18>    N       -3.15589        -2.42811         2.95523
| 19>    C       -4.42382         0.54467         2.27799
| 20>    N       -3.98267         1.37301         1.61536
| 21>    C       -6.45876        -1.67245         4.64940
| 22>    C       -7.75697        -1.39325         5.13703
| 23>    C       -8.42710        -2.23524         5.98988
| 24>    C       -7.78301        -3.41251         6.38454
| 25>    C       -6.48778        -3.68426         5.88885
| 26>    C       -5.81053        -2.83334         5.02383
| 27>    S       -5.87180        -5.18831         6.50368
| 28>    C       -7.35621        -5.43906         7.38401
| 29>    C       -8.25990        -4.44200         7.24247
| 30>   Br       -7.58502        -7.02047         8.36193
| 31>    C       -8.20574        -0.08872         4.60290
| 32>    O       -9.30077         0.40987         4.78006
| 33>    C       -7.06443         0.44366         3.83561
| 34>    C       -7.00340         1.70583         3.28792
| 35>    C       -8.06844         2.60769         3.19908
| 36>    C       -7.88801         3.88307         2.71351
| 37>    C       -8.92498         4.78870         2.47763
| 38>    C       -8.69889         6.07892         2.04491
| 39>    C       -9.66312         7.01086         1.64870
| 40>    C      -11.00197         6.73997         1.44336
| 41>    C      -11.90511         7.64778         0.90943
| 42>    C      -13.19716         7.30654         0.53603
| 43>    C      -14.13881         8.09975        -0.14465
| 44>    C      -15.28114         7.43067        -0.50237
| 45>    C      -15.29308         6.08614        -0.10020
| 46>    S      -13.83298         5.69362         0.76972
| 47>    C      -16.22872         5.08973        -0.36905
| 48>    C      -17.33050         5.11412        -1.23948
| 49>    C      -17.94299         3.89670        -1.37992
| 50>    C      -17.37055         2.86487        -0.60805
| 51>    S      -16.04250         3.50661         0.33625
| 52>    C      -17.66449         1.51231        -0.67796
| 53>    C      -17.09178         0.50977         0.10726
| 54>    C      -16.53999         0.70547         1.35477
| 55>    C      -15.81207        -0.24477         2.07772
| 56>    C      -15.54329        -0.09838         3.41651
| 57>    C      -14.73990        -0.94545         4.19842
| 58>    C      -13.70318        -1.71319         3.73379
| 59>    C      -12.94405        -2.52773         4.58470
| 60>    C      -11.70969        -3.08793         4.36317
| 61>    C      -10.63603        -2.76142         3.46407
| 62>    C      -10.42509        -1.57068         2.80815
| 63>    C       -9.23038        -1.26563         2.13257
| 64>    N       -8.26043        -0.93550         1.60974
| 65>    C      -11.26740        -0.43971         2.81304
| 66>    N      -11.87675         0.53110         2.74457
| 67>    C       -9.65419        -3.84599         3.54273
| 68>    C      -10.07116        -4.76974         4.53210
| 69>    C      -11.30403        -4.26421         5.16609
| 70>    O      -11.86912        -4.71384         6.14084
| 71>    C       -9.37407        -5.91656         4.82144
| 72>    C       -8.18342        -6.14808         4.12431
| 73>    C       -7.75085        -5.20024         3.16816
| 74>    C       -8.47742        -4.05770         2.85165
| 75>    S       -6.22846        -5.65110         2.46306
| 76>    C       -6.20131        -7.09631         3.44062
| 77>    C       -7.27413        -7.23344         4.25530
| 78>   Br       -4.75591        -8.27986         3.30275
| 79>    H       -9.41427        -1.99129         6.35221
| 80>    H       -4.82050        -3.08473         4.68218
| 81>    H       -9.22933        -4.43639         7.70725
| 82>    H       -6.05707         2.03316         2.87606
| 83>    H       -9.05371         2.28246         3.50048
| 84>    H       -6.87893         4.20189         2.47714
| 85>    H       -9.93533         4.43939         2.63713
| 86>    H       -7.66645         6.40379         1.99360
| 87>    H       -9.31568         8.00903         1.41259
| 88>    H      -11.36862         5.74126         1.63981
| 89>    H      -11.58125         8.66038         0.70674
| 90>    H      -13.94578         9.13254        -0.37558
| 91>    H      -16.09839         7.87424        -1.04235
| 92>    H      -17.62108         6.00183        -1.77212
| 93>    H      -18.78173         3.71446        -2.02857
| 94>    H      -18.33665         1.21442        -1.47249
| 95>    H      -17.13214        -0.50097        -0.27958
| 96>    H      -16.71445         1.65251         1.84914
| 97>    H      -15.47427        -1.13322         1.56117
| 98>    H      -16.02827         0.72026         3.93380
| 99>    H      -14.88693        -0.90485         5.27099
|100>    H      -13.43610        -1.66368         2.68855
|101>    H      -13.40512        -2.82343         5.52311
|102>    H       -9.72994        -6.61145         5.56634
|103>    H       -8.11693        -3.38470         2.09198
|104>    H       -7.41632        -8.06071         4.92693
|105> *
|106>
|107>                          ****END OF INPUT****

CARTESIAN COORDINATES (ANGSTROEM)
---------------------------------
  C     -6.026510   -0.558680    3.808290
  C     -4.859590   -0.525760    3.084650
  C     -3.936870   -1.589580    3.037180
  N     -3.155890   -2.428110    2.955230
  C     -4.423820    0.544670    2.277990
  N     -3.982670    1.373010    1.615360
  C     -6.458760   -1.672450    4.649400
  C     -7.756970   -1.393250    5.137030
  C     -8.427100   -2.235240    5.989880
  C     -7.783010   -3.412510    6.384540
  C     -6.487780   -3.684260    5.888850
  C     -5.810530   -2.833340    5.023830
  S     -5.871800   -5.188310    6.503680
  C     -7.356210   -5.439060    7.384010
  C     -8.259900   -4.442000    7.242470
  Br    -7.585020   -7.020470    8.361930
  C     -8.205740   -0.088720    4.602900
  O     -9.300770    0.409870    4.780060
  C     -7.064430    0.443660    3.835610
  C     -7.003400    1.705830    3.287920
  C     -8.068440    2.607690    3.199080
  C     -7.888010    3.883070    2.713510
  C     -8.924980    4.788700    2.477630
  C     -8.698890    6.078920    2.044910
  C     -9.663120    7.010860    1.648700
  C    -11.001970    6.739970    1.443360
  C    -11.905110    7.647780    0.909430
  C    -13.197160    7.306540    0.536030
  C    -14.138810    8.099750   -0.144650
  C    -15.281140    7.430670   -0.502370
  C    -15.293080    6.086140   -0.100200
  S    -13.832980    5.693620    0.769720
  C    -16.228720    5.089730   -0.369050
  C    -17.330500    5.114120   -1.239480
  C    -17.942990    3.896700   -1.379920
  C    -17.370550    2.864870   -0.608050
  S    -16.042500    3.506610    0.336250
  C    -17.664490    1.512310   -0.677960
  C    -17.091780    0.509770    0.107260
  C    -16.539990    0.705470    1.354770
  C    -15.812070   -0.244770    2.077720
  C    -15.543290   -0.098380    3.416510
  C    -14.739900   -0.945450    4.198420
  C    -13.703180   -1.713190    3.733790
  C    -12.944050   -2.527730    4.584700
  C    -11.709690   -3.087930    4.363170
  C    -10.636030   -2.761420    3.464070
  C    -10.425090   -1.570680    2.808150
  C     -9.230380   -1.265630    2.132570
  N     -8.260430   -0.935500    1.609740
  C    -11.267400   -0.439710    2.813040
  N    -11.876750    0.531100    2.744570
  C     -9.654190   -3.845990    3.542730
  C    -10.071160   -4.769740    4.532100
  C    -11.304030   -4.264210    5.166090
  O    -11.869120   -4.713840    6.140840
  C     -9.374070   -5.916560    4.821440
  C     -8.183420   -6.148080    4.124310
  C     -7.750850   -5.200240    3.168160
  C     -8.477420   -4.057700    2.851650
  S     -6.228460   -5.651100    2.463060
  C     -6.201310   -7.096310    3.440620
  C     -7.274130   -7.233440    4.255300
  Br    -4.755910   -8.279860    3.302750
  H     -9.414270   -1.991290    6.352210
  H     -4.820500   -3.084730    4.682180
  H     -9.229330   -4.436390    7.707250
  H     -6.057070    2.033160    2.876060
  H     -9.053710    2.282460    3.500480
  H     -6.878930    4.201890    2.477140
  H     -9.935330    4.439390    2.637130
  H     -7.666450    6.403790    1.993600
  H     -9.315680    8.009030    1.412590
  H    -11.368620    5.741260    1.639810
  H    -11.581250    8.660380    0.706740
  H    -13.945780    9.132540   -0.375580
  H    -16.098390    7.874240   -1.042350
  H    -17.621080    6.001830   -1.772120
  H    -18.781730    3.714460   -2.028570
  H    -18.336650    1.214420   -1.472490
  H    -17.132140   -0.500970   -0.279580
  H    -16.714450    1.652510    1.849140
  H    -15.474270   -1.133220    1.561170
  H    -16.028270    0.720260    3.933800
  H    -14.886930   -0.904850    5.270990
  H    -13.436100   -1.663680    2.688550
  H    -13.405120   -2.823430    5.523110
  H     -9.729940   -6.611450    5.566340
  H     -8.116930   -3.384700    2.091980
  H     -7.416320   -8.060710    4.926930

 Total Charge           Charge          ....    0
 Multiplicity           Mult            ....    1
 Number of Electrons    NEL             ....  516
 Basis Dimension        Dim             .... 1078

ORBITAL ENERGIES
----------------

  NO   OCC          E(Eh)            E(eV)
   0   2.0000    -482.880902    -13139.8574
   1   2.0000    -482.875078    -13139.6989
   2   2.0000     -88.965831     -2420.8833
   3   2.0000     -88.965459     -2420.8732
   4   2.0000     -88.957982     -2420.6697
   5   2.0000     -88.957625     -2420.6600
   6   2.0000     -62.558475     -1702.3026
   7   2.0000     -62.552790     -1702.1479
   8   2.0000     -56.392388     -1534.5149
   9   2.0000     -56.389750     -1534.4431
  10   2.0000     -56.389697     -1534.4417
  11   2.0000     -56.386719     -1534.3606
  12   2.0000     -56.384039     -1534.2877
  13   2.0000     -56.384002     -1534.2867
  14   2.0000     -19.205099      -522.5973
  15   2.0000     -19.200626      -522.4756
  16   2.0000     -14.409138      -392.0926
  17   2.0000     -14.398654      -391.8073
  18   2.0000     -14.398019      -391.7900
  19   2.0000     -14.397477      -391.7753
  20   2.0000     -10.354761      -281.7674
  21   2.0000     -10.349953      -281.6365
  22   2.0000     -10.348335      -281.5925
  23   2.0000     -10.346516      -281.5430
  24   2.0000     -10.330088      -281.0960
  25   2.0000     -10.329185      -281.0714
  26   2.0000     -10.324726      -280.9501
  27   2.0000     -10.321999      -280.8759
  28   2.0000     -10.321772      -280.8697
  29   2.0000     -10.321194      -280.8540
  30   2.0000     -10.320221      -280.8275
  31   2.0000     -10.319908      -280.8190
  32   2.0000     -10.315092      -280.6879
  33   2.0000     -10.314077      -280.6603
  34   2.0000     -10.311831      -280.5992
  35   2.0000     -10.303115      -280.3620
  36   2.0000     -10.302941      -280.3573
  37   2.0000     -10.301841      -280.3273
  38   2.0000     -10.301065      -280.3062
  39   2.0000     -10.300623      -280.2942
  40   2.0000     -10.299568      -280.2655
  41   2.0000     -10.297593      -280.2117
  42   2.0000     -10.297262      -280.2027
  43   2.0000     -10.295756      -280.1618
  44   2.0000     -10.295657      -280.1591
  45   2.0000     -10.294900      -280.1385
  46   2.0000     -10.294380      -280.1243
  47   2.0000     -10.293841      -280.1097
  48   2.0000     -10.293098      -280.0894
  49   2.0000     -10.292198      -280.0649
  50   2.0000     -10.291559      -280.0475
  51   2.0000     -10.291102      -280.0351
  52   2.0000     -10.290652      -280.0229
  53   2.0000     -10.290548      -280.0200
  54   2.0000     -10.289918      -280.0029
  55   2.0000     -10.289443      -279.9900
  56   2.0000     -10.289119      -279.9812
  57   2.0000     -10.288547      -279.9656
  58   2.0000     -10.288298      -279.9588
  59   2.0000     -10.287101      -279.9263
  60   2.0000     -10.286531      -279.9108
  61   2.0000     -10.285582      -279.8849
  62   2.0000     -10.284284      -279.8496
  63   2.0000     -10.282908      -279.8122
  64   2.0000     -10.282341      -279.7967
  65   2.0000     -10.280787      -279.7544
  66   2.0000     -10.280770      -279.7540
  67   2.0000     -10.280251      -279.7399
  68   2.0000     -10.278183      -279.6836
  69   2.0000     -10.277478      -279.6644
  70   2.0000     -10.275456      -279.6094
  71   2.0000     -10.267106      -279.3822
  72   2.0000      -8.787861      -239.1299
  73   2.0000      -8.782226      -238.9765
  74   2.0000      -8.061088      -219.3534
  75   2.0000      -8.061064      -219.3527
  76   2.0000      -8.054098      -219.1632
  77   2.0000      -8.054005      -219.1606
  78   2.0000      -6.623966      -180.2473
  79   2.0000      -6.618452      -180.0972
  80   2.0000      -6.609754      -179.8606
  81   2.0000      -6.609450      -179.8523
  82   2.0000      -6.604013      -179.7043
  83   2.0000      -6.603786      -179.6982
  84   2.0000      -6.030850      -164.1078
  85   2.0000      -6.030773      -164.1057
  86   2.0000      -6.026517      -163.9899
  87   2.0000      -6.026477      -163.9888
  88   2.0000      -6.023706      -163.9134
  89   2.0000      -6.023647      -163.9118
  90   2.0000      -6.022369      -163.8770
  91   2.0000      -6.022334      -163.8760
  92   2.0000      -6.019646      -163.8029
  93   2.0000      -6.019440      -163.7973
  94   2.0000      -6.015217      -163.6824
  95   2.0000      -6.015198      -163.6818
  96   2.0000      -2.739863       -74.5555
  97   2.0000      -2.735969       -74.4495
  98   2.0000      -2.735652       -74.4409
  99   2.0000      -2.734373       -74.4061
 100   2.0000      -2.730268       -74.2944
 101   2.0000      -2.730127       -74.2905
 102   2.0000      -2.724389       -74.1344
 103   2.0000      -2.724375       -74.1340
 104   2.0000      -2.718630       -73.9777
 105   2.0000      -2.718621       -73.9774
 106   2.0000      -1.119119       -30.4528
 107   2.0000      -1.114468       -30.3262
 108   2.0000      -1.014163       -27.5968
 109   2.0000      -1.009348       -27.4658
 110   2.0000      -1.008051       -27.4305
 111   2.0000      -1.003341       -27.3023
 112   2.0000      -0.997304       -27.1380
 113   2.0000      -0.987134       -26.8613
 114   2.0000      -0.983233       -26.7551
 115   2.0000      -0.977367       -26.5955
 116   2.0000      -0.976703       -26.5774
 117   2.0000      -0.973629       -26.4938
 118   2.0000      -0.935959       -25.4688
 119   2.0000      -0.932959       -25.3871
 120   2.0000      -0.930027       -25.3073
 121   2.0000      -0.927909       -25.2497
 122   2.0000      -0.915570       -24.9139
 123   2.0000      -0.908771       -24.7289
 124   2.0000      -0.897459       -24.4211
 125   2.0000      -0.896506       -24.3952
 126   2.0000      -0.892009       -24.2728
 127   2.0000      -0.884206       -24.0605
 128   2.0000      -0.875278       -23.8175
 129   2.0000      -0.873052       -23.7570
 130   2.0000      -0.872320       -23.7370
 131   2.0000      -0.863456       -23.4958
 132   2.0000      -0.859891       -23.3988
 133   2.0000      -0.845399       -23.0045
 134   2.0000      -0.837665       -22.7940
 135   2.0000      -0.831594       -22.6288
 136   2.0000      -0.820076       -22.3154
 137   2.0000      -0.819130       -22.2897
 138   2.0000      -0.814275       -22.1576
 139   2.0000      -0.800948       -21.7949
 140   2.0000      -0.784038       -21.3348
 141   2.0000      -0.770358       -20.9625
 142   2.0000      -0.754814       -20.5395
 143   2.0000      -0.748377       -20.3644
 144   2.0000      -0.742823       -20.2133
 145   2.0000      -0.734500       -19.9868
 146   2.0000      -0.721207       -19.6250
 147   2.0000      -0.704964       -19.1830
 148   2.0000      -0.694002       -18.8848
 149   2.0000      -0.690479       -18.7889
 150   2.0000      -0.683442       -18.5974
 151   2.0000      -0.676777       -18.4161
 152   2.0000      -0.676571       -18.4104
 153   2.0000      -0.671152       -18.2630
 154   2.0000      -0.661337       -17.9959
 155   2.0000      -0.658079       -17.9072
 156   2.0000      -0.647881       -17.6297
 157   2.0000      -0.645490       -17.5647
 158   2.0000      -0.644295       -17.5322
 159   2.0000      -0.639953       -17.4140
 160   2.0000      -0.638602       -17.3772
 161   2.0000      -0.628117       -17.0919
 162   2.0000      -0.622973       -16.9520
 163   2.0000      -0.616611       -16.7788
 164   2.0000      -0.613220       -16.6866
 165   2.0000      -0.611127       -16.6296
 166   2.0000      -0.609188       -16.5769
 167   2.0000      -0.594171       -16.1682
 168   2.0000      -0.591270       -16.0893
 169   2.0000      -0.586623       -15.9628
 170   2.0000      -0.581426       -15.8214
 171   2.0000      -0.576447       -15.6859
 172   2.0000      -0.570452       -15.5228
 173   2.0000      -0.566669       -15.4199
 174   2.0000      -0.558042       -15.1851
 175   2.0000      -0.555299       -15.1105
 176   2.0000      -0.547032       -14.8855
 177   2.0000      -0.545781       -14.8514
 178   2.0000      -0.541174       -14.7261
 179   2.0000      -0.537298       -14.6206
 180   2.0000      -0.533542       -14.5184
 181   2.0000      -0.531385       -14.4597
 182   2.0000      -0.523582       -14.2474
 183   2.0000      -0.522070       -14.2063
 184   2.0000      -0.520613       -14.1666
 185   2.0000      -0.517918       -14.0933
 186   2.0000      -0.513872       -13.9832
 187   2.0000      -0.511112       -13.9081
 188   2.0000      -0.508640       -13.8408
 189   2.0000      -0.508106       -13.8263
 190   2.0000      -0.505864       -13.7653
 191   2.0000      -0.504055       -13.7160
 192   2.0000      -0.498156       -13.5555
 193   2.0000      -0.496294       -13.5048
 194   2.0000      -0.491383       -13.3712
 195   2.0000      -0.490242       -13.3402
 196   2.0000      -0.487276       -13.2594
 197   2.0000      -0.485880       -13.2215
 198   2.0000      -0.484342       -13.1796
 199   2.0000      -0.481684       -13.1073
 200   2.0000      -0.478751       -13.0275
 201   2.0000      -0.476874       -12.9764
 202   2.0000      -0.470645       -12.8069
 203   2.0000      -0.466248       -12.6873
 204   2.0000      -0.465389       -12.6639
 205   2.0000      -0.464209       -12.6318
 206   2.0000      -0.460839       -12.5401
 207   2.0000      -0.455861       -12.4046
 208   2.0000      -0.453013       -12.3271
 209   2.0000      -0.451699       -12.2914
 210   2.0000      -0.450776       -12.2662
 211   2.0000      -0.448344       -12.2001
 212   2.0000      -0.445756       -12.1296
 213   2.0000      -0.444297       -12.0899
 214   2.0000      -0.444024       -12.0825
 215   2.0000      -0.441096       -12.0028
 216   2.0000      -0.438005       -11.9187
 217   2.0000      -0.436611       -11.8808
 218   2.0000      -0.434654       -11.8275
 219   2.0000      -0.433024       -11.7832
 220   2.0000      -0.432357       -11.7650
 221   2.0000      -0.429796       -11.6954
 222   2.0000      -0.428514       -11.6605
 223   2.0000      -0.427732       -11.6392
 224   2.0000      -0.425619       -11.5817
 225   2.0000      -0.425059       -11.5665
 226   2.0000      -0.421631       -11.4732
 227   2.0000      -0.417832       -11.3698
 228   2.0000      -0.412641       -11.2285
 229   2.0000      -0.409967       -11.1558
 230   2.0000      -0.408924       -11.1274
 231   2.0000      -0.406590       -11.0639
 232   2.0000      -0.403037       -10.9672
 233   2.0000      -0.398437       -10.8420
 234   2.0000      -0.396857       -10.7990
 235   2.0000      -0.391371       -10.6498
 236   2.0000      -0.390105       -10.6153
 237   2.0000      -0.384847       -10.4722
 238   2.0000      -0.378512       -10.2998
 239   2.0000      -0.369504       -10.0547
 240   2.0000      -0.368039       -10.0148
 241   2.0000      -0.364413        -9.9162
 242   2.0000      -0.362600        -9.8668
 243   2.0000      -0.351981        -9.5779
 244   2.0000      -0.346779        -9.4363
 245   2.0000      -0.343217        -9.3394
 246   2.0000      -0.333259        -9.0684
 247   2.0000      -0.329670        -8.9708
 248   2.0000      -0.324512        -8.8304
 249   2.0000      -0.320253        -8.7145
 250   2.0000      -0.311201        -8.4682
 251   2.0000      -0.303581        -8.2609
 252   2.0000      -0.298684        -8.1276
 253   2.0000      -0.286958        -7.8085
 254   2.0000      -0.278945        -7.5905
 255   2.0000      -0.273227        -7.4349
 256   2.0000      -0.248057        -6.7500
 257   2.0000      -0.209757        -5.7078
 258   0.0000      -0.117297        -3.1918
 259   0.0000      -0.090011        -2.4493
 260   0.0000      -0.067467        -1.8359
 261   0.0000      -0.050626        -1.3776
 262   0.0000      -0.047731        -1.2988

MULLIKEN ATOMIC CHARGES
-----------------------
   0 C :    0.334523
   1 C :   -0.353506
   2 C :   -0.193404
   3 N :    0.141814
   4 C :   -0.192142
   5 N :    0.140929
   6 C :    0.023934
   7 C :   -0.011545
   8 C :   -0.083402
   9 C :    0.099051
  10 C :   -0.077087
  11 C :   -0.041616
  12 S :    0.181025
  13 C :   -0.158971
  14 C :    0.085022
  15 Br:    0.016625
  16 C :    0.124060
  17 O :   -0.166343
  18 C :   -0.042371
  19 C :   -0.027620
  20 C :    0.002708
  21 C :    0.042115
  22 C :    0.014602
  23 C :    0.030387
  24 C :    0.012626
  25 C :    0.018944
  26 C :    0.004957
  27 C :   -0.028188
  28 C :    0.037133
  29 C :    0.026902
  30 C :   -0.042101
  31 S :    0.093805
  32 C :   -0.047164
  33 C :    0.031912
  34 C :    0.034513
  35 C :   -0.044635
  36 S :    0.098932
  37 C :    0.014156
  38 C :    0.011066
  39 C :   -0.014316
  40 C :    0.041710
  41 C :    0.009936
  42 C :    0.042208
  43 C :    0.009122
  44 C :   -0.000320
  45 C :   -0.106718
  46 C :    0.300847
  47 C :   -0.357234
  48 C :   -0.193255
  49 N :    0.140809
  50 C :   -0.191029
  51 N :    0.167125
  52 C :    0.027933
  53 C :   -0.020156
  54 C :    0.112143
  55 O :   -0.160411
  56 C :   -0.048023
  57 C :    0.095638
  58 C :   -0.076670
  59 C :   -0.039860
  60 S :    0.186089
  61 C :   -0.128003
  62 C :    0.044738
  63 Br:    0.020009
  64 H :   -0.013335
  65 H :   -0.012114
  66 H :    0.003603
  67 H :    0.005564
  68 H :    0.029933
  69 H :    0.005463
  70 H :    0.010860
  71 H :   -0.000553
  72 H :   -0.011130
  73 H :    0.017808
  74 H :   -0.010982
  75 H :   -0.007119
  76 H :   -0.008144
  77 H :   -0.009831
  78 H :   -0.007102
  79 H :   -0.003644
  80 H :   -0.000041
  81 H :    0.016735
  82 H :    0.001474
  83 H :    0.001694
  84 H :    0.008171
  85 H :    0.022667
  86 H :    0.018786
  87 H :   -0.017247
  88 H :   -0.007040
  89 H :   -0.008438
Sum of atomic charges:   -0.0000000

LOEWDIN ATOMIC CHARGES
----------------------
   0 C :    0.078439
   1 C :   -0.144157
   2 C :   -0.017484
   3 N :   -0.066652
   4 C :   -0.017070
   5 N :   -0.062123
   6 C :   -0.015391
   7 C :   -0.052561
   8 C :    0.016867
   9 C :   -0.037290
  10 C :   -0.143909
  11 C :   -0.014611
  12 S :    0.440777
  13 C :   -0.279633
  14 C :   -0.061137
  15 Br:    0.131076
  16 C :    0.080538
  17 O :   -0.149043
  18 C :   -0.092046
  19 C :    0.063681
  20 C :   -0.027137
  21 C :    0.027501
  22 C :   -0.019778
  23 C :   -0.001552
  24 C :   -0.030655
  25 C :   -0.004755
  26 C :   -0.046768
  27 C :   -0.141063
  28 C :   -0.031795
  29 C :   -0.029894
  30 C :   -0.172808
  31 S :    0.401163
  32 C :   -0.179825
  33 C :   -0.030403
  34 C :   -0.033175
  35 C :   -0.138363
  36 S :    0.417770
  37 C :   -0.055880
  38 C :   -0.019091
  39 C :   -0.037825
  40 C :    0.015086
  41 C :   -0.031191
  42 C :    0.028549
  43 C :   -0.032853
  44 C :    0.065484
  45 C :   -0.103293
  46 C :    0.065467
  47 C :   -0.142027
  48 C :   -0.013073
  49 N :   -0.061881
  50 C :   -0.018766
  51 N :   -0.058315
  52 C :   -0.015277
  53 C :   -0.058382
  54 C :    0.076778
  55 O :   -0.160000
  56 C :    0.023999
  57 C :   -0.041940
  58 C :   -0.142758
  59 C :   -0.019001
  60 S :    0.435261
  61 C :   -0.277557
  62 C :   -0.075443
  63 Br:    0.134565
  64 H :    0.038574
  65 H :    0.038492
  66 H :    0.039869
  67 H :    0.040317
  68 H :    0.037206
  69 H :    0.034175
  70 H :    0.033961
  71 H :    0.034298
  72 H :    0.030471
  73 H :    0.024872
  74 H :    0.034998
  75 H :    0.035488
  76 H :    0.033989
  77 H :    0.033341
  78 H :    0.034998
  79 H :    0.036102
  80 H :    0.033290
  81 H :    0.020514
  82 H :    0.031534
  83 H :    0.033880
  84 H :    0.036324
  85 H :    0.031896
  86 H :    0.043360
  87 H :    0.037343
  88 H :    0.038371
  89 H :    0.034969

  Mayer bond orders larger than 0.100000
B(  0-C ,  1-C ) :   1.6120 B(  0-C ,  6-C ) :   0.9851 B(  0-C , 18-C ) :   1.0887
B(  1-C ,  2-C ) :   1.1477 B(  1-C ,  4-C ) :   1.1513 B(  2-C ,  3-N ) :   2.9658
B(  4-C ,  5-N ) :   2.9691 B(  6-C ,  7-C ) :   1.2815 B(  6-C , 11-C ) :   1.4075
B(  7-C ,  8-C ) :   1.4136 B(  7-C , 16-C ) :   0.9346 B(  8-C ,  9-C ) :   1.2331
B(  8-C , 64-H ) :   1.0249 B(  9-C , 10-C ) :   1.3260 B(  9-C , 14-C ) :   1.1671
B( 10-C , 11-C ) :   1.3056 B( 10-C , 12-S ) :   1.0868 B( 11-C , 65-H ) :   0.9821
B( 12-S , 13-C ) :   1.0906 B( 13-C , 14-C ) :   1.5960 B( 13-C , 15-Br) :   1.0149
B( 14-C , 66-H ) :   0.9990 B( 16-C , 17-O ) :   2.1507 B( 16-C , 18-C ) :   0.9716
B( 18-C , 19-C ) :   1.4756 B( 19-C , 20-C ) :   1.2209 B( 19-C , 67-H ) :   0.9551
B( 20-C , 21-C ) :   1.4620 B( 20-C , 68-H ) :   0.9866 B( 21-C , 22-C ) :   1.2253
B( 21-C , 69-H ) :   0.9915 B( 22-C , 23-C ) :   1.5198 B( 22-C , 70-H ) :   0.9755
B( 23-C , 24-C ) :   1.2251 B( 23-C , 71-H ) :   0.9746 B( 24-C , 25-C ) :   1.5294
B( 24-C , 72-H ) :   0.9782 B( 25-C , 26-C ) :   1.2589 B( 25-C , 73-H ) :   0.9599
B( 26-C , 27-C ) :   1.4546 B( 26-C , 74-H ) :   0.9864 B( 27-C , 28-C ) :   1.1960
B( 27-C , 31-S ) :   1.0592 B( 28-C , 29-C ) :   1.5256 B( 28-C , 75-H ) :   0.9997
B( 29-C , 30-C ) :   1.2429 B( 29-C , 76-H ) :   0.9957 B( 30-C , 31-S ) :   1.0721
B( 30-C , 32-C ) :   1.4144 B( 32-C , 33-C ) :   1.2342 B( 32-C , 36-S ) :   1.0647
B( 33-C , 34-C ) :   1.5371 B( 33-C , 77-H ) :   0.9952 B( 34-C , 35-C ) :   1.1915
B( 34-C , 78-H ) :   0.9989 B( 35-C , 36-S ) :   1.0595 B( 35-C , 37-C ) :   1.4971
B( 37-C , 38-C ) :   1.2482 B( 37-C , 79-H ) :   0.9637 B( 38-C , 39-C ) :   1.5118
B( 38-C , 80-H ) :   0.9686 B( 39-C , 40-C ) :   1.2436 B( 39-C , 81-H ) :   0.9585
B( 40-C , 41-C ) :   1.5642 B( 40-C , 82-H ) :   0.9779 B( 41-C , 42-C ) :   1.1893
B( 41-C , 83-H ) :   0.9654 B( 42-C , 43-C ) :   1.5846 B( 42-C , 84-H ) :   0.9691
B( 43-C , 44-C ) :   1.1974 B( 43-C , 85-H ) :   0.9564 B( 44-C , 45-C ) :   1.5295
B( 44-C , 86-H ) :   0.9517 B( 45-C , 46-C ) :   1.0809 B( 45-C , 54-C ) :   0.9610
B( 46-C , 47-C ) :   1.6118 B( 46-C , 52-C ) :   0.9940 B( 47-C , 48-C ) :   1.1551
B( 47-C , 50-C ) :   1.1606 B( 48-C , 49-N ) :   2.9088 B( 50-C , 51-N ) :   2.9874
B( 52-C , 53-C ) :   1.2783 B( 52-C , 59-C ) :   1.4146 B( 53-C , 54-C ) :   0.9233
B( 53-C , 56-C ) :   1.4177 B( 54-C , 55-O ) :   2.2315 B( 56-C , 57-C ) :   1.2490
B( 56-C , 87-H ) :   1.0129 B( 57-C , 58-C ) :   1.3173 B( 57-C , 62-C ) :   1.1574
B( 58-C , 59-C ) :   1.3120 B( 58-C , 60-S ) :   1.0861 B( 59-C , 88-H ) :   0.9819
B( 60-S , 61-C ) :   1.0824 B( 61-C , 62-C ) :   1.6128 B( 61-C , 63-Br) :   1.0192
B( 62-C , 89-H ) :   1.0037

-----------------------------------------------------------------------------
         ABSORPTION SPECTRUM VIA TRANSITION ELECTRIC DIPOLE MOMENTS
-----------------------------------------------------------------------------
State   Energy  Wavelength   fosc         T2         TX        TY        TZ
        (cm-1)    (nm)                  (au**2)     (au)      (au)      (au)
-----------------------------------------------------------------------------
   0    6885.5   1452.3   0.221165430  10.57440  -2.63735  -1.87605  -0.31503
   1   11871.9    842.3   0.190569415   5.28458   1.73641  -1.29248   0.77393
   2   16357.7    611.3   2.153292780  43.33665   4.56443  -4.13326   2.32783
   3   18342.3    545.2   0.364752322   6.54667   0.61857  -2.36947   0.74139
   4   19938.3    501.5   0.112421673   1.85625   0.85374   1.05797  -0.08990
   5   21474.7    465.7   0.178673776   2.73911   0.89047   1.37542  -0.23321
   6   21740.6    460.0   0.074034363   1.12108  -0.58481  -0.62051  -0.62773
   7   21904.9    456.5   0.201828351   3.03331   0.12426   1.63007  -0.60062
   8   22914.3    436.4   0.384945120   5.53055  -1.87178  -1.41039  -0.19438
   9   24065.3    415.5   0.213573312   2.92167  -0.05263   1.35720  -1.03775
  10   24835.6    402.6   0.048436250   0.64205   0.37049   0.70046   0.11896
  11   25616.2    390.4   0.066668246   0.85680   0.05686  -0.58839   0.71229
  12   25782.8    387.9   0.024525193   0.31315  -0.00898  -0.55669   0.05631
  13   26143.6    382.5   0.040818977   0.51401  -0.43919   0.37940  -0.42093
  14   26623.8    375.6   0.085185616   1.05335  -0.76065   0.40799  -0.55524
  15   27211.5    367.5   0.072727215   0.87987  -0.77517   0.34106   0.40332
  16   27759.1    360.2   0.013973834   0.16572  -0.09006  -0.12737  -0.37602
  17   28032.6    356.7   0.015540370   0.18250   0.27294  -0.32663  -0.03630
  18   28461.8    351.3   0.003431017   0.03969   0.15062  -0.12981   0.01227
  19   28576.6    349.9   0.035120457   0.40460   0.39631   0.48609   0.10609
  20   28878.5    346.3   0.135598519   1.54581  -1.17264   0.22267   0.34807
  21   28965.2    345.2   0.014288488   0.16240   0.35980  -0.14756  -0.10570
  22   29188.0    342.6   0.065369295   0.73730   0.33976   0.69210  -0.37797
  23   30007.5    333.2   0.032629102   0.35797   0.34285   0.39615   0.28895
  24   30293.5    330.1   0.042838957   0.46555  -0.26086  -0.63039  -0.01033
  25   30510.3    327.8   0.037857272   0.40849  -0.03567   0.45008   0.45237
  26   30971.2    322.9   0.006145179   0.06532   0.01360  -0.25420   0.02281
  27   31196.7    320.5   0.009273050   0.09786  -0.06221   0.30237   0.05057
  28   31408.4    318.4   0.017391433   0.18229   0.25556  -0.34099   0.02656
  29   31900.3    313.5   0.125428663   1.29443   0.63736   0.83620  -0.43470
  30   32182.6    310.7   0.000951356   0.00973  -0.01836  -0.01683   0.09546
  31   32486.2    307.8   0.197072260   1.99711  -0.05182   1.28714  -0.58111
  32   32768.4    305.2   0.088411152   0.88824  -0.46924   0.54697  -0.60735
  33   32969.6    303.3   0.383124582   3.82563   0.32892   1.75090  -0.80733
  34   33165.1    301.5   0.092215500   0.91537   0.56752  -0.71487   0.28681
  35   33244.6    300.8   0.041899769   0.41492  -0.17280  -0.60383   0.14302
  36   33375.0    299.6   0.040697794   0.40144  -0.39749   0.40334   0.28419
  37   33741.1    296.4   0.012983102   0.12668  -0.02980  -0.21193   0.28438
  38   34182.0    292.6   0.020092819   0.19352   0.28276   0.02322   0.33619
  39   34761.6    287.7   0.029856987   0.28276   0.09133  -0.13423  -0.50636
  40   34963.0    286.0   0.080266736   0.75579  -0.33231   0.72379   0.34855
  41   35112.1    284.8   0.102631502   0.96228  -0.53116   0.80635  -0.17303
  42   35166.8    284.4   0.076627412   0.71734  -0.46109  -0.33431   0.62688
  43   35515.8    281.6   0.073406426   0.68044  -0.53232  -0.01583   0.62994
  44   36056.0    277.3   0.036664444   0.33477  -0.39980   0.13664   0.39529
  45   36109.3    276.9   0.059098683   0.53881   0.05337  -0.52309   0.51218
  46   36265.6    275.7   0.063453696   0.57602  -0.44715   0.38047   0.48096
  47   36728.7    272.3   0.047497267   0.42573   0.60179   0.18812   0.16792
  48   36839.3    271.4   0.021862764   0.19538   0.37051  -0.18999   0.14833
  49   36926.8    270.8   0.076291009   0.68015   0.73810  -0.36772   0.01227
  50   37389.6    267.5   0.116291598   1.02394  -0.45906  -0.44503   0.78431
  51   37583.9    266.1   0.000582331   0.00510   0.06153  -0.01563   0.03272
  52   37945.0    263.5   0.025755683   0.22346   0.27124  -0.25063   0.29508
  53   38373.9    260.6   0.020364174   0.17471  -0.19025   0.10390  -0.35737
  54   38487.2    259.8   0.001046023   0.00895   0.07161  -0.02852   0.05483
  55   38603.4    259.0   0.074063402   0.63162  -0.68511   0.35257   0.19476
  56   38965.5    256.6   0.044798995   0.37850  -0.14423   0.09845   0.58992
  57   39264.4    254.7   0.188279789   1.57863   0.74420   0.71988  -0.71174
  58   39579.1    252.7   0.057222672   0.47597  -0.12828   0.49733  -0.46063
  59   40298.6    248.1   0.050843150   0.41535  -0.60640  -0.10133   0.19330

FINAL SINGLE POINT ENERGY     -9103.603482944844

DIPOLE MOMENT
-------------
                                X             Y             Z
Electronic contribution:    117.33985    -182.59578      68.34796
Nuclear contribution   :   -121.96967     184.71423     -69.16629
                        -----------------------------------------
Total Dipole Moment    :     -4.62983       2.11845      -0.81833
                        -----------------------------------------
Magnitude (a.u.)       :      5.15682
Magnitude (Debye)      :     13.10760

Rotational constants in cm-1:     0.001631     0.000437     0.000386
Rotational constants in MHz :    48.890380    13.099467    11.569343

                             ****ORCA TERMINATED NORMALLY****
TOTAL RUN TIME: 0 days 0 hours 10 minutes 37 seconds 793 msec
