                         Program Version 4.2.0 -  RELEASE  -
|  1> # ORCA input file
|  2> # SCF done       -188.104476443413          0.000933691068
|  3> ! CAM-B3LYP def2-SVP def2/J RIJCOSX Grid4 TightSCF
|  4> %maxcore 5000
|  5> %tddft
|  6>     Mode sTDDFT
|  7>     Ethresh 5.0
|  8>     maxcore 5000
|  9> end
| 10>
| 11> %pal
| 12>   nprocs 6
| 13>   end
| 14> * xyz 0 1
| 15>    C       -8.09183         0.90820        -9.42537
| 16>    C       -9.21473         0.32331        -9.94355
| 17>    C       -9.25270        -0.33119       -11.19268
| 18>    N       -9.36116        -0.85091       -12.21058
| 19>    C      -10.50764         0.32175        -9.37270
| 20>    N      -11.59455         0.25976        -9.00929
| 21>    C       -6.79445         0.95452       -10.07977
| 22>    C       -5.95108         1.83345        -9.35961
| 23>    C       -4.68205         2.15451        -9.77870
| 24>    C       -4.21652         1.56250       -10.95499
| 25>    C       -5.04180         0.63220       -11.63145
| 26>    C       -6.32588         0.31587       -11.21523
| 27>    S       -4.25975        -0.00516       -13.04576
| 28>    C       -2.86653         0.99414       -12.72818
| 29>    C       -2.97114         1.75464       -11.61368
| 30>   Br       -1.41192         0.93633       -13.90491
| 31>    C       -6.63012         2.28277        -8.13022
| 32>    O       -6.11566         2.91038        -7.23696
| 33>    C       -8.00683         1.69216        -8.19034
| 34>    C       -8.99014         1.77516        -7.26860
| 35>    C       -9.05462         2.58117        -6.06024
| 36>    N       -9.99952         2.19892        -5.19182
| 37>    C      -10.12641         2.92089        -4.09384
| 38>    C       -9.32317         4.01740        -3.82538
| 39>    C       -8.35127         4.33800        -4.78509
| 40>    N       -8.25533         3.61824        -5.90463
| 41>    C       -7.40525         5.41610        -4.60140
| 42>    C       -6.36067         5.52111        -5.44872
| 43>    C       -5.26469         6.42458        -5.44880
| 44>    S       -3.94446         6.01389        -6.49177
| 45>    C       -3.03205         7.41861        -6.00494
| 46>    C       -3.74333         8.15477        -5.05369
| 47>    C       -5.00402         7.60903        -4.76637
| 48>    C       -5.99572         8.29288        -3.87954
| 49>    C       -5.63954         9.76913        -3.73099
| 50>    C       -4.18751         9.89361        -3.29509
| 51>    C       -3.23259         9.41497        -4.39613
| 52>    O       -1.92576         9.26129        -3.87732
| 53>    C       -1.82034         7.60032        -6.70573
| 54>    C       -0.86086         8.56587        -6.58508
| 55>    C        0.24849         8.68395        -7.44226
| 56>    C        0.46041         8.09330        -8.66947
| 57>    C        1.62403         8.24825        -9.46297
| 58>    C        1.58436         7.60950       -10.66763
| 59>    C        0.37509         6.92307       -10.90412
| 60>    S       -0.69389         7.09449        -9.53918
| 61>    C       -0.01194         6.19683       -12.01952
| 62>    C        0.72718         5.90070       -13.17965
| 63>    C        0.03085         5.17383       -14.10430
| 64>    C       -1.29376         4.87428       -13.72387
| 65>    S       -1.62347         5.51944       -12.13532
| 66>    C       -2.23405         4.19437       -14.47794
| 67>    C       -3.53716         3.97269       -14.05681
| 68>    C       -4.54576         3.29475       -14.71300
| 69>    C       -4.65536         2.79803       -16.05733
| 70>    C       -4.04662         3.29613       -17.18621
| 71>    C       -4.22873         2.76308       -18.47682
| 72>    N       -4.31899         2.35892       -19.54825
| 73>    C       -3.26970         4.47002       -17.22361
| 74>    N       -2.67658         5.44825       -17.32991
| 75>    C       -5.71212         1.78618       -16.06109
| 76>    C       -6.38180         1.83007       -14.81231
| 77>    C       -5.70191         2.80747       -13.93971
| 78>    O       -5.98871         3.09441       -12.79046
| 79>    C       -7.45250         1.02109       -14.52216
| 80>    C       -7.86323         0.10525       -15.49655
| 81>    C       -7.17907         0.06015       -16.73328
| 82>    C       -6.10872         0.89460       -17.03689
| 83>    S       -7.84575        -1.15045       -17.78525
| 84>    C       -9.01533        -1.57457       -16.55948
| 85>    C       -8.91591        -0.84796       -15.42286
| 86>   Br      -10.25140        -2.94190       -16.90415
| 87>    H       -4.07388         2.85082        -9.22254
| 88>    H       -6.91275        -0.39816       -11.76855
| 89>    H       -2.20937         2.43248       -11.27342
| 90>    H       -9.87896         1.16894        -7.38977
| 91>    H      -10.90095         2.60154        -3.40781
| 92>    H       -9.43285         4.59294        -2.92027
| 93>    H       -7.55175         6.05363        -3.74355
| 94>    H       -6.31721         4.76269        -6.22128
| 95>    H       -5.99810         7.81602        -2.89371
| 96>    H       -6.99521         8.18484        -4.30535
| 97>    H       -6.29477        10.23672        -2.99499
| 98>    H       -5.78104        10.27995        -4.68549
| 99>    H       -4.02647         9.28241        -2.40162
|100>    H       -3.94059        10.92481        -3.04046
|101>    H       -3.13327        10.19444        -5.16379
|102>    H       -1.93676         8.56677        -3.20869
|103>    H       -1.65953         6.82688        -7.44492
|104>    H       -0.90972         9.26503        -5.76494
|105>    H        1.03288         9.35778        -7.11979
|106>    H        2.45990         8.83063        -9.11685
|107>    H        2.37930         7.63038       -11.39094
|108>    H        1.74470         6.22413       -13.30578
|109>    H        0.42245         4.85793       -15.05424
|110>    H       -1.89629         3.81404       -15.42961
|111>    H       -3.79458         4.28829       -13.04892
|112>    H       -7.96348         1.08462       -13.57462
|113>    H       -5.61622         0.82202       -17.99229
|114>    H       -9.53899        -0.98062       -14.55717
|115> *
|116>
|117>                          ****END OF INPUT****

CARTESIAN COORDINATES (ANGSTROEM)
---------------------------------
  C     -8.091830    0.908200   -9.425370
  C     -9.214730    0.323310   -9.943550
  C     -9.252700   -0.331190  -11.192680
  N     -9.361160   -0.850910  -12.210580
  C    -10.507640    0.321750   -9.372700
  N    -11.594550    0.259760   -9.009290
  C     -6.794450    0.954520  -10.079770
  C     -5.951080    1.833450   -9.359610
  C     -4.682050    2.154510   -9.778700
  C     -4.216520    1.562500  -10.954990
  C     -5.041800    0.632200  -11.631450
  C     -6.325880    0.315870  -11.215230
  S     -4.259750   -0.005160  -13.045760
  C     -2.866530    0.994140  -12.728180
  C     -2.971140    1.754640  -11.613680
  Br    -1.411920    0.936330  -13.904910
  C     -6.630120    2.282770   -8.130220
  O     -6.115660    2.910380   -7.236960
  C     -8.006830    1.692160   -8.190340
  C     -8.990140    1.775160   -7.268600
  C     -9.054620    2.581170   -6.060240
  N     -9.999520    2.198920   -5.191820
  C    -10.126410    2.920890   -4.093840
  C     -9.323170    4.017400   -3.825380
  C     -8.351270    4.338000   -4.785090
  N     -8.255330    3.618240   -5.904630
  C     -7.405250    5.416100   -4.601400
  C     -6.360670    5.521110   -5.448720
  C     -5.264690    6.424580   -5.448800
  S     -3.944460    6.013890   -6.491770
  C     -3.032050    7.418610   -6.004940
  C     -3.743330    8.154770   -5.053690
  C     -5.004020    7.609030   -4.766370
  C     -5.995720    8.292880   -3.879540
  C     -5.639540    9.769130   -3.730990
  C     -4.187510    9.893610   -3.295090
  C     -3.232590    9.414970   -4.396130
  O     -1.925760    9.261290   -3.877320
  C     -1.820340    7.600320   -6.705730
  C     -0.860860    8.565870   -6.585080
  C      0.248490    8.683950   -7.442260
  C      0.460410    8.093300   -8.669470
  C      1.624030    8.248250   -9.462970
  C      1.584360    7.609500  -10.667630
  C      0.375090    6.923070  -10.904120
  S     -0.693890    7.094490   -9.539180
  C     -0.011940    6.196830  -12.019520
  C      0.727180    5.900700  -13.179650
  C      0.030850    5.173830  -14.104300
  C     -1.293760    4.874280  -13.723870
  S     -1.623470    5.519440  -12.135320
  C     -2.234050    4.194370  -14.477940
  C     -3.537160    3.972690  -14.056810
  C     -4.545760    3.294750  -14.713000
  C     -4.655360    2.798030  -16.057330
  C     -4.046620    3.296130  -17.186210
  C     -4.228730    2.763080  -18.476820
  N     -4.318990    2.358920  -19.548250
  C     -3.269700    4.470020  -17.223610
  N     -2.676580    5.448250  -17.329910
  C     -5.712120    1.786180  -16.061090
  C     -6.381800    1.830070  -14.812310
  C     -5.701910    2.807470  -13.939710
  O     -5.988710    3.094410  -12.790460
  C     -7.452500    1.021090  -14.522160
  C     -7.863230    0.105250  -15.496550
  C     -7.179070    0.060150  -16.733280
  C     -6.108720    0.894600  -17.036890
  S     -7.845750   -1.150450  -17.785250
  C     -9.015330   -1.574570  -16.559480
  C     -8.915910   -0.847960  -15.422860
  Br   -10.251400   -2.941900  -16.904150
  H     -4.073880    2.850820   -9.222540
  H     -6.912750   -0.398160  -11.768550
  H     -2.209370    2.432480  -11.273420
  H     -9.878960    1.168940   -7.389770
  H    -10.900950    2.601540   -3.407810
  H     -9.432850    4.592940   -2.920270
  H     -7.551750    6.053630   -3.743550
  H     -6.317210    4.762690   -6.221280
  H     -5.998100    7.816020   -2.893710
  H     -6.995210    8.184840   -4.305350
  H     -6.294770   10.236720   -2.994990
  H     -5.781040   10.279950   -4.685490
  H     -4.026470    9.282410   -2.401620
  H     -3.940590   10.924810   -3.040460
  H     -3.133270   10.194440   -5.163790
  H     -1.936760    8.566770   -3.208690
  H     -1.659530    6.826880   -7.444920
  H     -0.909720    9.265030   -5.764940
  H      1.032880    9.357780   -7.119790
  H      2.459900    8.830630   -9.116850
  H      2.379300    7.630380  -11.390940
  H      1.744700    6.224130  -13.305780
  H      0.422450    4.857930  -15.054240
  H     -1.896290    3.814040  -15.429610
  H     -3.794580    4.288290  -13.048920
  H     -7.963480    1.084620  -13.574620
  H     -5.616220    0.822020  -17.992290
  H     -9.538990   -0.980620  -14.557170

 Total Charge           Charge          ....    0
 Multiplicity           Mult            ....    1
 Number of Electrons    NEL             ....  580
 Basis Dimension        Dim             .... 1204

ORBITAL ENERGIES
----------------

  NO   OCC          E(Eh)            E(eV)
   0   2.0000    -482.885138    -13139.9726
   1   2.0000    -482.867005    -13139.4792
   2   2.0000     -88.973725     -2421.0981
   3   2.0000     -88.966890     -2420.9121
   4   2.0000     -88.963250     -2420.8131
   5   2.0000     -88.961486     -2420.7651
   6   2.0000     -88.956394     -2420.6265
   7   2.0000     -62.562437     -1702.4105
   8   2.0000     -62.544726     -1701.9285
   9   2.0000     -56.396384     -1534.6236
  10   2.0000     -56.393695     -1534.5504
  11   2.0000     -56.393672     -1534.5498
  12   2.0000     -56.378655     -1534.1412
  13   2.0000     -56.375975     -1534.0683
  14   2.0000     -56.375942     -1534.0674
  15   2.0000     -19.226579      -523.1818
  16   2.0000     -19.216315      -522.9025
  17   2.0000     -19.199109      -522.4343
  18   2.0000     -14.425349      -392.5337
  19   2.0000     -14.416916      -392.3042
  20   2.0000     -14.413020      -392.1982
  21   2.0000     -14.408972      -392.0880
  22   2.0000     -14.397942      -391.7879
  23   2.0000     -14.396540      -391.7498
  24   2.0000     -10.369840      -282.1777
  25   2.0000     -10.356839      -281.8239
  26   2.0000     -10.349476      -281.6236
  27   2.0000     -10.348271      -281.5908
  28   2.0000     -10.347115      -281.5593
  29   2.0000     -10.345406      -281.5128
  30   2.0000     -10.337515      -281.2981
  31   2.0000     -10.335775      -281.2507
  32   2.0000     -10.335034      -281.2306
  33   2.0000     -10.331343      -281.1301
  34   2.0000     -10.329767      -281.0872
  35   2.0000     -10.328003      -281.0393
  36   2.0000     -10.323749      -280.9235
  37   2.0000     -10.323182      -280.9081
  38   2.0000     -10.322941      -280.9015
  39   2.0000     -10.322109      -280.8789
  40   2.0000     -10.322019      -280.8764
  41   2.0000     -10.322001      -280.8759
  42   2.0000     -10.319182      -280.7992
  43   2.0000     -10.313588      -280.6470
  44   2.0000     -10.310606      -280.5659
  45   2.0000     -10.307913      -280.4926
  46   2.0000     -10.307454      -280.4801
  47   2.0000     -10.306914      -280.4654
  48   2.0000     -10.306709      -280.4598
  49   2.0000     -10.306218      -280.4464
  50   2.0000     -10.305953      -280.4392
  51   2.0000     -10.304223      -280.3922
  52   2.0000     -10.303095      -280.3615
  53   2.0000     -10.302996      -280.3588
  54   2.0000     -10.301723      -280.3241
  55   2.0000     -10.301669      -280.3227
  56   2.0000     -10.300204      -280.2828
  57   2.0000     -10.298605      -280.2393
  58   2.0000     -10.298219      -280.2288
  59   2.0000     -10.296695      -280.1873
  60   2.0000     -10.293193      -280.0920
  61   2.0000     -10.292627      -280.0766
  62   2.0000     -10.291948      -280.0581
  63   2.0000     -10.291845      -280.0554
  64   2.0000     -10.289913      -280.0028
  65   2.0000     -10.289586      -279.9939
  66   2.0000     -10.288463      -279.9633
  67   2.0000     -10.287714      -279.9429
  68   2.0000     -10.287362      -279.9333
  69   2.0000     -10.286306      -279.9046
  70   2.0000     -10.283378      -279.8249
  71   2.0000     -10.283002      -279.8147
  72   2.0000     -10.281843      -279.7832
  73   2.0000     -10.279450      -279.7181
  74   2.0000     -10.279157      -279.7101
  75   2.0000     -10.277919      -279.6764
  76   2.0000     -10.276124      -279.6275
  77   2.0000     -10.274930      -279.5951
  78   2.0000     -10.274865      -279.5933
  79   2.0000     -10.271154      -279.4923
  80   2.0000      -8.791731      -239.2352
  81   2.0000      -8.774154      -238.7569
  82   2.0000      -8.068861      -219.5649
  83   2.0000      -8.062701      -219.3972
  84   2.0000      -8.059260      -219.3036
  85   2.0000      -8.057396      -219.2529
  86   2.0000      -8.052453      -219.1184
  87   2.0000      -6.627912      -180.3547
  88   2.0000      -6.613586      -179.9648
  89   2.0000      -6.613267      -179.9561
  90   2.0000      -6.610364      -179.8772
  91   2.0000      -6.595949      -179.4849
  92   2.0000      -6.595739      -179.4792
  93   2.0000      -6.038628      -164.3194
  94   2.0000      -6.034261      -164.2006
  95   2.0000      -6.032348      -164.1485
  96   2.0000      -6.030151      -164.0888
  97   2.0000      -6.028830      -164.0528
  98   2.0000      -6.028202      -164.0357
  99   2.0000      -6.026355      -163.9855
 100   2.0000      -6.024863      -163.9449
 101   2.0000      -6.023929      -163.9195
 102   2.0000      -6.022470      -163.8797
 103   2.0000      -6.022138      -163.8707
 104   2.0000      -6.020468      -163.8253
 105   2.0000      -6.019799      -163.8071
 106   2.0000      -6.017896      -163.7553
 107   2.0000      -6.013661      -163.6400
 108   2.0000      -2.743864       -74.6643
 109   2.0000      -2.739814       -74.5541
 110   2.0000      -2.739565       -74.5474
 111   2.0000      -2.728180       -74.2376
 112   2.0000      -2.728163       -74.2371
 113   2.0000      -2.726255       -74.1852
 114   2.0000      -2.722182       -74.0743
 115   2.0000      -2.722085       -74.0717
 116   2.0000      -2.710600       -73.7592
 117   2.0000      -2.710578       -73.7586
 118   2.0000      -1.133885       -30.8546
 119   2.0000      -1.117158       -30.3994
 120   2.0000      -1.111321       -30.2406
 121   2.0000      -1.087306       -29.5871
 122   2.0000      -1.024919       -27.8895
 123   2.0000      -1.014571       -27.6079
 124   2.0000      -1.013779       -27.5863
 125   2.0000      -1.004277       -27.3278
 126   2.0000      -0.999549       -27.1991
 127   2.0000      -0.998336       -27.1661
 128   2.0000      -0.994677       -27.0665
 129   2.0000      -0.990681       -26.9578
 130   2.0000      -0.989914       -26.9369
 131   2.0000      -0.984878       -26.7999
 132   2.0000      -0.976291       -26.5662
 133   2.0000      -0.971081       -26.4245
 134   2.0000      -0.942969       -25.6595
 135   2.0000      -0.929900       -25.3039
 136   2.0000      -0.925576       -25.1862
 137   2.0000      -0.921564       -25.0770
 138   2.0000      -0.917319       -24.9615
 139   2.0000      -0.909464       -24.7478
 140   2.0000      -0.904598       -24.6154
 141   2.0000      -0.894158       -24.3313
 142   2.0000      -0.890013       -24.2185
 143   2.0000      -0.883489       -24.0410
 144   2.0000      -0.883081       -24.0299
 145   2.0000      -0.873615       -23.7723
 146   2.0000      -0.866677       -23.5835
 147   2.0000      -0.862382       -23.4666
 148   2.0000      -0.855767       -23.2866
 149   2.0000      -0.844977       -22.9930
 150   2.0000      -0.840637       -22.8749
 151   2.0000      -0.838773       -22.8242
 152   2.0000      -0.835613       -22.7382
 153   2.0000      -0.828890       -22.5552
 154   2.0000      -0.826813       -22.4987
 155   2.0000      -0.810208       -22.0469
 156   2.0000      -0.805886       -21.9293
 157   2.0000      -0.785579       -21.3767
 158   2.0000      -0.783066       -21.3083
 159   2.0000      -0.765080       -20.8189
 160   2.0000      -0.760947       -20.7064
 161   2.0000      -0.747654       -20.3447
 162   2.0000      -0.742274       -20.1983
 163   2.0000      -0.735962       -20.0265
 164   2.0000      -0.727621       -19.7996
 165   2.0000      -0.725157       -19.7325
 166   2.0000      -0.707082       -19.2407
 167   2.0000      -0.703946       -19.1553
 168   2.0000      -0.696022       -18.9397
 169   2.0000      -0.691791       -18.8246
 170   2.0000      -0.685409       -18.6509
 171   2.0000      -0.683585       -18.6013
 172   2.0000      -0.672165       -18.2905
 173   2.0000      -0.670382       -18.2420
 174   2.0000      -0.664301       -18.0765
 175   2.0000      -0.660609       -17.9761
 176   2.0000      -0.656451       -17.8629
 177   2.0000      -0.652382       -17.7522
 178   2.0000      -0.646039       -17.5796
 179   2.0000      -0.638853       -17.3841
 180   2.0000      -0.630898       -17.1676
 181   2.0000      -0.630238       -17.1496
 182   2.0000      -0.624397       -16.9907
 183   2.0000      -0.621630       -16.9154
 184   2.0000      -0.617750       -16.8098
 185   2.0000      -0.611577       -16.6419
 186   2.0000      -0.604274       -16.4431
 187   2.0000      -0.598507       -16.2862
 188   2.0000      -0.592444       -16.1212
 189   2.0000      -0.587361       -15.9829
 190   2.0000      -0.580961       -15.8088
 191   2.0000      -0.579751       -15.7758
 192   2.0000      -0.578450       -15.7404
 193   2.0000      -0.572786       -15.5863
 194   2.0000      -0.571148       -15.5417
 195   2.0000      -0.569130       -15.4868
 196   2.0000      -0.555418       -15.1137
 197   2.0000      -0.549368       -14.9491
 198   2.0000      -0.545206       -14.8358
 199   2.0000      -0.542742       -14.7688
 200   2.0000      -0.540667       -14.7123
 201   2.0000      -0.538173       -14.6444
 202   2.0000      -0.536744       -14.6055
 203   2.0000      -0.534391       -14.5415
 204   2.0000      -0.533075       -14.5057
 205   2.0000      -0.530113       -14.4251
 206   2.0000      -0.527900       -14.3649
 207   2.0000      -0.523652       -14.2493
 208   2.0000      -0.523366       -14.2415
 209   2.0000      -0.522618       -14.2212
 210   2.0000      -0.520203       -14.1554
 211   2.0000      -0.515600       -14.0302
 212   2.0000      -0.515051       -14.0153
 213   2.0000      -0.514009       -13.9869
 214   2.0000      -0.510692       -13.8966
 215   2.0000      -0.509163       -13.8550
 216   2.0000      -0.504667       -13.7327
 217   2.0000      -0.504148       -13.7186
 218   2.0000      -0.499756       -13.5991
 219   2.0000      -0.498630       -13.5684
 220   2.0000      -0.496372       -13.5070
 221   2.0000      -0.495609       -13.4862
 222   2.0000      -0.488926       -13.3043
 223   2.0000      -0.488401       -13.2901
 224   2.0000      -0.487775       -13.2730
 225   2.0000      -0.483582       -13.1589
 226   2.0000      -0.481740       -13.1088
 227   2.0000      -0.479376       -13.0445
 228   2.0000      -0.475088       -12.9278
 229   2.0000      -0.472600       -12.8601
 230   2.0000      -0.471419       -12.8280
 231   2.0000      -0.468299       -12.7431
 232   2.0000      -0.465591       -12.6694
 233   2.0000      -0.462666       -12.5898
 234   2.0000      -0.461202       -12.5500
 235   2.0000      -0.457896       -12.4600
 236   2.0000      -0.454557       -12.3691
 237   2.0000      -0.452463       -12.3122
 238   2.0000      -0.449078       -12.2200
 239   2.0000      -0.446920       -12.1613
 240   2.0000      -0.444297       -12.0899
 241   2.0000      -0.441669       -12.0184
 242   2.0000      -0.438965       -11.9449
 243   2.0000      -0.436976       -11.8907
 244   2.0000      -0.436538       -11.8788
 245   2.0000      -0.435255       -11.8439
 246   2.0000      -0.432181       -11.7602
 247   2.0000      -0.430011       -11.7012
 248   2.0000      -0.429130       -11.6772
 249   2.0000      -0.427912       -11.6441
 250   2.0000      -0.427092       -11.6218
 251   2.0000      -0.426356       -11.6017
 252   2.0000      -0.424931       -11.5630
 253   2.0000      -0.422424       -11.4947
 254   2.0000      -0.419904       -11.4262
 255   2.0000      -0.414129       -11.2690
 256   2.0000      -0.412964       -11.2373
 257   2.0000      -0.411109       -11.1869
 258   2.0000      -0.410140       -11.1605
 259   2.0000      -0.408255       -11.1092
 260   2.0000      -0.406934       -11.0732
 261   2.0000      -0.403215       -10.9720
 262   2.0000      -0.397499       -10.8165
 263   2.0000      -0.392534       -10.6814
 264   2.0000      -0.388989       -10.5849
 265   2.0000      -0.386786       -10.5250
 266   2.0000      -0.384966       -10.4755
 267   2.0000      -0.382093       -10.3973
 268   2.0000      -0.374114       -10.1802
 269   2.0000      -0.369448       -10.0532
 270   2.0000      -0.365572        -9.9477
 271   2.0000      -0.362512        -9.8645
 272   2.0000      -0.360765        -9.8169
 273   2.0000      -0.356532        -9.7017
 274   2.0000      -0.354454        -9.6452
 275   2.0000      -0.347809        -9.4644
 276   2.0000      -0.344951        -9.3866
 277   2.0000      -0.339731        -9.2446
 278   2.0000      -0.331490        -9.0203
 279   2.0000      -0.323073        -8.7913
 280   2.0000      -0.321894        -8.7592
 281   2.0000      -0.317981        -8.6527
 282   2.0000      -0.315040        -8.5727
 283   2.0000      -0.309866        -8.4319
 284   2.0000      -0.302331        -8.2268
 285   2.0000      -0.294220        -8.0061
 286   2.0000      -0.289801        -7.8859
 287   2.0000      -0.275404        -7.4941
 288   2.0000      -0.266149        -7.2423
 289   2.0000      -0.223075        -6.0702
 290   0.0000      -0.112544        -3.0625
 291   0.0000      -0.093151        -2.5348
 292   0.0000      -0.065211        -1.7745
 293   0.0000      -0.058533        -1.5928
 294   0.0000      -0.048694        -1.3250

MULLIKEN ATOMIC CHARGES
-----------------------
   0 C :    0.313222
   1 C :   -0.352339
   2 C :   -0.171596
   3 N :    0.155073
   4 C :   -0.193241
   5 N :    0.168587
   6 C :    0.025943
   7 C :   -0.002664
   8 C :   -0.071021
   9 C :    0.160089
  10 C :   -0.097933
  11 C :   -0.020692
  12 S :    0.180128
  13 C :   -0.125127
  14 C :    0.040655
  15 Br:    0.027407
  16 C :    0.163120
  17 O :   -0.121662
  18 C :   -0.024353
  19 C :    0.014298
  20 C :   -0.108543
  21 N :   -0.064835
  22 C :    0.080246
  23 C :   -0.037199
  24 C :    0.052958
  25 N :   -0.020418
  26 C :   -0.047526
  27 C :    0.093220
  28 C :   -0.124096
  29 S :    0.151254
  30 C :   -0.112219
  31 C :   -0.088897
  32 C :   -0.073030
  33 C :    0.102261
  34 C :    0.023417
  35 C :    0.051668
  36 C :    0.210316
  37 O :   -0.299661
  38 C :    0.039098
  39 C :   -0.014561
  40 C :    0.016228
  41 C :   -0.040929
  42 C :    0.055411
  43 C :    0.018673
  44 C :   -0.025762
  45 S :    0.082770
  46 C :   -0.058120
  47 C :    0.042200
  48 C :    0.034479
  49 C :   -0.018553
  50 S :    0.091934
  51 C :    0.007100
  52 C :    0.022927
  53 C :   -0.118883
  54 C :    0.293094
  55 C :   -0.350303
  56 C :   -0.180661
  57 N :    0.135426
  58 C :   -0.223333
  59 N :    0.157950
  60 C :   -0.000372
  61 C :    0.025856
  62 C :    0.129428
  63 O :   -0.177150
  64 C :   -0.106043
  65 C :    0.111111
  66 C :   -0.087156
  67 C :   -0.024760
  68 S :    0.171230
  69 C :   -0.129789
  70 C :    0.051264
  71 Br:    0.012335
  72 H :   -0.017121
  73 H :   -0.006197
  74 H :   -0.011722
  75 H :    0.026689
  76 H :    0.009934
  77 H :   -0.005613
  78 H :   -0.028889
  79 H :    0.022002
  80 H :    0.018171
  81 H :    0.025544
  82 H :    0.005549
  83 H :    0.015136
  84 H :   -0.014682
  85 H :    0.011761
  86 H :    0.009231
  87 H :    0.166570
  88 H :   -0.001060
  89 H :    0.012672
  90 H :   -0.002786
  91 H :   -0.002746
  92 H :   -0.005776
  93 H :   -0.004874
  94 H :    0.001743
  95 H :    0.004138
  96 H :    0.010629
  97 H :   -0.025396
  98 H :   -0.009700
  99 H :   -0.002156
Sum of atomic charges:   -0.0000000

LOEWDIN ATOMIC CHARGES
----------------------
   0 C :    0.082397
   1 C :   -0.135244
   2 C :    0.003561
   3 N :   -0.054357
   4 C :   -0.026182
   5 N :   -0.037941
   6 C :   -0.019985
   7 C :   -0.045439
   8 C :    0.028028
   9 C :   -0.019720
  10 C :   -0.135287
  11 C :   -0.007416
  12 S :    0.448012
  13 C :   -0.269165
  14 C :   -0.069165
  15 Br:    0.150858
  16 C :    0.090492
  17 O :   -0.117262
  18 C :   -0.057968
  19 C :    0.063029
  20 C :    0.011973
  21 N :   -0.083887
  22 C :    0.047651
  23 C :   -0.053219
  24 C :    0.040366
  25 N :   -0.056969
  26 C :   -0.058347
  27 C :    0.005015
  28 C :   -0.174677
  29 S :    0.471768
  30 C :   -0.161041
  31 C :   -0.076573
  32 C :   -0.044242
  33 C :   -0.027423
  34 C :   -0.026951
  35 C :   -0.037865
  36 C :    0.065193
  37 O :   -0.114267
  38 C :   -0.033009
  39 C :   -0.042739
  40 C :   -0.020518
  41 C :   -0.157670
  42 C :   -0.007640
  43 C :   -0.047168
  44 C :   -0.150338
  45 S :    0.407550
  46 C :   -0.194859
  47 C :   -0.007232
  48 C :   -0.038792
  49 C :   -0.104058
  50 S :    0.394883
  51 C :   -0.073773
  52 C :    0.046274
  53 C :   -0.109700
  54 C :    0.069765
  55 C :   -0.155674
  56 C :   -0.020068
  57 N :   -0.065826
  58 C :   -0.024716
  59 N :   -0.065015
  60 C :   -0.019444
  61 C :   -0.059268
  62 C :    0.075072
  63 O :   -0.168665
  64 C :    0.009938
  65 C :   -0.033663
  66 C :   -0.146142
  67 C :   -0.015582
  68 S :    0.419911
  69 C :   -0.276747
  70 C :   -0.063842
  71 Br:    0.127494
  72 H :    0.038818
  73 H :    0.037288
  74 H :    0.032557
  75 H :    0.050157
  76 H :    0.028345
  77 H :    0.033385
  78 H :    0.022220
  79 H :    0.036903
  80 H :    0.031493
  81 H :    0.034967
  82 H :    0.027028
  83 H :    0.026208
  84 H :    0.018357
  85 H :    0.029172
  86 H :    0.028487
  87 H :    0.076077
  88 H :    0.007146
  89 H :    0.032639
  90 H :    0.039603
  91 H :    0.037673
  92 H :    0.034491
  93 H :    0.036220
  94 H :    0.040171
  95 H :    0.033988
  96 H :    0.030875
  97 H :    0.034442
  98 H :    0.039177
  99 H :    0.035621

  Mayer bond orders larger than 0.100000
B(  0-C ,  1-C ) :   1.6371 B(  0-C ,  6-C ) :   1.0160 B(  0-C , 18-C ) :   1.0443
B(  1-C ,  2-C ) :   1.1538 B(  1-C ,  4-C ) :   1.1317 B(  2-C ,  3-N ) :   2.9322
B(  4-C ,  5-N ) :   2.9835 B(  6-C ,  7-C ) :   1.2776 B(  6-C , 11-C ) :   1.3856
B(  7-C ,  8-C ) :   1.4091 B(  7-C , 16-C ) :   0.9491 B(  8-C ,  9-C ) :   1.2541
B(  8-C , 72-H ) :   1.0144 B(  9-C , 10-C ) :   1.2901 B(  9-C , 14-C ) :   1.1623
B( 10-C , 11-C ) :   1.3478 B( 10-C , 12-S ) :   1.0901 B( 11-C , 73-H ) :   0.9787
B( 12-S , 13-C ) :   1.0823 B( 13-C , 14-C ) :   1.6014 B( 13-C , 15-Br) :   1.0268
B( 14-C , 74-H ) :   0.9999 B( 16-C , 17-O ) :   2.1903 B( 16-C , 18-C ) :   0.9047
B( 18-C , 19-C ) :   1.6770 B( 19-C , 20-C ) :   1.0133 B( 19-C , 75-H ) :   0.9347
B( 20-C , 21-N ) :   1.5379 B( 20-C , 25-N ) :   1.5726 B( 21-N , 22-C ) :   1.5441
B( 22-C , 23-C ) :   1.3775 B( 22-C , 76-H ) :   0.9801 B( 23-C , 24-C ) :   1.3181
B( 23-C , 77-H ) :   0.9747 B( 24-C , 25-N ) :   1.5026 B( 24-C , 26-C ) :   1.0771
B( 26-C , 27-C ) :   1.6995 B( 26-C , 78-H ) :   0.9738 B( 27-C , 28-C ) :   1.1123
B( 27-C , 79-H ) :   0.9249 B( 28-C , 29-S ) :   1.1474 B( 28-C , 32-C ) :   1.4636
B( 29-S , 30-C ) :   1.1411 B( 30-C , 31-C ) :   1.4272 B( 30-C , 38-C ) :   1.2069
B( 31-C , 32-C ) :   1.3606 B( 31-C , 36-C ) :   0.9754 B( 32-C , 33-C ) :   1.0547
B( 33-C , 34-C ) :   1.0789 B( 33-C , 80-H ) :   0.9031 B( 33-C , 81-H ) :   0.9175
B( 34-C , 35-C ) :   1.0607 B( 34-C , 82-H ) :   0.9308 B( 34-C , 83-H ) :   0.9480
B( 35-C , 36-C ) :   1.0802 B( 35-C , 84-H ) :   0.9265 B( 35-C , 85-H ) :   0.9304
B( 36-C , 37-O ) :   0.9897 B( 36-C , 86-H ) :   0.8878 B( 37-O , 87-H ) :   0.9730
B( 38-C , 39-C ) :   1.5927 B( 38-C , 88-H ) :   0.9120 B( 39-C , 40-C ) :   1.2163
B( 39-C , 89-H ) :   0.9548 B( 40-C , 41-C ) :   1.5386 B( 40-C , 90-H ) :   0.9648
B( 41-C , 42-C ) :   1.1676 B( 41-C , 45-S ) :   1.0285 B( 42-C , 43-C ) :   1.5640
B( 42-C , 91-H ) :   0.9979 B( 43-C , 44-C ) :   1.2078 B( 43-C , 92-H ) :   0.9941
B( 44-C , 45-S ) :   1.0763 B( 44-C , 46-C ) :   1.4509 B( 46-C , 47-C ) :   1.2305
B( 46-C , 50-S ) :   1.0396 B( 47-C , 48-C ) :   1.5279 B( 47-C , 93-H ) :   0.9945
B( 48-C , 49-C ) :   1.1937 B( 48-C , 94-H ) :   1.0013 B( 49-C , 50-S ) :   1.0796
B( 49-C , 51-C ) :   1.4825 B( 51-C , 52-C ) :   1.2386 B( 51-C , 95-H ) :   0.9588
B( 52-C , 53-C ) :   1.5201 B( 52-C , 96-H ) :   0.9318 B( 53-C , 54-C ) :   1.0764
B( 53-C , 62-C ) :   0.9843 B( 54-C , 55-C ) :   1.5949 B( 54-C , 60-C ) :   1.0073
B( 55-C , 56-C ) :   1.1312 B( 55-C , 58-C ) :   1.1723 B( 56-C , 57-N ) :   2.9773
B( 58-C , 59-N ) :   3.0088 B( 60-C , 61-C ) :   1.2634 B( 60-C , 67-C ) :   1.4255
B( 61-C , 62-C ) :   0.9299 B( 61-C , 64-C ) :   1.4115 B( 62-C , 63-O ) :   2.1711
B( 64-C , 65-C ) :   1.2460 B( 64-C , 97-H ) :   1.0184 B( 65-C , 66-C ) :   1.3088
B( 65-C , 70-C ) :   1.1720 B( 66-C , 67-C ) :   1.3117 B( 66-C , 68-S ) :   1.0846
B( 67-C , 98-H ) :   0.9824 B( 68-S , 69-C ) :   1.0757 B( 69-C , 70-C ) :   1.6125
B( 69-C , 71-Br) :   1.0158 B( 70-C , 99-H ) :   0.9859

-----------------------------------------------------------------------------
         ABSORPTION SPECTRUM VIA TRANSITION ELECTRIC DIPOLE MOMENTS
-----------------------------------------------------------------------------
State   Energy  Wavelength   fosc         T2         TX        TY        TZ
        (cm-1)    (nm)                  (au**2)     (au)      (au)      (au)
-----------------------------------------------------------------------------
   0   10323.3    968.7   0.847687298  27.03282   0.70182   2.06017   4.72186
   1   16055.3    622.8   0.001139610   0.02337   0.00117   0.02268   0.15117
   2   19069.9    524.4   0.022345023   0.38575   0.54196   0.27600   0.12592
   3   20637.3    484.6   0.859837319  13.71633   3.33560   1.60040   0.16969
   4   22088.2    452.7   0.010203220   0.15207  -0.32885  -0.20959  -0.00233
   5   22696.1    440.6   0.070839726   1.02755   0.97723   0.17291  -0.20657
   6   23027.2    434.3   0.003568835   0.05102  -0.08906  -0.07856  -0.19215
   7   23934.0    417.8   0.491215172   6.75667   2.15119   1.41669  -0.34935
   8   24258.4    412.2   0.347140687   4.71107  -1.88046  -0.99842   0.42203
   9   24412.9    409.6   0.072341759   0.97554   0.01481   0.58783   0.79359
  10   25875.0    386.5   0.007295516   0.09282   0.23240   0.18920  -0.05490
  11   26071.8    383.6   0.054586185   0.68927   0.73735  -0.04880  -0.37842
  12   26240.7    381.1   0.085818838   1.07667   0.98592   0.04073  -0.32089
  13   26675.4    374.9   0.111735001   1.37897   0.87261   0.74365   0.25399
  14   27440.3    364.4   0.053483656   0.64166   0.42044   0.56913   0.37548
  15   28056.5    356.4   0.087499505   1.02671  -0.97469  -0.26382   0.08423
  16   28902.2    346.0   0.071883642   0.81880  -0.11650   0.49523   0.74831
  17   29107.5    343.6   0.030374009   0.34354  -0.26857   0.40293   0.33024
  18   29224.9    342.2   0.001009401   0.01137   0.09726   0.03836   0.02099
  19   29889.4    334.6   0.019475116   0.21451  -0.40606  -0.21910  -0.04017
  20   30035.2    332.9   0.293495281   3.21696  -0.59411  -1.28801  -1.09774
  21   30114.8    332.1   0.078405706   0.85712  -0.76755  -0.50938   0.09233
  22   30385.2    329.1   0.039772810   0.43092  -0.57224  -0.04764   0.31811
  23   30710.1    325.6   0.007266657   0.07790   0.12834   0.17535  -0.17516
  24   30773.9    325.0   0.136001529   1.45491  -0.89832  -0.36848   0.71566
  25   31069.6    321.9   0.153970169   1.63146   0.61683   1.10739   0.15705
  26   31180.0    320.7   0.255769680   2.70052  -1.19716  -1.02676   0.46162
  27   31379.9    318.7   0.018307650   0.19207   0.21942   0.15793  -0.34494
  28   31717.8    315.3   0.113242228   1.17539  -0.72809  -0.50960   0.62095
  29   31950.5    313.0   0.005517725   0.05685  -0.15366   0.09831  -0.15355
  30   32252.3    310.1   0.231868019   2.36676  -0.89267   0.52843   1.13607
  31   32582.3    306.9   0.502332100   5.07557   1.98718   0.28134  -1.02349
  32   33110.4    302.0   0.090711065   0.90193  -0.18503   0.24684   0.89820
  33   33181.9    301.4   0.007304557   0.07247  -0.17100  -0.15646   0.13694
  34   33201.7    301.2   0.169895758   1.68460  -1.15484  -0.59236  -0.00674
  35   33493.8    298.6   0.070455173   0.69251  -0.69723  -0.43293   0.13764
  36   33752.8    296.3   0.117481739   1.14587  -0.11538  -0.24678  -1.03521
  37   34162.1    292.7   0.005260792   0.05070   0.05854   0.21329  -0.04215
  38   34370.6    290.9   0.053821033   0.51551   0.10876   0.43552   0.56036
  39   34490.3    289.9   0.033577065   0.32050  -0.12026  -0.09878   0.54431
  40   34635.0    288.7   0.009514188   0.09043   0.27335  -0.05540  -0.11245
  41   34954.8    286.1   0.000266746   0.00251   0.03199  -0.02943  -0.02496
  42   35495.2    281.7   0.115990420   1.07579   0.01824   0.00311  -1.03704
  43   35860.3    278.9   0.141061409   1.29500   0.41013  -0.47262  -0.95048
  44   35976.1    278.0   0.202328657   1.85148   0.30104   0.84204   1.02559
  45   36382.5    274.9   0.003777104   0.03418  -0.06239  -0.09765  -0.14405
  46   36559.0    273.5   0.094857014   0.85418  -0.21376  -0.61766  -0.65344
  47   36606.5    273.2   0.150061341   1.34954   0.75443   0.35412  -0.80931
  48   36857.5    271.3   0.018232786   0.16286   0.09975   0.34240  -0.18886
  49   37385.0    267.5   0.061836234   0.54453  -0.61474   0.04716   0.40547
  50   37766.4    264.8   0.032954551   0.28727   0.48794   0.21897   0.03515
  51   37823.8    264.4   0.074592544   0.64924   0.63627   0.10301  -0.48352
  52   37970.8    263.4   0.004021553   0.03487   0.06751  -0.16946   0.03991
  53   38111.1    262.4   0.061970909   0.53532   0.48320   0.02755  -0.54870
  54   38322.4    260.9   0.003342548   0.02871  -0.11559  -0.07740   0.09677
  55   38503.6    259.7   0.027509822   0.23521   0.41393  -0.07773  -0.24048
  56   38883.3    257.2   0.025720396   0.21777  -0.40605  -0.13062  -0.18927
  57   39086.0    255.8   0.119510807   1.00661  -0.23514  -0.63719  -0.73845
  58   39181.8    255.2   0.115802428   0.97299   0.73390   0.59565   0.28210
  59   39381.1    253.9   0.107633299   0.89978   0.62316  -0.09390  -0.70896
  60   39712.1    251.8   0.018272997   0.15148   0.20489   0.25812   0.20707
  61   39835.7    251.0   0.062641329   0.51768   0.69633   0.10633  -0.14665
  62   39958.8    250.3   0.048194393   0.39706  -0.27548  -0.26555   0.50066
  63   40228.1    248.6   0.045272580   0.37049  -0.42825  -0.26294   0.34345

FINAL SINGLE POINT ENERGY     -9839.719017230142

DIPOLE MOMENT
-------------
                                X             Y             Z
Electronic contribution:    -32.30568    -143.64567    -152.80456
Nuclear contribution   :     35.55402     146.14004     158.31201
                        -----------------------------------------
Total Dipole Moment    :      3.24834       2.49437       5.50745
                        -----------------------------------------
Magnitude (a.u.)       :      6.86335
Magnitude (Debye)      :     17.44525

Rotational constants in cm-1:     0.000944     0.000490     0.000346
Rotational constants in MHz :    28.300710    14.697411    10.373772

                             ****ORCA TERMINATED NORMALLY****
TOTAL RUN TIME: 0 days 0 hours 12 minutes 14 seconds 7 msec
