                         Program Version 4.2.0 -  RELEASE  -
|  1> # ORCA input file
|  2> # SCF done       -157.591006884668          0.000363459477
|  3> ! CAM-B3LYP def2-SVP def2/J RIJCOSX Grid4 TightSCF
|  4> %maxcore 5000
|  5> %tddft
|  6>     Mode sTDDFT
|  7>     Ethresh 5.0
|  8>     maxcore 5000
|  9> end
| 10>
| 11> %pal
| 12>   nprocs 6
| 13>   end
| 14> * xyz 0 1
| 15>    C       -2.36986         1.11761         1.84285
| 16>    C       -2.61019         0.36292         2.96755
| 17>    C       -1.64050         0.08459         3.95186
| 18>    N       -0.90172        -0.18058         4.79076
| 19>    C       -3.83062        -0.24149         3.32877
| 20>    N       -4.77525        -0.76942         3.71891
| 21>    C       -1.08892         1.74012         1.51391
| 22>    C       -1.22315         2.43048         0.28503
| 23>    C       -0.19209         3.12753        -0.29337
| 24>    C        1.03802         3.14456         0.37389
| 25>    C        1.16487         2.45114         1.59921
| 26>    C        0.11941         1.74631         2.18436
| 27>    S        2.76759         2.60177         2.25596
| 28>    C        3.23685         3.58255         0.89272
| 29>    C        2.24775         3.78730        -0.00845
| 30>   Br        4.99005         4.24293         0.78780
| 31>    C       -2.60607         2.27028        -0.20873
| 32>    O       -3.05985         2.74725        -1.23387
| 33>    C       -3.29617         1.44245         0.78239
| 34>    C       -4.60218         1.01068         0.71273
| 35>    C       -5.60148         1.27267        -0.22692
| 36>    S       -5.54241         2.51370        -1.45558
| 37>    C       -7.21539         2.31018        -1.76657
| 38>    C       -7.81552         1.33629        -1.02492
| 39>    C       -9.25285         0.95061        -1.14194
| 40>    C       -6.89306         0.69521        -0.15660
| 41>    C       -7.23480        -0.40710         0.67742
| 42>    C       -6.38321        -1.41884         1.00946
| 43>    C       -6.61672        -2.44958         1.94708
| 44>    C       -7.62224        -2.45287         2.87655
| 45>    C       -7.83920        -3.39938         3.88810
| 46>    C       -7.13774        -4.54375         4.19752
| 47>    C       -7.44513        -5.39036         5.29484
| 48>    C       -6.62772        -6.46834         5.43160
| 49>    C       -5.62112        -6.54785         4.44124
| 50>    S       -5.75644        -5.19179         3.33910
| 51>    C       -4.64768        -7.51035         4.29671
| 52>    C       -4.42089        -8.64457         5.12059
| 53>    C       -3.37962        -9.41675         4.73072
| 54>    C       -2.70491        -8.94833         3.56058
| 55>    S       -3.47962        -7.46353         2.99415
| 56>    C       -1.65120        -9.51684         2.93869
| 57>    C       -0.99044        -8.94335         1.75344
| 58>    S        0.62040        -8.14705         2.27745
| 59>    C        1.60067        -9.05639         1.03787
| 60>    C        0.61472        -9.43609        -0.06677
| 61>    C       -0.61625        -9.96326         0.68495
| 62>    C        1.26540       -10.54343        -0.91912
| 63>    O        1.17228       -11.71734        -0.64495
| 64>    N        1.99246       -10.06486        -1.94408
| 65>    N        0.33746        -8.26340        -0.87560
| 66>    C       -0.66289        -8.35642        -1.84184
| 67>    C       -1.47735        -7.36348        -2.19783
| 68>    C       -1.45411        -6.01129        -1.53940
| 69>    C       -2.46330        -7.53780        -3.31946
| 70>    N       -2.19089        -6.58467        -4.37461
| 71>    C       -3.15707        -6.24931        -5.29298
| 72>    C       -2.92347        -5.77512        -6.51169
| 73>    H       -0.32898         3.64488        -1.22998
| 74>    H        0.26922         1.23653         3.12095
| 75>    H        2.36341         4.36757        -0.90571
| 76>    H       -4.93311         0.37899         1.52763
| 77>    H       -7.68597         2.92114        -2.51357
| 78>    H       -9.74614         1.55500        -1.89829
| 79>    H       -9.76465         1.09737        -0.19116
| 80>    H       -9.34355        -0.09953        -1.41620
| 81>    H       -8.26101        -0.44555         1.01555
| 82>    H       -5.43393        -1.46795         0.48977
| 83>    H       -5.89358        -3.25079         1.95366
| 84>    H       -8.31488        -1.62191         2.87306
| 85>    H       -8.67209        -3.19791         4.55151
| 86>    H       -8.26495        -5.16642         5.95489
| 87>    H       -6.72009        -7.20344         6.21067
| 88>    H       -5.03728        -8.84718         5.97817
| 89>    H       -3.05631       -10.31148         5.23198
| 90>    H       -1.21906       -10.41488         3.35649
| 91>    H       -1.59584        -8.13349         1.33759
| 92>    H        2.03021        -9.94472         1.50084
| 93>    H        2.39598        -8.40409         0.68245
| 94>    H       -0.35807       -10.92263         1.13624
| 95>    H       -1.45361       -10.11569         0.00286
| 96>    H        1.97709        -9.08069        -2.15293
| 97>    H        2.45729       -10.70665        -2.56403
| 98>    H        0.24701        -7.42857        -0.30740
| 99>    H       -0.70746        -9.31873        -2.33541
|100>    H       -0.46150        -5.56437        -1.58495
|101>    H       -1.74852        -6.07959        -0.49045
|102>    H       -2.14625        -5.34567        -2.04635
|103>    H       -3.47591        -7.33727        -2.95155
|104>    H       -2.43457        -8.57785        -3.68355
|105>    H       -1.25535        -6.64409        -4.75307
|106>    H       -4.16819        -6.34465        -4.91808
|107>    H       -1.92365        -5.67419        -6.89851
|108>    H       -3.72577        -5.45561        -7.14872
|109> *
|110>
|111>                          ****END OF INPUT****

CARTESIAN COORDINATES (ANGSTROEM)
---------------------------------
  C     -2.369860    1.117610    1.842850
  C     -2.610190    0.362920    2.967550
  C     -1.640500    0.084590    3.951860
  N     -0.901720   -0.180580    4.790760
  C     -3.830620   -0.241490    3.328770
  N     -4.775250   -0.769420    3.718910
  C     -1.088920    1.740120    1.513910
  C     -1.223150    2.430480    0.285030
  C     -0.192090    3.127530   -0.293370
  C      1.038020    3.144560    0.373890
  C      1.164870    2.451140    1.599210
  C      0.119410    1.746310    2.184360
  S      2.767590    2.601770    2.255960
  C      3.236850    3.582550    0.892720
  C      2.247750    3.787300   -0.008450
  Br     4.990050    4.242930    0.787800
  C     -2.606070    2.270280   -0.208730
  O     -3.059850    2.747250   -1.233870
  C     -3.296170    1.442450    0.782390
  C     -4.602180    1.010680    0.712730
  C     -5.601480    1.272670   -0.226920
  S     -5.542410    2.513700   -1.455580
  C     -7.215390    2.310180   -1.766570
  C     -7.815520    1.336290   -1.024920
  C     -9.252850    0.950610   -1.141940
  C     -6.893060    0.695210   -0.156600
  C     -7.234800   -0.407100    0.677420
  C     -6.383210   -1.418840    1.009460
  C     -6.616720   -2.449580    1.947080
  C     -7.622240   -2.452870    2.876550
  C     -7.839200   -3.399380    3.888100
  C     -7.137740   -4.543750    4.197520
  C     -7.445130   -5.390360    5.294840
  C     -6.627720   -6.468340    5.431600
  C     -5.621120   -6.547850    4.441240
  S     -5.756440   -5.191790    3.339100
  C     -4.647680   -7.510350    4.296710
  C     -4.420890   -8.644570    5.120590
  C     -3.379620   -9.416750    4.730720
  C     -2.704910   -8.948330    3.560580
  S     -3.479620   -7.463530    2.994150
  C     -1.651200   -9.516840    2.938690
  C     -0.990440   -8.943350    1.753440
  S      0.620400   -8.147050    2.277450
  C      1.600670   -9.056390    1.037870
  C      0.614720   -9.436090   -0.066770
  C     -0.616250   -9.963260    0.684950
  C      1.265400  -10.543430   -0.919120
  O      1.172280  -11.717340   -0.644950
  N      1.992460  -10.064860   -1.944080
  N      0.337460   -8.263400   -0.875600
  C     -0.662890   -8.356420   -1.841840
  C     -1.477350   -7.363480   -2.197830
  C     -1.454110   -6.011290   -1.539400
  C     -2.463300   -7.537800   -3.319460
  N     -2.190890   -6.584670   -4.374610
  C     -3.157070   -6.249310   -5.292980
  C     -2.923470   -5.775120   -6.511690
  H     -0.328980    3.644880   -1.229980
  H      0.269220    1.236530    3.120950
  H      2.363410    4.367570   -0.905710
  H     -4.933110    0.378990    1.527630
  H     -7.685970    2.921140   -2.513570
  H     -9.746140    1.555000   -1.898290
  H     -9.764650    1.097370   -0.191160
  H     -9.343550   -0.099530   -1.416200
  H     -8.261010   -0.445550    1.015550
  H     -5.433930   -1.467950    0.489770
  H     -5.893580   -3.250790    1.953660
  H     -8.314880   -1.621910    2.873060
  H     -8.672090   -3.197910    4.551510
  H     -8.264950   -5.166420    5.954890
  H     -6.720090   -7.203440    6.210670
  H     -5.037280   -8.847180    5.978170
  H     -3.056310  -10.311480    5.231980
  H     -1.219060  -10.414880    3.356490
  H     -1.595840   -8.133490    1.337590
  H      2.030210   -9.944720    1.500840
  H      2.395980   -8.404090    0.682450
  H     -0.358070  -10.922630    1.136240
  H     -1.453610  -10.115690    0.002860
  H      1.977090   -9.080690   -2.152930
  H      2.457290  -10.706650   -2.564030
  H      0.247010   -7.428570   -0.307400
  H     -0.707460   -9.318730   -2.335410
  H     -0.461500   -5.564370   -1.584950
  H     -1.748520   -6.079590   -0.490450
  H     -2.146250   -5.345670   -2.046350
  H     -3.475910   -7.337270   -2.951550
  H     -2.434570   -8.577850   -3.683550
  H     -1.255350   -6.644090   -4.753070
  H     -4.168190   -6.344650   -4.918080
  H     -1.923650   -5.674190   -6.898510
  H     -3.725770   -5.455610   -7.148720

 Total Charge           Charge          ....    0
 Multiplicity           Mult            ....    1
 Number of Electrons    NEL             ....  472
 Basis Dimension        Dim             .... 1030

ORBITAL ENERGIES
----------------

  NO   OCC          E(Eh)            E(eV)
   0   2.0000    -482.878834    -13139.8011
   1   2.0000     -88.966694     -2420.9068
   2   2.0000     -88.946537     -2420.3583
   3   2.0000     -88.944398     -2420.3001
   4   2.0000     -88.943802     -2420.2839
   5   2.0000     -88.913525     -2419.4600
   6   2.0000     -62.556561     -1702.2506
   7   2.0000     -56.390502     -1534.4636
   8   2.0000     -56.387805     -1534.3902
   9   2.0000     -56.387766     -1534.3891
  10   2.0000     -19.204821      -522.5898
  11   2.0000     -19.178938      -521.8854
  12   2.0000     -14.427549      -392.5936
  13   2.0000     -14.419734      -392.3809
  14   2.0000     -14.403181      -391.9305
  15   2.0000     -14.401484      -391.8843
  16   2.0000     -14.400463      -391.8565
  17   2.0000     -10.368783      -282.1489
  18   2.0000     -10.353776      -281.7406
  19   2.0000     -10.350425      -281.6494
  20   2.0000     -10.327352      -281.0215
  21   2.0000     -10.324961      -280.9565
  22   2.0000     -10.322113      -280.8790
  23   2.0000     -10.315247      -280.6921
  24   2.0000     -10.313779      -280.6522
  25   2.0000     -10.306662      -280.4585
  26   2.0000     -10.306419      -280.4519
  27   2.0000     -10.306373      -280.4507
  28   2.0000     -10.306019      -280.4410
  29   2.0000     -10.305720      -280.4329
  30   2.0000     -10.305262      -280.4204
  31   2.0000     -10.304740      -280.4062
  32   2.0000     -10.298940      -280.2484
  33   2.0000     -10.298145      -280.2268
  34   2.0000     -10.297454      -280.2080
  35   2.0000     -10.296135      -280.1721
  36   2.0000     -10.294306      -280.1223
  37   2.0000     -10.294181      -280.1189
  38   2.0000     -10.291654      -280.0502
  39   2.0000     -10.290370      -280.0152
  40   2.0000     -10.289410      -279.9891
  41   2.0000     -10.288760      -279.9714
  42   2.0000     -10.288681      -279.9692
  43   2.0000     -10.287821      -279.9458
  44   2.0000     -10.287706      -279.9427
  45   2.0000     -10.284636      -279.8592
  46   2.0000     -10.283480      -279.8277
  47   2.0000     -10.282441      -279.7994
  48   2.0000     -10.280234      -279.7394
  49   2.0000     -10.280118      -279.7362
  50   2.0000     -10.278105      -279.6815
  51   2.0000     -10.277792      -279.6729
  52   2.0000     -10.274969      -279.5961
  53   2.0000     -10.272683      -279.5339
  54   2.0000     -10.271420      -279.4995
  55   2.0000     -10.270892      -279.4852
  56   2.0000     -10.270655      -279.4787
  57   2.0000     -10.267476      -279.3922
  58   2.0000     -10.262396      -279.2540
  59   2.0000     -10.257253      -279.1140
  60   2.0000     -10.256693      -279.0988
  61   2.0000     -10.223548      -278.1969
  62   2.0000      -8.785989      -239.0789
  63   2.0000      -8.062718      -219.3977
  64   2.0000      -8.040721      -218.7991
  65   2.0000      -8.040094      -218.7821
  66   2.0000      -8.039984      -218.7791
  67   2.0000      -8.009192      -217.9412
  68   2.0000      -6.622261      -180.2009
  69   2.0000      -6.607731      -179.8055
  70   2.0000      -6.607554      -179.8007
  71   2.0000      -6.032424      -164.1506
  72   2.0000      -6.028144      -164.0341
  73   2.0000      -6.023911      -163.9189
  74   2.0000      -6.010173      -163.5451
  75   2.0000      -6.009842      -163.5361
  76   2.0000      -6.009786      -163.5346
  77   2.0000      -6.005835      -163.4271
  78   2.0000      -6.005734      -163.4243
  79   2.0000      -6.005492      -163.4177
  80   2.0000      -6.002968      -163.3491
  81   2.0000      -6.001151      -163.2996
  82   2.0000      -6.000684      -163.2869
  83   2.0000      -5.979851      -162.7200
  84   2.0000      -5.975694      -162.6069
  85   2.0000      -5.968414      -162.4088
  86   2.0000      -2.738100       -74.5075
  87   2.0000      -2.734054       -74.3974
  88   2.0000      -2.733959       -74.3948
  89   2.0000      -2.722391       -74.0800
  90   2.0000      -2.722368       -74.0794
  91   2.0000      -1.120151       -30.4809
  92   2.0000      -1.119793       -30.4711
  93   2.0000      -1.035548       -28.1787
  94   2.0000      -1.011912       -27.5355
  95   2.0000      -1.004310       -27.3287
  96   2.0000      -1.001692       -27.2574
  97   2.0000      -0.993641       -27.0383
  98   2.0000      -0.983412       -26.7600
  99   2.0000      -0.983335       -26.7579
 100   2.0000      -0.980972       -26.6936
 101   2.0000      -0.976467       -26.5710
 102   2.0000      -0.971520       -26.4364
 103   2.0000      -0.939190       -25.5567
 104   2.0000      -0.931699       -25.3528
 105   2.0000      -0.910804       -24.7842
 106   2.0000      -0.897973       -24.4351
 107   2.0000      -0.894189       -24.3321
 108   2.0000      -0.891067       -24.2472
 109   2.0000      -0.881111       -23.9762
 110   2.0000      -0.875325       -23.8188
 111   2.0000      -0.868621       -23.6364
 112   2.0000      -0.863854       -23.5067
 113   2.0000      -0.853353       -23.2209
 114   2.0000      -0.841700       -22.9038
 115   2.0000      -0.830308       -22.5938
 116   2.0000      -0.822928       -22.3930
 117   2.0000      -0.819828       -22.3087
 118   2.0000      -0.818917       -22.2839
 119   2.0000      -0.817316       -22.2403
 120   2.0000      -0.804996       -21.9051
 121   2.0000      -0.794235       -21.6122
 122   2.0000      -0.776250       -21.1228
 123   2.0000      -0.766528       -20.8583
 124   2.0000      -0.759256       -20.6604
 125   2.0000      -0.749244       -20.3880
 126   2.0000      -0.742003       -20.1909
 127   2.0000      -0.734072       -19.9751
 128   2.0000      -0.729464       -19.8497
 129   2.0000      -0.711684       -19.3659
 130   2.0000      -0.702460       -19.1149
 131   2.0000      -0.693644       -18.8750
 132   2.0000      -0.678968       -18.4757
 133   2.0000      -0.678460       -18.4618
 134   2.0000      -0.671901       -18.2834
 135   2.0000      -0.664904       -18.0930
 136   2.0000      -0.661282       -17.9944
 137   2.0000      -0.649125       -17.6636
 138   2.0000      -0.647024       -17.6064
 139   2.0000      -0.643232       -17.5032
 140   2.0000      -0.639014       -17.3884
 141   2.0000      -0.630660       -17.1611
 142   2.0000      -0.629959       -17.1421
 143   2.0000      -0.619585       -16.8598
 144   2.0000      -0.616292       -16.7702
 145   2.0000      -0.611828       -16.6487
 146   2.0000      -0.610936       -16.6244
 147   2.0000      -0.608049       -16.5458
 148   2.0000      -0.593162       -16.1408
 149   2.0000      -0.589806       -16.0494
 150   2.0000      -0.586043       -15.9470
 151   2.0000      -0.576175       -15.6785
 152   2.0000      -0.573857       -15.6154
 153   2.0000      -0.567871       -15.4526
 154   2.0000      -0.559173       -15.2159
 155   2.0000      -0.554788       -15.0965
 156   2.0000      -0.550877       -14.9901
 157   2.0000      -0.549449       -14.9513
 158   2.0000      -0.546973       -14.8839
 159   2.0000      -0.541442       -14.7334
 160   2.0000      -0.532951       -14.5023
 161   2.0000      -0.529186       -14.3999
 162   2.0000      -0.528561       -14.3829
 163   2.0000      -0.520045       -14.1511
 164   2.0000      -0.519242       -14.1293
 165   2.0000      -0.515729       -14.0337
 166   2.0000      -0.515087       -14.0162
 167   2.0000      -0.509184       -13.8556
 168   2.0000      -0.507269       -13.8035
 169   2.0000      -0.505067       -13.7436
 170   2.0000      -0.502812       -13.6822
 171   2.0000      -0.499019       -13.5790
 172   2.0000      -0.498825       -13.5737
 173   2.0000      -0.496860       -13.5203
 174   2.0000      -0.495421       -13.4811
 175   2.0000      -0.493068       -13.4171
 176   2.0000      -0.491049       -13.3621
 177   2.0000      -0.488031       -13.2800
 178   2.0000      -0.484305       -13.1786
 179   2.0000      -0.483698       -13.1621
 180   2.0000      -0.482167       -13.1204
 181   2.0000      -0.479219       -13.0402
 182   2.0000      -0.471417       -12.8279
 183   2.0000      -0.468840       -12.7578
 184   2.0000      -0.467496       -12.7212
 185   2.0000      -0.464141       -12.6299
 186   2.0000      -0.462714       -12.5911
 187   2.0000      -0.458977       -12.4894
 188   2.0000      -0.456558       -12.4236
 189   2.0000      -0.453142       -12.3306
 190   2.0000      -0.449411       -12.2291
 191   2.0000      -0.448697       -12.2097
 192   2.0000      -0.445046       -12.1103
 193   2.0000      -0.442800       -12.0492
 194   2.0000      -0.441592       -12.0163
 195   2.0000      -0.439912       -11.9706
 196   2.0000      -0.438207       -11.9242
 197   2.0000      -0.437284       -11.8991
 198   2.0000      -0.435953       -11.8629
 199   2.0000      -0.431763       -11.7489
 200   2.0000      -0.430166       -11.7054
 201   2.0000      -0.429025       -11.6744
 202   2.0000      -0.428139       -11.6503
 203   2.0000      -0.425633       -11.5821
 204   2.0000      -0.418987       -11.4012
 205   2.0000      -0.417659       -11.3651
 206   2.0000      -0.414975       -11.2920
 207   2.0000      -0.413750       -11.2587
 208   2.0000      -0.405667       -11.0388
 209   2.0000      -0.403479       -10.9792
 210   2.0000      -0.397146       -10.8069
 211   2.0000      -0.392692       -10.6857
 212   2.0000      -0.390770       -10.6334
 213   2.0000      -0.389775       -10.6063
 214   2.0000      -0.387574       -10.5464
 215   2.0000      -0.383063       -10.4237
 216   2.0000      -0.380037       -10.3413
 217   2.0000      -0.375856       -10.2276
 218   2.0000      -0.370035       -10.0692
 219   2.0000      -0.368460       -10.0263
 220   2.0000      -0.346717        -9.4346
 221   2.0000      -0.343587        -9.3495
 222   2.0000      -0.338533        -9.2120
 223   2.0000      -0.337127        -9.1737
 224   2.0000      -0.326094        -8.8735
 225   2.0000      -0.323344        -8.7986
 226   2.0000      -0.321495        -8.7483
 227   2.0000      -0.310137        -8.4393
 228   2.0000      -0.305088        -8.3019
 229   2.0000      -0.295420        -8.0388
 230   2.0000      -0.286534        -7.7970
 231   2.0000      -0.277167        -7.5421
 232   2.0000      -0.270391        -7.3577
 233   2.0000      -0.260709        -7.0943
 234   2.0000      -0.254159        -6.9160
 235   2.0000      -0.210945        -5.7401
 236   0.0000      -0.088864        -2.4181
 237   0.0000      -0.063545        -1.7292
 238   0.0000      -0.045961        -1.2507
 239   0.0000      -0.013514        -0.3677
 240   0.0000       0.003275         0.0891

MULLIKEN ATOMIC CHARGES
-----------------------
   0 C :    0.332475
   1 C :   -0.371566
   2 C :   -0.187263
   3 N :    0.137061
   4 C :   -0.195800
   5 N :    0.151365
   6 C :    0.008287
   7 C :   -0.009848
   8 C :   -0.076876
   9 C :    0.118939
  10 C :   -0.092270
  11 C :   -0.022800
  12 S :    0.180361
  13 C :   -0.123214
  14 C :    0.036433
  15 Br:    0.015450
  16 C :    0.149613
  17 O :   -0.175972
  18 C :   -0.110441
  19 C :   -0.049702
  20 C :   -0.121132
  21 S :    0.183621
  22 C :   -0.097554
  23 C :   -0.082143
  24 C :    0.117554
  25 C :    0.120829
  26 C :   -0.041594
  27 C :    0.007257
  28 C :    0.006834
  29 C :    0.050015
  30 C :   -0.007186
  31 C :   -0.011283
  32 C :    0.030669
  33 C :    0.029783
  34 C :   -0.041848
  35 S :    0.071621
  36 C :   -0.042590
  37 C :    0.031317
  38 C :    0.053497
  39 C :   -0.016860
  40 S :    0.063614
  41 C :    0.011961
  42 C :   -0.175396
  43 S :   -0.049634
  44 C :    0.051420
  45 C :   -0.266487
  46 C :    0.214157
  47 C :    0.045509
  48 O :   -0.208032
  49 N :   -0.052367
  50 N :   -0.155190
  51 C :    0.019117
  52 C :   -0.222198
  53 C :    0.073197
  54 C :    0.222927
  55 N :   -0.200172
  56 C :    0.046313
  57 C :   -0.085162
  58 H :   -0.014298
  59 H :   -0.010901
  60 H :   -0.005961
  61 H :    0.021152
  62 H :    0.018232
  63 H :    0.008517
  64 H :    0.028828
  65 H :    0.031479
  66 H :   -0.008185
  67 H :    0.006878
  68 H :   -0.005934
  69 H :   -0.016690
  70 H :   -0.019179
  71 H :   -0.012276
  72 H :   -0.013314
  73 H :   -0.011179
  74 H :   -0.009085
  75 H :   -0.003585
  76 H :    0.053166
  77 H :    0.061554
  78 H :    0.043006
  79 H :    0.027914
  80 H :    0.020430
  81 H :    0.131177
  82 H :    0.127241
  83 H :    0.110462
  84 H :   -0.007536
  85 H :    0.023195
  86 H :    0.025732
  87 H :    0.016721
  88 H :    0.007015
  89 H :   -0.009796
  90 H :    0.101436
  91 H :   -0.002704
  92 H :   -0.009480
  93 H :    0.007350
Sum of atomic charges:    0.0000000

LOEWDIN ATOMIC CHARGES
----------------------
   0 C :    0.077485
   1 C :   -0.155995
   2 C :   -0.017786
   3 N :   -0.067284
   4 C :   -0.023845
   5 N :   -0.055305
   6 C :   -0.019416
   7 C :   -0.048746
   8 C :    0.018339
   9 C :   -0.035451
  10 C :   -0.145731
  11 C :   -0.012123
  12 S :    0.427491
  13 C :   -0.274230
  14 C :   -0.070793
  15 Br:    0.130384
  16 C :    0.079606
  17 O :   -0.168726
  18 C :   -0.126157
  19 C :    0.055090
  20 C :   -0.188743
  21 S :    0.492457
  22 C :   -0.168643
  23 C :   -0.070309
  24 C :   -0.045384
  25 C :   -0.013898
  26 C :   -0.038926
  27 C :    0.003595
  28 C :   -0.043814
  29 C :    0.001310
  30 C :   -0.066280
  31 C :   -0.129655
  32 C :   -0.032908
  33 C :   -0.032744
  34 C :   -0.185695
  35 S :    0.396458
  36 C :   -0.166006
  37 C :   -0.030160
  38 C :   -0.021720
  39 C :   -0.146948
  40 S :    0.359028
  41 C :   -0.058270
  42 C :   -0.116872
  43 S :    0.217958
  44 C :   -0.114011
  45 C :   -0.042963
  46 C :   -0.022912
  47 C :    0.052911
  48 O :   -0.210610
  49 N :    0.007216
  50 N :   -0.049506
  51 C :   -0.010637
  52 C :   -0.098605
  53 C :   -0.056837
  54 C :    0.044187
  55 N :   -0.048477
  56 C :    0.020653
  57 C :   -0.158374
  58 H :    0.039423
  59 H :    0.040011
  60 H :    0.037770
  61 H :    0.048675
  62 H :    0.023077
  63 H :    0.032657
  64 H :    0.034810
  65 H :    0.037027
  66 H :    0.027233
  67 H :    0.033314
  68 H :    0.010792
  69 H :    0.028759
  70 H :    0.033650
  71 H :    0.033457
  72 H :    0.031545
  73 H :    0.032999
  74 H :    0.035237
  75 H :    0.030666
  76 H :    0.013431
  77 H :    0.029212
  78 H :    0.024414
  79 H :    0.034054
  80 H :    0.034026
  81 H :    0.072945
  82 H :    0.079934
  83 H :    0.059074
  84 H :    0.018284
  85 H :    0.030248
  86 H :    0.029614
  87 H :    0.033563
  88 H :    0.024938
  89 H :    0.009279
  90 H :    0.068992
  91 H :    0.022057
  92 H :    0.011926
  93 H :    0.020238

  Mayer bond orders larger than 0.100000
B(  0-C ,  1-C ) :   1.5911 B(  0-C ,  6-C ) :   0.9899 B(  0-C , 18-C ) :   1.1075
B(  1-C ,  2-C ) :   1.1502 B(  1-C ,  4-C ) :   1.1510 B(  2-C ,  3-N ) :   2.9615
B(  4-C ,  5-N ) :   2.9511 B(  6-C ,  7-C ) :   1.2796 B(  6-C , 11-C ) :   1.4164
B(  7-C ,  8-C ) :   1.4273 B(  7-C , 16-C ) :   0.9460 B(  8-C ,  9-C ) :   1.2386
B(  8-C , 58-H ) :   1.0169 B(  9-C , 10-C ) :   1.3160 B(  9-C , 14-C ) :   1.1595
B( 10-C , 11-C ) :   1.3230 B( 10-C , 12-S ) :   1.0832 B( 11-C , 59-H ) :   0.9792
B( 12-S , 13-C ) :   1.0853 B( 13-C , 14-C ) :   1.6212 B( 13-C , 15-Br) :   1.0134
B( 14-C , 60-H ) :   1.0001 B( 16-C , 17-O ) :   2.1596 B( 16-C , 18-C ) :   0.9743
B( 18-C , 19-C ) :   1.4792 B( 19-C , 20-C ) :   1.3006 B( 19-C , 61-H ) :   0.9313
B( 20-C , 21-S ) :   1.1014 B( 20-C , 25-C ) :   1.3020 B( 21-S , 22-C ) :   1.1614
B( 22-C , 23-C ) :   1.5378 B( 22-C , 62-H ) :   0.9631 B( 23-C , 24-C ) :   1.0940
B( 23-C , 25-C ) :   1.2678 B( 24-C , 63-H ) :   0.9505 B( 24-C , 64-H ) :   0.9426
B( 24-C , 65-H ) :   0.9453 B( 25-C , 26-C ) :   1.1649 B( 26-C , 27-C ) :   1.6216
B( 26-C , 66-H ) :   0.9450 B( 27-C , 28-C ) :   1.2058 B( 27-C , 67-H ) :   0.9732
B( 28-C , 29-C ) :   1.5872 B( 28-C , 68-H ) :   0.9484 B( 29-C , 30-C ) :   1.2460
B( 29-C , 69-H ) :   0.9561 B( 30-C , 31-C ) :   1.5449 B( 30-C , 70-H ) :   0.9588
B( 31-C , 32-C ) :   1.1519 B( 31-C , 35-S ) :   1.0560 B( 32-C , 33-C ) :   1.5914
B( 32-C , 71-H ) :   0.9988 B( 33-C , 34-C ) :   1.1809 B( 33-C , 72-H ) :   0.9925
B( 34-C , 35-S ) :   1.0326 B( 34-C , 36-C ) :   1.5325 B( 36-C , 37-C ) :   1.1619
B( 36-C , 40-S ) :   1.0506 B( 37-C , 38-C ) :   1.6380 B( 37-C , 73-H ) :   0.9932
B( 38-C , 39-C ) :   1.0960 B( 38-C , 74-H ) :   0.9980 B( 39-C , 40-S ) :   1.0104
B( 39-C , 41-C ) :   1.7381 B( 41-C , 42-C ) :   0.9861 B( 41-C , 75-H ) :   0.9644
B( 42-C , 43-S ) :   0.9739 B( 42-C , 46-C ) :   0.9861 B( 42-C , 76-H ) :   0.9170
B( 43-S , 44-C ) :   0.9958 B( 44-C , 45-C ) :   0.9973 B( 44-C , 77-H ) :   0.9455
B( 44-C , 78-H ) :   0.9389 B( 45-C , 46-C ) :   1.0171 B( 45-C , 47-C ) :   0.8512
B( 45-C , 50-N ) :   1.0117 B( 46-C , 79-H ) :   0.9236 B( 46-C , 80-H ) :   0.9199
B( 47-C , 48-O ) :   2.1696 B( 47-C , 49-N ) :   1.3064 B( 49-N , 81-H ) :   0.9206
B( 49-N , 82-H ) :   0.9395 B( 50-N , 51-C ) :   1.1011 B( 50-N , 83-H ) :   0.9121
B( 51-C , 52-C ) :   1.8299 B( 51-C , 84-H ) :   0.9541 B( 52-C , 53-C ) :   1.0599
B( 52-C , 54-C ) :   1.0747 B( 53-C , 85-H ) :   0.9507 B( 53-C , 86-H ) :   0.9555
B( 53-C , 87-H ) :   0.9438 B( 54-C , 55-N ) :   0.9847 B( 54-C , 88-H ) :   0.9239
B( 54-C , 89-H ) :   0.9354 B( 55-N , 56-C ) :   1.1539 B( 55-N , 90-H ) :   0.9451
B( 56-C , 57-C ) :   1.9069 B( 56-C , 91-H ) :   0.9601 B( 57-C , 92-H ) :   0.9605
B( 57-C , 93-H ) :   0.9525

-----------------------------------------------------------------------------
         ABSORPTION SPECTRUM VIA TRANSITION ELECTRIC DIPOLE MOMENTS
-----------------------------------------------------------------------------
State   Energy  Wavelength   fosc         T2         TX        TY        TZ
        (cm-1)    (nm)                  (au**2)     (au)      (au)      (au)
-----------------------------------------------------------------------------
   0   12176.3    821.3   0.662748221  17.91883  -0.19226  -4.10433   1.01800
   1   18963.6    527.3   0.525281872   9.11901   1.90344  -2.26438   0.60704
   2   21923.0    456.1   0.445173278   6.68504  -2.39265   0.50857  -0.83763
   3   22584.8    442.8   0.371053430   5.40873   2.20869  -0.72828   0.00590
   4   25375.8    394.1   0.047393600   0.61486   0.08271  -0.36012   0.69162
   5   25430.5    393.2   0.110674223   1.43274  -0.12526   0.50545  -1.07776
   6   26849.8    372.4   0.021120238   0.25896   0.39487  -0.02672   0.31988
   7   27518.9    363.4   0.001655878   0.01981   0.08163   0.11289  -0.02007
   8   28115.7    355.7   0.155692042   1.82303   1.29601   0.29813   0.23347
   9   29233.8    342.1   0.453756814   5.10991  -1.71683  -0.78196   1.24536
  10   29330.0    340.9   0.175429270   1.96909   0.97560   0.58039  -0.82489
  11   30396.6    329.0   0.226468551   2.45278   0.39228  -0.23593   1.49774
  12   30575.7    327.1   0.179954797   1.93760   1.34303   0.36496   0.02569
  13   30966.0    322.9   0.002629242   0.02795  -0.12897   0.08455  -0.06458
  14   31199.5    320.5   0.000567022   0.00598   0.00050   0.00054   0.07735
  15   31770.2    314.8   0.004229717   0.04383   0.11269   0.07435  -0.16001
  16   32454.1    308.1   0.012740859   0.12924   0.32177  -0.12120  -0.10497
  17   32576.9    307.0   0.026922856   0.27207  -0.17406   0.11437   0.47822
  18   33021.1    302.8   0.150704856   1.50249   0.76208   0.48086  -0.83096
  19   33464.5    298.8   0.027219198   0.26777   0.38744   0.28078  -0.19705
  20   33774.1    296.1   0.310028307   3.02199   1.16306   0.99624  -0.82268
  21   34378.2    290.9   0.000473956   0.00454  -0.06468   0.00352   0.01851
  22   34521.2    289.7   0.038082475   0.36317   0.47948   0.06614  -0.35903
  23   34962.3    286.0   0.059404984   0.55937   0.63773   0.01828   0.39031
  24   35117.7    284.8   0.000033490   0.00031  -0.01680  -0.00284   0.00485
  25   36467.6    274.2   0.062969251   0.56846   0.67495   0.27540  -0.19248
  26   36756.0    272.1   0.152916505   1.36962   0.55282   0.39838  -0.95148
  27   37272.3    268.3   0.027180517   0.24008   0.32892  -0.29628  -0.21002
  28   37983.2    263.3   0.061336842   0.53162   0.53720  -0.42092   0.25665
  29   38310.4    261.0   0.141406864   1.21515   0.59782  -0.25179   0.89127
  30   38479.8    259.9   0.004128689   0.03532  -0.08982   0.01753  -0.16416
  31   39709.3    251.8   0.056024687   0.46448   0.00858  -0.23260  -0.64054
  32   39721.8    251.8   0.022750784   0.18856   0.32327  -0.26945  -0.10699

FINAL SINGLE POINT ENERGY     -6722.114687619939

DIPOLE MOMENT
-------------
                                X             Y             Z
Electronic contribution:    104.17862     140.90662      34.16168
Nuclear contribution   :   -104.87447    -141.56856     -35.02150
                        -----------------------------------------
Total Dipole Moment    :     -0.69585      -0.66194      -0.85981
                        -----------------------------------------
Magnitude (a.u.)       :      1.28905
Magnitude (Debye)      :      3.27651

Rotational constants in cm-1:     0.000920     0.000561     0.000454
Rotational constants in MHz :    27.591090    16.810722    13.609997

                             ****ORCA TERMINATED NORMALLY****
TOTAL RUN TIME: 0 days 0 hours 7 minutes 40 seconds 186 msec
