                         Program Version 4.2.0 -  RELEASE  -
|  1> # ORCA input file
|  2> # SCF done       -152.920973823605          0.003432699213
|  3> ! CAM-B3LYP def2-SVP def2/J RIJCOSX Grid4 TightSCF
|  4> %maxcore 5000
|  5> %tddft
|  6>     Mode sTDDFT
|  7>     Ethresh 5.0
|  8>     maxcore 5000
|  9> end
| 10>
| 11> %pal
| 12>   nprocs 6
| 13>   end
| 14> * xyz 0 1
| 15>    C       -3.75972        -8.02587         2.92039
| 16>    C       -2.88299        -8.83355         3.60120
| 17>    C       -3.20788        -9.53424         4.78072
| 18>    N       -3.40849       -10.12232         5.74643
| 19>    C       -1.53913        -9.06311         3.24076
| 20>    N       -0.43209        -9.28111         3.02389
| 21>    C       -5.12657        -7.72547         3.33982
| 22>    C       -5.69783        -6.82488         2.40905
| 23>    C       -6.96737        -6.32195         2.54253
| 24>    C       -7.70833        -6.71748         3.66079
| 25>    C       -7.13503        -7.61997         4.58686
| 26>    C       -5.85272        -8.13717         4.44239
| 27>    S       -8.21983        -7.97156         5.89895
| 28>    C       -9.41421        -6.92006         5.19419
| 29>    C       -9.02169        -6.33041         4.03802
| 30>   Br      -11.07619        -6.67173         6.02988
| 31>    C       -4.71254        -6.52304         1.35290
| 32>    O       -4.91592        -5.87631         0.34624
| 33>    C       -3.47916        -7.24227         1.73585
| 34>    C       -2.31649        -7.25668         1.00241
| 35>    C       -1.90617        -6.30332         0.05275
| 36>    S       -0.79585        -6.79367        -1.20080
| 37>    C       -0.80804        -5.21742        -1.86246
| 38>    C       -1.58396        -4.33199        -1.17252
| 39>    C       -1.69683        -2.89437        -1.55633
| 40>    C       -2.21478        -4.93709        -0.04955
| 41>    C       -2.98145        -4.29468         0.97508
| 42>    C       -3.81808        -3.24154         0.85745
| 43>    C       -4.67268        -2.76525         1.90481
| 44>    C       -4.86948        -3.35452         3.10493
| 45>    C       -5.80012        -2.86461         4.07578
| 46>    C       -6.03244        -3.39127         5.29006
| 47>    C       -5.35338        -4.60717         5.83968
| 48>    C       -7.01912        -2.73801         6.23006
| 49>    N       -8.09717        -3.63601         6.57110
| 50>    C       -8.27470        -4.27885         7.74542
| 51>    C       -7.65392        -4.02730         8.93181
| 52>    C       -7.87283        -4.73716        10.13386
| 53>    C       -8.49507        -5.94193        10.33557
| 54>    C       -8.67737        -6.58404        11.58806
| 55>    C       -9.25985        -7.81295        11.52396
| 56>    C       -9.57435        -8.22983        10.21031
| 57>    S       -9.12418        -6.98922         9.06761
| 58>    C      -10.14297        -9.40812         9.77520
| 59>    C      -10.60417       -10.51367        10.52058
| 60>    C      -11.10408       -11.52497         9.75895
| 61>    C      -11.06467       -11.28369         8.35933
| 62>    S      -10.37285        -9.70460         8.05907
| 63>    C      -11.48534       -12.13613         7.37502
| 64>    C      -11.42723       -11.92642         5.98028
| 65>    S      -10.77617       -10.46759         5.25104
| 66>    C      -11.06360       -11.04757         3.67450
| 67>    C      -11.63391       -12.29816         3.69933
| 68>    C      -11.84353       -12.80005         4.99832
| 69>    N      -11.97562       -13.00777         2.51815
| 70>    O      -11.71942       -12.48161         1.45045
| 71>    O      -12.50224       -14.09528         2.64382
| 72>    H       -7.36911        -5.63658         1.81355
| 73>    H       -5.46205        -8.82445         5.17421
| 74>    H       -9.63932        -5.66173         3.46567
| 75>    H       -1.63427        -8.08519         1.14363
| 76>    H       -0.23000        -5.01678        -2.74424
| 77>    H       -0.90112        -2.62785        -2.24775
| 78>    H       -1.63161        -2.25885        -0.67522
| 79>    H       -2.65128        -2.70629        -2.04815
| 80>    H       -2.91606        -4.78778         1.93819
| 81>    H       -3.93763        -2.75823        -0.10011
| 82>    H       -5.25006        -1.87827         1.67206
| 83>    H       -4.31981        -4.24769         3.36184
| 84>    H       -6.34961        -1.97562         3.78744
| 85>    H       -5.09676        -5.31839         5.05828
| 86>    H       -5.99217        -5.10799         6.56464
| 87>    H       -4.43458        -4.31942         6.35369
| 88>    H       -7.43918        -1.83782         5.76861
| 89>    H       -6.50614        -2.44569         7.14814
| 90>    H       -8.64551        -3.95798         5.78873
| 91>    H       -9.05473        -5.02401         7.71300
| 92>    H       -6.95298        -3.20757         9.00378
| 93>    H       -7.45953        -4.28372        11.02702
| 94>    H       -8.36451        -6.11211        12.50357
| 95>    H       -9.45836        -8.43637        12.37734
| 96>    H      -10.55523       -10.53099        11.59421
| 97>    H      -11.49981       -12.44503        10.15036
| 98>    H      -11.90206       -13.08475         7.68520
| 99>    H      -10.81154       -10.47017         2.80804
|100>    H      -12.27847       -13.76259         5.19161
|101> *
|102>
|103>                          ****END OF INPUT****

CARTESIAN COORDINATES (ANGSTROEM)
---------------------------------
  C     -3.759720   -8.025870    2.920390
  C     -2.882990   -8.833550    3.601200
  C     -3.207880   -9.534240    4.780720
  N     -3.408490  -10.122320    5.746430
  C     -1.539130   -9.063110    3.240760
  N     -0.432090   -9.281110    3.023890
  C     -5.126570   -7.725470    3.339820
  C     -5.697830   -6.824880    2.409050
  C     -6.967370   -6.321950    2.542530
  C     -7.708330   -6.717480    3.660790
  C     -7.135030   -7.619970    4.586860
  C     -5.852720   -8.137170    4.442390
  S     -8.219830   -7.971560    5.898950
  C     -9.414210   -6.920060    5.194190
  C     -9.021690   -6.330410    4.038020
  Br   -11.076190   -6.671730    6.029880
  C     -4.712540   -6.523040    1.352900
  O     -4.915920   -5.876310    0.346240
  C     -3.479160   -7.242270    1.735850
  C     -2.316490   -7.256680    1.002410
  C     -1.906170   -6.303320    0.052750
  S     -0.795850   -6.793670   -1.200800
  C     -0.808040   -5.217420   -1.862460
  C     -1.583960   -4.331990   -1.172520
  C     -1.696830   -2.894370   -1.556330
  C     -2.214780   -4.937090   -0.049550
  C     -2.981450   -4.294680    0.975080
  C     -3.818080   -3.241540    0.857450
  C     -4.672680   -2.765250    1.904810
  C     -4.869480   -3.354520    3.104930
  C     -5.800120   -2.864610    4.075780
  C     -6.032440   -3.391270    5.290060
  C     -5.353380   -4.607170    5.839680
  C     -7.019120   -2.738010    6.230060
  N     -8.097170   -3.636010    6.571100
  C     -8.274700   -4.278850    7.745420
  C     -7.653920   -4.027300    8.931810
  C     -7.872830   -4.737160   10.133860
  C     -8.495070   -5.941930   10.335570
  C     -8.677370   -6.584040   11.588060
  C     -9.259850   -7.812950   11.523960
  C     -9.574350   -8.229830   10.210310
  S     -9.124180   -6.989220    9.067610
  C    -10.142970   -9.408120    9.775200
  C    -10.604170  -10.513670   10.520580
  C    -11.104080  -11.524970    9.758950
  C    -11.064670  -11.283690    8.359330
  S    -10.372850   -9.704600    8.059070
  C    -11.485340  -12.136130    7.375020
  C    -11.427230  -11.926420    5.980280
  S    -10.776170  -10.467590    5.251040
  C    -11.063600  -11.047570    3.674500
  C    -11.633910  -12.298160    3.699330
  C    -11.843530  -12.800050    4.998320
  N    -11.975620  -13.007770    2.518150
  O    -11.719420  -12.481610    1.450450
  O    -12.502240  -14.095280    2.643820
  H     -7.369110   -5.636580    1.813550
  H     -5.462050   -8.824450    5.174210
  H     -9.639320   -5.661730    3.465670
  H     -1.634270   -8.085190    1.143630
  H     -0.230000   -5.016780   -2.744240
  H     -0.901120   -2.627850   -2.247750
  H     -1.631610   -2.258850   -0.675220
  H     -2.651280   -2.706290   -2.048150
  H     -2.916060   -4.787780    1.938190
  H     -3.937630   -2.758230   -0.100110
  H     -5.250060   -1.878270    1.672060
  H     -4.319810   -4.247690    3.361840
  H     -6.349610   -1.975620    3.787440
  H     -5.096760   -5.318390    5.058280
  H     -5.992170   -5.107990    6.564640
  H     -4.434580   -4.319420    6.353690
  H     -7.439180   -1.837820    5.768610
  H     -6.506140   -2.445690    7.148140
  H     -8.645510   -3.957980    5.788730
  H     -9.054730   -5.024010    7.713000
  H     -6.952980   -3.207570    9.003780
  H     -7.459530   -4.283720   11.027020
  H     -8.364510   -6.112110   12.503570
  H     -9.458360   -8.436370   12.377340
  H    -10.555230  -10.530990   11.594210
  H    -11.499810  -12.445030   10.150360
  H    -11.902060  -13.084750    7.685200
  H    -10.811540  -10.470170    2.808040
  H    -12.278470  -13.762590    5.191610

 Total Charge           Charge          ....    0
 Multiplicity           Mult            ....    1
 Number of Electrons    NEL             ....  460
 Basis Dimension        Dim             ....  981

ORBITAL ENERGIES
----------------

  NO   OCC          E(Eh)            E(eV)
   0   2.0000    -482.888998    -13140.0777
   1   2.0000     -88.977477     -2421.2002
   2   2.0000     -88.965393     -2420.8714
   3   2.0000     -88.963636     -2420.8236
   4   2.0000     -88.939960     -2420.1793
   5   2.0000     -88.939239     -2420.1597
   6   2.0000     -62.566210     -1702.5131
   7   2.0000     -56.400219     -1534.7280
   8   2.0000     -56.397465     -1534.6530
   9   2.0000     -56.397382     -1534.6508
  10   2.0000     -19.224365      -523.1216
  11   2.0000     -19.222191      -523.0624
  12   2.0000     -19.212485      -522.7983
  13   2.0000     -14.631139      -398.1335
  14   2.0000     -14.447549      -393.1378
  15   2.0000     -14.414747      -392.2452
  16   2.0000     -14.413446      -392.2098
  17   2.0000     -10.362870      -281.9880
  18   2.0000     -10.361694      -281.9560
  19   2.0000     -10.340951      -281.3916
  20   2.0000     -10.340393      -281.3764
  21   2.0000     -10.324942      -280.9560
  22   2.0000     -10.323783      -280.9244
  23   2.0000     -10.321401      -280.8596
  24   2.0000     -10.319445      -280.8064
  25   2.0000     -10.317485      -280.7530
  26   2.0000     -10.316407      -280.7237
  27   2.0000     -10.312092      -280.6063
  28   2.0000     -10.311639      -280.5940
  29   2.0000     -10.308586      -280.5109
  30   2.0000     -10.308449      -280.5072
  31   2.0000     -10.307903      -280.4923
  32   2.0000     -10.307400      -280.4786
  33   2.0000     -10.305581      -280.4291
  34   2.0000     -10.304579      -280.4018
  35   2.0000     -10.302879      -280.3556
  36   2.0000     -10.302379      -280.3420
  37   2.0000     -10.301145      -280.3084
  38   2.0000     -10.300803      -280.2991
  39   2.0000     -10.300577      -280.2929
  40   2.0000     -10.296840      -280.1913
  41   2.0000     -10.295861      -280.1646
  42   2.0000     -10.292092      -280.0621
  43   2.0000     -10.291820      -280.0546
  44   2.0000     -10.291538      -280.0470
  45   2.0000     -10.288776      -279.9718
  46   2.0000     -10.284508      -279.8557
  47   2.0000     -10.282604      -279.8039
  48   2.0000     -10.282266      -279.7947
  49   2.0000     -10.281767      -279.7811
  50   2.0000     -10.280905      -279.7577
  51   2.0000     -10.280827      -279.7555
  52   2.0000     -10.279763      -279.7266
  53   2.0000     -10.276601      -279.6405
  54   2.0000     -10.276327      -279.6331
  55   2.0000     -10.275073      -279.5990
  56   2.0000     -10.273341      -279.5518
  57   2.0000     -10.273143      -279.5464
  58   2.0000     -10.272952      -279.5412
  59   2.0000     -10.269109      -279.4367
  60   2.0000     -10.260528      -279.2032
  61   2.0000      -8.795485      -239.3373
  62   2.0000      -8.072468      -219.6630
  63   2.0000      -8.061668      -219.3692
  64   2.0000      -8.058591      -219.2854
  65   2.0000      -8.035884      -218.6675
  66   2.0000      -8.035174      -218.6482
  67   2.0000      -6.631803      -180.4605
  68   2.0000      -6.617373      -180.0679
  69   2.0000      -6.616827      -180.0530
  70   2.0000      -6.042157      -164.4154
  71   2.0000      -6.037727      -164.2949
  72   2.0000      -6.033878      -164.1902
  73   2.0000      -6.030892      -164.1089
  74   2.0000      -6.027800      -164.0248
  75   2.0000      -6.026685      -163.9944
  76   2.0000      -6.023842      -163.9171
  77   2.0000      -6.023459      -163.9066
  78   2.0000      -6.021115      -163.8429
  79   2.0000      -6.005627      -163.4214
  80   2.0000      -6.004942      -163.4028
  81   2.0000      -6.001498      -163.3091
  82   2.0000      -6.000865      -163.2918
  83   2.0000      -5.996919      -163.1845
  84   2.0000      -5.996110      -163.1624
  85   2.0000      -2.747670       -74.7679
  86   2.0000      -2.743683       -74.6594
  87   2.0000      -2.743333       -74.6499
  88   2.0000      -2.731833       -74.3370
  89   2.0000      -2.731819       -74.3366
  90   2.0000      -1.303001       -35.4565
  91   2.0000      -1.127859       -30.6906
  92   2.0000      -1.121155       -30.5082
  93   2.0000      -1.044647       -28.4263
  94   2.0000      -1.023508       -27.8511
  95   2.0000      -1.013369       -27.5752
  96   2.0000      -0.999551       -27.1992
  97   2.0000      -0.994048       -27.0494
  98   2.0000      -0.992617       -27.0105
  99   2.0000      -0.988581       -26.9007
 100   2.0000      -0.985933       -26.8286
 101   2.0000      -0.964671       -26.2500
 102   2.0000      -0.943834       -25.6830
 103   2.0000      -0.928794       -25.2738
 104   2.0000      -0.909354       -24.7448
 105   2.0000      -0.908648       -24.7256
 106   2.0000      -0.905722       -24.6459
 107   2.0000      -0.899690       -24.4818
 108   2.0000      -0.889691       -24.2097
 109   2.0000      -0.886653       -24.1271
 110   2.0000      -0.876411       -23.8484
 111   2.0000      -0.870941       -23.6995
 112   2.0000      -0.865248       -23.5446
 113   2.0000      -0.846289       -23.0287
 114   2.0000      -0.841733       -22.9047
 115   2.0000      -0.831904       -22.6373
 116   2.0000      -0.829986       -22.5851
 117   2.0000      -0.821861       -22.3640
 118   2.0000      -0.816032       -22.2054
 119   2.0000      -0.809642       -22.0315
 120   2.0000      -0.794485       -21.6190
 121   2.0000      -0.790530       -21.5114
 122   2.0000      -0.771247       -20.9867
 123   2.0000      -0.764955       -20.8155
 124   2.0000      -0.760663       -20.6987
 125   2.0000      -0.751466       -20.4484
 126   2.0000      -0.746172       -20.3044
 127   2.0000      -0.722458       -19.6591
 128   2.0000      -0.715700       -19.4752
 129   2.0000      -0.707550       -19.2534
 130   2.0000      -0.691339       -18.8123
 131   2.0000      -0.683508       -18.5992
 132   2.0000      -0.680377       -18.5140
 133   2.0000      -0.666409       -18.1339
 134   2.0000      -0.660103       -17.9623
 135   2.0000      -0.658981       -17.9318
 136   2.0000      -0.647864       -17.6293
 137   2.0000      -0.642765       -17.4905
 138   2.0000      -0.641248       -17.4493
 139   2.0000      -0.629466       -17.1287
 140   2.0000      -0.625135       -17.0108
 141   2.0000      -0.624480       -16.9930
 142   2.0000      -0.621209       -16.9040
 143   2.0000      -0.615477       -16.7480
 144   2.0000      -0.614748       -16.7281
 145   2.0000      -0.612638       -16.6707
 146   2.0000      -0.606924       -16.5153
 147   2.0000      -0.600929       -16.3521
 148   2.0000      -0.597088       -16.2476
 149   2.0000      -0.595526       -16.2051
 150   2.0000      -0.582460       -15.8495
 151   2.0000      -0.581073       -15.8118
 152   2.0000      -0.574317       -15.6280
 153   2.0000      -0.567766       -15.4497
 154   2.0000      -0.558632       -15.2012
 155   2.0000      -0.555352       -15.1119
 156   2.0000      -0.549695       -14.9580
 157   2.0000      -0.544472       -14.8158
 158   2.0000      -0.542763       -14.7693
 159   2.0000      -0.537385       -14.6230
 160   2.0000      -0.535326       -14.5670
 161   2.0000      -0.533586       -14.5196
 162   2.0000      -0.527157       -14.3447
 163   2.0000      -0.525019       -14.2865
 164   2.0000      -0.521018       -14.1776
 165   2.0000      -0.517048       -14.0696
 166   2.0000      -0.513102       -13.9622
 167   2.0000      -0.512347       -13.9417
 168   2.0000      -0.510370       -13.8879
 169   2.0000      -0.506189       -13.7741
 170   2.0000      -0.503971       -13.7137
 171   2.0000      -0.496619       -13.5137
 172   2.0000      -0.494830       -13.4650
 173   2.0000      -0.494253       -13.4493
 174   2.0000      -0.492402       -13.3990
 175   2.0000      -0.490822       -13.3559
 176   2.0000      -0.486906       -13.2494
 177   2.0000      -0.484670       -13.1885
 178   2.0000      -0.477530       -12.9943
 179   2.0000      -0.477068       -12.9817
 180   2.0000      -0.475394       -12.9361
 181   2.0000      -0.473684       -12.8896
 182   2.0000      -0.472715       -12.8632
 183   2.0000      -0.469203       -12.7677
 184   2.0000      -0.464165       -12.6306
 185   2.0000      -0.461573       -12.5600
 186   2.0000      -0.460654       -12.5350
 187   2.0000      -0.457718       -12.4551
 188   2.0000      -0.456622       -12.4253
 189   2.0000      -0.452516       -12.3136
 190   2.0000      -0.451921       -12.2974
 191   2.0000      -0.447429       -12.1752
 192   2.0000      -0.444897       -12.1063
 193   2.0000      -0.443686       -12.0733
 194   2.0000      -0.441915       -12.0251
 195   2.0000      -0.437094       -11.8939
 196   2.0000      -0.431898       -11.7525
 197   2.0000      -0.428942       -11.6721
 198   2.0000      -0.426812       -11.6141
 199   2.0000      -0.425951       -11.5907
 200   2.0000      -0.424277       -11.5452
 201   2.0000      -0.421696       -11.4749
 202   2.0000      -0.418078       -11.3765
 203   2.0000      -0.415729       -11.3126
 204   2.0000      -0.413539       -11.2530
 205   2.0000      -0.408525       -11.1165
 206   2.0000      -0.406149       -11.0519
 207   2.0000      -0.392779       -10.6881
 208   2.0000      -0.390411       -10.6236
 209   2.0000      -0.387975       -10.5573
 210   2.0000      -0.380287       -10.3481
 211   2.0000      -0.371883       -10.1195
 212   2.0000      -0.368150       -10.0179
 213   2.0000      -0.366861        -9.9828
 214   2.0000      -0.363173        -9.8825
 215   2.0000      -0.355804        -9.6819
 216   2.0000      -0.349805        -9.5187
 217   2.0000      -0.349044        -9.4980
 218   2.0000      -0.338130        -9.2010
 219   2.0000      -0.334848        -9.1117
 220   2.0000      -0.329448        -8.9647
 221   2.0000      -0.322485        -8.7753
 222   2.0000      -0.316556        -8.6139
 223   2.0000      -0.312596        -8.5062
 224   2.0000      -0.308049        -8.3824
 225   2.0000      -0.297441        -8.0938
 226   2.0000      -0.287613        -7.8263
 227   2.0000      -0.265174        -7.2158
 228   2.0000      -0.258271        -7.0279
 229   2.0000      -0.201059        -5.4711
 230   0.0000      -0.095072        -2.5870
 231   0.0000      -0.064792        -1.7631
 232   0.0000      -0.058434        -1.5901
 233   0.0000      -0.032055        -0.8723
 234   0.0000      -0.027808        -0.7567

MULLIKEN ATOMIC CHARGES
-----------------------
   0 C :    0.315726
   1 C :   -0.349979
   2 C :   -0.187739
   3 N :    0.151170
   4 C :   -0.200461
   5 N :    0.156379
   6 C :    0.017774
   7 C :   -0.016619
   8 C :   -0.067492
   9 C :    0.132879
  10 C :   -0.096452
  11 C :   -0.033132
  12 S :    0.211770
  13 C :   -0.152961
  14 C :    0.018557
  15 Br:    0.041317
  16 C :    0.119848
  17 O :   -0.138905
  18 C :   -0.143006
  19 C :    0.039022
  20 C :   -0.166074
  21 S :    0.149187
  22 C :   -0.097811
  23 C :   -0.102394
  24 C :    0.112543
  25 C :    0.179645
  26 C :   -0.029856
  27 C :    0.032419
  28 C :    0.003977
  29 C :    0.023872
  30 C :    0.001226
  31 C :   -0.211885
  32 C :    0.096509
  33 C :    0.224145
  34 N :   -0.154240
  35 C :    0.059853
  36 C :   -0.067692
  37 C :    0.021747
  38 C :   -0.051587
  39 C :    0.050978
  40 C :    0.008966
  41 C :   -0.021693
  42 S :    0.021320
  43 C :   -0.044374
  44 C :    0.035843
  45 C :    0.022669
  46 C :   -0.017639
  47 S :    0.021107
  48 C :   -0.001930
  49 C :   -0.068748
  50 S :    0.120760
  51 C :   -0.098931
  52 C :    0.161899
  53 C :   -0.020760
  54 N :    0.262890
  55 O :   -0.255950
  56 O :   -0.246215
  57 H :   -0.015253
  58 H :   -0.005187
  59 H :   -0.005251
  60 H :    0.029459
  61 H :    0.026287
  62 H :    0.010826
  63 H :    0.030836
  64 H :    0.042740
  65 H :    0.008222
  66 H :   -0.018846
  67 H :   -0.019202
  68 H :   -0.014863
  69 H :   -0.033219
  70 H :    0.030002
  71 H :    0.026651
  72 H :    0.031621
  73 H :    0.007203
  74 H :    0.032161
  75 H :    0.127191
  76 H :    0.026333
  77 H :   -0.024477
  78 H :   -0.013325
  79 H :   -0.015671
  80 H :   -0.018892
  81 H :   -0.014978
  82 H :   -0.016974
  83 H :   -0.016038
  84 H :    0.033396
  85 H :   -0.002222
Sum of atomic charges:   -0.0000000

LOEWDIN ATOMIC CHARGES
----------------------
   0 C :    0.073608
   1 C :   -0.142320
   2 C :   -0.019004
   3 N :   -0.053315
   4 C :   -0.023358
   5 N :   -0.051324
   6 C :   -0.025828
   7 C :   -0.050059
   8 C :    0.020503
   9 C :   -0.036974
  10 C :   -0.149774
  11 C :   -0.010383
  12 S :    0.455840
  13 C :   -0.282924
  14 C :   -0.084487
  15 Br:    0.149201
  16 C :    0.070798
  17 O :   -0.132043
  18 C :   -0.109268
  19 C :    0.052333
  20 C :   -0.180237
  21 S :    0.456196
  22 C :   -0.161754
  23 C :   -0.055886
  24 C :   -0.043972
  25 C :   -0.007115
  26 C :   -0.007024
  27 C :   -0.012564
  28 C :   -0.028848
  29 C :   -0.012652
  30 C :   -0.051265
  31 C :   -0.033082
  32 C :   -0.053907
  33 C :    0.048743
  34 N :    0.011885
  35 C :    0.048517
  36 C :   -0.145014
  37 C :   -0.020324
  38 C :   -0.183956
  39 C :   -0.014974
  40 C :   -0.061755
  41 C :   -0.160551
  42 S :    0.365945
  43 C :   -0.203326
  44 C :   -0.026425
  45 C :   -0.049361
  46 C :   -0.142083
  47 S :    0.346270
  48 C :   -0.096929
  49 C :   -0.158326
  50 S :    0.459105
  51 C :   -0.173806
  52 C :   -0.077418
  53 C :   -0.059826
  54 N :    0.287196
  55 O :   -0.219211
  56 O :   -0.211178
  57 H :    0.039856
  58 H :    0.041626
  59 H :    0.035669
  60 H :    0.044317
  61 H :    0.026973
  62 H :    0.033623
  63 H :    0.036769
  64 H :    0.037921
  65 H :    0.029612
  66 H :    0.028817
  67 H :    0.026624
  68 H :    0.021556
  69 H :    0.023433
  70 H :    0.030777
  71 H :    0.033860
  72 H :    0.041924
  73 H :    0.026928
  74 H :    0.035839
  75 H :    0.078167
  76 H :    0.010135
  77 H :    0.021986
  78 H :    0.035640
  79 H :    0.032454
  80 H :    0.029611
  81 H :    0.031993
  82 H :    0.031332
  83 H :    0.038945
  84 H :    0.033493
  85 H :    0.037810

  Mayer bond orders larger than 0.100000
B(  0-C ,  1-C ) :   1.6282 B(  0-C ,  6-C ) :   0.9932 B(  0-C , 18-C ) :   1.0828
B(  1-C ,  2-C ) :   1.1450 B(  1-C ,  4-C ) :   1.1440 B(  2-C ,  3-N ) :   2.9669
B(  4-C ,  5-N ) :   2.9786 B(  6-C ,  7-C ) :   1.2707 B(  6-C , 11-C ) :   1.4039
B(  7-C ,  8-C ) :   1.4276 B(  7-C , 16-C ) :   0.9225 B(  8-C ,  9-C ) :   1.2364
B(  8-C , 57-H ) :   1.0180 B(  9-C , 10-C ) :   1.3014 B(  9-C , 14-C ) :   1.1598
B( 10-C , 11-C ) :   1.3254 B( 10-C , 12-S ) :   1.0870 B( 11-C , 58-H ) :   0.9836
B( 12-S , 13-C ) :   1.1053 B( 13-C , 14-C ) :   1.5780 B( 13-C , 15-Br) :   1.0403
B( 14-C , 59-H ) :   1.0039 B( 16-C , 17-O ) :   2.2119 B( 16-C , 18-C ) :   0.9718
B( 18-C , 19-C ) :   1.5408 B( 19-C , 20-C ) :   1.2325 B( 19-C , 60-H ) :   0.9287
B( 20-C , 21-S ) :   1.1103 B( 20-C , 25-C ) :   1.3633 B( 21-S , 22-C ) :   1.1769
B( 22-C , 23-C ) :   1.5491 B( 22-C , 61-H ) :   0.9672 B( 23-C , 24-C ) :   1.0950
B( 23-C , 25-C ) :   1.2698 B( 24-C , 62-H ) :   0.9470 B( 24-C , 63-H ) :   0.9425
B( 24-C , 64-H ) :   0.9430 B( 25-C , 26-C ) :   1.1339 B( 26-C , 27-C ) :   1.7128
B( 26-C , 65-H ) :   0.9280 B( 27-C , 28-C ) :   1.1080 B( 27-C , 66-H ) :   0.9724
B( 28-C , 29-C ) :   1.7181 B( 28-C , 67-H ) :   0.9793 B( 29-C , 30-C ) :   1.1127
B( 29-C , 68-H ) :   0.9557 B( 30-C , 31-C ) :   1.7522 B( 30-C , 69-H ) :   0.9754
B( 31-C , 32-C ) :   1.0719 B( 31-C , 33-C ) :   1.0518 B( 32-C , 70-H ) :   0.9478
B( 32-C , 71-H ) :   0.9456 B( 32-C , 72-H ) :   0.9386 B( 33-C , 34-N ) :   0.9774
B( 33-C , 73-H ) :   0.9354 B( 33-C , 74-H ) :   0.9275 B( 34-N , 35-C ) :   1.2630
B( 34-N , 75-H ) :   0.9336 B( 35-C , 36-C ) :   1.5689 B( 35-C , 76-H ) :   0.9452
B( 36-C , 37-C ) :   1.2204 B( 36-C , 77-H ) :   0.9577 B( 37-C , 38-C ) :   1.5868
B( 37-C , 78-H ) :   0.9572 B( 38-C , 39-C ) :   1.1588 B( 38-C , 42-S ) :   1.0102
B( 39-C , 40-C ) :   1.5839 B( 39-C , 79-H ) :   0.9958 B( 40-C , 41-C ) :   1.1877
B( 40-C , 80-H ) :   0.9931 B( 41-C , 42-S ) :   1.0570 B( 41-C , 43-C ) :   1.5093
B( 43-C , 44-C ) :   1.1938 B( 43-C , 47-S ) :   1.0149 B( 44-C , 45-C ) :   1.5911
B( 44-C , 81-H ) :   0.9931 B( 45-C , 46-C ) :   1.1413 B( 45-C , 82-H ) :   0.9986
B( 46-C , 47-S ) :   1.0452 B( 46-C , 48-C ) :   1.5766 B( 48-C , 49-C ) :   1.1659
B( 48-C , 83-H ) :   0.9677 B( 49-C , 50-S ) :   1.1092 B( 49-C , 53-C ) :   1.4446
B( 50-S , 51-C ) :   1.1810 B( 51-C , 52-C ) :   1.5164 B( 51-C , 84-H ) :   0.9594
B( 52-C , 53-C ) :   1.2589 B( 52-C , 54-N ) :   0.9145 B( 53-C , 85-H ) :   1.0065
B( 54-N , 55-O ) :   1.5448 B( 54-N , 56-O ) :   1.5536 B( 55-O , 56-O ) :   0.2692

-----------------------------------------------------------------------------
         ABSORPTION SPECTRUM VIA TRANSITION ELECTRIC DIPOLE MOMENTS
-----------------------------------------------------------------------------
State   Energy  Wavelength   fosc         T2         TX        TY        TZ
        (cm-1)    (nm)                  (au**2)     (au)      (au)      (au)
-----------------------------------------------------------------------------
   0   11404.9    876.8   0.006334346   0.18285   0.32985   0.12780  -0.24024
   1   15859.4    630.5   0.770651527  15.99733   1.90403   3.39671   0.91343
   2   17893.7    558.9   0.309869422   5.70104  -0.34946  -2.35020  -0.23551
   3   18572.2    538.4   0.105043438   1.86201  -0.42085  -1.11291  -0.66806
   4   22728.9    440.0   0.068462947   0.99164   0.44542   0.80881  -0.37291
   5   23758.6    420.9   0.204826943   2.83819   0.45923   0.36333  -1.57965
   6   24163.6    413.8   0.183480573   2.49980  -0.63021  -1.11868   0.92261
   7   24446.4    409.1   0.027888800   0.37557   0.10511   0.46484   0.38529
   8   24954.7    400.7   0.017604543   0.23225   0.22951   0.28228  -0.31605
   9   25880.3    386.4   0.011546033   0.14687   0.10831  -0.03289  -0.36614
  10   27020.2    370.1   0.076700233   0.93451   0.00683  -0.05606  -0.96505
  11   27140.7    368.5   0.217246988   2.63517  -1.55484   0.14637   0.44297
  12   28024.7    356.8   0.087221076   1.02461  -0.30265  -0.63597   0.72701
  13   29397.6    340.2   0.237347314   2.65795  -0.14554   0.04061   1.62331
  14   29575.6    338.1   0.031484405   0.35046  -0.18423   0.31942  -0.46313
  15   30358.2    329.4   0.153626416   1.66596   1.27477  -0.14870  -0.13718
  16   30610.9    326.7   0.739550725   7.95366   0.76722   0.24136  -2.70311
  17   31269.0    319.8   0.125389768   1.32015  -0.03413   0.34157  -1.09650
  18   32009.1    312.4   0.126585929   1.30193  -0.28490   0.22758  -1.08119
  19   32435.7    308.3   0.067363546   0.68372   0.48654   0.07784   0.66403
  20   32670.5    306.1   0.003371524   0.03397   0.05481   0.07553  -0.15895
  21   33286.4    300.4   0.278264448   2.75211  -1.32238   0.98762   0.16745
  22   33491.9    298.6   0.008628695   0.08482  -0.13594   0.22510   0.12516
  23   33780.0    296.0   0.020729676   0.20203  -0.35543   0.27152   0.04445
  24   33907.2    294.9   0.000378180   0.00367  -0.02659   0.04827   0.02520
  25   34008.8    294.0   0.019870013   0.19235   0.29279  -0.30642  -0.11281
  26   34380.4    290.9   0.962272704   9.21431   2.45062  -0.66390  -1.66373
  27   34675.8    288.4   0.188727387   1.79178   0.97298  -0.15248  -0.90655
  28   35284.8    283.4   0.006738579   0.06287  -0.09300  -0.06581   0.22336
  29   35628.5    280.7   0.121678221   1.12432   0.15387  -0.52903   0.90597
  30   35790.0    279.4   0.035699328   0.32838   0.07201  -0.08029   0.56280
  31   36455.0    274.3   0.005461410   0.04932   0.19971   0.03151   0.09188
  32   36556.3    273.6   0.016821652   0.15149   0.22692   0.27474   0.15657
  33   37072.3    269.7   0.000169025   0.00150   0.00764   0.02284  -0.03035
  34   37225.3    268.6   0.011160419   0.09870  -0.05016   0.11707  -0.28719
  35   37678.5    265.4   0.037351458   0.32635   0.44326  -0.35896  -0.03190
  36   37927.0    263.7   0.063039270   0.54719   0.23356  -0.12501  -0.69066
  37   38524.9    259.6   0.105066771   0.89784  -0.16968  -0.45994   0.81086
  38   39014.9    256.3   0.005692766   0.04804  -0.09075   0.06020   0.19021
  39   39257.4    254.7   0.087654753   0.73507   0.15025   0.21766  -0.81555
  40   39632.1    252.3   0.011273808   0.09365   0.21524   0.15230  -0.15532
  41   39778.0    251.4   0.027914854   0.23103   0.20872   0.01815  -0.43259
  42   39834.4    251.0   0.000208074   0.00172   0.02372  -0.03267   0.00949
  43   40143.8    249.1   0.058596102   0.48054  -0.03132  -0.33372   0.60678

FINAL SINGLE POINT ENERGY     -6700.175628840829

DIPOLE MOMENT
-------------
                                X             Y             Z
Electronic contribution:    -56.49262     -35.48179       9.81084
Nuclear contribution   :     56.76096      40.03441      -9.16405
                        -----------------------------------------
Total Dipole Moment    :      0.26834       4.55262       0.64679
                        -----------------------------------------
Magnitude (a.u.)       :      4.60616
Magnitude (Debye)      :     11.70794

Rotational constants in cm-1:     0.001723     0.000742     0.000627
Rotational constants in MHz :    51.665643    22.251626    18.784303

                             ****ORCA TERMINATED NORMALLY****
TOTAL RUN TIME: 0 days 0 hours 8 minutes 27 seconds 29 msec
