                         Program Version 4.2.0 -  RELEASE  -
|  1> # ORCA input file
|  2> # SCF done       -176.061249583099          0.000649383203
|  3> ! CAM-B3LYP def2-SVP def2/J RIJCOSX Grid4 TightSCF
|  4> %maxcore 5000
|  5> %tddft
|  6>     Mode sTDDFT
|  7>     Ethresh 5.0
|  8>     maxcore 5000
|  9> end
| 10>
| 11> %pal
| 12>   nprocs 6
| 13>   end
| 14> * xyz 0 1
| 15>    C      -16.47588        -3.62299         1.76104
| 16>    C      -17.25379        -2.73779         1.06674
| 17>    F      -18.56129        -2.63060         1.34218
| 18>    C      -16.69462        -1.93126         0.05776
| 19>    F      -17.47909        -1.07122        -0.60905
| 20>    C      -15.36361        -2.01996        -0.24428
| 21>    C      -14.53766        -2.92160         0.45237
| 22>    C      -15.10204        -3.73888         1.47355
| 23>    C      -14.29128        -4.65446         2.18573
| 24>    C      -12.95916        -4.75036         1.88480
| 25>    C      -12.40325        -3.92800         0.86161
| 26>    C      -13.15939        -3.03499         0.15905
| 27>    C      -10.97272        -4.23285         0.73868
| 28>    O      -10.16474        -3.72256        -0.03717
| 29>    C      -10.68746        -5.27265         1.72578
| 30>    C      -11.90012        -5.59289         2.43685
| 31>    C      -12.05289        -6.51409         3.44461
| 32>    C      -11.00732        -7.31058         3.95000
| 33>    N      -10.18367        -7.97774         4.39266
| 34>    C      -13.27237        -6.77667         4.09770
| 35>    N      -14.23867        -7.03267         4.66350
| 36>    C       -9.42361        -5.80379         1.86485
| 37>    N       -8.42968        -5.36321         1.08383
| 38>    C       -7.14347        -5.78230         1.06756
| 39>    S       -6.57417        -7.02603         2.14028
| 40>    C       -5.00241        -6.89382         1.41648
| 41>    N       -3.98324        -7.71940         1.89652
| 42>    O       -2.88313        -7.61825         1.37783
| 43>    O       -4.27008        -8.48319         2.80421
| 44>    C       -4.93150        -5.95699         0.41925
| 45>    C       -6.15423        -5.29782         0.19724
| 46>    C       -6.38324        -4.26186        -0.77450
| 47>    C       -5.50609        -3.90115        -1.73103
| 48>    C       -5.77766        -2.85374        -2.67020
| 49>    C       -5.01040        -2.49384        -3.71231
| 50>    C       -3.70817        -3.12540        -4.08698
| 51>    C       -5.44173        -1.35912        -4.61337
| 52>    N       -4.53991        -0.23308        -4.51038
| 53>    C       -3.45737        -0.09433        -5.30645
| 54>    C       -2.37779         0.68657        -5.02717
| 55>    C       -1.29872         0.83515        -5.91388
| 56>    C       -0.16208         1.56061        -5.66194
| 57>    C        0.96089         1.70300        -6.50891
| 58>    C        1.96559         2.46270        -5.98792
| 59>    C        1.69229         2.97114        -4.70059
| 60>    S        0.11062         2.45252        -4.16683
| 61>    C        2.51458         3.76214        -3.91532
| 62>    C        3.80836         4.22744        -4.22265
| 63>    C        4.38660         4.97066        -3.23413
| 64>    C        3.57553         5.14679        -2.09182
| 65>    S        2.03433         4.33380        -2.33205
| 66>    C        3.78884         5.89571        -0.95305
| 67>    C        4.99380         6.45313        -0.50746
| 68>    S        4.91602         7.87552         0.50021
| 69>    C        6.63831         8.02755         0.59391
| 70>    C        7.26038         6.97047        -0.08443
| 71>    C        6.33837         6.06578        -0.68890
| 72>    C        6.82772         4.87948        -1.25964
| 73>    C        8.17468         4.62883        -1.32066
| 74>    C        8.67280         3.35275        -1.92462
| 75>    C        9.09938         5.57593        -0.80130
| 76>    C       10.56976         5.31049        -0.89736
| 77>    C        8.64094         6.70956        -0.18502
| 78>    C        7.26123         9.10345         1.29174
| 79>    C        6.61404        10.06771         1.95311
| 80>    H      -16.92054        -4.23381         2.53110
| 81>    H      -14.95078        -1.39469        -1.02045
| 82>    H      -14.74853        -5.25867         2.95222
| 83>    H      -12.71512        -2.42418        -0.61216
| 84>    H       -9.19040        -6.57765         2.58367
| 85>    H       -8.72751        -4.62657         0.41772
| 86>    H       -4.01610        -5.76287        -0.10779
| 87>    H       -7.33382        -3.74681        -0.72806
| 88>    H       -4.56482        -4.42111        -1.81414
| 89>    H       -6.71182        -2.32709        -2.51469
| 90>    H       -3.28020        -3.69994        -3.27258
| 91>    H       -2.98741        -2.36382        -4.38522
| 92>    H       -3.85317        -3.79356        -4.93721
| 93>    H       -6.44813        -1.02458        -4.34694
| 94>    H       -5.44793        -1.68955        -5.65629
| 95>    H       -4.47917         0.18891        -3.59354
| 96>    H       -3.51242        -0.62136        -6.25053
| 97>    H       -2.32670         1.20780        -4.08049
| 98>    H       -1.35163         0.32296        -6.86627
| 99>    H        0.99265         1.23529        -7.47743
|100>    H        2.89044         2.67037        -6.49526
|101>    H        4.28064         4.01326        -5.16473
|102>    H        5.34749         5.44438        -3.32269
|103>    H        2.91362         6.12621        -0.35824
|104>    H        6.12901         4.14271        -1.62488
|105>    H        9.32767         3.55661        -2.77127
|106>    H        7.84203         2.74192        -2.26878
|107>    H        9.24459         2.78013        -1.19505
|108>    H       10.87169         5.19220        -1.93743
|109>    H       10.82931         4.39258        -0.37081
|110>    H       11.13764         6.12951        -0.46350
|111>    H        9.34378         7.40603         0.24721
|112>    H        8.34288         9.10802         1.26311
|113>    H        5.53792        10.08982         2.00257
|114>    H        7.14188        10.85301         2.46332
|115> *
|116>
|117>                          ****END OF INPUT****

CARTESIAN COORDINATES (ANGSTROEM)
---------------------------------
  C    -16.475880   -3.622990    1.761040
  C    -17.253790   -2.737790    1.066740
  F    -18.561290   -2.630600    1.342180
  C    -16.694620   -1.931260    0.057760
  F    -17.479090   -1.071220   -0.609050
  C    -15.363610   -2.019960   -0.244280
  C    -14.537660   -2.921600    0.452370
  C    -15.102040   -3.738880    1.473550
  C    -14.291280   -4.654460    2.185730
  C    -12.959160   -4.750360    1.884800
  C    -12.403250   -3.928000    0.861610
  C    -13.159390   -3.034990    0.159050
  C    -10.972720   -4.232850    0.738680
  O    -10.164740   -3.722560   -0.037170
  C    -10.687460   -5.272650    1.725780
  C    -11.900120   -5.592890    2.436850
  C    -12.052890   -6.514090    3.444610
  C    -11.007320   -7.310580    3.950000
  N    -10.183670   -7.977740    4.392660
  C    -13.272370   -6.776670    4.097700
  N    -14.238670   -7.032670    4.663500
  C     -9.423610   -5.803790    1.864850
  N     -8.429680   -5.363210    1.083830
  C     -7.143470   -5.782300    1.067560
  S     -6.574170   -7.026030    2.140280
  C     -5.002410   -6.893820    1.416480
  N     -3.983240   -7.719400    1.896520
  O     -2.883130   -7.618250    1.377830
  O     -4.270080   -8.483190    2.804210
  C     -4.931500   -5.956990    0.419250
  C     -6.154230   -5.297820    0.197240
  C     -6.383240   -4.261860   -0.774500
  C     -5.506090   -3.901150   -1.731030
  C     -5.777660   -2.853740   -2.670200
  C     -5.010400   -2.493840   -3.712310
  C     -3.708170   -3.125400   -4.086980
  C     -5.441730   -1.359120   -4.613370
  N     -4.539910   -0.233080   -4.510380
  C     -3.457370   -0.094330   -5.306450
  C     -2.377790    0.686570   -5.027170
  C     -1.298720    0.835150   -5.913880
  C     -0.162080    1.560610   -5.661940
  C      0.960890    1.703000   -6.508910
  C      1.965590    2.462700   -5.987920
  C      1.692290    2.971140   -4.700590
  S      0.110620    2.452520   -4.166830
  C      2.514580    3.762140   -3.915320
  C      3.808360    4.227440   -4.222650
  C      4.386600    4.970660   -3.234130
  C      3.575530    5.146790   -2.091820
  S      2.034330    4.333800   -2.332050
  C      3.788840    5.895710   -0.953050
  C      4.993800    6.453130   -0.507460
  S      4.916020    7.875520    0.500210
  C      6.638310    8.027550    0.593910
  C      7.260380    6.970470   -0.084430
  C      6.338370    6.065780   -0.688900
  C      6.827720    4.879480   -1.259640
  C      8.174680    4.628830   -1.320660
  C      8.672800    3.352750   -1.924620
  C      9.099380    5.575930   -0.801300
  C     10.569760    5.310490   -0.897360
  C      8.640940    6.709560   -0.185020
  C      7.261230    9.103450    1.291740
  C      6.614040   10.067710    1.953110
  H    -16.920540   -4.233810    2.531100
  H    -14.950780   -1.394690   -1.020450
  H    -14.748530   -5.258670    2.952220
  H    -12.715120   -2.424180   -0.612160
  H     -9.190400   -6.577650    2.583670
  H     -8.727510   -4.626570    0.417720
  H     -4.016100   -5.762870   -0.107790
  H     -7.333820   -3.746810   -0.728060
  H     -4.564820   -4.421110   -1.814140
  H     -6.711820   -2.327090   -2.514690
  H     -3.280200   -3.699940   -3.272580
  H     -2.987410   -2.363820   -4.385220
  H     -3.853170   -3.793560   -4.937210
  H     -6.448130   -1.024580   -4.346940
  H     -5.447930   -1.689550   -5.656290
  H     -4.479170    0.188910   -3.593540
  H     -3.512420   -0.621360   -6.250530
  H     -2.326700    1.207800   -4.080490
  H     -1.351630    0.322960   -6.866270
  H      0.992650    1.235290   -7.477430
  H      2.890440    2.670370   -6.495260
  H      4.280640    4.013260   -5.164730
  H      5.347490    5.444380   -3.322690
  H      2.913620    6.126210   -0.358240
  H      6.129010    4.142710   -1.624880
  H      9.327670    3.556610   -2.771270
  H      7.842030    2.741920   -2.268780
  H      9.244590    2.780130   -1.195050
  H     10.871690    5.192200   -1.937430
  H     10.829310    4.392580   -0.370810
  H     11.137640    6.129510   -0.463500
  H      9.343780    7.406030    0.247210
  H      8.342880    9.108020    1.263110
  H      5.537920   10.089820    2.002570
  H      7.141880   10.853010    2.463320

 Total Charge           Charge          ....    0
 Multiplicity           Mult            ....    1
 Number of Electrons    NEL             ....  482
 Basis Dimension        Dim             .... 1101

ORBITAL ENERGIES
----------------

  NO   OCC          E(Eh)            E(eV)
   0   2.0000     -88.996847     -2421.7273
   1   2.0000     -88.939871     -2420.1769
   2   2.0000     -88.928316     -2419.8625
   3   2.0000     -88.924511     -2419.7590
   4   2.0000     -24.805823      -675.0008
   5   2.0000     -24.804796      -674.9728
   6   2.0000     -19.244688      -523.6746
   7   2.0000     -19.243344      -523.6380
   8   2.0000     -19.242518      -523.6155
   9   2.0000     -14.655623      -398.7998
  10   2.0000     -14.506020      -394.7289
  11   2.0000     -14.443088      -393.0164
  12   2.0000     -14.426698      -392.5704
  13   2.0000     -14.421966      -392.4416
  14   2.0000     -10.390095      -282.7289
  15   2.0000     -10.389457      -282.7115
  16   2.0000     -10.389423      -282.7106
  17   2.0000     -10.380516      -282.4682
  18   2.0000     -10.378902      -282.4243
  19   2.0000     -10.354892      -281.7709
  20   2.0000     -10.354434      -281.7585
  21   2.0000     -10.349682      -281.6292
  22   2.0000     -10.328873      -281.0629
  23   2.0000     -10.325075      -280.9596
  24   2.0000     -10.323320      -280.9118
  25   2.0000     -10.320290      -280.8294
  26   2.0000     -10.320179      -280.8263
  27   2.0000     -10.319812      -280.8164
  28   2.0000     -10.318347      -280.7765
  29   2.0000     -10.318088      -280.7695
  30   2.0000     -10.315271      -280.6928
  31   2.0000     -10.314905      -280.6828
  32   2.0000     -10.312315      -280.6123
  33   2.0000     -10.310466      -280.5620
  34   2.0000     -10.309192      -280.5274
  35   2.0000     -10.309024      -280.5228
  36   2.0000     -10.306728      -280.4603
  37   2.0000     -10.299305      -280.2583
  38   2.0000     -10.295715      -280.1607
  39   2.0000     -10.295313      -280.1497
  40   2.0000     -10.294898      -280.1384
  41   2.0000     -10.290469      -280.0179
  42   2.0000     -10.287903      -279.9481
  43   2.0000     -10.286461      -279.9088
  44   2.0000     -10.285434      -279.8809
  45   2.0000     -10.284107      -279.8448
  46   2.0000     -10.278742      -279.6988
  47   2.0000     -10.277857      -279.6747
  48   2.0000     -10.274411      -279.5809
  49   2.0000     -10.271376      -279.4984
  50   2.0000     -10.271270      -279.4955
  51   2.0000     -10.268948      -279.4323
  52   2.0000     -10.264755      -279.3182
  53   2.0000     -10.264713      -279.3170
  54   2.0000     -10.262663      -279.2613
  55   2.0000     -10.261348      -279.2255
  56   2.0000     -10.260199      -279.1942
  57   2.0000     -10.259817      -279.1838
  58   2.0000     -10.259241      -279.1681
  59   2.0000     -10.258787      -279.1558
  60   2.0000     -10.254022      -279.0261
  61   2.0000     -10.252839      -278.9939
  62   2.0000     -10.252713      -278.9905
  63   2.0000     -10.250841      -278.9396
  64   2.0000     -10.247780      -278.8563
  65   2.0000      -8.092039      -220.1956
  66   2.0000      -8.035295      -218.6515
  67   2.0000      -8.024601      -218.3605
  68   2.0000      -8.021016      -218.2629
  69   2.0000      -6.061675      -164.9466
  70   2.0000      -6.057344      -164.8287
  71   2.0000      -6.053488      -164.7238
  72   2.0000      -6.004255      -163.3841
  73   2.0000      -6.000320      -163.2770
  74   2.0000      -5.997964      -163.2129
  75   2.0000      -5.994322      -163.1138
  76   2.0000      -5.990786      -163.0176
  77   2.0000      -5.990431      -163.0079
  78   2.0000      -5.986807      -162.9093
  79   2.0000      -5.985464      -162.8728
  80   2.0000      -5.981821      -162.7736
  81   2.0000      -1.327688       -36.1282
  82   2.0000      -1.323534       -36.0152
  83   2.0000      -1.312859       -35.7247
  84   2.0000      -1.156373       -31.4665
  85   2.0000      -1.142488       -31.0887
  86   2.0000      -1.112944       -30.2847
  87   2.0000      -1.045792       -28.4575
  88   2.0000      -1.030092       -28.0302
  89   2.0000      -1.017281       -27.6816
  90   2.0000      -1.014455       -27.6047
  91   2.0000      -1.002618       -27.2826
  92   2.0000      -0.991424       -26.9780
  93   2.0000      -0.978105       -26.6156
  94   2.0000      -0.972837       -26.4722
  95   2.0000      -0.954463       -25.9723
  96   2.0000      -0.942509       -25.6470
  97   2.0000      -0.938228       -25.5305
  98   2.0000      -0.922218       -25.0948
  99   2.0000      -0.921957       -25.0877
 100   2.0000      -0.910612       -24.7790
 101   2.0000      -0.902424       -24.5562
 102   2.0000      -0.896638       -24.3988
 103   2.0000      -0.889252       -24.1978
 104   2.0000      -0.880171       -23.9507
 105   2.0000      -0.870731       -23.6938
 106   2.0000      -0.859165       -23.3791
 107   2.0000      -0.851578       -23.1726
 108   2.0000      -0.850878       -23.1536
 109   2.0000      -0.841902       -22.9093
 110   2.0000      -0.837111       -22.7789
 111   2.0000      -0.827088       -22.5062
 112   2.0000      -0.825244       -22.4560
 113   2.0000      -0.823544       -22.4098
 114   2.0000      -0.805638       -21.9225
 115   2.0000      -0.798032       -21.7155
 116   2.0000      -0.795113       -21.6361
 117   2.0000      -0.780793       -21.2465
 118   2.0000      -0.780023       -21.2255
 119   2.0000      -0.770219       -20.9587
 120   2.0000      -0.760006       -20.6808
 121   2.0000      -0.752422       -20.4745
 122   2.0000      -0.748674       -20.3725
 123   2.0000      -0.739861       -20.1326
 124   2.0000      -0.731985       -19.9183
 125   2.0000      -0.726149       -19.7595
 126   2.0000      -0.714807       -19.4509
 127   2.0000      -0.713610       -19.4183
 128   2.0000      -0.697283       -18.9740
 129   2.0000      -0.691589       -18.8191
 130   2.0000      -0.682413       -18.5694
 131   2.0000      -0.674215       -18.3463
 132   2.0000      -0.668072       -18.1792
 133   2.0000      -0.665777       -18.1167
 134   2.0000      -0.665705       -18.1148
 135   2.0000      -0.658685       -17.9237
 136   2.0000      -0.655322       -17.8322
 137   2.0000      -0.650759       -17.7080
 138   2.0000      -0.640293       -17.4233
 139   2.0000      -0.636651       -17.3242
 140   2.0000      -0.636299       -17.3146
 141   2.0000      -0.634030       -17.2528
 142   2.0000      -0.622736       -16.9455
 143   2.0000      -0.617422       -16.8009
 144   2.0000      -0.615146       -16.7390
 145   2.0000      -0.610466       -16.6116
 146   2.0000      -0.606285       -16.4978
 147   2.0000      -0.602595       -16.3975
 148   2.0000      -0.602063       -16.3830
 149   2.0000      -0.594273       -16.1710
 150   2.0000      -0.592775       -16.1302
 151   2.0000      -0.589235       -16.0339
 152   2.0000      -0.587203       -15.9786
 153   2.0000      -0.582888       -15.8612
 154   2.0000      -0.581984       -15.8366
 155   2.0000      -0.571039       -15.5388
 156   2.0000      -0.568999       -15.4833
 157   2.0000      -0.567758       -15.4495
 158   2.0000      -0.567599       -15.4452
 159   2.0000      -0.562659       -15.3107
 160   2.0000      -0.554874       -15.0989
 161   2.0000      -0.554017       -15.0756
 162   2.0000      -0.548536       -14.9264
 163   2.0000      -0.544980       -14.8297
 164   2.0000      -0.544346       -14.8124
 165   2.0000      -0.542021       -14.7491
 166   2.0000      -0.540150       -14.6982
 167   2.0000      -0.539274       -14.6744
 168   2.0000      -0.535310       -14.5665
 169   2.0000      -0.531206       -14.4549
 170   2.0000      -0.525334       -14.2951
 171   2.0000      -0.519963       -14.1489
 172   2.0000      -0.515715       -14.0333
 173   2.0000      -0.513031       -13.9603
 174   2.0000      -0.508950       -13.8492
 175   2.0000      -0.508300       -13.8316
 176   2.0000      -0.506340       -13.7782
 177   2.0000      -0.504319       -13.7232
 178   2.0000      -0.499722       -13.5981
 179   2.0000      -0.498364       -13.5612
 180   2.0000      -0.496859       -13.5202
 181   2.0000      -0.486238       -13.2312
 182   2.0000      -0.482935       -13.1413
 183   2.0000      -0.481373       -13.0988
 184   2.0000      -0.480959       -13.0876
 185   2.0000      -0.480487       -13.0747
 186   2.0000      -0.477331       -12.9888
 187   2.0000      -0.475452       -12.9377
 188   2.0000      -0.475220       -12.9314
 189   2.0000      -0.473482       -12.8841
 190   2.0000      -0.470521       -12.8035
 191   2.0000      -0.467238       -12.7142
 192   2.0000      -0.467086       -12.7101
 193   2.0000      -0.466251       -12.6873
 194   2.0000      -0.461211       -12.5502
 195   2.0000      -0.458349       -12.4723
 196   2.0000      -0.458042       -12.4640
 197   2.0000      -0.456164       -12.4128
 198   2.0000      -0.455144       -12.3851
 199   2.0000      -0.451959       -12.2984
 200   2.0000      -0.451747       -12.2927
 201   2.0000      -0.449075       -12.2200
 202   2.0000      -0.448713       -12.2101
 203   2.0000      -0.443226       -12.0608
 204   2.0000      -0.442437       -12.0393
 205   2.0000      -0.438649       -11.9362
 206   2.0000      -0.435747       -11.8573
 207   2.0000      -0.435562       -11.8523
 208   2.0000      -0.428316       -11.6551
 209   2.0000      -0.427449       -11.6315
 210   2.0000      -0.420078       -11.4309
 211   2.0000      -0.418432       -11.3861
 212   2.0000      -0.415743       -11.3129
 213   2.0000      -0.407480       -11.0881
 214   2.0000      -0.405889       -11.0448
 215   2.0000      -0.405078       -11.0227
 216   2.0000      -0.398729       -10.8500
 217   2.0000      -0.393471       -10.7069
 218   2.0000      -0.391732       -10.6596
 219   2.0000      -0.389021       -10.5858
 220   2.0000      -0.387961       -10.5570
 221   2.0000      -0.386389       -10.5142
 222   2.0000      -0.383681       -10.4405
 223   2.0000      -0.382182       -10.3997
 224   2.0000      -0.372653       -10.1404
 225   2.0000      -0.368118       -10.0170
 226   2.0000      -0.365641        -9.9496
 227   2.0000      -0.363861        -9.9012
 228   2.0000      -0.353090        -9.6081
 229   2.0000      -0.329265        -8.9598
 230   2.0000      -0.328522        -8.9395
 231   2.0000      -0.320419        -8.7190
 232   2.0000      -0.317811        -8.6481
 233   2.0000      -0.311880        -8.4867
 234   2.0000      -0.306827        -8.3492
 235   2.0000      -0.305183        -8.3045
 236   2.0000      -0.286763        -7.8032
 237   2.0000      -0.277782        -7.5588
 238   2.0000      -0.269709        -7.3392
 239   2.0000      -0.231152        -6.2900
 240   2.0000      -0.179983        -4.8976
 241   0.0000      -0.099780        -2.7152
 242   0.0000      -0.077667        -2.1134
 243   0.0000      -0.062273        -1.6945
 244   0.0000      -0.054970        -1.4958
 245   0.0000      -0.037115        -1.0099

MULLIKEN ATOMIC CHARGES
-----------------------
   0 C :   -0.108183
   1 C :    0.245393
   2 F :   -0.170226
   3 C :    0.241897
   4 F :   -0.171436
   5 C :   -0.107439
   6 C :    0.114810
   7 C :    0.114762
   8 C :   -0.082955
   9 C :    0.044155
  10 C :    0.006440
  11 C :   -0.079559
  12 C :    0.173332
  13 O :   -0.229041
  14 C :   -0.138574
  15 C :    0.333773
  16 C :   -0.341372
  17 C :   -0.198531
  18 N :    0.147551
  19 C :   -0.181261
  20 N :    0.149221
  21 C :    0.033076
  22 N :   -0.002856
  23 C :   -0.125067
  24 S :    0.179225
  25 C :    0.003393
  26 N :    0.276092
  27 O :   -0.247721
  28 O :   -0.254768
  29 C :    0.004403
  30 C :    0.144380
  31 C :   -0.049667
  32 C :    0.017040
  33 C :    0.005997
  34 C :   -0.189071
  35 C :    0.089229
  36 C :    0.206484
  37 N :   -0.142804
  38 C :    0.038399
  39 C :   -0.019581
  40 C :   -0.014093
  41 C :   -0.036597
  42 C :    0.038669
  43 C :    0.012125
  44 C :   -0.038258
  45 S :    0.055995
  46 C :   -0.056713
  47 C :    0.006118
  48 C :    0.018945
  49 C :   -0.076418
  50 S :    0.071344
  51 C :    0.032682
  52 C :   -0.137870
  53 S :    0.127100
  54 C :   -0.128934
  55 C :    0.124852
  56 C :    0.124080
  57 C :   -0.112540
  58 C :   -0.090153
  59 C :    0.121556
  60 C :   -0.071499
  61 C :    0.119766
  62 C :   -0.101579
  63 C :    0.002411
  64 C :   -0.038414
  65 H :    0.010364
  66 H :   -0.000061
  67 H :   -0.003853
  68 H :   -0.011328
  69 H :    0.048660
  70 H :    0.184132
  71 H :    0.013565
  72 H :   -0.007978
  73 H :   -0.016096
  74 H :   -0.025901
  75 H :    0.017470
  76 H :    0.036528
  77 H :    0.030946
  78 H :    0.007865
  79 H :    0.019074
  80 H :    0.120159
  81 H :    0.000394
  82 H :   -0.014348
  83 H :   -0.026781
  84 H :   -0.023516
  85 H :   -0.022483
  86 H :   -0.022081
  87 H :   -0.000151
  88 H :   -0.014628
  89 H :   -0.025600
  90 H :    0.013801
  91 H :    0.007603
  92 H :    0.016168
  93 H :    0.015853
  94 H :    0.017161
  95 H :    0.004529
  96 H :   -0.049663
  97 H :   -0.013240
  98 H :    0.015730
  99 H :    0.016197
Sum of atomic charges:   -0.0000000

LOEWDIN ATOMIC CHARGES
----------------------
   0 C :   -0.027400
   1 C :    0.069413
   2 F :   -0.047976
   3 C :    0.069690
   4 F :   -0.049447
   5 C :   -0.032322
   6 C :   -0.010175
   7 C :   -0.005948
   8 C :    0.020811
   9 C :   -0.020266
  10 C :   -0.052399
  11 C :    0.031994
  12 C :    0.096619
  13 O :   -0.182642
  14 C :   -0.145958
  15 C :    0.078038
  16 C :   -0.147724
  17 C :   -0.021260
  18 N :   -0.051475
  19 C :   -0.019125
  20 N :   -0.053090
  21 C :    0.115799
  22 N :    0.084247
  23 C :   -0.116832
  24 S :    0.472249
  25 C :   -0.197867
  26 N :    0.275067
  27 O :   -0.214973
  28 O :   -0.221616
  29 C :    0.003601
  30 C :   -0.081192
  31 C :   -0.035598
  32 C :   -0.008961
  33 C :   -0.052757
  34 C :   -0.032374
  35 C :   -0.051317
  36 C :    0.046934
  37 N :   -0.001256
  38 C :    0.035799
  39 C :   -0.119975
  40 C :   -0.040657
  41 C :   -0.174816
  42 C :   -0.032322
  43 C :   -0.050759
  44 C :   -0.172887
  45 S :    0.352994
  46 C :   -0.197622
  47 C :   -0.030783
  48 C :   -0.052245
  49 C :   -0.148297
  50 S :    0.358951
  51 C :   -0.095641
  52 C :   -0.167889
  53 S :    0.457686
  54 C :   -0.193241
  55 C :   -0.041632
  56 C :   -0.056436
  57 C :   -0.024704
  58 C :   -0.032145
  59 C :   -0.044467
  60 C :   -0.024547
  61 C :   -0.043726
  62 C :   -0.030665
  63 C :   -0.039521
  64 C :   -0.067719
  65 H :    0.048952
  66 H :    0.044925
  67 H :    0.041360
  68 H :    0.040191
  69 H :    0.036932
  70 H :    0.084915
  71 H :    0.045058
  72 H :    0.029728
  73 H :    0.025107
  74 H :    0.026470
  75 H :    0.030493
  76 H :    0.038528
  77 H :    0.040830
  78 H :    0.026405
  79 H :    0.031657
  80 H :    0.080499
  81 H :    0.025498
  82 H :    0.019210
  83 H :    0.028747
  84 H :    0.029332
  85 H :    0.028083
  86 H :    0.028870
  87 H :    0.034873
  88 H :    0.026215
  89 H :    0.028543
  90 H :    0.030588
  91 H :    0.029417
  92 H :    0.031564
  93 H :    0.031720
  94 H :    0.032355
  95 H :    0.028004
  96 H :    0.021069
  97 H :    0.031639
  98 H :    0.014463
  99 H :    0.022514

  Mayer bond orders larger than 0.100000
B(  0-C ,  1-C ) :   1.4335 B(  0-C ,  5-C ) :   0.1080 B(  0-C ,  7-C ) :   1.1927
B(  0-C , 65-H ) :   1.0081 B(  1-C ,  2-F ) :   1.1361 B(  1-C ,  3-C ) :   1.1953
B(  3-C ,  4-F ) :   1.1342 B(  3-C ,  5-C ) :   1.4382 B(  5-C ,  6-C ) :   1.1936
B(  5-C , 66-H ) :   1.0079 B(  6-C ,  7-C ) :   1.2602 B(  6-C , 11-C ) :   1.1823
B(  7-C ,  8-C ) :   1.2047 B(  8-C ,  9-C ) :   1.4654 B(  8-C , 67-H ) :   0.9904
B(  9-C , 10-C ) :   1.2184 B(  9-C , 15-C ) :   0.9866 B( 10-C , 11-C ) :   1.4697
B( 10-C , 12-C ) :   0.9795 B( 11-C , 68-H ) :   1.0189 B( 12-C , 13-O ) :   2.0268
B( 12-C , 14-C ) :   1.0117 B( 13-O , 70-H ) :   0.1436 B( 14-C , 15-C ) :   1.1021
B( 14-C , 21-C ) :   1.4348 B( 15-C , 16-C ) :   1.6252 B( 16-C , 17-C ) :   1.1483
B( 16-C , 19-C ) :   1.1492 B( 17-C , 18-N ) :   2.9530 B( 19-C , 20-N ) :   2.9579
B( 21-C , 22-N ) :   1.3497 B( 21-C , 69-H ) :   0.9317 B( 22-N , 23-C ) :   1.1939
B( 22-N , 70-H ) :   0.8225 B( 23-C , 24-S ) :   1.1331 B( 23-C , 30-C ) :   1.3751
B( 24-S , 25-C ) :   1.0842 B( 25-C , 26-N ) :   0.9681 B( 25-C , 29-C ) :   1.5016
B( 26-N , 27-O ) :   1.5283 B( 26-N , 28-O ) :   1.5145 B( 27-O , 28-O ) :   0.2646
B( 29-C , 30-C ) :   1.2232 B( 29-C , 71-H ) :   0.9984 B( 30-C , 31-C ) :   1.0425
B( 31-C , 32-C ) :   1.7457 B( 31-C , 72-H ) :   0.9787 B( 32-C , 33-C ) :   1.0944
B( 32-C , 73-H ) :   0.9718 B( 33-C , 34-C ) :   1.7597 B( 33-C , 74-H ) :   0.9770
B( 34-C , 35-C ) :   1.0742 B( 34-C , 36-C ) :   1.0390 B( 35-C , 75-H ) :   0.9490
B( 35-C , 76-H ) :   0.9411 B( 35-C , 77-H ) :   0.9436 B( 36-C , 37-N ) :   1.0114
B( 36-C , 78-H ) :   0.9416 B( 36-C , 79-H ) :   0.9299 B( 37-N , 38-C ) :   1.2199
B( 37-N , 80-H ) :   0.9363 B( 38-C , 39-C ) :   1.5932 B( 38-C , 81-H ) :   0.9645
B( 39-C , 40-C ) :   1.1700 B( 39-C , 82-H ) :   0.9632 B( 40-C , 41-C ) :   1.5825
B( 40-C , 83-H ) :   0.9777 B( 41-C , 42-C ) :   1.1501 B( 41-C , 45-S ) :   1.0102
B( 42-C , 43-C ) :   1.5800 B( 42-C , 84-H ) :   0.9975 B( 43-C , 44-C ) :   1.2013
B( 43-C , 85-H ) :   0.9931 B( 44-C , 45-S ) :   1.0519 B( 44-C , 46-C ) :   1.4836
B( 46-C , 47-C ) :   1.2101 B( 46-C , 50-S ) :   1.0377 B( 47-C , 48-C ) :   1.5736
B( 47-C , 86-H ) :   0.9940 B( 48-C , 49-C ) :   1.1740 B( 48-C , 87-H ) :   0.9902
B( 49-C , 50-S ) :   1.0415 B( 49-C , 51-C ) :   1.5433 B( 51-C , 52-C ) :   1.2174
B( 51-C , 88-H ) :   0.9357 B( 52-C , 53-S ) :   1.1438 B( 52-C , 54-C ) :   0.1014
B( 52-C , 56-C ) :   1.3090 B( 53-S , 54-C ) :   1.1225 B( 54-C , 55-C ) :   1.3397
B( 54-C , 63-C ) :   1.1548 B( 55-C , 56-C ) :   1.2153 B( 55-C , 62-C ) :   1.1789
B( 56-C , 57-C ) :   1.1863 B( 57-C , 58-C ) :   1.5484 B( 57-C , 89-H ) :   0.9943
B( 58-C , 59-C ) :   1.0934 B( 58-C , 60-C ) :   1.2210 B( 59-C , 90-H ) :   0.9411
B( 59-C , 91-H ) :   0.9515 B( 59-C , 92-H ) :   0.9413 B( 60-C , 61-C ) :   1.0907
B( 60-C , 62-C ) :   1.5615 B( 61-C , 93-H ) :   0.9422 B( 61-C , 94-H ) :   0.9415
B( 61-C , 95-H ) :   0.9518 B( 62-C , 96-H ) :   0.9894 B( 63-C , 64-C ) :   1.8935
B( 63-C , 97-H ) :   0.9587 B( 64-C , 98-H ) :   0.9565 B( 64-C , 99-H ) :   0.9485

-----------------------------------------------------------------------------
         ABSORPTION SPECTRUM VIA TRANSITION ELECTRIC DIPOLE MOMENTS
-----------------------------------------------------------------------------
State   Energy  Wavelength   fosc         T2         TX        TY        TZ
        (cm-1)    (nm)                  (au**2)     (au)      (au)      (au)
-----------------------------------------------------------------------------
   0   10408.3    960.8   0.073280708   2.31785   1.24811   0.87150   0.02352
   1   12949.6    772.2   1.544953988  39.27665  -4.46578  -3.54413  -2.60242
   2   15683.9    637.6   0.000472473   0.00992  -0.03245   0.04437   0.08304
   3   19057.6    524.7   0.028425746   0.49104   0.22037   0.15478  -0.64693
   4   20039.5    499.0   0.010335385   0.16979   0.10702  -0.00616  -0.39787
   5   20853.9    479.5   0.665397791  10.50438   2.99424  -0.00436  -1.24053
   6   22125.3    452.0   0.170701914   2.53995   1.50310  -0.52615   0.06169
   7   22604.1    442.4   0.170530775   2.48366  -1.40697  -0.08679   0.70467
   8   24018.3    416.3   0.099545137   1.36444  -0.98501  -0.46721   0.41940
   9   25473.9    392.6   0.075024645   0.96958   0.46871  -0.68089   0.53505
  10   27350.7    365.6   0.017491693   0.21054  -0.27133   0.29476  -0.22370
  11   27562.1    362.8   0.007938604   0.09482  -0.19874  -0.22658  -0.06312
  12   28619.2    349.4   0.034079153   0.39202   0.25544   0.34630  -0.45480
  13   29501.7    339.0   0.046244407   0.51605  -0.16889  -0.42959   0.55043
  14   29813.8    335.4   0.094181596   1.03998   0.27100  -0.71326   0.67661
  15   29889.4    334.6   0.104435750   1.15029   0.99128   0.06690  -0.40395
  16   30397.0    329.0   0.270956484   2.93457   1.39884  -0.88531   0.44048
  17   31054.4    322.0   0.013639195   0.14459  -0.36950  -0.08720  -0.02140
  18   31287.7    319.6   0.044150770   0.46456   0.63124  -0.14682  -0.21105
  19   31646.9    316.0   0.202148167   2.10288  -1.12969   0.69885  -0.58163
  20   32005.6    312.4   0.184497359   1.89775   0.71925   0.86253  -0.79780
  21   32485.0    307.8   0.016817394   0.17043   0.21412   0.35178  -0.02886
  22   32725.9    305.6   0.080850522   0.81333  -0.68033   0.09459   0.58441
  23   33135.1    301.8   0.000021380   0.00021   0.00943   0.00330   0.01061
  24   33893.3    295.0   0.181477689   1.76273  -1.03355   0.75921  -0.34368
  25   34098.5    293.3   0.557753595   5.38497   1.22097  -1.52015   1.25831
  26   34199.5    292.4   0.001416711   0.01364   0.05546  -0.05329   0.08787
  27   34539.5    289.5   0.114847163   1.09466   0.63841  -0.79383  -0.23859
  28   34656.5    288.5   0.119892187   1.13889   0.33436  -0.15174   1.00203
  29   35125.2    284.7   0.211499573   1.98229   0.24598  -1.35890   0.27416
  30   35596.4    280.9   0.013597618   0.12576   0.08504  -0.34276   0.03229
  31   36159.8    276.6   0.392584759   3.57424  -0.20736  -1.08241   1.53611
  32   36435.6    274.5   0.013675746   0.12357   0.32543  -0.11600   0.06483
  33   36609.9    273.2   0.000039861   0.00036   0.01810   0.00504  -0.00236
  34   37198.0    268.8   0.276637847   2.44832  -0.97774  -1.01755   0.67597
  35   37249.0    268.5   0.214803931   1.89847   0.43808  -0.45934  -1.22293
  36   37401.9    267.4   0.109821774   0.96665  -0.38549   0.42106  -0.80048
  37   37791.0    264.6   0.013027891   0.11349  -0.12339   0.29652  -0.10168
  38   38160.8    262.0   0.036874571   0.31812   0.55450  -0.09491   0.04048
  39   38294.2    261.1   0.000162074   0.00139   0.00799  -0.03645  -0.00086
  40   38533.3    259.5   0.002763612   0.02361  -0.07218   0.09391  -0.09789
  41   38620.1    258.9   0.026870254   0.22905  -0.39260   0.27318   0.01696
  42   38757.7    258.0   0.016887404   0.14344  -0.06130  -0.13033  -0.35028
  43   39401.0    253.8   0.032473748   0.27133  -0.42363  -0.23385   0.19283
  44   39750.8    251.6   0.040524735   0.33562  -0.46153   0.11666   0.33016
  45   40097.7    249.4   0.162422951   1.33353   0.88922   0.56001  -0.47875
  46   40230.2    248.6   0.084941453   0.69509  -0.34294   0.61069   0.45227

FINAL SINGLE POINT ENERGY     -4252.353752192709

DIPOLE MOMENT
-------------
                                X             Y             Z
Electronic contribution:   -135.92734     -52.81176      44.33160
Nuclear contribution   :    134.40033      53.28768     -47.59370
                        -----------------------------------------
Total Dipole Moment    :     -1.52702       0.47592      -3.26210
                        -----------------------------------------
Magnitude (a.u.)       :      3.63312
Magnitude (Debye)      :      9.23466

Rotational constants in cm-1:     0.001269     0.000196     0.000190
Rotational constants in MHz :    38.037743     5.889560     5.705081

                             ****ORCA TERMINATED NORMALLY****
TOTAL RUN TIME: 0 days 0 hours 8 minutes 37 seconds 557 msec
