                         Program Version 4.2.0 -  RELEASE  -
|  1> # ORCA input file
|  2> # SCF done       -207.018624275477          0.000553871475
|  3> ! CAM-B3LYP def2-SVP def2/J RIJCOSX Grid4 TightSCF
|  4> %maxcore 5000
|  5> %tddft
|  6>     Mode sTDDFT
|  7>     Ethresh 5.0
|  8>     maxcore 5000
|  9> end
| 10>
| 11> %pal
| 12>   nprocs 6
| 13>   end
| 14> * xyz 0 1
| 15>    C       -0.65612         1.04909        -0.19621
| 16>    C       -1.63875         0.99590         0.74239
| 17>    F       -2.06335         2.05955         1.42997
| 18>    C       -2.16915        -0.30299         0.91967
| 19>    F       -3.14488        -0.58079         1.79071
| 20>    C       -1.58368        -1.24540         0.10784
| 21>    S       -0.36472        -0.49582        -0.88060
| 22>    C       -1.86111        -2.64257         0.01016
| 23>    C       -1.25210        -3.53361        -0.82442
| 24>    C       -1.74705        -4.85393        -0.70053
| 25>    C       -1.31679        -6.01082        -1.38012
| 26>    C       -0.30785        -5.97989        -2.41890
| 27>    C        0.66630        -6.90426        -2.66928
| 28>    C        1.43993        -6.58796        -3.80611
| 29>    C        1.06512        -5.44155        -4.44465
| 30>    S       -0.26901        -4.71469        -3.61847
| 31>    C        1.66238        -4.81536        -5.65125
| 32>   Cl        2.74443        -7.57576        -4.34093
| 33>    C       -1.93337        -7.20438        -1.01642
| 34>    C       -2.94681        -7.29372        -0.03191
| 35>    C       -3.37397        -6.13780         0.65022
| 36>    C       -2.76144        -4.94230         0.28497
| 37>    S       -3.08841        -3.39069         1.00492
| 38>    C       -4.38158        -6.17001         1.69089
| 39>    C       -5.36949        -5.25729         1.93011
| 40>    C       -6.13944        -5.57425         3.06932
| 41>    C       -5.74894        -6.71004         3.71812
| 42>    S       -4.40030        -7.42217         2.90393
| 43>    C       -6.31736        -7.32022         4.94637
| 44>   Cl       -7.46167        -4.60144         3.58669
| 45>    C       -3.45522        -8.61201         0.08687
| 46>    C       -2.86500        -9.51177        -0.74957
| 47>    S       -1.62545        -8.75488        -1.73765
| 48>    C       -3.12331       -10.92344        -0.90748
| 49>    C       -2.40535       -11.67403        -1.84398
| 50>    C       -2.63070       -13.01931        -2.01879
| 51>    F       -1.87833       -13.64938        -2.94187
| 52>    C       -3.58794       -13.72793        -1.27969
| 53>    C       -4.30230       -12.97862        -0.33988
| 54>    C       -4.07674       -11.63336        -0.16434
| 55>    F       -4.82316       -11.00860         0.76702
| 56>    C       -3.84771       -15.13903        -1.44166
| 57>    C       -3.32870       -16.01794        -2.34464
| 58>    C       -3.81856       -17.34168        -2.20691
| 59>    C       -3.46331       -18.47558        -2.96277
| 60>    C       -2.43204       -18.40824        -3.97852
| 61>    C       -1.22674       -17.76955        -3.91272
| 62>    C       -0.46865       -17.91756        -5.09424
| 63>    C       -1.07817       -18.65527        -6.06735
| 64>    S       -2.62785       -19.19669        -5.52022
| 65>    C       -0.58428       -18.99308        -7.42590
| 66>   Cl        1.09578       -17.22117        -5.27499
| 67>    C       -4.14027       -19.65413        -2.66764
| 68>    C       -5.10293       -19.75988        -1.63269
| 69>    C       -5.42543       -18.63641        -0.84553
| 70>    C       -4.78012       -17.44769        -1.17378
| 71>    S       -5.00052       -15.92203        -0.37102
| 72>    C       -6.35653       -18.69887         0.26250
| 73>    C       -7.26603       -17.75611         0.64915
| 74>    C       -7.96696       -18.12023         1.81864
| 75>    C       -7.60305       -19.32559         2.34462
| 76>    S       -6.36547       -20.04424         1.37264
| 77>    C       -8.11491       -19.99933         3.56464
| 78>   Cl       -9.18161       -17.11793         2.51432
| 79>    C       -5.64099       -21.06645        -1.55283
| 80>    C       -5.09953       -21.93395        -2.45630
| 81>    S       -3.89334       -21.17881        -3.47070
| 82>    C       -5.43824       -23.31157        -2.61834
| 83>    C       -4.91683       -24.23095        -3.49757
| 84>    F       -3.95475       -23.94668        -4.38187
| 85>    C       -5.49736       -25.51468        -3.37495
| 86>    F       -5.13772       -26.55527        -4.13165
| 87>    C       -6.45471       -25.57916        -2.41126
| 88>    S       -6.65976       -24.06381        -1.63530
| 89>    H       -0.09834         1.90577        -0.51363
| 90>    H       -0.46404        -3.24221        -1.49401
| 91>    H        0.85739        -7.76257        -2.05274
| 92>    H        2.43911        -4.10352        -5.36794
| 93>    H        0.90489        -4.28230        -6.22101
| 94>    H        2.11482        -5.58057        -6.27833
| 95>    H       -5.57423        -4.40856         1.30461
| 96>    H       -5.70102        -7.08005         5.81408
| 97>    H       -6.35940        -8.40365         4.85147
| 98>    H       -7.31948        -6.93341         5.11789
| 99>    H       -4.24684        -8.86506         0.76432
|100>    H       -1.65155       -11.19699        -2.45123
|101>    H       -5.05398       -13.45654         0.26920
|102>    H       -2.63451       -15.74300        -3.11461
|103>    H       -0.86557       -17.24775        -3.04595
|104>    H       -1.13596       -18.43586        -8.18363
|105>    H       -0.71589       -20.05466        -7.62755
|106>    H        0.47008       -18.74028        -7.50678
|107>    H       -7.46499       -16.85013         0.10800
|108>    H       -7.44009       -19.83293         4.40550
|109>    H       -8.19629       -21.07233         3.40461
|110>    H       -9.09192       -19.59768         3.82398
|111>    H       -6.41031       -21.36422        -0.86437
|112>    H       -7.03937       -26.42837        -2.12357
|113> *
|114>
|115>                          ****END OF INPUT****

CARTESIAN COORDINATES (ANGSTROEM)
---------------------------------
  C     -0.656120    1.049090   -0.196210
  C     -1.638750    0.995900    0.742390
  F     -2.063350    2.059550    1.429970
  C     -2.169150   -0.302990    0.919670
  F     -3.144880   -0.580790    1.790710
  C     -1.583680   -1.245400    0.107840
  S     -0.364720   -0.495820   -0.880600
  C     -1.861110   -2.642570    0.010160
  C     -1.252100   -3.533610   -0.824420
  C     -1.747050   -4.853930   -0.700530
  C     -1.316790   -6.010820   -1.380120
  C     -0.307850   -5.979890   -2.418900
  C      0.666300   -6.904260   -2.669280
  C      1.439930   -6.587960   -3.806110
  C      1.065120   -5.441550   -4.444650
  S     -0.269010   -4.714690   -3.618470
  C      1.662380   -4.815360   -5.651250
  Cl     2.744430   -7.575760   -4.340930
  C     -1.933370   -7.204380   -1.016420
  C     -2.946810   -7.293720   -0.031910
  C     -3.373970   -6.137800    0.650220
  C     -2.761440   -4.942300    0.284970
  S     -3.088410   -3.390690    1.004920
  C     -4.381580   -6.170010    1.690890
  C     -5.369490   -5.257290    1.930110
  C     -6.139440   -5.574250    3.069320
  C     -5.748940   -6.710040    3.718120
  S     -4.400300   -7.422170    2.903930
  C     -6.317360   -7.320220    4.946370
  Cl    -7.461670   -4.601440    3.586690
  C     -3.455220   -8.612010    0.086870
  C     -2.865000   -9.511770   -0.749570
  S     -1.625450   -8.754880   -1.737650
  C     -3.123310  -10.923440   -0.907480
  C     -2.405350  -11.674030   -1.843980
  C     -2.630700  -13.019310   -2.018790
  F     -1.878330  -13.649380   -2.941870
  C     -3.587940  -13.727930   -1.279690
  C     -4.302300  -12.978620   -0.339880
  C     -4.076740  -11.633360   -0.164340
  F     -4.823160  -11.008600    0.767020
  C     -3.847710  -15.139030   -1.441660
  C     -3.328700  -16.017940   -2.344640
  C     -3.818560  -17.341680   -2.206910
  C     -3.463310  -18.475580   -2.962770
  C     -2.432040  -18.408240   -3.978520
  C     -1.226740  -17.769550   -3.912720
  C     -0.468650  -17.917560   -5.094240
  C     -1.078170  -18.655270   -6.067350
  S     -2.627850  -19.196690   -5.520220
  C     -0.584280  -18.993080   -7.425900
  Cl     1.095780  -17.221170   -5.274990
  C     -4.140270  -19.654130   -2.667640
  C     -5.102930  -19.759880   -1.632690
  C     -5.425430  -18.636410   -0.845530
  C     -4.780120  -17.447690   -1.173780
  S     -5.000520  -15.922030   -0.371020
  C     -6.356530  -18.698870    0.262500
  C     -7.266030  -17.756110    0.649150
  C     -7.966960  -18.120230    1.818640
  C     -7.603050  -19.325590    2.344620
  S     -6.365470  -20.044240    1.372640
  C     -8.114910  -19.999330    3.564640
  Cl    -9.181610  -17.117930    2.514320
  C     -5.640990  -21.066450   -1.552830
  C     -5.099530  -21.933950   -2.456300
  S     -3.893340  -21.178810   -3.470700
  C     -5.438240  -23.311570   -2.618340
  C     -4.916830  -24.230950   -3.497570
  F     -3.954750  -23.946680   -4.381870
  C     -5.497360  -25.514680   -3.374950
  F     -5.137720  -26.555270   -4.131650
  C     -6.454710  -25.579160   -2.411260
  S     -6.659760  -24.063810   -1.635300
  H     -0.098340    1.905770   -0.513630
  H     -0.464040   -3.242210   -1.494010
  H      0.857390   -7.762570   -2.052740
  H      2.439110   -4.103520   -5.367940
  H      0.904890   -4.282300   -6.221010
  H      2.114820   -5.580570   -6.278330
  H     -5.574230   -4.408560    1.304610
  H     -5.701020   -7.080050    5.814080
  H     -6.359400   -8.403650    4.851470
  H     -7.319480   -6.933410    5.117890
  H     -4.246840   -8.865060    0.764320
  H     -1.651550  -11.196990   -2.451230
  H     -5.053980  -13.456540    0.269200
  H     -2.634510  -15.743000   -3.114610
  H     -0.865570  -17.247750   -3.045950
  H     -1.135960  -18.435860   -8.183630
  H     -0.715890  -20.054660   -7.627550
  H      0.470080  -18.740280   -7.506780
  H     -7.464990  -16.850130    0.108000
  H     -7.440090  -19.832930    4.405500
  H     -8.196290  -21.072330    3.404610
  H     -9.091920  -19.597680    3.823980
  H     -6.410310  -21.364220   -0.864370
  H     -7.039370  -26.428370   -2.123570

 Total Charge           Charge          ....    0
 Multiplicity           Mult            ....    1
 Number of Electrons    NEL             ....  630
 Basis Dimension        Dim             .... 1212

ORBITAL ENERGIES
----------------

  NO   OCC          E(Eh)            E(eV)
   0   2.0000    -101.582725     -2764.2065
   1   2.0000    -101.582152     -2764.1909
   2   2.0000    -101.579807     -2764.1271
   3   2.0000    -101.579177     -2764.1099
   4   2.0000     -88.973281     -2421.0861
   5   2.0000     -88.972909     -2421.0759
   6   2.0000     -88.957900     -2420.6675
   7   2.0000     -88.957859     -2420.6664
   8   2.0000     -88.954757     -2420.5820
   9   2.0000     -88.954258     -2420.5684
  10   2.0000     -88.952547     -2420.5219
  11   2.0000     -88.952454     -2420.5193
  12   2.0000     -88.951231     -2420.4860
  13   2.0000     -88.950812     -2420.4747
  14   2.0000     -24.799393      -674.8258
  15   2.0000     -24.798722      -674.8075
  16   2.0000     -24.791473      -674.6103
  17   2.0000     -24.790816      -674.5924
  18   2.0000     -24.788665      -674.5339
  19   2.0000     -24.788650      -674.5335
  20   2.0000     -10.369820      -282.1771
  21   2.0000     -10.369326      -282.1637
  22   2.0000     -10.368504      -282.1413
  23   2.0000     -10.367966      -282.1267
  24   2.0000     -10.365289      -282.0539
  25   2.0000     -10.365179      -282.0509
  26   2.0000     -10.320487      -280.8347
  27   2.0000     -10.319999      -280.8214
  28   2.0000     -10.317042      -280.7410
  29   2.0000     -10.316366      -280.7226
  30   2.0000     -10.315930      -280.7107
  31   2.0000     -10.315680      -280.7039
  32   2.0000     -10.314413      -280.6695
  33   2.0000     -10.313797      -280.6527
  34   2.0000     -10.309761      -280.5429
  35   2.0000     -10.309241      -280.5287
  36   2.0000     -10.307030      -280.4685
  37   2.0000     -10.306624      -280.4575
  38   2.0000     -10.306622      -280.4574
  39   2.0000     -10.306549      -280.4555
  40   2.0000     -10.306127      -280.4440
  41   2.0000     -10.305575      -280.4290
  42   2.0000     -10.304939      -280.4116
  43   2.0000     -10.304617      -280.4029
  44   2.0000     -10.303901      -280.3834
  45   2.0000     -10.303550      -280.3738
  46   2.0000     -10.303191      -280.3641
  47   2.0000     -10.303169      -280.3635
  48   2.0000     -10.302961      -280.3578
  49   2.0000     -10.302630      -280.3488
  50   2.0000     -10.300147      -280.2813
  51   2.0000     -10.299992      -280.2770
  52   2.0000     -10.297525      -280.2099
  53   2.0000     -10.297402      -280.2065
  54   2.0000     -10.297338      -280.2048
  55   2.0000     -10.297036      -280.1966
  56   2.0000     -10.290410      -280.0163
  57   2.0000     -10.290293      -280.0131
  58   2.0000     -10.289311      -279.9864
  59   2.0000     -10.288826      -279.9732
  60   2.0000     -10.285989      -279.8960
  61   2.0000     -10.285878      -279.8930
  62   2.0000     -10.277930      -279.6767
  63   2.0000     -10.277687      -279.6701
  64   2.0000     -10.277327      -279.6603
  65   2.0000     -10.276953      -279.6501
  66   2.0000     -10.276827      -279.6467
  67   2.0000     -10.276753      -279.6447
  68   2.0000     -10.276107      -279.6271
  69   2.0000     -10.275532      -279.6114
  70   2.0000     -10.274111      -279.5728
  71   2.0000     -10.273497      -279.5561
  72   2.0000     -10.273143      -279.5464
  73   2.0000     -10.272859      -279.5387
  74   2.0000      -9.537490      -259.5283
  75   2.0000      -9.536914      -259.5126
  76   2.0000      -9.534563      -259.4486
  77   2.0000      -9.533940      -259.4317
  78   2.0000      -8.068697      -219.5604
  79   2.0000      -8.068282      -219.5491
  80   2.0000      -8.053462      -219.1459
  81   2.0000      -8.053416      -219.1446
  82   2.0000      -8.050291      -219.0595
  83   2.0000      -8.050002      -219.0517
  84   2.0000      -8.047833      -218.9927
  85   2.0000      -8.047533      -218.9845
  86   2.0000      -8.046447      -218.9549
  87   2.0000      -8.046021      -218.9434
  88   2.0000      -7.307722      -198.8532
  89   2.0000      -7.307163      -198.8380
  90   2.0000      -7.304817      -198.7742
  91   2.0000      -7.304191      -198.7571
  92   2.0000      -7.297613      -198.5781
  93   2.0000      -7.297451      -198.5737
  94   2.0000      -7.297058      -198.5631
  95   2.0000      -7.296842      -198.5572
  96   2.0000      -7.294655      -198.4977
  97   2.0000      -7.294540      -198.4945
  98   2.0000      -7.294045      -198.4811
  99   2.0000      -7.293897      -198.4770
 100   2.0000      -6.038177      -164.3072
 101   2.0000      -6.037768      -164.2960
 102   2.0000      -6.034129      -164.1970
 103   2.0000      -6.033716      -164.1858
 104   2.0000      -6.030293      -164.0926
 105   2.0000      -6.029890      -164.0817
 106   2.0000      -6.022741      -163.8871
 107   2.0000      -6.022667      -163.8851
 108   2.0000      -6.019558      -163.8005
 109   2.0000      -6.019276      -163.7928
 110   2.0000      -6.018627      -163.7752
 111   2.0000      -6.018590      -163.7742
 112   2.0000      -6.017594      -163.7471
 113   2.0000      -6.017307      -163.7392
 114   2.0000      -6.016128      -163.7072
 115   2.0000      -6.015673      -163.6948
 116   2.0000      -6.015555      -163.6916
 117   2.0000      -6.015528      -163.6908
 118   2.0000      -6.015450      -163.6887
 119   2.0000      -6.015086      -163.6788
 120   2.0000      -6.013227      -163.6282
 121   2.0000      -6.012944      -163.6205
 122   2.0000      -6.012397      -163.6056
 123   2.0000      -6.012132      -163.5984
 124   2.0000      -6.011949      -163.5935
 125   2.0000      -6.011520      -163.5818
 126   2.0000      -6.009035      -163.5141
 127   2.0000      -6.008771      -163.5070
 128   2.0000      -6.007773      -163.4798
 129   2.0000      -6.007385      -163.4692
 130   2.0000      -1.316016       -35.8106
 131   2.0000      -1.315411       -35.7942
 132   2.0000      -1.303120       -35.4597
 133   2.0000      -1.303041       -35.4576
 134   2.0000      -1.302796       -35.4509
 135   2.0000      -1.302539       -35.4439
 136   2.0000      -1.014056       -27.5939
 137   2.0000      -1.013531       -27.5796
 138   2.0000      -1.004206       -27.3258
 139   2.0000      -1.003788       -27.3145
 140   2.0000      -0.999893       -27.2085
 141   2.0000      -0.999599       -27.2005
 142   2.0000      -0.994115       -27.0512
 143   2.0000      -0.992351       -27.0032
 144   2.0000      -0.984896       -26.8004
 145   2.0000      -0.977771       -26.6065
 146   2.0000      -0.966126       -26.2896
 147   2.0000      -0.942985       -25.6599
 148   2.0000      -0.942465       -25.6458
 149   2.0000      -0.939077       -25.5536
 150   2.0000      -0.937407       -25.5081
 151   2.0000      -0.921533       -25.0762
 152   2.0000      -0.910936       -24.7878
 153   2.0000      -0.898252       -24.4427
 154   2.0000      -0.898100       -24.4386
 155   2.0000      -0.881978       -23.9999
 156   2.0000      -0.862089       -23.4586
 157   2.0000      -0.861356       -23.4387
 158   2.0000      -0.854358       -23.2483
 159   2.0000      -0.850847       -23.1527
 160   2.0000      -0.848309       -23.0837
 161   2.0000      -0.847099       -23.0507
 162   2.0000      -0.845105       -22.9965
 163   2.0000      -0.841767       -22.9056
 164   2.0000      -0.839772       -22.8514
 165   2.0000      -0.835495       -22.7350
 166   2.0000      -0.830309       -22.5939
 167   2.0000      -0.811497       -22.0819
 168   2.0000      -0.808161       -21.9912
 169   2.0000      -0.805974       -21.9317
 170   2.0000      -0.804686       -21.8966
 171   2.0000      -0.802521       -21.8377
 172   2.0000      -0.796425       -21.6718
 173   2.0000      -0.795309       -21.6415
 174   2.0000      -0.783631       -21.3237
 175   2.0000      -0.779317       -21.2063
 176   2.0000      -0.777342       -21.1526
 177   2.0000      -0.750422       -20.4200
 178   2.0000      -0.743688       -20.2368
 179   2.0000      -0.743395       -20.2288
 180   2.0000      -0.723739       -19.6939
 181   2.0000      -0.723559       -19.6890
 182   2.0000      -0.708664       -19.2837
 183   2.0000      -0.698365       -19.0035
 184   2.0000      -0.696491       -18.9525
 185   2.0000      -0.688365       -18.7314
 186   2.0000      -0.685563       -18.6551
 187   2.0000      -0.670386       -18.2421
 188   2.0000      -0.667829       -18.1726
 189   2.0000      -0.663275       -18.0486
 190   2.0000      -0.662603       -18.0303
 191   2.0000      -0.654179       -17.8011
 192   2.0000      -0.652513       -17.7558
 193   2.0000      -0.649678       -17.6786
 194   2.0000      -0.648980       -17.6597
 195   2.0000      -0.639306       -17.3964
 196   2.0000      -0.638814       -17.3830
 197   2.0000      -0.629196       -17.1213
 198   2.0000      -0.628536       -17.1033
 199   2.0000      -0.623426       -16.9643
 200   2.0000      -0.621155       -16.9025
 201   2.0000      -0.615074       -16.7370
 202   2.0000      -0.609690       -16.5905
 203   2.0000      -0.604980       -16.4624
 204   2.0000      -0.603440       -16.4204
 205   2.0000      -0.597510       -16.2591
 206   2.0000      -0.591721       -16.1016
 207   2.0000      -0.587650       -15.9908
 208   2.0000      -0.581703       -15.8289
 209   2.0000      -0.580878       -15.8065
 210   2.0000      -0.580257       -15.7896
 211   2.0000      -0.580024       -15.7833
 212   2.0000      -0.579866       -15.7790
 213   2.0000      -0.579208       -15.7611
 214   2.0000      -0.575509       -15.6604
 215   2.0000      -0.575261       -15.6536
 216   2.0000      -0.566756       -15.4222
 217   2.0000      -0.558310       -15.1924
 218   2.0000      -0.553297       -15.0560
 219   2.0000      -0.548986       -14.9387
 220   2.0000      -0.544478       -14.8160
 221   2.0000      -0.543818       -14.7980
 222   2.0000      -0.543298       -14.7839
 223   2.0000      -0.542878       -14.7725
 224   2.0000      -0.540355       -14.7038
 225   2.0000      -0.535434       -14.5699
 226   2.0000      -0.527546       -14.3553
 227   2.0000      -0.523593       -14.2477
 228   2.0000      -0.521337       -14.1863
 229   2.0000      -0.520321       -14.1587
 230   2.0000      -0.519424       -14.1342
 231   2.0000      -0.518850       -14.1186
 232   2.0000      -0.516818       -14.0633
 233   2.0000      -0.516468       -14.0538
 234   2.0000      -0.514234       -13.9930
 235   2.0000      -0.511396       -13.9158
 236   2.0000      -0.510686       -13.8965
 237   2.0000      -0.510492       -13.8912
 238   2.0000      -0.508541       -13.8381
 239   2.0000      -0.504590       -13.7306
 240   2.0000      -0.500942       -13.6313
 241   2.0000      -0.498942       -13.5769
 242   2.0000      -0.495455       -13.4820
 243   2.0000      -0.493610       -13.4318
 244   2.0000      -0.491733       -13.3807
 245   2.0000      -0.489942       -13.3320
 246   2.0000      -0.484891       -13.1946
 247   2.0000      -0.482756       -13.1364
 248   2.0000      -0.481641       -13.1061
 249   2.0000      -0.481553       -13.1037
 250   2.0000      -0.479136       -13.0380
 251   2.0000      -0.477571       -12.9954
 252   2.0000      -0.477274       -12.9873
 253   2.0000      -0.474677       -12.9166
 254   2.0000      -0.472706       -12.8630
 255   2.0000      -0.471190       -12.8217
 256   2.0000      -0.469373       -12.7723
 257   2.0000      -0.468029       -12.7357
 258   2.0000      -0.464804       -12.6480
 259   2.0000      -0.464535       -12.6406
 260   2.0000      -0.462885       -12.5958
 261   2.0000      -0.460324       -12.5260
 262   2.0000      -0.458230       -12.4691
 263   2.0000      -0.456495       -12.4219
 264   2.0000      -0.455291       -12.3891
 265   2.0000      -0.454851       -12.3771
 266   2.0000      -0.450439       -12.2571
 267   2.0000      -0.447914       -12.1884
 268   2.0000      -0.445475       -12.1220
 269   2.0000      -0.444768       -12.1028
 270   2.0000      -0.441240       -12.0067
 271   2.0000      -0.438351       -11.9281
 272   2.0000      -0.436899       -11.8886
 273   2.0000      -0.429729       -11.6935
 274   2.0000      -0.428375       -11.6567
 275   2.0000      -0.422845       -11.5062
 276   2.0000      -0.422029       -11.4840
 277   2.0000      -0.421089       -11.4584
 278   2.0000      -0.418775       -11.3954
 279   2.0000      -0.415312       -11.3012
 280   2.0000      -0.414101       -11.2683
 281   2.0000      -0.413085       -11.2406
 282   2.0000      -0.411566       -11.1993
 283   2.0000      -0.409437       -11.1413
 284   2.0000      -0.408358       -11.1120
 285   2.0000      -0.402247       -10.9457
 286   2.0000      -0.398473       -10.8430
 287   2.0000      -0.393934       -10.7195
 288   2.0000      -0.385705       -10.4956
 289   2.0000      -0.379165       -10.3176
 290   2.0000      -0.378931       -10.3112
 291   2.0000      -0.376720       -10.2511
 292   2.0000      -0.375569       -10.2198
 293   2.0000      -0.374005       -10.1772
 294   2.0000      -0.373072       -10.1518
 295   2.0000      -0.359524        -9.7831
 296   2.0000      -0.337438        -9.1822
 297   2.0000      -0.334495        -9.1021
 298   2.0000      -0.324712        -8.8359
 299   2.0000      -0.323656        -8.8071
 300   2.0000      -0.320850        -8.7308
 301   2.0000      -0.319441        -8.6924
 302   2.0000      -0.315670        -8.5898
 303   2.0000      -0.315492        -8.5850
 304   2.0000      -0.312695        -8.5089
 305   2.0000      -0.311633        -8.4800
 306   2.0000      -0.301804        -8.2125
 307   2.0000      -0.299010        -8.1365
 308   2.0000      -0.298174        -8.1137
 309   2.0000      -0.291665        -7.9366
 310   2.0000      -0.284630        -7.7452
 311   2.0000      -0.274660        -7.4739
 312   2.0000      -0.266404        -7.2492
 313   2.0000      -0.245502        -6.6804
 314   2.0000      -0.237442        -6.4611
 315   0.0000      -0.064023        -1.7422
 316   0.0000      -0.045312        -1.2330
 317   0.0000      -0.018820        -0.5121
 318   0.0000      -0.013000        -0.3537
 319   0.0000      -0.012562        -0.3418

MULLIKEN ATOMIC CHARGES
-----------------------
   0 C :   -0.141980
   1 C :    0.251291
   2 F :   -0.172451
   3 C :    0.190634
   4 F :   -0.170731
   5 C :   -0.169076
   6 S :    0.149982
   7 C :    0.018686
   8 C :   -0.106644
   9 C :    0.089488
  10 C :    0.141930
  11 C :   -0.214352
  12 C :    0.036361
  13 C :    0.086716
  14 C :   -0.266188
  15 S :    0.135619
  16 C :    0.118607
  17 Cl:   -0.089762
  18 C :   -0.132043
  19 C :    0.089642
  20 C :    0.139272
  21 C :   -0.146256
  22 S :    0.139660
  23 C :   -0.217151
  24 C :    0.038509
  25 C :    0.084243
  26 C :   -0.268511
  27 S :    0.143870
  28 C :    0.124547
  29 Cl:   -0.089337
  30 C :   -0.086747
  31 C :   -0.030243
  32 S :    0.083101
  33 C :    0.108611
  34 C :   -0.120257
  35 C :    0.219817
  36 F :   -0.184683
  37 C :    0.108815
  38 C :   -0.120111
  39 C :    0.220434
  40 F :   -0.184757
  41 C :   -0.027259
  42 C :   -0.091169
  43 C :    0.095862
  44 C :    0.130147
  45 C :   -0.214006
  46 C :    0.038888
  47 C :    0.080667
  48 C :   -0.264564
  49 S :    0.146029
  50 C :    0.121588
  51 Cl:   -0.089392
  52 C :   -0.143038
  53 C :    0.085313
  54 C :    0.136229
  55 C :   -0.126963
  56 S :    0.082758
  57 C :   -0.214108
  58 C :    0.038321
  59 C :    0.085172
  60 C :   -0.268156
  61 S :    0.135149
  62 C :    0.123938
  63 Cl:   -0.090462
  64 C :   -0.104315
  65 C :    0.016485
  66 S :    0.145015
  67 C :   -0.170319
  68 C :    0.190620
  69 F :   -0.171238
  70 C :    0.251142
  71 F :   -0.172723
  72 C :   -0.142089
  73 S :    0.150543
  74 H :    0.040922
  75 H :   -0.009292
  76 H :   -0.008027
  77 H :    0.043542
  78 H :    0.022820
  79 H :    0.031952
  80 H :   -0.006396
  81 H :    0.041941
  82 H :    0.027377
  83 H :    0.026773
  84 H :   -0.002647
  85 H :    0.008223
  86 H :    0.006424
  87 H :   -0.001642
  88 H :   -0.008670
  89 H :    0.039679
  90 H :    0.031444
  91 H :    0.024893
  92 H :   -0.008877
  93 H :    0.043729
  94 H :    0.023382
  95 H :    0.027759
  96 H :   -0.008984
  97 H :    0.041053
Sum of atomic charges:   -0.0000000

LOEWDIN ATOMIC CHARGES
----------------------
   0 C :   -0.212993
   1 C :    0.019795
   2 F :   -0.051355
   3 C :    0.018877
   4 F :   -0.046944
   5 C :   -0.217251
   6 S :    0.462843
   7 C :   -0.167181
   8 C :   -0.071873
   9 C :   -0.039033
  10 C :   -0.056831
  11 C :   -0.173179
  12 C :   -0.075104
  13 C :   -0.178075
  14 C :   -0.200358
  15 S :    0.448418
  16 C :   -0.060715
  17 Cl:    0.126878
  18 C :   -0.141720
  19 C :   -0.044427
  20 C :   -0.050686
  21 C :   -0.146373
  22 S :    0.433813
  23 C :   -0.174666
  24 C :   -0.073728
  25 C :   -0.178062
  26 C :   -0.198597
  27 S :    0.453280
  28 C :   -0.060851
  29 Cl:    0.128101
  30 C :   -0.053733
  31 C :   -0.148467
  32 S :    0.416659
  33 C :   -0.054291
  34 C :   -0.041132
  35 C :    0.089449
  36 F :   -0.057973
  37 C :   -0.054921
  38 C :   -0.041472
  39 C :    0.089637
  40 F :   -0.057862
  41 C :   -0.148548
  42 C :   -0.046072
  43 C :   -0.038799
  44 C :   -0.051440
  45 C :   -0.175705
  46 C :   -0.064852
  47 C :   -0.178318
  48 C :   -0.197950
  49 S :    0.439012
  50 C :   -0.061310
  51 Cl:    0.127507
  52 C :   -0.153439
  53 C :   -0.038540
  54 C :   -0.057382
  55 C :   -0.141645
  56 S :    0.415761
  57 C :   -0.171898
  58 C :   -0.076080
  59 C :   -0.177957
  60 C :   -0.200313
  61 S :    0.447445
  62 C :   -0.060756
  63 Cl:    0.127004
  64 C :   -0.072040
  65 C :   -0.167460
  66 S :    0.418127
  67 C :   -0.217133
  68 C :    0.018627
  69 F :   -0.047428
  70 C :    0.019824
  71 F :   -0.051672
  72 C :   -0.213147
  73 S :    0.463016
  74 H :    0.034523
  75 H :    0.012420
  76 H :    0.026607
  77 H :    0.041722
  78 H :    0.034796
  79 H :    0.037164
  80 H :    0.027398
  81 H :    0.041591
  82 H :    0.036525
  83 H :    0.035010
  84 H :    0.015998
  85 H :    0.034651
  86 H :    0.034093
  87 H :    0.029907
  88 H :    0.034823
  89 H :    0.040633
  90 H :    0.037944
  91 H :    0.034214
  92 H :    0.025817
  93 H :    0.042039
  94 H :    0.035077
  95 H :    0.035341
  96 H :    0.012815
  97 H :    0.034558

  Mayer bond orders larger than 0.100000
B(  0-C ,  1-C ) :   1.5536 B(  0-C ,  5-C ) :   0.1192 B(  0-C ,  6-S ) :   1.1272
B(  0-C , 74-H ) :   0.9689 B(  1-C ,  2-F ) :   1.1430 B(  1-C ,  3-C ) :   1.1918
B(  3-C ,  4-F ) :   1.1493 B(  3-C ,  5-C ) :   1.4526 B(  5-C ,  6-S ) :   1.1374
B(  5-C ,  7-C ) :   1.1486 B(  7-C ,  8-C ) :   1.5785 B(  7-C , 22-S ) :   1.0735
B(  8-C ,  9-C ) :   1.1829 B(  8-C , 75-H ) :   0.9740 B(  9-C , 10-C ) :   1.2981
B(  9-C , 21-C ) :   1.2720 B( 10-C , 11-C ) :   0.9875 B( 10-C , 18-C ) :   1.4166
B( 11-C , 12-C ) :   1.5502 B( 11-C , 15-S ) :   1.1322 B( 12-C , 13-C ) :   1.2256
B( 12-C , 76-H ) :   0.9953 B( 13-C , 14-C ) :   1.5993 B( 13-C , 17-Cl) :   1.0187
B( 14-C , 15-S ) :   1.1311 B( 14-C , 16-C ) :   1.0846 B( 16-C , 77-H ) :   0.9501
B( 16-C , 78-H ) :   0.9466 B( 16-C , 79-H ) :   0.9469 B( 18-C , 19-C ) :   1.2693
B( 18-C , 32-S ) :   1.0596 B( 19-C , 20-C ) :   1.3044 B( 19-C , 30-C ) :   1.1515
B( 20-C , 21-C ) :   1.4211 B( 20-C , 23-C ) :   0.9839 B( 21-C , 22-S ) :   1.0462
B( 23-C , 24-C ) :   1.5498 B( 23-C , 27-S ) :   1.1346 B( 24-C , 25-C ) :   1.2261
B( 24-C , 80-H ) :   0.9953 B( 25-C , 26-C ) :   1.5999 B( 25-C , 29-Cl) :   1.0119
B( 26-C , 27-S ) :   1.1339 B( 26-C , 28-C ) :   1.0850 B( 28-C , 81-H ) :   0.9490
B( 28-C , 82-H ) :   0.9463 B( 28-C , 83-H ) :   0.9445 B( 30-C , 31-C ) :   1.6044
B( 30-C , 84-H ) :   0.9754 B( 31-C , 32-S ) :   1.0566 B( 31-C , 33-C ) :   1.0945
B( 33-C , 34-C ) :   1.2699 B( 33-C , 39-C ) :   1.2961 B( 34-C , 35-C ) :   1.4059
B( 34-C , 85-H ) :   0.9838 B( 35-C , 36-F ) :   1.1026 B( 35-C , 37-C ) :   1.2978
B( 37-C , 38-C ) :   1.2710 B( 37-C , 41-C ) :   1.0914 B( 38-C , 39-C ) :   1.4059
B( 38-C , 86-H ) :   0.9836 B( 39-C , 40-F ) :   1.1005 B( 41-C , 42-C ) :   1.5858
B( 41-C , 56-S ) :   1.0548 B( 42-C , 43-C ) :   1.1501 B( 42-C , 87-H ) :   0.9931
B( 43-C , 44-C ) :   1.3253 B( 43-C , 55-C ) :   1.2716 B( 44-C , 45-C ) :   0.9821
B( 44-C , 52-C ) :   1.3961 B( 45-C , 46-C ) :   1.5486 B( 45-C , 49-S ) :   1.1344
B( 46-C , 47-C ) :   1.2186 B( 46-C , 88-H ) :   1.0084 B( 47-C , 48-C ) :   1.5985
B( 47-C , 51-Cl) :   1.0080 B( 48-C , 49-S ) :   1.1311 B( 48-C , 50-C ) :   1.0845
B( 50-C , 89-H ) :   0.9492 B( 50-C , 90-H ) :   0.9471 B( 50-C , 91-H ) :   0.9446
B( 52-C , 53-C ) :   1.2770 B( 52-C , 66-S ) :   1.0472 B( 53-C , 54-C ) :   1.2988
B( 53-C , 64-C ) :   1.1849 B( 54-C , 55-C ) :   1.4174 B( 54-C , 57-C ) :   0.9874
B( 55-C , 56-S ) :   1.0573 B( 57-C , 58-C ) :   1.5530 B( 57-C , 61-S ) :   1.1309
B( 58-C , 59-C ) :   1.2232 B( 58-C , 92-H ) :   0.9943 B( 59-C , 60-C ) :   1.6020
B( 59-C , 63-Cl) :   1.0124 B( 60-C , 61-S ) :   1.1297 B( 60-C , 62-C ) :   1.0853
B( 62-C , 93-H ) :   0.9495 B( 62-C , 94-H ) :   0.9461 B( 62-C , 95-H ) :   0.9450
B( 64-C , 65-C ) :   1.5758 B( 64-C , 96-H ) :   0.9741 B( 65-C , 66-S ) :   1.0755
B( 65-C , 67-C ) :   1.1494 B( 67-C , 68-C ) :   1.4531 B( 67-C , 72-C ) :   0.1194
B( 67-C , 73-S ) :   1.1382 B( 68-C , 69-F ) :   1.1482 B( 68-C , 70-C ) :   1.1921
B( 70-C , 71-F ) :   1.1426 B( 70-C , 72-C ) :   1.5541 B( 72-C , 73-S ) :   1.1269
B( 72-C , 97-H ) :   0.9687

-----------------------------------------------------------------------------
         ABSORPTION SPECTRUM VIA TRANSITION ELECTRIC DIPOLE MOMENTS
-----------------------------------------------------------------------------
State   Energy  Wavelength   fosc         T2         TX        TY        TZ
        (cm-1)    (nm)                  (au**2)     (au)      (au)      (au)
-----------------------------------------------------------------------------
   0   23589.3    423.9   2.154530931  30.06858  -0.64284   4.95979   2.24853
   1   25094.6    398.5   0.029124492   0.38208   0.09869   0.55745   0.24817
   2   27765.3    360.2   1.293898570  15.34168  -1.71990  -3.42037   0.82745
   3   28898.7    346.0   0.006610232   0.07530   0.19752   0.18887  -0.02482
   4   30344.7    329.5   0.527254513   5.72023   1.58122   0.53395  -1.71314
   5   30713.3    325.6   0.001371903   0.01471  -0.05006  -0.10702  -0.02731
   6   32343.0    309.2   1.043059535  10.61706   1.48523   2.76047  -0.88935
   7   32690.3    305.9   0.006970915   0.07020   0.20708   0.15004  -0.06932
   8   33137.0    301.8   0.191114914   1.89870   0.68740   1.11858  -0.41829
   9   34338.1    291.2   0.001089563   0.01045  -0.03810  -0.07833   0.05346
  10   35167.5    284.4   0.057111595   0.53464   0.19228  -0.58739  -0.39069
  11   35220.4    283.9   0.052108466   0.48707   0.25946  -0.35560  -0.54157
  12   35530.1    281.5   0.006651113   0.06163   0.07937  -0.09404  -0.21560
  13   35878.3    278.7   0.001776267   0.01630   0.03494  -0.07265  -0.09899
  14   36918.7    270.9   0.111773270   0.99671  -0.47064  -0.82418   0.30973
  15   36946.6    270.7   0.035833193   0.31929   0.22051   0.50636  -0.11946
  16   38041.7    262.9   0.150216045   1.29997   0.50067   1.00418  -0.20230
  17   38784.9    257.8   0.015294578   0.12982  -0.21745  -0.28629  -0.02402
  18   38861.3    257.3   0.033894498   0.28714   0.43780  -0.30238  -0.06355
  19   39193.5    255.1   0.002618235   0.02199  -0.13572   0.05653   0.01941
  20   39404.4    253.8   0.030206424   0.25237  -0.02011  -0.48715   0.12102
  21   39592.9    252.6   0.003996873   0.03323   0.01810  -0.12998  -0.12654
  22   39701.2    251.9   0.058269972   0.48319  -0.07807   0.47961   0.49706
  23   39840.3    251.0   0.037090948   0.30649  -0.35133   0.37022   0.21447
  24   39984.3    250.1   0.035842051   0.29511  -0.47963   0.19842   0.16029
  25   40264.7    248.4   0.000435210   0.00356   0.04284   0.02382   0.03400

FINAL SINGLE POINT ENERGY     -8488.986069238326

DIPOLE MOMENT
-------------
                                X             Y             Z
Electronic contribution:     -0.23981       6.76156       0.44281
Nuclear contribution   :      0.24060      -7.16368      -0.54762
                        -----------------------------------------
Total Dipole Moment    :      0.00079      -0.40211      -0.10481
                        -----------------------------------------
Magnitude (a.u.)       :      0.41555
Magnitude (Debye)      :      1.05624

Rotational constants in cm-1:     0.001070     0.000216     0.000182
Rotational constants in MHz :    32.092215     6.476206     5.444944

                             ****ORCA TERMINATED NORMALLY****
TOTAL RUN TIME: 0 days 0 hours 8 minutes 24 seconds 362 msec
