                         Program Version 4.2.0 -  RELEASE  -
|  1> # ORCA input file
|  2> # SCF done       -186.937204446515          0.000392115817
|  3> ! CAM-B3LYP def2-SVP def2/J RIJCOSX Grid4 TightSCF
|  4> %maxcore 5000
|  5> %tddft
|  6>     Mode sTDDFT
|  7>     Ethresh 5.0
|  8>     maxcore 5000
|  9> end
| 10>
| 11> %pal
| 12>   nprocs 6
| 13>   end
| 14> * xyz 0 1
| 15>    C       -5.60277         3.34707         1.31613
| 16>    C       -5.50018         3.54592        -0.03503
| 17>    C       -6.61025         3.64802        -0.89679
| 18>    N       -7.48540         3.75286        -1.63197
| 19>    C       -4.26275         3.57830        -0.71139
| 20>    N       -3.27063         3.56249        -1.28842
| 21>    C       -6.82499         3.01709         2.03775
| 22>    C       -6.46744         2.36185         3.25321
| 23>    C       -7.41464         1.90546         4.12398
| 24>    C       -8.78122         2.09875         3.81957
| 25>    C       -9.14293         2.76497         2.61264
| 26>    C       -8.14149         3.21843         1.72370
| 27>    C      -10.50966         2.95806         2.32666
| 28>    C      -11.47490         2.51424         3.18889
| 29>    C      -11.11828         1.85803         4.37647
| 30>    C       -9.80060         1.65374         4.68434
| 31>    C       -4.99821         2.30927         3.36808
| 32>    O       -4.33080         1.77862         4.22502
| 33>    C       -4.49574         3.12785         2.22577
| 34>    C       -3.23233         3.62291         2.25267
| 35>    C       -2.70185         4.73692         1.55221
| 36>    C       -1.36370         5.01487         1.35995
| 37>    C       -1.16743         6.22153         0.68987
| 38>    C       -2.35821         6.89912         0.39995
| 39>    S       -3.73431         6.02539         0.94049
| 40>    C       -2.12671         8.11286        -0.25343
| 41>    C       -0.76924         8.35694        -0.46190
| 42>    S        0.24453         7.08482         0.14954
| 43>    C       -0.50886         9.56741        -1.12684
| 44>    C       -1.66035        10.23072        -1.43084
| 45>    S       -3.09541         9.38789        -0.88539
| 46>    C       -1.83166        11.55338        -2.11884
| 47>    C       -0.58256        11.97131        -2.89764
| 48>    N       -1.99309        12.53786        -1.02479
| 49>    N       -3.00463        13.11798        -0.73516
| 50>    C       -4.30924        13.02043        -1.40025
| 51>    C       -4.23449        12.19951        -2.63338
| 52>    C       -3.03618        11.51358        -2.98532
| 53>    N       -3.23911        10.91286        -4.12231
| 54>    O       -4.49721        11.19646        -4.47684
| 55>    N       -5.10581        11.98056        -3.57622
| 56>    C       -5.28124        12.41830        -0.37018
| 57>    C       -4.69896        14.43656        -1.71016
| 58>    C       -5.53371        14.87702        -2.69314
| 59>    C       -5.66036        16.27590        -2.65789
| 60>    C       -4.91512        16.87680        -1.64075
| 61>    S       -4.04233        15.70527        -0.71665
| 62>    C       -5.04918        18.27015        -1.63977
| 63>    C       -5.90029        18.71942        -2.66413
| 64>    S       -6.54468        17.41587        -3.62512
| 65>    C       -6.04912        20.09963        -2.71578
| 66>    C       -5.31188        20.73718        -1.73263
| 67>    S       -4.43644        19.57900        -0.71820
| 68>    C       -5.13986        22.09517        -1.39521
| 69>    C       -5.54178        23.24287        -2.02077
| 70>    C       -5.24191        24.57436        -1.51242
| 71>    C       -4.82244        24.90069        -0.24894
| 72>    C       -4.55872        26.22017         0.17601
| 73>    N       -4.32107        27.26582         0.58615
| 74>    C       -4.63351        24.00180         0.82234
| 75>    N       -4.47787        23.34856         1.75433
| 76>    C       -5.53851        25.53439        -2.56864
| 77>    C       -6.12254        24.83320        -3.65988
| 78>    C       -6.19535        23.39665        -3.34389
| 79>    O       -6.69062        22.54332        -4.05172
| 80>    C       -6.52174        25.46982        -4.79938
| 81>    C       -6.34184        26.86689        -4.90560
| 82>    C       -5.74766        27.57598        -3.82209
| 83>    C       -5.35073        26.88884        -2.65188
| 84>    C       -5.56618        28.96895        -3.94125
| 85>    C       -5.95364        29.63121        -5.07419
| 86>    C       -6.53989        28.93201        -6.13979
| 87>    C       -6.73006        27.57930        -6.05715
| 88>    H       -7.12626         1.40436         5.03605
| 89>    H       -8.43821         3.72892         0.82048
| 90>    H      -10.77895         3.46096         1.40949
| 91>    H      -12.51913         2.66612         2.96032
| 92>    H      -11.89279         1.51564         5.04629
| 93>    H       -9.52031         1.14904         5.59732
| 94>    H       -2.56205         3.16054         2.97102
| 95>    H       -0.57617         4.35128         1.66588
| 96>    H        0.47616         9.91490        -1.37136
| 97>    H        0.23659        12.14132        -2.20567
| 98>    H       -0.78028        12.89650        -3.43480
| 99>    H       -0.32057        11.19649        -3.61247
|100>    H       -5.00157        11.39173        -0.14242
|101>    H       -6.28809        12.43374        -0.77857
|102>    H       -5.24269        13.00916         0.54116
|103>    H       -6.02551        14.23060        -3.39626
|104>    H       -6.65139        20.62807        -3.43134
|105>    H       -4.55113        22.22784        -0.49442
|106>    H       -6.96619        24.91293        -5.61097
|107>    H       -4.90007        27.45472        -1.85231
|108>    H       -5.11567        29.50314        -3.11759
|109>    H       -5.81078        30.69836        -5.15546
|110>    H       -6.83987        29.47050        -7.02635
|111>    H       -7.18067        27.03526        -6.87442
|112> *
|113>
|114>                          ****END OF INPUT****

CARTESIAN COORDINATES (ANGSTROEM)
---------------------------------
  C     -5.602770    3.347070    1.316130
  C     -5.500180    3.545920   -0.035030
  C     -6.610250    3.648020   -0.896790
  N     -7.485400    3.752860   -1.631970
  C     -4.262750    3.578300   -0.711390
  N     -3.270630    3.562490   -1.288420
  C     -6.824990    3.017090    2.037750
  C     -6.467440    2.361850    3.253210
  C     -7.414640    1.905460    4.123980
  C     -8.781220    2.098750    3.819570
  C     -9.142930    2.764970    2.612640
  C     -8.141490    3.218430    1.723700
  C    -10.509660    2.958060    2.326660
  C    -11.474900    2.514240    3.188890
  C    -11.118280    1.858030    4.376470
  C     -9.800600    1.653740    4.684340
  C     -4.998210    2.309270    3.368080
  O     -4.330800    1.778620    4.225020
  C     -4.495740    3.127850    2.225770
  C     -3.232330    3.622910    2.252670
  C     -2.701850    4.736920    1.552210
  C     -1.363700    5.014870    1.359950
  C     -1.167430    6.221530    0.689870
  C     -2.358210    6.899120    0.399950
  S     -3.734310    6.025390    0.940490
  C     -2.126710    8.112860   -0.253430
  C     -0.769240    8.356940   -0.461900
  S      0.244530    7.084820    0.149540
  C     -0.508860    9.567410   -1.126840
  C     -1.660350   10.230720   -1.430840
  S     -3.095410    9.387890   -0.885390
  C     -1.831660   11.553380   -2.118840
  C     -0.582560   11.971310   -2.897640
  N     -1.993090   12.537860   -1.024790
  N     -3.004630   13.117980   -0.735160
  C     -4.309240   13.020430   -1.400250
  C     -4.234490   12.199510   -2.633380
  C     -3.036180   11.513580   -2.985320
  N     -3.239110   10.912860   -4.122310
  O     -4.497210   11.196460   -4.476840
  N     -5.105810   11.980560   -3.576220
  C     -5.281240   12.418300   -0.370180
  C     -4.698960   14.436560   -1.710160
  C     -5.533710   14.877020   -2.693140
  C     -5.660360   16.275900   -2.657890
  C     -4.915120   16.876800   -1.640750
  S     -4.042330   15.705270   -0.716650
  C     -5.049180   18.270150   -1.639770
  C     -5.900290   18.719420   -2.664130
  S     -6.544680   17.415870   -3.625120
  C     -6.049120   20.099630   -2.715780
  C     -5.311880   20.737180   -1.732630
  S     -4.436440   19.579000   -0.718200
  C     -5.139860   22.095170   -1.395210
  C     -5.541780   23.242870   -2.020770
  C     -5.241910   24.574360   -1.512420
  C     -4.822440   24.900690   -0.248940
  C     -4.558720   26.220170    0.176010
  N     -4.321070   27.265820    0.586150
  C     -4.633510   24.001800    0.822340
  N     -4.477870   23.348560    1.754330
  C     -5.538510   25.534390   -2.568640
  C     -6.122540   24.833200   -3.659880
  C     -6.195350   23.396650   -3.343890
  O     -6.690620   22.543320   -4.051720
  C     -6.521740   25.469820   -4.799380
  C     -6.341840   26.866890   -4.905600
  C     -5.747660   27.575980   -3.822090
  C     -5.350730   26.888840   -2.651880
  C     -5.566180   28.968950   -3.941250
  C     -5.953640   29.631210   -5.074190
  C     -6.539890   28.932010   -6.139790
  C     -6.730060   27.579300   -6.057150
  H     -7.126260    1.404360    5.036050
  H     -8.438210    3.728920    0.820480
  H    -10.778950    3.460960    1.409490
  H    -12.519130    2.666120    2.960320
  H    -11.892790    1.515640    5.046290
  H     -9.520310    1.149040    5.597320
  H     -2.562050    3.160540    2.971020
  H     -0.576170    4.351280    1.665880
  H      0.476160    9.914900   -1.371360
  H      0.236590   12.141320   -2.205670
  H     -0.780280   12.896500   -3.434800
  H     -0.320570   11.196490   -3.612470
  H     -5.001570   11.391730   -0.142420
  H     -6.288090   12.433740   -0.778570
  H     -5.242690   13.009160    0.541160
  H     -6.025510   14.230600   -3.396260
  H     -6.651390   20.628070   -3.431340
  H     -4.551130   22.227840   -0.494420
  H     -6.966190   24.912930   -5.610970
  H     -4.900070   27.454720   -1.852310
  H     -5.115670   29.503140   -3.117590
  H     -5.810780   30.698360   -5.155460
  H     -6.839870   29.470500   -7.026350
  H     -7.180670   27.035260   -6.874420

 Total Charge           Charge          ....    0
 Multiplicity           Mult            ....    1
 Number of Electrons    NEL             ....  536
 Basis Dimension        Dim             .... 1166

ORBITAL ENERGIES
----------------

  NO   OCC          E(Eh)            E(eV)
   0   2.0000     -88.981449     -2421.3083
   1   2.0000     -88.976823     -2421.1825
   2   2.0000     -88.973775     -2421.0995
   3   2.0000     -88.971650     -2421.0417
   4   2.0000     -88.969879     -2420.9935
   5   2.0000     -88.965372     -2420.8708
   6   2.0000     -19.356773      -526.7246
   7   2.0000     -19.214833      -522.8622
   8   2.0000     -19.214492      -522.8529
   9   2.0000     -14.495233      -394.4353
  10   2.0000     -14.494461      -394.4143
  11   2.0000     -14.486426      -394.1957
  12   2.0000     -14.485561      -394.1722
  13   2.0000     -14.415735      -392.2721
  14   2.0000     -14.412374      -392.1806
  15   2.0000     -14.410944      -392.1417
  16   2.0000     -14.408681      -392.0802
  17   2.0000     -10.366522      -282.0874
  18   2.0000     -10.365870      -282.0697
  19   2.0000     -10.358518      -281.8696
  20   2.0000     -10.357483      -281.8414
  21   2.0000     -10.343348      -281.4568
  22   2.0000     -10.342051      -281.4215
  23   2.0000     -10.341114      -281.3960
  24   2.0000     -10.340197      -281.3711
  25   2.0000     -10.335923      -281.2548
  26   2.0000     -10.335233      -281.2360
  27   2.0000     -10.330248      -281.1003
  28   2.0000     -10.327060      -281.0136
  29   2.0000     -10.324348      -280.9398
  30   2.0000     -10.323598      -280.9194
  31   2.0000     -10.323365      -280.9130
  32   2.0000     -10.323309      -280.9115
  33   2.0000     -10.322066      -280.8777
  34   2.0000     -10.321482      -280.8618
  35   2.0000     -10.321100      -280.8514
  36   2.0000     -10.318526      -280.7814
  37   2.0000     -10.317994      -280.7669
  38   2.0000     -10.316206      -280.7182
  39   2.0000     -10.314432      -280.6700
  40   2.0000     -10.314396      -280.6690
  41   2.0000     -10.314053      -280.6597
  42   2.0000     -10.312157      -280.6080
  43   2.0000     -10.312098      -280.6064
  44   2.0000     -10.310244      -280.5560
  45   2.0000     -10.308936      -280.5204
  46   2.0000     -10.304402      -280.3970
  47   2.0000     -10.303893      -280.3832
  48   2.0000     -10.298856      -280.2461
  49   2.0000     -10.298403      -280.2338
  50   2.0000     -10.298267      -280.2301
  51   2.0000     -10.298019      -280.2234
  52   2.0000     -10.297577      -280.2113
  53   2.0000     -10.297218      -280.2015
  54   2.0000     -10.295365      -280.1511
  55   2.0000     -10.294160      -280.1183
  56   2.0000     -10.293833      -280.1094
  57   2.0000     -10.293531      -280.1012
  58   2.0000     -10.292698      -280.0786
  59   2.0000     -10.292528      -280.0739
  60   2.0000     -10.291803      -280.0542
  61   2.0000     -10.290065      -280.0069
  62   2.0000     -10.289801      -279.9997
  63   2.0000     -10.288825      -279.9732
  64   2.0000     -10.286871      -279.9200
  65   2.0000     -10.286569      -279.9118
  66   2.0000     -10.286245      -279.9030
  67   2.0000     -10.285835      -279.8918
  68   2.0000     -10.284364      -279.8518
  69   2.0000     -10.283697      -279.8336
  70   2.0000     -10.283113      -279.8177
  71   2.0000     -10.282766      -279.8083
  72   2.0000     -10.282240      -279.7940
  73   2.0000      -8.076220      -219.7651
  74   2.0000      -8.071600      -219.6394
  75   2.0000      -8.069003      -219.5687
  76   2.0000      -8.065988      -219.4867
  77   2.0000      -8.065139      -219.4636
  78   2.0000      -8.060588      -219.3397
  79   2.0000      -6.045713      -164.5122
  80   2.0000      -6.041716      -164.4034
  81   2.0000      -6.041205      -164.3896
  82   2.0000      -6.038709      -164.3216
  83   2.0000      -6.037875      -164.2989
  84   2.0000      -6.037089      -164.2775
  85   2.0000      -6.035547      -164.2356
  86   2.0000      -6.034859      -164.2169
  87   2.0000      -6.034554      -164.2086
  88   2.0000      -6.033088      -164.1687
  89   2.0000      -6.031348      -164.1213
  90   2.0000      -6.030579      -164.1004
  91   2.0000      -6.030291      -164.0926
  92   2.0000      -6.029983      -164.0842
  93   2.0000      -6.027723      -164.0227
  94   2.0000      -6.026817      -163.9980
  95   2.0000      -6.026457      -163.9882
  96   2.0000      -6.021578      -163.8555
  97   2.0000      -1.314394       -35.7665
  98   2.0000      -1.171471       -31.8773
  99   2.0000      -1.129921       -30.7467
 100   2.0000      -1.129516       -30.7357
 101   2.0000      -1.038241       -28.2520
 102   2.0000      -1.031111       -28.0580
 103   2.0000      -1.025537       -27.9063
 104   2.0000      -1.018512       -27.7151
 105   2.0000      -1.013466       -27.5778
 106   2.0000      -1.006362       -27.3845
 107   2.0000      -0.998311       -27.1654
 108   2.0000      -0.997561       -27.1450
 109   2.0000      -0.994367       -27.0581
 110   2.0000      -0.992210       -26.9994
 111   2.0000      -0.988566       -26.9002
 112   2.0000      -0.987048       -26.8590
 113   2.0000      -0.972265       -26.4567
 114   2.0000      -0.968114       -26.3437
 115   2.0000      -0.962260       -26.1844
 116   2.0000      -0.943406       -25.6714
 117   2.0000      -0.929206       -25.2850
 118   2.0000      -0.922938       -25.1144
 119   2.0000      -0.919028       -25.0080
 120   2.0000      -0.903230       -24.5781
 121   2.0000      -0.901658       -24.5353
 122   2.0000      -0.896038       -24.3824
 123   2.0000      -0.883474       -24.0405
 124   2.0000      -0.880347       -23.9555
 125   2.0000      -0.878598       -23.9079
 126   2.0000      -0.875395       -23.8207
 127   2.0000      -0.861936       -23.4545
 128   2.0000      -0.855509       -23.2796
 129   2.0000      -0.852908       -23.2088
 130   2.0000      -0.843977       -22.9658
 131   2.0000      -0.828714       -22.5504
 132   2.0000      -0.824600       -22.4385
 133   2.0000      -0.814658       -22.1680
 134   2.0000      -0.812538       -22.1103
 135   2.0000      -0.809462       -22.0266
 136   2.0000      -0.799195       -21.7472
 137   2.0000      -0.788013       -21.4429
 138   2.0000      -0.786229       -21.3944
 139   2.0000      -0.776564       -21.1314
 140   2.0000      -0.774828       -21.0841
 141   2.0000      -0.764875       -20.8133
 142   2.0000      -0.759596       -20.6696
 143   2.0000      -0.757865       -20.6226
 144   2.0000      -0.732443       -19.9308
 145   2.0000      -0.725462       -19.7408
 146   2.0000      -0.709918       -19.3178
 147   2.0000      -0.703071       -19.1315
 148   2.0000      -0.700857       -19.0713
 149   2.0000      -0.699238       -19.0272
 150   2.0000      -0.694206       -18.8903
 151   2.0000      -0.684587       -18.6286
 152   2.0000      -0.677380       -18.4325
 153   2.0000      -0.676431       -18.4066
 154   2.0000      -0.670893       -18.2559
 155   2.0000      -0.668427       -18.1888
 156   2.0000      -0.660968       -17.9859
 157   2.0000      -0.656802       -17.8725
 158   2.0000      -0.648234       -17.6394
 159   2.0000      -0.647104       -17.6086
 160   2.0000      -0.641764       -17.4633
 161   2.0000      -0.636798       -17.3282
 162   2.0000      -0.632646       -17.2152
 163   2.0000      -0.629393       -17.1267
 164   2.0000      -0.626337       -17.0435
 165   2.0000      -0.617113       -16.7925
 166   2.0000      -0.611085       -16.6285
 167   2.0000      -0.607712       -16.5367
 168   2.0000      -0.604310       -16.4441
 169   2.0000      -0.601702       -16.3731
 170   2.0000      -0.595020       -16.1913
 171   2.0000      -0.586355       -15.9555
 172   2.0000      -0.581597       -15.8260
 173   2.0000      -0.578459       -15.7407
 174   2.0000      -0.572432       -15.5767
 175   2.0000      -0.565246       -15.3811
 176   2.0000      -0.556929       -15.1548
 177   2.0000      -0.552771       -15.0417
 178   2.0000      -0.550525       -14.9806
 179   2.0000      -0.547735       -14.9046
 180   2.0000      -0.545995       -14.8573
 181   2.0000      -0.544110       -14.8060
 182   2.0000      -0.542874       -14.7723
 183   2.0000      -0.538293       -14.6477
 184   2.0000      -0.535189       -14.5632
 185   2.0000      -0.534374       -14.5411
 186   2.0000      -0.532801       -14.4983
 187   2.0000      -0.531535       -14.4638
 188   2.0000      -0.530465       -14.4347
 189   2.0000      -0.529423       -14.4063
 190   2.0000      -0.522433       -14.2161
 191   2.0000      -0.519366       -14.1327
 192   2.0000      -0.517617       -14.0851
 193   2.0000      -0.515623       -14.0308
 194   2.0000      -0.513321       -13.9682
 195   2.0000      -0.512143       -13.9361
 196   2.0000      -0.510890       -13.9020
 197   2.0000      -0.506778       -13.7901
 198   2.0000      -0.505080       -13.7439
 199   2.0000      -0.501833       -13.6556
 200   2.0000      -0.501136       -13.6366
 201   2.0000      -0.498201       -13.5567
 202   2.0000      -0.495200       -13.4751
 203   2.0000      -0.493226       -13.4214
 204   2.0000      -0.490989       -13.3605
 205   2.0000      -0.489353       -13.3160
 206   2.0000      -0.486450       -13.2370
 207   2.0000      -0.485201       -13.2030
 208   2.0000      -0.483219       -13.1491
 209   2.0000      -0.482367       -13.1259
 210   2.0000      -0.477076       -12.9819
 211   2.0000      -0.474692       -12.9170
 212   2.0000      -0.470117       -12.7925
 213   2.0000      -0.466849       -12.7036
 214   2.0000      -0.465694       -12.6722
 215   2.0000      -0.461426       -12.5560
 216   2.0000      -0.460897       -12.5416
 217   2.0000      -0.459875       -12.5138
 218   2.0000      -0.452932       -12.3249
 219   2.0000      -0.450261       -12.2522
 220   2.0000      -0.449351       -12.2275
 221   2.0000      -0.448244       -12.1973
 222   2.0000      -0.443273       -12.0621
 223   2.0000      -0.443083       -12.0569
 224   2.0000      -0.441081       -12.0024
 225   2.0000      -0.439380       -11.9561
 226   2.0000      -0.438278       -11.9261
 227   2.0000      -0.436341       -11.8735
 228   2.0000      -0.434341       -11.8190
 229   2.0000      -0.431436       -11.7400
 230   2.0000      -0.430560       -11.7161
 231   2.0000      -0.429244       -11.6803
 232   2.0000      -0.429084       -11.6760
 233   2.0000      -0.428615       -11.6632
 234   2.0000      -0.426291       -11.6000
 235   2.0000      -0.424095       -11.5402
 236   2.0000      -0.422271       -11.4906
 237   2.0000      -0.420230       -11.4350
 238   2.0000      -0.417443       -11.3592
 239   2.0000      -0.416217       -11.3259
 240   2.0000      -0.414155       -11.2697
 241   2.0000      -0.411114       -11.1870
 242   2.0000      -0.407654       -11.0928
 243   2.0000      -0.406340       -11.0571
 244   2.0000      -0.401548       -10.9267
 245   2.0000      -0.400821       -10.9069
 246   2.0000      -0.397087       -10.8053
 247   2.0000      -0.396244       -10.7823
 248   2.0000      -0.388454       -10.5704
 249   2.0000      -0.381947       -10.3933
 250   2.0000      -0.378059       -10.2875
 251   2.0000      -0.371024       -10.0961
 252   2.0000      -0.367652       -10.0043
 253   2.0000      -0.347952        -9.4682
 254   2.0000      -0.343375        -9.3437
 255   2.0000      -0.341566        -9.2945
 256   2.0000      -0.336567        -9.1584
 257   2.0000      -0.332711        -9.0535
 258   2.0000      -0.329506        -8.9663
 259   2.0000      -0.316186        -8.6039
 260   2.0000      -0.313119        -8.5204
 261   2.0000      -0.310085        -8.4378
 262   2.0000      -0.298908        -8.1337
 263   2.0000      -0.294693        -8.0190
 264   2.0000      -0.291376        -7.9287
 265   2.0000      -0.290954        -7.9173
 266   2.0000      -0.272558        -7.4167
 267   2.0000      -0.264903        -7.2084
 268   0.0000      -0.096305        -2.6206
 269   0.0000      -0.090748        -2.4694
 270   0.0000      -0.056282        -1.5315
 271   0.0000      -0.054572        -1.4850
 272   0.0000      -0.037540        -1.0215

MULLIKEN ATOMIC CHARGES
-----------------------
   0 C :    0.240727
   1 C :   -0.309876
   2 C :   -0.176539
   3 N :    0.154735
   4 C :   -0.206449
   5 N :    0.170708
   6 C :    0.039169
   7 C :    0.012787
   8 C :   -0.081883
   9 C :    0.093570
  10 C :    0.095943
  11 C :   -0.080911
  12 C :   -0.017249
  13 C :    0.035337
  14 C :    0.035339
  15 C :   -0.014108
  16 C :    0.141524
  17 O :   -0.141908
  18 C :   -0.136471
  19 C :    0.053401
  20 C :   -0.098393
  21 C :    0.016252
  22 C :   -0.019762
  23 C :   -0.067268
  24 S :    0.167971
  25 C :   -0.060479
  26 C :   -0.038029
  27 S :    0.174950
  28 C :   -0.025340
  29 C :   -0.045665
  30 S :    0.158617
  31 C :   -0.094579
  32 C :    0.128536
  33 N :   -0.060791
  34 N :   -0.110981
  35 C :   -0.022900
  36 C :   -0.082164
  37 C :   -0.113794
  38 N :    0.076497
  39 O :   -0.116401
  40 N :    0.050461
  41 C :    0.170093
  42 C :   -0.151028
  43 C :   -0.004165
  44 C :   -0.036618
  45 C :   -0.082895
  46 S :    0.200757
  47 C :   -0.060315
  48 C :   -0.043721
  49 S :    0.170578
  50 C :   -0.002122
  51 C :   -0.116570
  52 S :    0.164525
  53 C :    0.048103
  54 C :   -0.097478
  55 C :    0.312276
  56 C :   -0.356106
  57 C :   -0.182906
  58 N :    0.143970
  59 C :   -0.201459
  60 N :    0.156466
  61 C :    0.046353
  62 C :    0.003204
  63 C :    0.159493
  64 O :   -0.161330
  65 C :   -0.087407
  66 C :    0.101492
  67 C :    0.096433
  68 C :   -0.084665
  69 C :   -0.019432
  70 C :    0.034322
  71 C :    0.037024
  72 C :   -0.017648
  73 H :   -0.011627
  74 H :   -0.006455
  75 H :   -0.011126
  76 H :   -0.004301
  77 H :   -0.004852
  78 H :   -0.017868
  79 H :    0.028376
  80 H :    0.001011
  81 H :   -0.009294
  82 H :    0.040003
  83 H :    0.028306
  84 H :    0.044797
  85 H :    0.016765
  86 H :    0.037031
  87 H :    0.033442
  88 H :    0.003109
  89 H :    0.020227
  90 H :    0.012090
  91 H :   -0.015270
  92 H :   -0.007961
  93 H :   -0.009817
  94 H :   -0.005074
  95 H :   -0.006716
  96 H :   -0.018608
Sum of atomic charges:   -0.0000000

LOEWDIN ATOMIC CHARGES
----------------------
   0 C :    0.059051
   1 C :   -0.140062
   2 C :   -0.019259
   3 N :   -0.050517
   4 C :   -0.035165
   5 N :   -0.047009
   6 C :   -0.022548
   7 C :   -0.056997
   8 C :    0.032674
   9 C :   -0.009248
  10 C :   -0.005250
  11 C :    0.015316
  12 C :   -0.006782
  13 C :   -0.012718
  14 C :   -0.013271
  15 C :   -0.008910
  16 C :    0.083828
  17 O :   -0.143096
  18 C :   -0.095417
  19 C :    0.050835
  20 C :   -0.171978
  21 C :   -0.017084
  22 C :   -0.192710
  23 C :   -0.195496
  24 S :    0.458681
  25 C :   -0.216576
  26 C :   -0.183211
  27 S :    0.422733
  28 C :   -0.054211
  29 C :   -0.151081
  30 S :    0.441306
  31 C :   -0.047993
  32 C :   -0.023867
  33 N :   -0.003015
  34 N :   -0.018160
  35 C :   -0.049125
  36 C :   -0.061877
  37 C :   -0.081639
  38 N :    0.000250
  39 O :    0.055934
  40 N :   -0.010806
  41 C :   -0.021082
  42 C :   -0.159583
  43 C :   -0.070808
  44 C :   -0.180365
  45 C :   -0.230088
  46 S :    0.457160
  47 C :   -0.194612
  48 C :   -0.198454
  49 S :    0.417118
  50 C :   -0.012257
  51 C :   -0.176182
  52 S :    0.444720
  53 C :    0.048845
  54 C :   -0.100165
  55 C :    0.078016
  56 C :   -0.145556
  57 C :   -0.016880
  58 N :   -0.058314
  59 C :   -0.026118
  60 N :   -0.053903
  61 C :   -0.025889
  62 C :   -0.054148
  63 C :    0.088288
  64 O :   -0.147223
  65 C :    0.029895
  66 C :   -0.008708
  67 C :   -0.006687
  68 C :    0.018672
  69 C :   -0.005610
  70 C :   -0.014759
  71 C :   -0.013480
  72 C :   -0.010429
  73 H :    0.039400
  74 H :    0.038498
  75 H :    0.034140
  76 H :    0.033214
  77 H :    0.032904
  78 H :    0.031779
  79 H :    0.052471
  80 H :    0.041723
  81 H :    0.038230
  82 H :    0.035134
  83 H :    0.036356
  84 H :    0.040441
  85 H :    0.018662
  86 H :    0.039008
  87 H :    0.034928
  88 H :    0.036394
  89 H :    0.038629
  90 H :    0.043476
  91 H :    0.037898
  92 H :    0.038829
  93 H :    0.034512
  94 H :    0.032878
  95 H :    0.032198
  96 H :    0.031353

  Mayer bond orders larger than 0.100000
B(  0-C ,  1-C ) :   1.6642 B(  0-C ,  6-C ) :   1.0036 B(  0-C , 18-C ) :   1.0279
B(  1-C ,  2-C ) :   1.1364 B(  1-C ,  4-C ) :   1.1459 B(  2-C ,  3-N ) :   2.9914
B(  4-C ,  5-N ) :   3.0274 B(  6-C ,  7-C ) :   1.2131 B(  6-C , 11-C ) :   1.4586
B(  7-C ,  8-C ) :   1.4760 B(  7-C , 16-C ) :   0.9201 B(  8-C ,  9-C ) :   1.1852
B(  8-C , 73-H ) :   1.0153 B(  9-C , 10-C ) :   1.2554 B(  9-C , 15-C ) :   1.2472
B( 10-C , 11-C ) :   1.2042 B( 10-C , 12-C ) :   1.2403 B( 11-C , 74-H ) :   0.9944
B( 12-C , 13-C ) :   1.4897 B( 12-C , 75-H ) :   0.9973 B( 13-C , 14-C ) :   1.2604
B( 13-C , 76-H ) :   0.9890 B( 14-C , 15-C ) :   1.4886 B( 14-C , 77-H ) :   0.9890
B( 15-C , 78-H ) :   0.9970 B( 16-C , 17-O ) :   2.2753 B( 16-C , 18-C ) :   0.9344
B( 18-C , 19-C ) :   1.6605 B( 19-C , 20-C ) :   1.1313 B( 19-C , 79-H ) :   0.9489
B( 20-C , 21-C ) :   1.4679 B( 20-C , 24-S ) :   1.0845 B( 21-C , 22-C ) :   1.2780
B( 21-C , 80-H ) :   1.0040 B( 22-C , 23-C ) :   1.4412 B( 22-C , 27-S ) :   1.0477
B( 23-C , 24-S ) :   1.0934 B( 23-C , 25-C ) :   1.3094 B( 25-C , 26-C ) :   1.4795
B( 25-C , 30-S ) :   1.0779 B( 26-C , 27-S ) :   1.0648 B( 26-C , 28-C ) :   1.2168
B( 28-C , 29-C ) :   1.6355 B( 28-C , 81-H ) :   1.0035 B( 29-C , 30-S ) :   1.1144
B( 29-C , 31-C ) :   0.9364 B( 31-C , 32-C ) :   1.1061 B( 31-C , 33-N ) :   0.9569
B( 31-C , 37-C ) :   0.9118 B( 32-C , 82-H ) :   0.9408 B( 32-C , 83-H ) :   0.9495
B( 32-C , 84-H ) :   0.9555 B( 33-N , 34-N ) :   1.8732 B( 34-N , 35-C ) :   0.9452
B( 35-C , 36-C ) :   0.9413 B( 35-C , 41-C ) :   1.0605 B( 35-C , 42-C ) :   0.9399
B( 36-C , 37-C ) :   1.2148 B( 36-C , 40-N ) :   1.7015 B( 37-C , 38-N ) :   1.7447
B( 38-N , 39-O ) :   1.0527 B( 38-N , 40-N ) :   0.1513 B( 39-O , 40-N ) :   1.0438
B( 41-C , 85-H ) :   0.9441 B( 41-C , 86-H ) :   0.9567 B( 41-C , 87-H ) :   0.9468
B( 42-C , 43-C ) :   1.6286 B( 42-C , 46-S ) :   1.1364 B( 43-C , 44-C ) :   1.2259
B( 43-C , 88-H ) :   0.9905 B( 44-C , 45-C ) :   1.4810 B( 44-C , 49-S ) :   1.0621
B( 45-C , 46-S ) :   1.0447 B( 45-C , 47-C ) :   1.3059 B( 47-C , 48-C ) :   1.4164
B( 47-C , 52-S ) :   1.1084 B( 48-C , 49-S ) :   1.0433 B( 48-C , 50-C ) :   1.2907
B( 50-C , 51-C ) :   1.4486 B( 50-C , 89-H ) :   0.9768 B( 51-C , 52-S ) :   1.0626
B( 51-C , 53-C ) :   1.2313 B( 53-C , 54-C ) :   1.5839 B( 53-C , 90-H ) :   0.9139
B( 54-C , 55-C ) :   1.0786 B( 54-C , 63-C ) :   0.9426 B( 55-C , 56-C ) :   1.6223
B( 55-C , 61-C ) :   0.9820 B( 56-C , 57-C ) :   1.1487 B( 56-C , 59-C ) :   1.1385
B( 57-C , 58-N ) :   2.9657 B( 59-C , 60-N ) :   2.9854 B( 61-C , 62-C ) :   1.2179
B( 61-C , 68-C ) :   1.4523 B( 62-C , 63-C ) :   0.9547 B( 62-C , 65-C ) :   1.4694
B( 63-C , 64-O ) :   2.1621 B( 65-C , 66-C ) :   1.1771 B( 65-C , 91-H ) :   1.0164
B( 66-C , 67-C ) :   1.2581 B( 66-C , 72-C ) :   1.2440 B( 67-C , 68-C ) :   1.2036
B( 67-C , 69-C ) :   1.2420 B( 68-C , 92-H ) :   0.9896 B( 69-C , 70-C ) :   1.4877
B( 69-C , 93-H ) :   0.9968 B( 70-C , 71-C ) :   1.2612 B( 70-C , 94-H ) :   0.9888
B( 71-C , 72-C ) :   1.4887 B( 71-C , 95-H ) :   0.9879 B( 72-C , 96-H ) :   0.9973

-----------------------------------------------------------------------------
         ABSORPTION SPECTRUM VIA TRANSITION ELECTRIC DIPOLE MOMENTS
-----------------------------------------------------------------------------
State   Energy  Wavelength   fosc         T2         TX        TY        TZ
        (cm-1)    (nm)                  (au**2)     (au)      (au)      (au)
-----------------------------------------------------------------------------
   0   20899.6    478.5   0.974008620  15.34263   1.98008   3.34521  -0.48113
   1   21844.8    457.8   1.081972234  16.30587   0.47180  -4.00167  -0.26446
   2   26163.0    382.2   0.156367001   1.96758  -1.26817  -0.27288   0.53372
   3   26730.7    374.1   0.007542342   0.09289  -0.17197  -0.17441  -0.18138
   4   27127.0    368.6   0.029876012   0.36257   0.38270   0.43689   0.15888
   5   27171.3    368.0   0.088682974   1.07450  -0.26981   0.84287  -0.53970
   6   28145.7    355.3   0.006730775   0.07873   0.19132   0.12400   0.16355
   7   28429.5    351.7   0.171642063   1.98761   0.37357  -1.03608   0.88011
   8   28620.9    349.4   0.012312554   0.14163  -0.30451   0.17810  -0.13106
   9   29100.3    343.6   0.075954824   0.85928  -0.14547   0.80211  -0.44129
  10   29376.5    340.4   0.006728458   0.07540  -0.03700   0.21575  -0.16579
  11   29622.2    337.6   0.033149158   0.36841  -0.18327  -0.49500   0.29967
  12   30191.0    331.2   0.235437857   2.56729   0.36608  -1.01377   1.18556
  13   30739.6    325.3   0.494865683   5.29987  -1.19592  -1.31489   1.46311
  14   32173.0    310.8   0.000746144   0.00763   0.08586   0.01588   0.00336
  15   33459.3    298.9   0.432027775   4.25080  -1.08128  -0.63939   1.63487
  16   33748.8    296.3   0.549134136   5.35668  -0.60024   1.33316  -1.79418
  17   34077.3    293.5   0.054367426   0.52523   0.66739   0.18474  -0.21375
  18   34108.6    293.2   0.199553158   1.92606  -0.20828   0.89096  -1.04349
  19   34409.6    290.6   0.322214134   3.08277   1.41143   0.47497  -0.93008
  20   34619.2    288.9   0.009747055   0.09269   0.23252   0.19326  -0.03567
  21   35269.7    283.5   0.007292098   0.06807   0.11958  -0.00434  -0.23183
  22   35642.7    280.6   0.201822019   1.86412  -0.22046   1.32931  -0.22010
  23   36040.8    277.5   0.028109293   0.25676  -0.08298   0.42013   0.27087
  24   36228.7    276.0   0.083564484   0.75935  -0.85367   0.13517   0.11104
  25   36722.3    272.3   0.057711680   0.51738  -0.09216   0.60484   0.37823
  26   36797.2    271.8   0.043042731   0.38509   0.12339   0.59838   0.10864
  27   37055.9    269.9   0.024131400   0.21439  -0.14536   0.13315  -0.41896
  28   37169.3    269.0   0.060718735   0.53779  -0.00937  -0.30290   0.66780
  29   37270.3    268.3   0.167273396   1.47754   1.03330  -0.61939   0.16185
  30   37624.8    265.8   0.019410436   0.16984   0.02787  -0.34903  -0.21735
  31   37747.0    264.9   0.019357047   0.16882   0.09289   0.30057   0.26429
  32   37855.9    264.2   0.078899696   0.68615  -0.77586   0.11741  -0.26533
  33   37919.5    263.7   0.024095583   0.20919   0.17252  -0.32326  -0.27375
  34   38111.7    262.4   0.003997727   0.03453  -0.04459  -0.17915  -0.02122
  35   39237.2    254.9   0.010436530   0.08757   0.01019   0.01547  -0.29533
  36   39366.3    254.0   0.080184919   0.67057  -0.09659  -0.08629  -0.80857
  37   39625.5    252.4   0.141904889   1.17896  -0.35129  -0.78768  -0.65964
  38   39712.1    251.8   0.133421068   1.10606   0.30861   0.83167   0.56492
  39   39999.5    250.0   0.143450556   1.18066  -0.78310   0.23378  -0.71607
  40   40250.0    248.4   0.000733250   0.00600   0.01647   0.03716   0.06592

FINAL SINGLE POINT ENERGY     -5196.771407409175

DIPOLE MOMENT
-------------
                                X             Y             Z
Electronic contribution:     16.49380     -11.74350       1.94911
Nuclear contribution   :    -16.98734      11.13769      -2.32965
                        -----------------------------------------
Total Dipole Moment    :     -0.49354      -0.60580      -0.38054
                        -----------------------------------------
Magnitude (a.u.)       :      0.86913
Magnitude (Debye)      :      2.20916

Rotational constants in cm-1:     0.001796     0.000194     0.000187
Rotational constants in MHz :    53.846223     5.820181     5.608099

                             ****ORCA TERMINATED NORMALLY****
TOTAL RUN TIME: 0 days 0 hours 11 minutes 44 seconds 818 msec
